<event>
 6   1  0.1826851E-04  0.5089601E+03  0.7546771E-02  0.9379981E-01
        -11   -1    0    0    0    0  0.00000000000E+00  0.00000000000E+00  0.50000000000E+03  0.50000000000E+03  0.00000000000E+00 0. -1.
         11   -1    0    0    0    0 -0.00000000000E+00 -0.00000000000E+00 -0.50000000000E+03  0.50000000000E+03  0.00000000000E+00 0. -1.
        -11    1    1    2    0    0 -0.21118956596E+02 -0.40035091638E+02  0.48894923492E+03  0.49103988964E+03  0.00000000000E+00 0. -1.
         11    1    1    2    0    0  0.25374915980E+01 -0.91769001331E+01 -0.40517665674E+03  0.40528851147E+03  0.00000000000E+00 0. -1.
        -15    1    1    2    0    0  0.21959369269E+02  0.38785861074E+02 -0.45084230292E+02  0.63421624608E+02  0.17770000000E+01 0. -1.
         15    1    1    2    0    0 -0.33779042713E+01  0.10426130697E+02 -0.38688347885E+02  0.40249974282E+02  0.17770000000E+01 0. -1.
</event>
<event>
 6   1  0.1826851E-04  0.5001292E+03  0.7546771E-02  0.9399521E-01
        -11   -1    0    0    0    0  0.00000000000E+00  0.00000000000E+00  0.50000000000E+03  0.50000000000E+03  0.00000000000E+00 0.  1.
         11   -1    0    0    0    0 -0.00000000000E+00 -0.00000000000E+00 -0.50000000000E+03  0.50000000000E+03  0.00000000000E+00 0. -1.
        -11    1    1    2    0    0  0.69236766728E+01 -0.19327667426E+01  0.39717181233E+03  0.39723685806E+03  0.00000000000E+00 0.  1.
         11    1    1    2    0    0 -0.83292726666E+01  0.27185153856E+01 -0.49979397679E+03  0.49987076965E+03  0.00000000000E+00 0. -1.
        -15    1    1    2    0    0  0.36673380629E+01  0.81526742503E+00  0.58961830369E+02  0.59108114493E+02  0.17770000000E+01 0.  1.
         15    1    1    2    0    0 -0.22617420692E+01 -0.16010160680E+01  0.43660334089E+02  0.43784257804E+02  0.17770000000E+01 0. -1.
</event>
<event>
 6   1  0.1826851E-04  0.5009827E+03  0.7546771E-02  0.9397614E-01
        -11   -1    0    0    0    0  0.00000000000E+00  0.00000000000E+00  0.50000000000E+03  0.50000000000E+03  0.00000000000E+00 0.  1.
         11   -1    0    0    0    0 -0.00000000000E+00 -0.00000000000E+00 -0.50000000000E+03  0.50000000000E+03  0.00000000000E+00 0.  1.
        -11    1    1    2    0    0  0.11961616534E+02  0.22681361687E+01  0.36494890819E+03  0.36515192770E+03  0.00000000000E+00 0.  1.
         11    1    1    2    0    0  0.56423063025E+01 -0.13130934513E+02 -0.49881262193E+03  0.49901732321E+03  0.00000000000E+00 0.  1.
        -15    1    1    2    0    0 -0.10385831110E+02  0.21266941812E+01  0.82780777604E+02  0.83475764062E+02  0.17770000000E+01 0.  1.
         15    1    1    2    0    0 -0.72180917265E+01  0.87361041633E+01  0.51082936140E+02  0.52354985033E+02  0.17770000000E+01 0. -1.
</event>
<event>
 6   1  0.1826851E-04  0.5017515E+03  0.7546771E-02  0.9395899E-01
        -11   -1    0    0    0    0  0.00000000000E+00  0.00000000000E+00  0.50000000000E+03  0.50000000000E+03  0.00000000000E+00 0.  1.
         11   -1    0    0    0    0 -0.00000000000E+00 -0.00000000000E+00 -0.50000000000E+03  0.50000000000E+03  0.00000000000E+00 0.  1.
        -11    1    1    2    0    0 -0.65039210269E+01 -0.31208657352E+01  0.46281558713E+03  0.46287180567E+03  0.00000000000E+00 0.  1.
         11    1    1    2    0    0 -0.39943554426E+01 -0.59313415627E+01 -0.49819722178E+03  0.49824853987E+03  0.00000000000E+00 0.  1.
        -15    1    1    2    0    0  0.82847818746E+01  0.96475372281E+01  0.31635715323E+02  0.34142185025E+02  0.17770000000E+01 0.  1.
         15    1    1    2    0    0  0.22134945950E+01 -0.59532993017E+00  0.37459193336E+01  0.47374694407E+01  0.17770000000E+01 0. -1.
</event>
<event>
 6   1  0.1826851E-04  0.4671085E+03  0.7546771E-02  0.9476572E-01
        -11   -1    0    0    0    0  0.00000000000E+00  0.00000000000E+00  0.50000000000E+03  0.50000000000E+03  0.00000000000E+00 0. -1.
         11   -1    0    0    0    0 -0.00000000000E+00 -0.00000000000E+00 -0.50000000000E+03  0.50000000000E+03  0.00000000000E+00 0. -1.
        -11    1    1    2    0    0 -0.54295702304E+01 -0.58985319386E+02  0.45603093483E+03  0.45986189411E+03  0.00000000000E+00 0. -1.
         11    1    1    2    0    0  0.96673832506E+01  0.11446231287E+01 -0.47627296811E+03  0.47637244737E+03  0.00000000000E+00 0. -1.
        -15    1    1    2    0    0 -0.60575765128E+01  0.22342707637E+02  0.15371875383E+02  0.27844983382E+02  0.17770000000E+01 0. -1.
         15    1    1    2    0    0  0.18197634926E+01  0.35497988621E+02  0.48701578955E+01  0.35920675136E+02  0.17770000000E+01 0.  1.
</event>
<event>
 6   1  0.1826851E-04  0.5020476E+03  0.7546771E-02  0.9395240E-01
        -11   -1    0    0    0    0  0.00000000000E+00  0.00000000000E+00  0.50000000000E+03  0.50000000000E+03  0.00000000000E+00 0. -1.
         11   -1    0    0    0    0 -0.00000000000E+00 -0.00000000000E+00 -0.50000000000E+03  0.50000000000E+03  0.00000000000E+00 0. -1.
        -11    1    1    2    0    0  0.47133160019E+01  0.42219817988E+01  0.46174827458E+03  0.46179163002E+03  0.00000000000E+00 0. -1.
         11    1    1    2    0    0  0.52504345214E+01 -0.58004056644E+01 -0.49789095854E+03  0.49795242580E+03  0.00000000000E+00 0. -1.
        -15    1    1    2    0    0 -0.76692035066E+01 -0.24781214697E+01  0.74038632206E+01  0.11087501433E+02  0.17770000000E+01 0. -1.
         15    1    1    2    0    0 -0.22945470167E+01  0.40565453353E+01  0.28738820735E+02  0.29168442747E+02  0.17770000000E+01 0.  1.
</event>
<event>
 6   1  0.1826851E-04  0.5059264E+03  0.7546771E-02  0.9386646E-01
        -11   -1    0    0    0    0  0.00000000000E+00  0.00000000000E+00  0.50000000000E+03  0.50000000000E+03  0.00000000000E+00 0.  1.
         11   -1    0    0    0    0 -0.00000000000E+00 -0.00000000000E+00 -0.50000000000E+03  0.50000000000E+03  0.00000000000E+00 0.  1.
        -11    1    1    2    0    0  0.59733831096E+01 -0.64198749164E+01  0.49399577330E+03  0.49407359789E+03  0.00000000000E+00 0.  1.
         11    1    1    2    0    0  0.87059374538E+01 -0.10832978955E+02 -0.47047951236E+03  0.47068473348E+03  0.00000000000E+00 0.  1.
        -15    1    1    2    0    0 -0.90887296271E+01  0.63063503361E+01 -0.18940512288E+02  0.22006267188E+02  0.17770000000E+01 0. -1.
         15    1    1    2    0    0 -0.55905909363E+01  0.10946503536E+02 -0.45757486506E+01  0.13235401444E+02  0.17770000000E+01 0.  1.
</event>
<event>
 6   1  0.1826851E-04  0.5009355E+03  0.7546771E-02  0.9397719E-01
        -11   -1    0    0    0    0  0.00000000000E+00  0.00000000000E+00  0.50000000000E+03  0.50000000000E+03  0.00000000000E+00 0.  1.
         11   -1    0    0    0    0 -0.00000000000E+00 -0.00000000000E+00 -0.50000000000E+03  0.50000000000E+03  0.00000000000E+00 0.  1.
        -11    1    1    2    0    0 -0.16739771928E+02  0.21676576908E+01  0.49877898471E+03  0.49906451917E+03  0.00000000000E+00 0.  1.
         11    1    1    2    0    0  0.12223776630E+00 -0.55370580911E+01 -0.37725245399E+03  0.37729310622E+03  0.00000000000E+00 0.  1.
        -15    1    1    2    0    0  0.17377290129E+02 -0.12903284269E+01 -0.10082221130E+03  0.10233235647E+03  0.17770000000E+01 0.  1.
         15    1    1    2    0    0 -0.75975596699E+00  0.46597288273E+01 -0.20704319417E+02  0.21310018146E+02  0.17770000000E+01 0. -1.
</event>
<event>
 6   1  0.1826851E-04  0.5007585E+03  0.7546771E-02  0.9398114E-01
        -11   -1    0    0    0    0  0.00000000000E+00  0.00000000000E+00  0.50000000000E+03  0.50000000000E+03  0.00000000000E+00 0. -1.
         11   -1    0    0    0    0 -0.00000000000E+00 -0.00000000000E+00 -0.50000000000E+03  0.50000000000E+03  0.00000000000E+00 0. -1.
        -11    1    1    2    0    0 -0.15876264852E+02 -0.13347865717E+02  0.49881043304E+03  0.49924149408E+03  0.00000000000E+00 0. -1.
         11    1    1    2    0    0  0.64601741737E+01 -0.27745905482E+01 -0.31833623222E+03  0.31841386425E+03  0.00000000000E+00 0. -1.
        -15    1    1    2    0    0  0.88525147008E+01  0.30173074612E+01 -0.35069795231E+02  0.36338951930E+02  0.17770000000E+01 0.  1.
         15    1    1    2    0    0  0.56357597798E+00  0.13105148804E+02 -0.14540440558E+03  0.14600568974E+03  0.17770000000E+01 0. -1.
</event>
<event>
 6   1  0.1826851E-04  0.5229067E+03  0.7546771E-02  0.9349964E-01
        -11   -1    0    0    0    0  0.00000000000E+00  0.00000000000E+00  0.50000000000E+03  0.50000000000E+03  0.00000000000E+00 0.  1.
         11   -1    0    0    0    0 -0.00000000000E+00 -0.00000000000E+00 -0.50000000000E+03  0.50000000000E+03  0.00000000000E+00 0.  1.
        -11    1    1    2    0    0  0.95495498602E+02 -0.46896245990E+02  0.38679915153E+03  0.40116359726E+03  0.00000000000E+00 0.  1.
         11    1    1    2    0    0 -0.27898783377E+02  0.38085858300E+01 -0.47626167786E+03  0.47709331711E+03  0.00000000000E+00 0.  1.
        -15    1    1    2    0    0 -0.40015715538E+02  0.35237673668E+02  0.64308168574E+02  0.83556264935E+02  0.17770000000E+01 0.  1.
         15    1    1    2    0    0 -0.27580999687E+02  0.78499864928E+01  0.25154357753E+02  0.38186820693E+02  0.17770000000E+01 0. -1.
</event>
<event>
 6   1  0.1826851E-04  0.4768422E+03  0.7546771E-02  0.9453172E-01
        -11   -1    0    0    0    0  0.00000000000E+00  0.00000000000E+00  0.50000000000E+03  0.50000000000E+03  0.00000000000E+00 0. -1.
         11   -1    0    0    0    0 -0.00000000000E+00 -0.00000000000E+00 -0.50000000000E+03  0.50000000000E+03  0.00000000000E+00 0. -1.
        -11    1    1    2    0    0 -0.99718967678E+01  0.13549150176E+02  0.48111850555E+03  0.48141254095E+03  0.00000000000E+00 0. -1.
         11    1    1    2    0    0  0.26234728396E+01  0.84285298486E+01 -0.47250977855E+03  0.47259222756E+03  0.00000000000E+00 0. -1.
        -15    1    1    2    0    0  0.96432297168E+01 -0.48265371234E+00 -0.19419676478E+02  0.21760202147E+02  0.17770000000E+01 0.  1.
         15    1    1    2    0    0 -0.22948057886E+01 -0.21495026312E+02  0.10810949477E+02  0.24235029345E+02  0.17770000000E+01 0. -1.
</event>
<event>
 6   1  0.1826851E-04  0.5001939E+03  0.7546771E-02  0.9399376E-01
        -11   -1    0    0    0    0  0.00000000000E+00  0.00000000000E+00  0.50000000000E+03  0.50000000000E+03  0.00000000000E+00 0.  1.
         11   -1    0    0    0    0 -0.00000000000E+00 -0.00000000000E+00 -0.50000000000E+03  0.50000000000E+03  0.00000000000E+00 0.  1.
        -11    1    1    2    0    0  0.17432095685E+01  0.67572841281E+01  0.42221287086E+03  0.42227053886E+03  0.00000000000E+00 0.  1.
         11    1    1    2    0    0  0.46668265435E+01 -0.67036996173E+01 -0.49973931705E+03  0.49980606625E+03  0.00000000000E+00 0.  1.
        -15    1    1    2    0    0 -0.53780469015E+01 -0.63128207741E+00  0.58878226395E+02  0.59153403773E+02  0.17770000000E+01 0. -1.
         15    1    1    2    0    0 -0.10319892105E+01  0.57769756660E+00  0.18648219792E+02  0.18769991119E+02  0.17770000000E+01 0.  1.
</event>
<event>
 6   1  0.1826851E-04  0.5042482E+03  0.7546771E-02  0.9390354E-01
        -11   -1    0    0    0    0  0.00000000000E+00  0.00000000000E+00  0.50000000000E+03  0.50000000000E+03  0.00000000000E+00 0.  1.
         11   -1    0    0    0    0 -0.00000000000E+00 -0.00000000000E+00 -0.50000000000E+03  0.50000000000E+03  0.00000000000E+00 0.  1.
        -11    1    1    2    0    0 -0.19598232698E+02  0.11265111165E+02  0.22200660130E+02  0.31683793407E+02  0.00000000000E+00 0.  1.
         11    1    1    2    0    0  0.29539370042E+02 -0.16833938716E+02 -0.49458454251E+03  0.49575177818E+03  0.00000000000E+00 0.  1.
        -15    1    1    2    0    0 -0.78941565324E+01  0.16118759153E+01  0.30935306152E+03  0.30946306768E+03  0.17770000000E+01 0.  1.
         15    1    1    2    0    0 -0.20469808112E+01  0.39569516358E+01  0.16303082086E+03  0.16310136074E+03  0.17770000000E+01 0.  1.
</event>
<event>
 6   1  0.1826851E-04  0.5031065E+03  0.7546771E-02  0.9392885E-01
        -11   -1    0    0    0    0  0.00000000000E+00  0.00000000000E+00  0.50000000000E+03  0.50000000000E+03  0.00000000000E+00 0.  1.
         11   -1    0    0    0    0 -0.00000000000E+00 -0.00000000000E+00 -0.50000000000E+03  0.50000000000E+03  0.00000000000E+00 0. -1.
        -11    1    1    2    0    0 -0.21309288186E+02 -0.16825647876E+02  0.89555626292E+02  0.93580972372E+02  0.00000000000E+00 0.  1.
         11    1    1    2    0    0 -0.21948026113E+01 -0.13889221278E+02 -0.49669448176E+03  0.49689348541E+03  0.00000000000E+00 0. -1.
        -15    1    1    2    0    0  0.20904731088E+02  0.27840613475E+02  0.39698905546E+03  0.39851671913E+03  0.17770000000E+01 0.  1.
         15    1    1    2    0    0  0.25993597097E+01  0.28742556789E+01  0.10149800013E+02  0.11008823094E+02  0.17770000000E+01 0. -1.
</event>
<event>
 6   1  0.1826851E-04  0.5000637E+03  0.7546771E-02  0.9399667E-01
        -11   -1    0    0    0    0  0.00000000000E+00  0.00000000000E+00  0.50000000000E+03  0.50000000000E+03  0.00000000000E+00 0.  1.
         11   -1    0    0    0    0 -0.00000000000E+00 -0.00000000000E+00 -0.50000000000E+03  0.50000000000E+03  0.00000000000E+00 0. -1.
        -11    1    1    2    0    0 -0.28362605255E+01 -0.23176014970E+01  0.90378194122E+02  0.90452383182E+02  0.00000000000E+00 0.  1.
         11    1    1    2    0    0  0.48800881872E+01  0.53120223673E+01 -0.49988422564E+03  0.49993626783E+03  0.00000000000E+00 0. -1.
        -15    1    1    2    0    0 -0.27966859759E+01  0.14627190692E+01  0.26275614088E+03  0.26278110339E+03  0.17770000000E+01 0.  1.
         15    1    1    2    0    0  0.75285831422E+00 -0.44571399395E+01  0.14674989064E+03  0.14683024560E+03  0.17770000000E+01 0. -1.
</event>
<event>
 6   1  0.1826851E-04  0.5154303E+03  0.7546771E-02  0.9365930E-01
        -11   -1    0    0    0    0  0.00000000000E+00  0.00000000000E+00  0.50000000000E+03  0.50000000000E+03  0.00000000000E+00 0. -1.
         11   -1    0    0    0    0 -0.00000000000E+00 -0.00000000000E+00 -0.50000000000E+03  0.50000000000E+03  0.00000000000E+00 0.  1.
        -11    1    1    2    0    0 -0.13145310710E+02 -0.37966583013E+02  0.41704863639E+03  0.41897950515E+03  0.00000000000E+00 0. -1.
         11    1    1    2    0    0 -0.43905736576E+02  0.66201634144E-01 -0.48257653984E+03  0.48456974203E+03  0.00000000000E+00 0.  1.
        -15    1    1    2    0    0  0.32094615360E+02  0.20748234324E+02  0.24516101935E+02  0.45439526249E+02  0.17770000000E+01 0. -1.
         15    1    1    2    0    0  0.24956431926E+02  0.17152147055E+02  0.41011801516E+02  0.51011226565E+02  0.17770000000E+01 0.  1.
</event>
<event>
 6   1  0.1826851E-04  0.5013981E+03  0.7546771E-02  0.9396687E-01
        -11   -1    0    0    0    0  0.00000000000E+00  0.00000000000E+00  0.50000000000E+03  0.50000000000E+03  0.00000000000E+00 0. -1.
         11   -1    0    0    0    0 -0.00000000000E+00 -0.00000000000E+00 -0.50000000000E+03  0.50000000000E+03  0.00000000000E+00 0. -1.
        -11    1    1    2    0    0 -0.11252950687E+02 -0.24185511550E+01  0.49846905585E+03  0.49860192331E+03  0.00000000000E+00 0. -1.
         11    1    1    2    0    0 -0.55973630528E+01  0.82884104727E+01 -0.42453903764E+03  0.42465682933E+03  0.00000000000E+00 0. -1.
        -15    1    1    2    0    0  0.62021332862E+01 -0.57513513834E+01 -0.20779224344E+02  0.22505074836E+02  0.17770000000E+01 0. -1.
         15    1    1    2    0    0  0.10648180454E+02 -0.11850793425E+00 -0.53150793871E+02  0.54236172516E+02  0.17770000000E+01 0.  1.
</event>
<event>
 6   1  0.1826851E-04  0.5006360E+03  0.7546771E-02  0.9398388E-01
        -11   -1    0    0    0    0  0.00000000000E+00  0.00000000000E+00  0.50000000000E+03  0.50000000000E+03  0.00000000000E+00 0.  1.
         11   -1    0    0    0    0 -0.00000000000E+00 -0.00000000000E+00 -0.50000000000E+03  0.50000000000E+03  0.00000000000E+00 0. -1.
        -11    1    1    2    0    0 -0.10758462116E+02 -0.44343734324E+01  0.49922839592E+03  0.49936399496E+03  0.00000000000E+00 0.  1.
         11    1    1    2    0    0 -0.28409605260E+01 -0.63985382393E+01 -0.37082151364E+03  0.37088759392E+03  0.00000000000E+00 0. -1.
        -15    1    1    2    0    0  0.11072279591E+02  0.92030197787E+01 -0.87677595009E+02  0.88869619916E+02  0.17770000000E+01 0. -1.
         15    1    1    2    0    0  0.25271430503E+01  0.16298918930E+01 -0.40729287271E+02  0.40878791203E+02  0.17770000000E+01 0.  1.
</event>
<event>
 6   1  0.1826851E-04  0.5041223E+03  0.7546771E-02  0.9390633E-01
        -11   -1    0    0    0    0  0.00000000000E+00  0.00000000000E+00  0.50000000000E+03  0.50000000000E+03  0.00000000000E+00 0. -1.
         11   -1    0    0    0    0 -0.00000000000E+00 -0.00000000000E+00 -0.50000000000E+03  0.50000000000E+03  0.00000000000E+00 0.  1.
        -11    1    1    2    0    0 -0.10996458989E+02  0.15418066001E+02  0.27199425735E+03  0.27265273683E+03  0.00000000000E+00 0. -1.
         11    1    1    2    0    0 -0.75144830843E+01 -0.20179333954E+02 -0.49540999772E+03  0.49587774584E+03  0.00000000000E+00 0.  1.
        -15    1    1    2    0    0  0.26193760303E+02  0.92080693929E+01  0.22006430073E+03  0.22181604046E+03  0.17770000000E+01 0.  1.
         15    1    1    2    0    0 -0.76828182295E+01 -0.44468014403E+01  0.33514396480E+01  0.96534768716E+01  0.17770000000E+01 0. -1.
</event>
<event>
 6   1  0.1826851E-04  0.4819002E+03  0.7546771E-02  0.9441246E-01
        -11   -1    0    0    0    0  0.00000000000E+00  0.00000000000E+00  0.50000000000E+03  0.50000000000E+03  0.00000000000E+00 0.  1.
         11   -1    0    0    0    0 -0.00000000000E+00 -0.00000000000E+00 -0.50000000000E+03  0.50000000000E+03  0.00000000000E+00 0.  1.
        -11    1    1    2    0    0  0.18032214413E+02  0.16546127667E+01  0.48655622595E+03  0.48689306784E+03  0.00000000000E+00 0.  1.
         11    1    1    2    0    0  0.98095692090E+01 -0.16169565288E+02 -0.47709030813E+03  0.47746501925E+03  0.00000000000E+00 0.  1.
        -15    1    1    2    0    0 -0.26340126219E+02  0.11653314807E+02 -0.41243118776E+01  0.29150809126E+02  0.17770000000E+01 0.  1.
         15    1    1    2    0    0 -0.15016574036E+01  0.28616377144E+01 -0.53416059379E+01  0.64911037861E+01  0.17770000000E+01 0. -1.
</event>
<event>
 6   1  0.1826851E-04  0.5010471E+03  0.7546771E-02  0.9397470E-01
        -11   -1    0    0    0    0  0.00000000000E+00  0.00000000000E+00  0.50000000000E+03  0.50000000000E+03  0.00000000000E+00 0. -1.
         11   -1    0    0    0    0 -0.00000000000E+00 -0.00000000000E+00 -0.50000000000E+03  0.50000000000E+03  0.00000000000E+00 0. -1.
        -11    1    1    2    0    0  0.38893046327E+01  0.95393688224E+01  0.38858944302E+03  0.38872597222E+03  0.00000000000E+00 0. -1.
         11    1    1    2    0    0 -0.16422288659E+01 -0.95619451999E+01 -0.49885858577E+03  0.49895291993E+03  0.00000000000E+00 0. -1.
        -15    1    1    2    0    0 -0.33143354976E+01 -0.10103686706E+02  0.47627922457E+02  0.48832837634E+02  0.17770000000E+01 0. -1.
         15    1    1    2    0    0  0.10672597308E+01  0.10126263083E+02  0.62641220290E+02  0.63488270222E+02  0.17770000000E+01 0.  1.
</event>
<event>
 6   1  0.1826851E-04  0.5004556E+03  0.7546771E-02  0.9398791E-01
        -11   -1    0    0    0    0  0.00000000000E+00  0.00000000000E+00  0.50000000000E+03  0.50000000000E+03  0.00000000000E+00 0.  1.
         11   -1    0    0    0    0 -0.00000000000E+00 -0.00000000000E+00 -0.50000000000E+03  0.50000000000E+03  0.00000000000E+00 0. -1.
        -11    1    1    2    0    0 -0.61167785926E+01 -0.91051887874E+01  0.16788027920E+03  0.16823824650E+03  0.00000000000E+00 0.  1.
         11    1    1    2    0    0  0.64360927348E+00 -0.88497171642E+01 -0.49946562377E+03  0.49954443352E+03  0.00000000000E+00 0. -1.
        -15    1    1    2    0    0  0.38448978525E+01  0.47851178910E+01  0.15163610422E+03  0.15177070344E+03  0.17770000000E+01 0.  1.
         15    1    1    2    0    0  0.16282714667E+01  0.13169788061E+02  0.17994924036E+03  0.18044661654E+03  0.17770000000E+01 0. -1.
</event>
<event>
 6   1  0.1826851E-04  0.5023676E+03  0.7546771E-02  0.9394528E-01
        -11   -1    0    0    0    0  0.00000000000E+00  0.00000000000E+00  0.50000000000E+03  0.50000000000E+03  0.00000000000E+00 0.  1.
         11   -1    0    0    0    0 -0.00000000000E+00 -0.00000000000E+00 -0.50000000000E+03  0.50000000000E+03  0.00000000000E+00 0.  1.
        -11    1    1    2    0    0 -0.23584399954E+02  0.53826877178E+01  0.49704405098E+03  0.49763238024E+03  0.00000000000E+00 0.  1.
         11    1    1    2    0    0  0.42414817859E+01  0.10734041891E+02 -0.42771731556E+03  0.42787300902E+03  0.00000000000E+00 0.  1.
        -15    1    1    2    0    0  0.17357747127E+02 -0.14184607883E+02 -0.49131027499E+02  0.54032490950E+02  0.17770000000E+01 0. -1.
         15    1    1    2    0    0  0.19851710407E+01 -0.19321217261E+01 -0.20195707925E+02  0.20462119784E+02  0.17770000000E+01 0.  1.
</event>
<event>
 6   1  0.1826851E-04  0.5045562E+03  0.7546771E-02  0.9389672E-01
        -11   -1    0    0    0    0  0.00000000000E+00  0.00000000000E+00  0.50000000000E+03  0.50000000000E+03  0.00000000000E+00 0.  1.
         11   -1    0    0    0    0 -0.00000000000E+00 -0.00000000000E+00 -0.50000000000E+03  0.50000000000E+03  0.00000000000E+00 0. -1.
        -11    1    1    2    0    0  0.12415877228E+02 -0.92703004547E+01  0.49520142933E+03  0.49544378903E+03  0.00000000000E+00 0.  1.
         11    1    1    2    0    0 -0.64884631192E+01 -0.91052475117E+01 -0.46797338733E+03  0.46810692895E+03  0.00000000000E+00 0. -1.
        -15    1    1    2    0    0 -0.16258363343E+01  0.15063737617E+02 -0.26650744336E+02  0.30707970259E+02  0.17770000000E+01 0. -1.
         15    1    1    2    0    0 -0.43015777744E+01  0.33118103495E+01 -0.57729765982E+00  0.57413117602E+01  0.17770000000E+01 0.  1.
</event>
<event>
 6   1  0.1826851E-04  0.5001225E+03  0.7546771E-02  0.9399536E-01
        -11   -1    0    0    0    0  0.00000000000E+00  0.00000000000E+00  0.50000000000E+03  0.50000000000E+03  0.00000000000E+00 0. -1.
         11   -1    0    0    0    0 -0.00000000000E+00 -0.00000000000E+00 -0.50000000000E+03  0.50000000000E+03  0.00000000000E+00 0.  1.
        -11    1    1    2    0    0  0.15688330828E+01  0.61941405320E+01  0.11393147580E+03  0.11411051570E+03  0.00000000000E+00 0. -1.
         11    1    1    2    0    0  0.49160092309E+01 -0.55131650528E+01 -0.49982288707E+03  0.49987746556E+03  0.00000000000E+00 0.  1.
        -15    1    1    2    0    0 -0.69911379173E+01 -0.11185959139E+01  0.34419165400E+03  0.34426905129E+03  0.17770000000E+01 0. -1.
         15    1    1    2    0    0  0.50629560355E+00  0.43762043469E+00  0.41699757270E+02  0.41742967459E+02  0.17770000000E+01 0. -1.
</event>
<event>
 6   1  0.1826851E-04  0.5003980E+03  0.7546771E-02  0.9398919E-01
        -11   -1    0    0    0    0  0.00000000000E+00  0.00000000000E+00  0.50000000000E+03  0.50000000000E+03  0.00000000000E+00 0. -1.
         11   -1    0    0    0    0 -0.00000000000E+00 -0.00000000000E+00 -0.50000000000E+03  0.50000000000E+03  0.00000000000E+00 0.  1.
        -11    1    1    2    0    0 -0.15645248181E+01 -0.32524329963E+00  0.12316287832E+01  0.20175308102E+01  0.00000000000E+00 0. -1.
         11    1    1    2    0    0  0.63993074634E+01 -0.40397627582E+01 -0.49954463380E+03  0.49960195353E+03  0.00000000000E+00 0.  1.
        -15    1    1    2    0    0 -0.55339639972E+00  0.54921784469E-01  0.12456967648E+03  0.12458359158E+03  0.17770000000E+01 0. -1.
         15    1    1    2    0    0 -0.42813862456E+01  0.43100842733E+01  0.37374332853E+03  0.37379692407E+03  0.17770000000E+01 0. -1.
</event>
<event>
 6   1  0.1826851E-04  0.5005153E+03  0.7546771E-02  0.9398657E-01
        -11   -1    0    0    0    0  0.00000000000E+00  0.00000000000E+00  0.50000000000E+03  0.50000000000E+03  0.00000000000E+00 0.  1.
         11   -1    0    0    0    0 -0.00000000000E+00 -0.00000000000E+00 -0.50000000000E+03  0.50000000000E+03  0.00000000000E+00 0. -1.
        -11    1    1    2    0    0 -0.22487853732E+02  0.11325199957E+02  0.49884967721E+03  0.49948469864E+03  0.00000000000E+00 0.  1.
         11    1    1    2    0    0 -0.13987532052E+01  0.93581900228E-01 -0.90111107846E+02  0.90122011880E+02  0.00000000000E+00 0. -1.
        -15    1    1    2    0    0  0.29040426896E+02 -0.11642260913E+02 -0.34285540217E+03  0.34428458165E+03  0.17770000000E+01 0. -1.
         15    1    1    2    0    0 -0.51538199588E+01  0.22347905598E+00 -0.65883167191E+02  0.66108707832E+02  0.17770000000E+01 0.  1.
</event>
<event>
 6   1  0.1826851E-04  0.5023645E+03  0.7546771E-02  0.9394534E-01
        -11   -1    0    0    0    0  0.00000000000E+00  0.00000000000E+00  0.50000000000E+03  0.50000000000E+03  0.00000000000E+00 0. -1.
         11   -1    0    0    0    0 -0.00000000000E+00 -0.00000000000E+00 -0.50000000000E+03  0.50000000000E+03  0.00000000000E+00 0. -1.
        -11    1    1    2    0    0 -0.14370114373E+02  0.12112647657E+02  0.36070498738E+03  0.36119427507E+03  0.00000000000E+00 0. -1.
         11    1    1    2    0    0 -0.33666885635E+01  0.66880638981E+01 -0.49757916607E+03  0.49763550044E+03  0.00000000000E+00 0. -1.
        -15    1    1    2    0    0 -0.10383831336E+00 -0.11110349462E+01  0.10466226076E+00  0.21009198547E+01  0.17770000000E+01 0.  1.
         15    1    1    2    0    0  0.17840641250E+02 -0.17689676608E+02  0.13676951643E+03  0.13906930464E+03  0.17770000000E+01 0. -1.
</event>
<event>
 6   1  0.1826851E-04  0.5018002E+03  0.7546771E-02  0.9395791E-01
        -11   -1    0    0    0    0  0.00000000000E+00  0.00000000000E+00  0.50000000000E+03  0.50000000000E+03  0.00000000000E+00 0.  1.
         11   -1    0    0    0    0 -0.00000000000E+00 -0.00000000000E+00 -0.50000000000E+03  0.50000000000E+03  0.00000000000E+00 0. -1.
        -11    1    1    2    0    0  0.51640215925E+01  0.64630438950E+01  0.45837190879E+03  0.45844655612E+03  0.00000000000E+00 0.  1.
         11    1    1    2    0    0 -0.70996384809E+00  0.71971256342E+01 -0.49814729101E+03  0.49819978543E+03  0.00000000000E+00 0. -1.
        -15    1    1    2    0    0 -0.19758372293E+01 -0.17836290878E+01  0.23494254067E+01  0.39702385597E+01  0.17770000000E+01 0.  1.
         15    1    1    2    0    0 -0.24782205152E+01 -0.11876540441E+02  0.37425956813E+02  0.39383419889E+02  0.17770000000E+01 0. -1.
</event>
<event>
 6   1  0.1826851E-04  0.5010550E+03  0.7546771E-02  0.9397452E-01
        -11   -1    0    0    0    0  0.00000000000E+00  0.00000000000E+00  0.50000000000E+03  0.50000000000E+03  0.00000000000E+00 0.  1.
         11   -1    0    0    0    0 -0.00000000000E+00 -0.00000000000E+00 -0.50000000000E+03  0.50000000000E+03  0.00000000000E+00 0. -1.
        -11    1    1    2    0    0 -0.52593513067E+02 -0.18838161561E+02  0.32379595621E+03  0.32857993731E+03  0.00000000000E+00 0.  1.
         11    1    1    2    0    0  0.48817462747E+02  0.21585418477E+02 -0.49608169909E+03  0.49894501413E+03  0.00000000000E+00 0. -1.
        -15    1    1    2    0    0  0.37699426308E+01 -0.20047858725E+01  0.15704788037E+03  0.15711596383E+03  0.17770000000E+01 0.  1.
         15    1    1    2    0    0  0.61076898512E-02 -0.74247104385E+00  0.15237862512E+02  0.15359084722E+02  0.17770000000E+01 0.  1.
</event>
<event>
 6   1  0.1826851E-04  0.5004638E+03  0.7546771E-02  0.9398772E-01
        -11   -1    0    0    0    0  0.00000000000E+00  0.00000000000E+00  0.50000000000E+03  0.50000000000E+03  0.00000000000E+00 0.  1.
         11   -1    0    0    0    0 -0.00000000000E+00 -0.00000000000E+00 -0.50000000000E+03  0.50000000000E+03  0.00000000000E+00 0. -1.
        -11    1    1    2    0    0 -0.13440084235E+02 -0.24250036271E+01  0.49934944154E+03  0.49953616613E+03  0.00000000000E+00 0.  1.
         11    1    1    2    0    0 -0.47393618986E+01 -0.10385460473E+01 -0.31143083109E+03  0.31146862231E+03  0.00000000000E+00 0. -1.
        -15    1    1    2    0    0  0.11731969308E+02  0.54189498277E+00 -0.14247564214E+03  0.14296992371E+03  0.17770000000E+01 0. -1.
         15    1    1    2    0    0  0.64474768261E+01  0.29216546916E+01 -0.45442968314E+02  0.46025287850E+02  0.17770000000E+01 0.  1.
</event>
<event>
 6   1  0.1826851E-04  0.5024570E+03  0.7546771E-02  0.9394329E-01
        -11   -1    0    0    0    0  0.00000000000E+00  0.00000000000E+00  0.50000000000E+03  0.50000000000E+03  0.00000000000E+00 0. -1.
         11   -1    0    0    0    0 -0.00000000000E+00 -0.00000000000E+00 -0.50000000000E+03  0.50000000000E+03  0.00000000000E+00 0.  1.
        -11    1    1    2    0    0  0.13082926838E+02  0.21521419367E+03  0.44839790360E+03  0.49754295501E+03  0.00000000000E+00 0. -1.
         11    1    1    2    0    0  0.13080518024E+02 -0.15875768203E+03 -0.36244587794E+03  0.39590670112E+03  0.00000000000E+00 0.  1.
        -15    1    1    2    0    0 -0.26598734678E+01 -0.27571073324E+01 -0.43676805392E+01  0.60754366098E+01  0.17770000000E+01 0.  1.
         15    1    1    2    0    0 -0.23503571394E+02 -0.53699404306E+02 -0.81584345121E+02  0.10047490726E+03  0.17770000000E+01 0.  1.
</event>
<event>
 6   1  0.1826851E-04  0.4811086E+03  0.7546771E-02  0.9443102E-01
        -11   -1    0    0    0    0  0.00000000000E+00  0.00000000000E+00  0.50000000000E+03  0.50000000000E+03  0.00000000000E+00 0.  1.
         11   -1    0    0    0    0 -0.00000000000E+00 -0.00000000000E+00 -0.50000000000E+03  0.50000000000E+03  0.00000000000E+00 0.  1.
        -11    1    1    2    0    0  0.19215352139E+02 -0.20406681887E+02  0.48334698728E+03  0.48415903641E+03  0.00000000000E+00 0.  1.
         11    1    1    2    0    0 -0.76708141041E+01 -0.20724188609E+01 -0.47833693509E+03  0.47840292618E+03  0.00000000000E+00 0.  1.
        -15    1    1    2    0    0 -0.13538601314E+02  0.90444430281E+01 -0.13583763437E+02  0.21278440576E+02  0.17770000000E+01 0. -1.
         15    1    1    2    0    0  0.19940632785E+01  0.13434657720E+02  0.85737112468E+01  0.16159596838E+02  0.17770000000E+01 0.  1.
</event>
<event>
 6   1  0.1826851E-04  0.5023216E+03  0.7546771E-02  0.9394630E-01
        -11   -1    0    0    0    0  0.00000000000E+00  0.00000000000E+00  0.50000000000E+03  0.50000000000E+03  0.00000000000E+00 0. -1.
         11   -1    0    0    0    0 -0.00000000000E+00 -0.00000000000E+00 -0.50000000000E+03  0.50000000000E+03  0.00000000000E+00 0. -1.
        -11    1    1    2    0    0  0.27907622928E+01  0.12665893554E+02  0.49750938070E+03  0.49767840730E+03  0.00000000000E+00 0. -1.
         11    1    1    2    0    0  0.72161878829E+01  0.55628904253E+01 -0.44092501907E+03  0.44101915101E+03  0.00000000000E+00 0. -1.
        -15    1    1    2    0    0 -0.85057538821E+01 -0.17645859317E+02 -0.40315655619E+02  0.44857931485E+02  0.17770000000E+01 0. -1.
         15    1    1    2    0    0 -0.15011962935E+01 -0.58292466304E+00 -0.16268706011E+02  0.16444510201E+02  0.17770000000E+01 0.  1.
</event>
<event>
 6   1  0.1826851E-04  0.5000417E+03  0.7546771E-02  0.9399716E-01
        -11   -1    0    0    0    0  0.00000000000E+00  0.00000000000E+00  0.50000000000E+03  0.50000000000E+03  0.00000000000E+00 0.  1.
         11   -1    0    0    0    0 -0.00000000000E+00 -0.00000000000E+00 -0.50000000000E+03  0.50000000000E+03  0.00000000000E+00 0.  1.
        -11    1    1    2    0    0 -0.29996867570E+01  0.91945553407E+01  0.49986470638E+03  0.49995826091E+03  0.00000000000E+00 0.  1.
         11    1    1    2    0    0  0.16358921033E+01 -0.70829477284E+01 -0.27558916915E+03  0.27568502761E+03  0.00000000000E+00 0.  1.
        -15    1    1    2    0    0 -0.16177912496E+00  0.58454889378E+00 -0.12999205408E+03  0.13000561419E+03  0.17770000000E+01 0. -1.
         15    1    1    2    0    0  0.15255737787E+01 -0.26961565061E+01 -0.94283483152E+02  0.94351097288E+02  0.17770000000E+01 0. -1.
</event>
<event>
 6   1  0.1826851E-04  0.5003779E+03  0.7546771E-02  0.9398965E-01
        -11   -1    0    0    0    0  0.00000000000E+00  0.00000000000E+00  0.50000000000E+03  0.50000000000E+03  0.00000000000E+00 0.  1.
         11   -1    0    0    0    0 -0.00000000000E+00 -0.00000000000E+00 -0.50000000000E+03  0.50000000000E+03  0.00000000000E+00 0.  1.
        -11    1    1    2    0    0 -0.49879722778E+01  0.58244536078E+01  0.49956329080E+03  0.49962214286E+03  0.00000000000E+00 0.  1.
         11    1    1    2    0    0 -0.36266402067E+01  0.72961563158E+01 -0.30200199054E+03  0.30211188110E+03  0.00000000000E+00 0.  1.
        -15    1    1    2    0    0  0.14190366566E+01 -0.33474843604E+01 -0.32792482591E+02  0.33041246346E+02  0.17770000000E+01 0. -1.
         15    1    1    2    0    0  0.71955758280E+01 -0.97731255632E+01 -0.16476881767E+03  0.16522472969E+03  0.17770000000E+01 0.  1.
</event>
<event>
 6   1  0.1826851E-04  0.5002581E+03  0.7546771E-02  0.9399232E-01
        -11   -1    0    0    0    0  0.00000000000E+00  0.00000000000E+00  0.50000000000E+03  0.50000000000E+03  0.00000000000E+00 0. -1.
         11   -1    0    0    0    0 -0.00000000000E+00 -0.00000000000E+00 -0.50000000000E+03  0.50000000000E+03  0.00000000000E+00 0. -1.
        -11    1    1    2    0    0  0.68562829243E+01  0.55304284260E+01  0.49966421943E+03  0.49974185980E+03  0.00000000000E+00 0. -1.
         11    1    1    2    0    0 -0.38898774556E+01  0.79907820349E+00 -0.23275843339E+03  0.23279230655E+03  0.00000000000E+00 0. -1.
        -15    1    1    2    0    0 -0.88368279600E+01 -0.62167136754E+01 -0.19034025245E+03  0.19065494090E+03  0.17770000000E+01 0. -1.
         15    1    1    2    0    0  0.58704224914E+01 -0.11279295407E+00 -0.76565533591E+02  0.76810892753E+02  0.17770000000E+01 0.  1.
</event>
<event>
 6   1  0.1826851E-04  0.5025310E+03  0.7546771E-02  0.9394164E-01
        -11   -1    0    0    0    0  0.00000000000E+00  0.00000000000E+00  0.50000000000E+03  0.50000000000E+03  0.00000000000E+00 0. -1.
         11   -1    0    0    0    0 -0.00000000000E+00 -0.00000000000E+00 -0.50000000000E+03  0.50000000000E+03  0.00000000000E+00 0.  1.
        -11    1    1    2    0    0  0.10622608097E+02  0.63792922784E+01  0.49731470394E+03  0.49746904419E+03  0.00000000000E+00 0. -1.
         11    1    1    2    0    0  0.78458930756E+01  0.18787838807E+01 -0.44328842422E+03  0.44336183295E+03  0.00000000000E+00 0.  1.
        -15    1    1    2    0    0  0.11398331002E+01 -0.99881755514E+00 -0.20163604157E+01  0.30854974203E+01  0.17770000000E+01 0.  1.
         15    1    1    2    0    0 -0.19608334273E+02 -0.72592586040E+01 -0.52009919296E+02  0.56083625441E+02  0.17770000000E+01 0.  1.
</event>
<event>
 6   1  0.1826851E-04  0.5048405E+03  0.7546771E-02  0.9389043E-01
        -11   -1    0    0    0    0  0.00000000000E+00  0.00000000000E+00  0.50000000000E+03  0.50000000000E+03  0.00000000000E+00 0.  1.
         11   -1    0    0    0    0 -0.00000000000E+00 -0.00000000000E+00 -0.50000000000E+03  0.50000000000E+03  0.00000000000E+00 0.  1.
        -11    1    1    2    0    0 -0.28222406116E+02  0.11418744004E+02  0.49422270502E+03  0.49515954406E+03  0.00000000000E+00 0.  1.
         11    1    1    2    0    0  0.26941533552E+01  0.55836272703E+01 -0.42663001264E+03  0.42667505557E+03  0.00000000000E+00 0.  1.
        -15    1    1    2    0    0  0.16617573900E+02  0.26685088180E+01 -0.36888363483E+02  0.40585388887E+02  0.17770000000E+01 0.  1.
         15    1    1    2    0    0  0.89106788609E+01 -0.19670880092E+02 -0.30704328891E+02  0.37580011482E+02  0.17770000000E+01 0. -1.
</event>
<event>
 6   1  0.1826851E-04  0.5000881E+03  0.7546771E-02  0.9399613E-01
        -11   -1    0    0    0    0  0.00000000000E+00  0.00000000000E+00  0.50000000000E+03  0.50000000000E+03  0.00000000000E+00 0.  1.
         11   -1    0    0    0    0 -0.00000000000E+00 -0.00000000000E+00 -0.50000000000E+03  0.50000000000E+03  0.00000000000E+00 0.  1.
        -11    1    1    2    0    0  0.68627815282E+01  0.80794004052E+01  0.49979944593E+03  0.49991185286E+03  0.00000000000E+00 0.  1.
         11    1    1    2    0    0  0.10423261871E+01 -0.11700359614E+00 -0.40188215971E+02  0.40201900908E+02  0.00000000000E+00 0.  1.
        -15    1    1    2    0    0 -0.50299611526E+01 -0.99134696587E+00 -0.32943890110E+03  0.32948358163E+03  0.17770000000E+01 0.  1.
         15    1    1    2    0    0 -0.28751465627E+01 -0.69710498432E+01 -0.13017232886E+03  0.13040266460E+03  0.17770000000E+01 0. -1.
</event>
<event>
 6   1  0.1826851E-04  0.5031392E+03  0.7546771E-02  0.9392813E-01
        -11   -1    0    0    0    0  0.00000000000E+00  0.00000000000E+00  0.50000000000E+03  0.50000000000E+03  0.00000000000E+00 0. -1.
         11   -1    0    0    0    0 -0.00000000000E+00 -0.00000000000E+00 -0.50000000000E+03  0.50000000000E+03  0.00000000000E+00 0.  1.
        -11    1    1    2    0    0 -0.15700569391E+02  0.31652465095E+01  0.49660259374E+03  0.49686080824E+03  0.00000000000E+00 0. -1.
         11    1    1    2    0    0  0.66189125274E+01  0.74057976671E+01 -0.47816932578E+03  0.47827247460E+03  0.00000000000E+00 0.  1.
        -15    1    1    2    0    0  0.71436437708E+01 -0.89234752771E+01 -0.82161921479E+01  0.14188854773E+02  0.17770000000E+01 0.  1.
         15    1    1    2    0    0  0.19380130926E+01 -0.16475688996E+01 -0.10217075811E+02  0.10677862387E+02  0.17770000000E+01 0. -1.
</event>
<event>
 6   1  0.1826851E-04  0.5008908E+03  0.7546771E-02  0.9397819E-01
        -11   -1    0    0    0    0  0.00000000000E+00  0.00000000000E+00  0.50000000000E+03  0.50000000000E+03  0.00000000000E+00 0.  1.
         11   -1    0    0    0    0 -0.00000000000E+00 -0.00000000000E+00 -0.50000000000E+03  0.50000000000E+03  0.00000000000E+00 0.  1.
        -11    1    1    2    0    0 -0.13570417094E+02  0.11409744381E+02  0.36105733895E+03  0.36149237958E+03  0.00000000000E+00 0.  1.
         11    1    1    2    0    0  0.77561247022E+01 -0.76052258448E+00 -0.49904835547E+03  0.49910920344E+03  0.00000000000E+00 0.  1.
        -15    1    1    2    0    0 -0.37629887604E+01 -0.73080973667E+01  0.40429138806E+02  0.41294568228E+02  0.17770000000E+01 0. -1.
         15    1    1    2    0    0  0.95772811522E+01 -0.33411244302E+01  0.97561877718E+02  0.98103848750E+02  0.17770000000E+01 0.  1.
</event>
<event>
 6   1  0.1826851E-04  0.5043674E+03  0.7546771E-02  0.9390090E-01
        -11   -1    0    0    0    0  0.00000000000E+00  0.00000000000E+00  0.50000000000E+03  0.50000000000E+03  0.00000000000E+00 0.  1.
         11   -1    0    0    0    0 -0.00000000000E+00 -0.00000000000E+00 -0.50000000000E+03  0.50000000000E+03  0.00000000000E+00 0.  1.
        -11    1    1    2    0    0 -0.14719273333E+02 -0.55241402347E+00  0.49541364160E+03  0.49563256396E+03  0.00000000000E+00 0.  1.
         11    1    1    2    0    0 -0.51994727145E+01  0.70120188695E+01 -0.46633213224E+03  0.46641382965E+03  0.00000000000E+00 0.  1.
        -15    1    1    2    0    0  0.64464701348E+01 -0.37056879536E+01 -0.26234261697E+01  0.80826477268E+01  0.17770000000E+01 0. -1.
         15    1    1    2    0    0  0.13472275913E+02 -0.27539168924E+01 -0.26458083189E+02  0.29870958665E+02  0.17770000000E+01 0.  1.
</event>
<event>
 6   1  0.1826851E-04  0.5027932E+03  0.7546771E-02  0.9393581E-01
        -11   -1    0    0    0    0  0.00000000000E+00  0.00000000000E+00  0.50000000000E+03  0.50000000000E+03  0.00000000000E+00 0. -1.
         11   -1    0    0    0    0 -0.00000000000E+00 -0.00000000000E+00 -0.50000000000E+03  0.50000000000E+03  0.00000000000E+00 0. -1.
        -11    1    1    2    0    0 -0.99219765741E+02 -0.12731195496E+02  0.48704000039E+03  0.49720680530E+03  0.00000000000E+00 0. -1.
         11    1    1    2    0    0  0.25060029634E+02  0.70227554915E+00 -0.28777680818E+03  0.28886673329E+03  0.00000000000E+00 0. -1.
        -15    1    1    2    0    0  0.72123408935E+02  0.14925181474E+02 -0.19206603786E+03  0.20571112704E+03  0.17770000000E+01 0. -1.
         15    1    1    2    0    0  0.20363271726E+01 -0.28962615272E+01 -0.71971543495E+01  0.82153343766E+01  0.17770000000E+01 0.  1.
</event>
<event>
 6   1  0.1826851E-04  0.5058699E+03  0.7546771E-02  0.9386770E-01
        -11   -1    0    0    0    0  0.00000000000E+00  0.00000000000E+00  0.50000000000E+03  0.50000000000E+03  0.00000000000E+00 0.  1.
         11   -1    0    0    0    0 -0.00000000000E+00 -0.00000000000E+00 -0.50000000000E+03  0.50000000000E+03  0.00000000000E+00 0.  1.
        -11    1    1    2    0    0  0.19157320239E+02 -0.14184011620E+02  0.49355485647E+03  0.49413013007E+03  0.00000000000E+00 0.  1.
         11    1    1    2    0    0  0.91831543278E+01  0.72363556981E+01 -0.44222851885E+03  0.44238304448E+03  0.00000000000E+00 0.  1.
        -15    1    1    2    0    0 -0.48758470568E+01 -0.75231093387E+01 -0.82433107556E+01  0.12307760148E+02  0.17770000000E+01 0. -1.
         15    1    1    2    0    0 -0.23464627510E+02  0.14470765261E+02 -0.43083026866E+02  0.51179065294E+02  0.17770000000E+01 0.  1.
</event>
<event>
 6   1  0.1826851E-04  0.5087991E+03  0.7546771E-02  0.9380333E-01
        -11   -1    0    0    0    0  0.00000000000E+00  0.00000000000E+00  0.50000000000E+03  0.50000000000E+03  0.00000000000E+00 0. -1.
         11   -1    0    0    0    0 -0.00000000000E+00 -0.00000000000E+00 -0.50000000000E+03  0.50000000000E+03  0.00000000000E+00 0.  1.
        -11    1    1    2    0    0 -0.30892879079E+01  0.46303447600E+02  0.40898881113E+03  0.41161316863E+03  0.00000000000E+00 0. -1.
         11    1    1    2    0    0 -0.70544126741E+01 -0.62060690473E+01 -0.49111101004E+03  0.49120087970E+03  0.00000000000E+00 0.  1.
        -15    1    1    2    0    0  0.11381917384E+02  0.10637821118E+00  0.14983384805E+02  0.18900235683E+02  0.17770000000E+01 0.  1.
         15    1    1    2    0    0 -0.12382168020E+01 -0.40203756764E+02  0.67138814107E+02  0.78285715986E+02  0.17770000000E+01 0. -1.
</event>
<event>
 6   1  0.1826851E-04  0.4774993E+03  0.7546771E-02  0.9451614E-01
        -11   -1    0    0    0    0  0.00000000000E+00  0.00000000000E+00  0.50000000000E+03  0.50000000000E+03  0.00000000000E+00 0. -1.
         11   -1    0    0    0    0 -0.00000000000E+00 -0.00000000000E+00 -0.50000000000E+03  0.50000000000E+03  0.00000000000E+00 0.  1.
        -11    1    1    2    0    0 -0.11723788603E+02  0.23602993638E+02  0.46764118462E+03  0.46838320431E+03  0.00000000000E+00 0. -1.
         11    1    1    2    0    0 -0.75380960253E+01  0.83104759650E+01 -0.48741814963E+03  0.48754726899E+03  0.00000000000E+00 0.  1.
        -15    1    1    2    0    0  0.19856653187E+02 -0.24935091061E+02  0.17914233365E+02  0.36607689467E+02  0.17770000000E+01 0. -1.
         15    1    1    2    0    0 -0.59476855896E+00 -0.69783785421E+01  0.18627316457E+01  0.74618372335E+01  0.17770000000E+01 0.  1.
</event>
<event>
 6   1  0.1826851E-04  0.4961906E+03  0.7546771E-02  0.9408374E-01
        -11   -1    0    0    0    0  0.00000000000E+00  0.00000000000E+00  0.50000000000E+03  0.50000000000E+03  0.00000000000E+00 0. -1.
         11   -1    0    0    0    0 -0.00000000000E+00 -0.00000000000E+00 -0.50000000000E+03  0.50000000000E+03  0.00000000000E+00 0.  1.
        -11    1    1    2    0    0 -0.15702137733E+01 -0.72314065586E+01  0.49720489740E+03  0.49725996100E+03  0.00000000000E+00 0. -1.
         11    1    1    2    0    0 -0.31209900313E+01  0.59558883297E+01 -0.49508975734E+03  0.49513541684E+03  0.00000000000E+00 0.  1.
        -15    1    1    2    0    0  0.14371641780E+01  0.13146405809E+01 -0.27868871296E+01  0.38364292779E+01  0.17770000000E+01 0.  1.
         15    1    1    2    0    0  0.32540396266E+01 -0.39122352017E-01  0.67174707135E+00  0.37681928796E+01  0.17770000000E+01 0. -1.
</event>
<event>
 6   1  0.1826851E-04  0.5004896E+03  0.7546771E-02  0.9398715E-01
        -11   -1    0    0    0    0  0.00000000000E+00  0.00000000000E+00  0.50000000000E+03  0.50000000000E+03  0.00000000000E+00 0. -1.
         11   -1    0    0    0    0 -0.00000000000E+00 -0.00000000000E+00 -0.50000000000E+03  0.50000000000E+03  0.00000000000E+00 0.  1.
        -11    1    1    2    0    0 -0.10780797925E+02 -0.14219070968E+02  0.49919159469E+03  0.49951041610E+03  0.00000000000E+00 0. -1.
         11    1    1    2    0    0  0.14321947666E+01  0.99164030061E+01 -0.32524127655E+03  0.32539556574E+03  0.00000000000E+00 0.  1.
        -15    1    1    2    0    0  0.35002572135E+00 -0.58991414330E+01 -0.61959910834E+02  0.62266448969E+02  0.17770000000E+01 0.  1.
         15    1    1    2    0    0  0.89985774369E+01  0.10201809395E+02 -0.11199040731E+03  0.11282756919E+03  0.17770000000E+01 0. -1.
</event>
<event>
 6   1  0.1826851E-04  0.5019617E+03  0.7546771E-02  0.9395431E-01
        -11   -1    0    0    0    0  0.00000000000E+00  0.00000000000E+00  0.50000000000E+03  0.50000000000E+03  0.00000000000E+00 0.  1.
         11   -1    0    0    0    0 -0.00000000000E+00 -0.00000000000E+00 -0.50000000000E+03  0.50000000000E+03  0.00000000000E+00 0. -1.
        -11    1    1    2    0    0 -0.53283519981E+00  0.19647283290E+02  0.49765037535E+03  0.49803834766E+03  0.00000000000E+00 0.  1.
         11    1    1    2    0    0 -0.78031532841E+01  0.65251013665E+01 -0.33574611042E+03  0.33590015899E+03  0.00000000000E+00 0. -1.
        -15    1    1    2    0    0  0.51163819767E+01 -0.19471916408E+02 -0.15298932244E+03  0.15431857763E+03  0.17770000000E+01 0.  1.
         15    1    1    2    0    0  0.32196065072E+01 -0.67004682489E+01 -0.89149424895E+01  0.11742915711E+02  0.17770000000E+01 0. -1.
</event>
<event>
 6   1  0.1826851E-04  0.5003092E+03  0.7546771E-02  0.9399118E-01
        -11   -1    0    0    0    0  0.00000000000E+00  0.00000000000E+00  0.50000000000E+03  0.50000000000E+03  0.00000000000E+00 0.  1.
         11   -1    0    0    0    0 -0.00000000000E+00 -0.00000000000E+00 -0.50000000000E+03  0.50000000000E+03  0.00000000000E+00 0.  1.
        -11    1    1    2    0    0  0.17640209679E+01 -0.18557021204E+02  0.19430387481E+03  0.19519597990E+03  0.00000000000E+00 0.  1.
         11    1    1    2    0    0  0.90381969911E+01  0.21642703518E+02 -0.49914008288E+03  0.49969082237E+03  0.00000000000E+00 0.  1.
        -15    1    1    2    0    0 -0.54524203411E+01  0.20289223177E+00  0.19412836079E+03  0.19421315158E+03  0.17770000000E+01 0.  1.
         15    1    1    2    0    0 -0.53497976179E+01 -0.32885745457E+01  0.11070784729E+03  0.11090004615E+03  0.17770000000E+01 0. -1.
</event>
<event>
 6   1  0.1826851E-04  0.5053076E+03  0.7546771E-02  0.9388011E-01
        -11   -1    0    0    0    0  0.00000000000E+00  0.00000000000E+00  0.50000000000E+03  0.50000000000E+03  0.00000000000E+00 0.  1.
         11   -1    0    0    0    0 -0.00000000000E+00 -0.00000000000E+00 -0.50000000000E+03  0.50000000000E+03  0.00000000000E+00 0. -1.
        -11    1    1    2    0    0 -0.14020097074E+02 -0.21917468842E+02  0.45174835561E+03  0.45249697828E+03  0.00000000000E+00 0.  1.
         11    1    1    2    0    0  0.62196081466E+01 -0.32949908107E+01 -0.49464232222E+03  0.49469239677E+03  0.00000000000E+00 0. -1.
        -15    1    1    2    0    0  0.40184762656E+01 -0.97369488847E-01  0.27951270691E+01  0.52084639431E+01  0.17770000000E+01 0. -1.
         15    1    1    2    0    0  0.37820126613E+01  0.25309829141E+02  0.40098839542E+02  0.47602161007E+02  0.17770000000E+01 0. -1.
</event>
<event>
 6   1  0.1826851E-04  0.5031996E+03  0.7546771E-02  0.9392679E-01
        -11   -1    0    0    0    0  0.00000000000E+00  0.00000000000E+00  0.50000000000E+03  0.50000000000E+03  0.00000000000E+00 0.  1.
         11   -1    0    0    0    0 -0.00000000000E+00 -0.00000000000E+00 -0.50000000000E+03  0.50000000000E+03  0.00000000000E+00 0.  1.
        -11    1    1    2    0    0 -0.10285061218E+02 -0.20162812068E+01  0.49085722935E+03  0.49096911052E+03  0.00000000000E+00 0.  1.
         11    1    1    2    0    0  0.78497099922E+01  0.14426492990E+01 -0.49673627603E+03  0.49680038960E+03  0.00000000000E+00 0.  1.
        -15    1    1    2    0    0  0.31180004962E+01  0.13697269439E+01  0.82421504086E+01  0.90933410445E+01  0.17770000000E+01 0.  1.
         15    1    1    2    0    0 -0.68264927081E+00 -0.79609503609E+00 -0.23631037346E+01  0.31371588410E+01  0.17770000000E+01 0. -1.
</event>
<event>
 6   1  0.1826851E-04  0.5007092E+03  0.7546771E-02  0.9398224E-01
        -11   -1    0    0    0    0  0.00000000000E+00  0.00000000000E+00  0.50000000000E+03  0.50000000000E+03  0.00000000000E+00 0. -1.
         11   -1    0    0    0    0 -0.00000000000E+00 -0.00000000000E+00 -0.50000000000E+03  0.50000000000E+03  0.00000000000E+00 0.  1.
        -11    1    1    2    0    0  0.82809956999E+01  0.44551578155E+01  0.44712299600E+03  0.44722186538E+03  0.00000000000E+00 0. -1.
         11    1    1    2    0    0 -0.34496594523E+01 -0.61734502457E+01 -0.49924073249E+03  0.49929081768E+03  0.00000000000E+00 0.  1.
        -15    1    1    2    0    0 -0.46838624279E+01  0.30753030209E+01  0.50185293519E+02  0.50528382821E+02  0.17770000000E+01 0.  1.
         15    1    1    2    0    0 -0.14747381973E+00 -0.13570105907E+01  0.19324429720E+01  0.29589341173E+01  0.17770000000E+01 0.  1.
</event>
<event>
 6   1  0.1826851E-04  0.5002659E+03  0.7546771E-02  0.9399215E-01
        -11   -1    0    0    0    0  0.00000000000E+00  0.00000000000E+00  0.50000000000E+03  0.50000000000E+03  0.00000000000E+00 0.  1.
         11   -1    0    0    0    0 -0.00000000000E+00 -0.00000000000E+00 -0.50000000000E+03  0.50000000000E+03  0.00000000000E+00 0.  1.
        -11    1    1    2    0    0  0.22140290040E+02  0.95921890968E+01  0.33402282526E+03  0.33489319242E+03  0.00000000000E+00 0.  1.
         11    1    1    2    0    0 -0.19221594696E+02 -0.90660389752E+01 -0.49928198859E+03  0.49973409619E+03  0.00000000000E+00 0.  1.
        -15    1    1    2    0    0 -0.17172392646E+01 -0.17354019948E+01  0.12613162512E+03  0.12616776576E+03  0.17770000000E+01 0. -1.
         15    1    1    2    0    0 -0.12014560798E+01  0.12092518732E+01  0.39127538211E+02  0.39204945636E+02  0.17770000000E+01 0.  1.
</event>
<event>
 6   1  0.1826851E-04  0.5009148E+03  0.7546771E-02  0.9397765E-01
        -11   -1    0    0    0    0  0.00000000000E+00  0.00000000000E+00  0.50000000000E+03  0.50000000000E+03  0.00000000000E+00 0. -1.
         11   -1    0    0    0    0 -0.00000000000E+00 -0.00000000000E+00 -0.50000000000E+03  0.50000000000E+03  0.00000000000E+00 0. -1.
        -11    1    1    2    0    0  0.26250748498E+02  0.27359634043E+02  0.49764278657E+03  0.49908515746E+03  0.00000000000E+00 0. -1.
         11    1    1    2    0    0 -0.12204629505E+02 -0.17136109196E+00 -0.32701096901E+03  0.32723868384E+03  0.00000000000E+00 0. -1.
        -15    1    1    2    0    0 -0.14398229229E+02 -0.25020659074E+02 -0.14267476151E+03  0.14557674157E+03  0.17770000000E+01 0. -1.
         15    1    1    2    0    0  0.35211023584E+00 -0.21676138770E+01 -0.27957056041E+02  0.28099417129E+02  0.17770000000E+01 0.  1.
</event>
<event>
 6   1  0.1826851E-04  0.5031676E+03  0.7546771E-02  0.9392750E-01
        -11   -1    0    0    0    0  0.00000000000E+00  0.00000000000E+00  0.50000000000E+03  0.50000000000E+03  0.00000000000E+00 0.  1.
         11   -1    0    0    0    0 -0.00000000000E+00 -0.00000000000E+00 -0.50000000000E+03  0.50000000000E+03  0.00000000000E+00 0.  1.
        -11    1    1    2    0    0 -0.15346329894E+02  0.21249058178E+02  0.49614053080E+03  0.49683242508E+03  0.00000000000E+00 0.  1.
         11    1    1    2    0    0 -0.10057276598E+01 -0.10049779788E+02 -0.43687441684E+03  0.43699115054E+03  0.00000000000E+00 0.  1.
        -15    1    1    2    0    0  0.14525817119E+02 -0.16407246452E+02 -0.54153984132E+02  0.58446632285E+02  0.17770000000E+01 0.  1.
         15    1    1    2    0    0  0.18262404347E+01  0.52079680616E+01 -0.51121298278E+01  0.77297920951E+01  0.17770000000E+01 0. -1.
</event>
<event>
 6   1  0.1826851E-04  0.5094038E+03  0.7546771E-02  0.9379010E-01
        -11   -1    0    0    0    0  0.00000000000E+00  0.00000000000E+00  0.50000000000E+03  0.50000000000E+03  0.00000000000E+00 0.  1.
         11   -1    0    0    0    0 -0.00000000000E+00 -0.00000000000E+00 -0.50000000000E+03  0.50000000000E+03  0.00000000000E+00 0. -1.
        -11    1    1    2    0    0 -0.40366345011E+02 -0.60666012787E+02  0.45724147531E+03  0.46301141850E+03  0.00000000000E+00 0.  1.
         11    1    1    2    0    0  0.35994514534E+02  0.27957036730E+02 -0.48847460701E+03  0.49059621144E+03  0.00000000000E+00 0. -1.
        -15    1    1    2    0    0 -0.68265639933E+00  0.73650939852E+01  0.11672792215E+02  0.13932782790E+02  0.17770000000E+01 0. -1.
         15    1    1    2    0    0  0.50544868763E+01  0.25343882072E+02  0.19560339484E+02  0.32459587270E+02  0.17770000000E+01 0.  1.
</event>
<event>
 6   1  0.1826851E-04  0.5206715E+03  0.7546771E-02  0.9354708E-01
        -11   -1    0    0    0    0  0.00000000000E+00  0.00000000000E+00  0.50000000000E+03  0.50000000000E+03  0.00000000000E+00 0.  1.
         11   -1    0    0    0    0 -0.00000000000E+00 -0.00000000000E+00 -0.50000000000E+03  0.50000000000E+03  0.00000000000E+00 0.  1.
        -11    1    1    2    0    0 -0.12184642326E+02 -0.59157720664E+02  0.41266952540E+03  0.41706622810E+03  0.00000000000E+00 0.  1.
         11    1    1    2    0    0  0.25308756543E+01 -0.14181402758E+02 -0.47911196348E+03  0.47932847930E+03  0.00000000000E+00 0.  1.
        -15    1    1    2    0    0  0.11464333066E+01  0.57367252857E+02  0.34857936564E+02  0.67160624477E+02  0.17770000000E+01 0.  1.
         15    1    1    2    0    0  0.85073333647E+01  0.15971870564E+02  0.31584501514E+02  0.36444668131E+02  0.17770000000E+01 0. -1.
</event>
<event>
 6   1  0.1826851E-04  0.5133436E+03  0.7546771E-02  0.9370438E-01
        -11   -1    0    0    0    0  0.00000000000E+00  0.00000000000E+00  0.50000000000E+03  0.50000000000E+03  0.00000000000E+00 0. -1.
         11   -1    0    0    0    0 -0.00000000000E+00 -0.00000000000E+00 -0.50000000000E+03  0.50000000000E+03  0.00000000000E+00 0.  1.
        -11    1    1    2    0    0  0.25924274496E+02  0.22940001915E+02  0.48542368439E+03  0.48665641377E+03  0.00000000000E+00 0. -1.
         11    1    1    2    0    0 -0.32687607447E+01 -0.48679973173E+01 -0.43012150981E+03  0.43016147596E+03  0.00000000000E+00 0.  1.
        -15    1    1    2    0    0 -0.11930607450E+01  0.36161856164E+01 -0.52302498817E+02  0.52471032997E+02  0.17770000000E+01 0.  1.
         15    1    1    2    0    0 -0.21462453006E+02 -0.21688190214E+02 -0.29996757636E+01  0.30711077277E+02  0.17770000000E+01 0. -1.
</event>
<event>
 6   1  0.1826851E-04  0.5031699E+03  0.7546771E-02  0.9392745E-01
        -11   -1    0    0    0    0  0.00000000000E+00  0.00000000000E+00  0.50000000000E+03  0.50000000000E+03  0.00000000000E+00 0. -1.
         11   -1    0    0    0    0 -0.00000000000E+00 -0.00000000000E+00 -0.50000000000E+03  0.50000000000E+03  0.00000000000E+00 0. -1.
        -11    1    1    2    0    0 -0.14969993710E+02  0.24614329971E+02  0.40349722779E+03  0.40452438590E+03  0.00000000000E+00 0. -1.
         11    1    1    2    0    0  0.50342254585E+01  0.45454294870E+01 -0.49678384230E+03  0.49683014233E+03  0.00000000000E+00 0. -1.
        -15    1    1    2    0    0  0.36369755826E+01 -0.74597148512E+01  0.16102969806E+02  0.18202700421E+02  0.17770000000E+01 0.  1.
         15    1    1    2    0    0  0.62987926693E+01 -0.21700044607E+02  0.77183644700E+02  0.80442771354E+02  0.17770000000E+01 0. -1.
</event>
<event>
 6   1  0.1826851E-04  0.5010043E+03  0.7546771E-02  0.9397565E-01
        -11   -1    0    0    0    0  0.00000000000E+00  0.00000000000E+00  0.50000000000E+03  0.50000000000E+03  0.00000000000E+00 0. -1.
         11   -1    0    0    0    0 -0.00000000000E+00 -0.00000000000E+00 -0.50000000000E+03  0.50000000000E+03  0.00000000000E+00 0.  1.
        -11    1    1    2    0    0 -0.77035666900E+01 -0.12779925795E+02  0.30839776254E+03  0.30875856487E+03  0.00000000000E+00 0. -1.
         11    1    1    2    0    0  0.12113808661E+02  0.33795679775E+01 -0.49883719136E+03  0.49899570070E+03  0.00000000000E+00 0.  1.
        -15    1    1    2    0    0  0.56581300927E+01  0.13593673170E+02  0.12543177271E+03  0.12630554113E+03  0.17770000000E+01 0. -1.
         15    1    1    2    0    0 -0.10068372064E+02 -0.41933153533E+01  0.65007656112E+02  0.65940193296E+02  0.17770000000E+01 0.  1.
</event>
<event>
 6   1  0.1826851E-04  0.5006157E+03  0.7546771E-02  0.9398433E-01
        -11   -1    0    0    0    0  0.00000000000E+00  0.00000000000E+00  0.50000000000E+03  0.50000000000E+03  0.00000000000E+00 0.  1.
         11   -1    0    0    0    0 -0.00000000000E+00 -0.00000000000E+00 -0.50000000000E+03  0.50000000000E+03  0.00000000000E+00 0. -1.
        -11    1    1    2    0    0 -0.14451260378E+02  0.27279106965E+01  0.49916767845E+03  0.49938427251E+03  0.00000000000E+00 0.  1.
         11    1    1    2    0    0 -0.29157592945E+01  0.52826916010E+01 -0.35489510144E+03  0.35494639245E+03  0.00000000000E+00 0. -1.
        -15    1    1    2    0    0  0.85046464117E+01 -0.62601382941E+01 -0.87897073112E+02  0.88547001828E+02  0.17770000000E+01 0. -1.
         15    1    1    2    0    0  0.88623732612E+01 -0.17504640034E+01 -0.56375503892E+02  0.57122333216E+02  0.17770000000E+01 0.  1.
</event>
<event>
 6   1  0.1826851E-04  0.5008388E+03  0.7546771E-02  0.9397935E-01
        -11   -1    0    0    0    0  0.00000000000E+00  0.00000000000E+00  0.50000000000E+03  0.50000000000E+03  0.00000000000E+00 0.  1.
         11   -1    0    0    0    0 -0.00000000000E+00 -0.00000000000E+00 -0.50000000000E+03  0.50000000000E+03  0.00000000000E+00 0. -1.
        -11    1    1    2    0    0  0.11581587027E+02  0.89861287834E+01  0.49894587312E+03  0.49916116432E+03  0.00000000000E+00 0.  1.
         11    1    1    2    0    0 -0.94210109532E+01 -0.74071520014E+01 -0.40557078630E+03  0.40574780843E+03  0.00000000000E+00 0. -1.
        -15    1    1    2    0    0  0.10840318573E+01  0.40841307702E+01 -0.65044971259E+01  0.79574783114E+01  0.17770000000E+01 0. -1.
         15    1    1    2    0    0 -0.32446079311E+01 -0.56631075522E+01 -0.86870589688E+02  0.87133548932E+02  0.17770000000E+01 0.  1.
</event>
<event>
 6   1  0.1826851E-04  0.5021688E+03  0.7546771E-02  0.9394970E-01
        -11   -1    0    0    0    0  0.00000000000E+00  0.00000000000E+00  0.50000000000E+03  0.50000000000E+03  0.00000000000E+00 0. -1.
         11   -1    0    0    0    0 -0.00000000000E+00 -0.00000000000E+00 -0.50000000000E+03  0.50000000000E+03  0.00000000000E+00 0. -1.
        -11    1    1    2    0    0  0.17578508958E+02  0.14784763521E+02  0.42291832977E+03  0.42354162354E+03  0.00000000000E+00 0. -1.
         11    1    1    2    0    0 -0.45404386050E+01 -0.70144738521E+01 -0.49776104109E+03  0.49783116862E+03  0.00000000000E+00 0. -1.
        -15    1    1    2    0    0 -0.11031977875E+02 -0.77413596620E+01  0.74717657378E+02  0.75944185019E+02  0.17770000000E+01 0. -1.
         15    1    1    2    0    0 -0.20060924783E+01 -0.28930006597E-01  0.12505393653E+00  0.26830228221E+01  0.17770000000E+01 0.  1.
</event>
<event>
 6   1  0.1826851E-04  0.5001334E+03  0.7546771E-02  0.9399511E-01
        -11   -1    0    0    0    0  0.00000000000E+00  0.00000000000E+00  0.50000000000E+03  0.50000000000E+03  0.00000000000E+00 0. -1.
         11   -1    0    0    0    0 -0.00000000000E+00 -0.00000000000E+00 -0.50000000000E+03  0.50000000000E+03  0.00000000000E+00 0.  1.
        -11    1    1    2    0    0  0.80075572491E+01 -0.44985200549E+01  0.49978223854E+03  0.49986662583E+03  0.00000000000E+00 0. -1.
         11    1    1    2    0    0 -0.26304307126E+01 -0.38899175395E+01 -0.29247359015E+03  0.29251128450E+03  0.00000000000E+00 0.  1.
        -15    1    1    2    0    0 -0.99567050974E-01  0.75842482279E+00 -0.30505666893E+02  0.30566952145E+02  0.17770000000E+01 0.  1.
         15    1    1    2    0    0 -0.52775594856E+01  0.76300127717E+01 -0.17680298150E+03  0.17705513753E+03  0.17770000000E+01 0.  1.
</event>
<event>
 6   1  0.1826851E-04  0.5332660E+03  0.7546771E-02  0.9328304E-01
        -11   -1    0    0    0    0  0.00000000000E+00  0.00000000000E+00  0.50000000000E+03  0.50000000000E+03  0.00000000000E+00 0.  1.
         11   -1    0    0    0    0 -0.00000000000E+00 -0.00000000000E+00 -0.50000000000E+03  0.50000000000E+03  0.00000000000E+00 0. -1.
        -11    1    1    2    0    0  0.46509115744E+02  0.30783789116E+02  0.15156261760E+03  0.16149912252E+03  0.00000000000E+00 0.  1.
         11    1    1    2    0    0 -0.13275132492E+02  0.82162017645E+01 -0.46647284190E+03  0.46673402205E+03  0.00000000000E+00 0. -1.
        -15    1    1    2    0    0 -0.12504289830E+02 -0.11311108071E+03  0.23330021378E+03  0.25958162748E+03  0.17770000000E+01 0.  1.
         15    1    1    2    0    0 -0.20729693422E+02  0.74111089830E+02  0.81610010514E+02  0.11218522795E+03  0.17770000000E+01 0. -1.
</event>
<event>
 6   1  0.1826851E-04  0.5004331E+03  0.7546771E-02  0.9398841E-01
        -11   -1    0    0    0    0  0.00000000000E+00  0.00000000000E+00  0.50000000000E+03  0.50000000000E+03  0.00000000000E+00 0. -1.
         11   -1    0    0    0    0 -0.00000000000E+00 -0.00000000000E+00 -0.50000000000E+03  0.50000000000E+03  0.00000000000E+00 0.  1.
        -11    1    1    2    0    0 -0.10088947553E+02 -0.35100883816E+01  0.97377461803E+02  0.97961613147E+02  0.00000000000E+00 0. -1.
         11    1    1    2    0    0 -0.51248203165E+01  0.19493200118E+02 -0.49916013214E+03  0.49956689858E+03  0.00000000000E+00 0.  1.
        -15    1    1    2    0    0  0.56076075891E+01 -0.87270756897E+01  0.24061197036E+03  0.24084203354E+03  0.17770000000E+01 0.  1.
         15    1    1    2    0    0  0.96061602808E+01 -0.72560360466E+01  0.16117069998E+03  0.16162945473E+03  0.17770000000E+01 0. -1.
</event>
<event>
 6   1  0.1826851E-04  0.4868083E+03  0.7546771E-02  0.9429821E-01
        -11   -1    0    0    0    0  0.00000000000E+00  0.00000000000E+00  0.50000000000E+03  0.50000000000E+03  0.00000000000E+00 0.  1.
         11   -1    0    0    0    0 -0.00000000000E+00 -0.00000000000E+00 -0.50000000000E+03  0.50000000000E+03  0.00000000000E+00 0.  1.
        -11    1    1    2    0    0 -0.14273594109E+02  0.11072493732E+02  0.48587012593E+03  0.48620583592E+03  0.00000000000E+00 0.  1.
         11    1    1    2    0    0  0.55433279330E+01 -0.10239270162E+02 -0.48731219078E+03  0.48745127184E+03  0.00000000000E+00 0.  1.
        -15    1    1    2    0    0  0.49225161773E+01 -0.12213622504E+02 -0.26317874849E+01  0.13545765927E+02  0.17770000000E+01 0. -1.
         15    1    1    2    0    0  0.38077499992E+01  0.11380398933E+02  0.40738523325E+01  0.12797126309E+02  0.17770000000E+01 0.  1.
</event>
<event>
 6   1  0.1826851E-04  0.5028025E+03  0.7546771E-02  0.9393561E-01
        -11   -1    0    0    0    0  0.00000000000E+00  0.00000000000E+00  0.50000000000E+03  0.50000000000E+03  0.00000000000E+00 0. -1.
         11   -1    0    0    0    0 -0.00000000000E+00 -0.00000000000E+00 -0.50000000000E+03  0.50000000000E+03  0.00000000000E+00 0. -1.
        -11    1    1    2    0    0  0.23040366156E+02  0.89619228300E+00  0.49666259935E+03  0.49719754548E+03  0.00000000000E+00 0. -1.
         11    1    1    2    0    0 -0.57738767737E+01 -0.99704526790E+01 -0.37958090715E+03  0.37975572761E+03  0.00000000000E+00 0. -1.
        -15    1    1    2    0    0 -0.24262625044E+02  0.56835680560E+01 -0.54430805078E+02  0.59890301304E+02  0.17770000000E+01 0. -1.
         15    1    1    2    0    0  0.69961356618E+01  0.33906923400E+01 -0.62650887124E+02  0.63156425605E+02  0.17770000000E+01 0.  1.
</event>
<event>
 6   1  0.1826851E-04  0.5035575E+03  0.7546771E-02  0.9391885E-01
        -11   -1    0    0    0    0  0.00000000000E+00  0.00000000000E+00  0.50000000000E+03  0.50000000000E+03  0.00000000000E+00 0. -1.
         11   -1    0    0    0    0 -0.00000000000E+00 -0.00000000000E+00 -0.50000000000E+03  0.50000000000E+03  0.00000000000E+00 0. -1.
        -11    1    1    2    0    0  0.19357204301E+02 -0.57083531937E+00  0.49606465009E+03  0.49644250854E+03  0.00000000000E+00 0. -1.
         11    1    1    2    0    0  0.30180709105E+01 -0.88121000537E+01 -0.44016263683E+03  0.44026118240E+03  0.00000000000E+00 0. -1.
        -15    1    1    2    0    0 -0.40012968156E+01  0.10017824326E+02 -0.16692360028E+02  0.19953941785E+02  0.17770000000E+01 0. -1.
         15    1    1    2    0    0 -0.18373978396E+02 -0.63488895307E+00 -0.39209653230E+02  0.43342367281E+02  0.17770000000E+01 0.  1.
</event>
<event>
 6   1  0.1826851E-04  0.5011023E+03  0.7546771E-02  0.9397347E-01
        -11   -1    0    0    0    0  0.00000000000E+00  0.00000000000E+00  0.50000000000E+03  0.50000000000E+03  0.00000000000E+00 0.  1.
         11   -1    0    0    0    0 -0.00000000000E+00 -0.00000000000E+00 -0.50000000000E+03  0.50000000000E+03  0.00000000000E+00 0. -1.
        -11    1    1    2    0    0  0.48660267828E+01 -0.27353307092E+02  0.49812353208E+03  0.49889771982E+03  0.00000000000E+00 0.  1.
         11    1    1    2    0    0  0.84489359544E+01 -0.24673108952E+01 -0.29627055906E+03  0.29640127582E+03  0.00000000000E+00 0. -1.
        -15    1    1    2    0    0 -0.45546297870E+01  0.14311166118E+02 -0.68340761237E+02  0.69994081919E+02  0.17770000000E+01 0.  1.
         15    1    1    2    0    0 -0.87603329503E+01  0.15509451869E+02 -0.13351221178E+03  0.13470692244E+03  0.17770000000E+01 0. -1.
</event>
<event>
 6   1  0.1826851E-04  0.5011001E+03  0.7546771E-02  0.9397352E-01
        -11   -1    0    0    0    0  0.00000000000E+00  0.00000000000E+00  0.50000000000E+03  0.50000000000E+03  0.00000000000E+00 0. -1.
         11   -1    0    0    0    0 -0.00000000000E+00 -0.00000000000E+00 -0.50000000000E+03  0.50000000000E+03  0.00000000000E+00 0. -1.
        -11    1    1    2    0    0  0.10538487237E+02 -0.12517766895E+02  0.36039769222E+03  0.36076897144E+03  0.00000000000E+00 0. -1.
         11    1    1    2    0    0  0.83848454997E+01  0.33046580922E+01 -0.49881853711E+03  0.49889994925E+03  0.00000000000E+00 0. -1.
        -15    1    1    2    0    0 -0.57646362346E+01  0.54302196018E+01  0.74219292130E+02  0.74661766447E+02  0.17770000000E+01 0. -1.
         15    1    1    2    0    0 -0.13158696502E+02  0.37828892009E+01  0.64201552767E+02  0.65669312856E+02  0.17770000000E+01 0.  1.
</event>
<event>
 6   1  0.1826851E-04  0.4901532E+03  0.7546771E-02  0.9422116E-01
        -11   -1    0    0    0    0  0.00000000000E+00  0.00000000000E+00  0.50000000000E+03  0.50000000000E+03  0.00000000000E+00 0. -1.
         11   -1    0    0    0    0 -0.00000000000E+00 -0.00000000000E+00 -0.50000000000E+03  0.50000000000E+03  0.00000000000E+00 0.  1.
        -11    1    1    2    0    0  0.69396882254E+01  0.14375556150E+02  0.15415318733E+02  0.22191168039E+02  0.00000000000E+00 0. -1.
         11    1    1    2    0    0 -0.94110479881E+01 -0.76945449822E+01 -0.49511456874E+03  0.49526377823E+03  0.00000000000E+00 0.  1.
        -15    1    1    2    0    0 -0.14320927505E+02  0.17568882148E+02  0.19886531277E+03  0.20016074774E+03  0.17770000000E+01 0.  1.
         15    1    1    2    0    0  0.16792287268E+02 -0.24249893316E+02  0.28083393724E+03  0.28238430599E+03  0.17770000000E+01 0. -1.
</event>
<event>
 6   1  0.1826851E-04  0.5001194E+03  0.7546771E-02  0.9399543E-01
        -11   -1    0    0    0    0  0.00000000000E+00  0.00000000000E+00  0.50000000000E+03  0.50000000000E+03  0.00000000000E+00 0.  1.
         11   -1    0    0    0    0 -0.00000000000E+00 -0.00000000000E+00 -0.50000000000E+03  0.50000000000E+03  0.00000000000E+00 0.  1.
        -11    1    1    2    0    0 -0.93652602674E+01  0.25017272264E+01  0.23829841468E+03  0.23849549509E+03  0.00000000000E+00 0.  1.
         11    1    1    2    0    0  0.89349651432E+01  0.34479591040E+01 -0.49978884649E+03  0.49988059885E+03  0.00000000000E+00 0.  1.
        -15    1    1    2    0    0 -0.44816904071E+00 -0.47196982502E+01  0.22609356525E+03  0.22615024737E+03  0.17770000000E+01 0.  1.
         15    1    1    2    0    0  0.87846416499E+00 -0.12299880801E+01  0.35396866563E+02  0.35473658698E+02  0.17770000000E+01 0.  1.
</event>
<event>
 6   1  0.1826851E-04  0.5021699E+03  0.7546771E-02  0.9394967E-01
        -11   -1    0    0    0    0  0.00000000000E+00  0.00000000000E+00  0.50000000000E+03  0.50000000000E+03  0.00000000000E+00 0.  1.
         11   -1    0    0    0    0 -0.00000000000E+00 -0.00000000000E+00 -0.50000000000E+03  0.50000000000E+03  0.00000000000E+00 0. -1.
        -11    1    1    2    0    0 -0.79053455431E+01  0.23317406245E+01  0.46925097383E+03  0.46932335116E+03  0.00000000000E+00 0.  1.
         11    1    1    2    0    0 -0.70829202301E+01 -0.29151647385E+01 -0.49777116527E+03  0.49783009042E+03  0.00000000000E+00 0. -1.
        -15    1    1    2    0    0  0.97832415319E+01  0.63988782297E+00  0.12991126239E+02  0.16372182544E+02  0.17770000000E+01 0.  1.
         15    1    1    2    0    0  0.52050242412E+01 -0.56463708899E-01  0.15529065201E+02  0.16474375877E+02  0.17770000000E+01 0. -1.
</event>
<event>
 6   1  0.1826851E-04  0.5095329E+03  0.7546771E-02  0.9378728E-01
        -11   -1    0    0    0    0  0.00000000000E+00  0.00000000000E+00  0.50000000000E+03  0.50000000000E+03  0.00000000000E+00 0. -1.
         11   -1    0    0    0    0 -0.00000000000E+00 -0.00000000000E+00 -0.50000000000E+03  0.50000000000E+03  0.00000000000E+00 0. -1.
        -11    1    1    2    0    0  0.87614163568E+01  0.52540469998E+01  0.49036068177E+03  0.49046708926E+03  0.00000000000E+00 0. -1.
         11    1    1    2    0    0 -0.81423836145E+01  0.53938147402E+01 -0.48280991686E+03  0.48290869475E+03  0.00000000000E+00 0. -1.
        -15    1    1    2    0    0  0.55100901846E+01 -0.43680926876E+01 -0.13879468341E+02  0.15660098914E+02  0.17770000000E+01 0. -1.
         15    1    1    2    0    0 -0.61291229269E+01 -0.62797690524E+01  0.63287034303E+01  0.10964117079E+02  0.17770000000E+01 0.  1.
</event>
<event>
 6   1  0.1826851E-04  0.5008421E+03  0.7546771E-02  0.9397927E-01
        -11   -1    0    0    0    0  0.00000000000E+00  0.00000000000E+00  0.50000000000E+03  0.50000000000E+03  0.00000000000E+00 0.  1.
         11   -1    0    0    0    0 -0.00000000000E+00 -0.00000000000E+00 -0.50000000000E+03  0.50000000000E+03  0.00000000000E+00 0.  1.
        -11    1    1    2    0    0 -0.22719484793E+02 -0.62596244846E+01  0.31682224794E+03  0.31769748926E+03  0.00000000000E+00 0.  1.
         11    1    1    2    0    0  0.84810110552E+01  0.72954872422E+01 -0.49903250681E+03  0.49915788538E+03  0.00000000000E+00 0.  1.
        -15    1    1    2    0    0  0.88054085885E+01 -0.60832172510E+01  0.10822920724E+03  0.10877159455E+03  0.17770000000E+01 0. -1.
         15    1    1    2    0    0  0.54330651495E+01  0.50473544933E+01  0.73981051628E+02  0.74373030820E+02  0.17770000000E+01 0.  1.
</event>
<event>
 6   1  0.1826851E-04  0.5018236E+03  0.7546771E-02  0.9395738E-01
        -11   -1    0    0    0    0  0.00000000000E+00  0.00000000000E+00  0.50000000000E+03  0.50000000000E+03  0.00000000000E+00 0. -1.
         11   -1    0    0    0    0 -0.00000000000E+00 -0.00000000000E+00 -0.50000000000E+03  0.50000000000E+03  0.00000000000E+00 0.  1.
        -11    1    1    2    0    0 -0.74532334014E+01 -0.10029266803E+02  0.49801963420E+03  0.49817636729E+03  0.00000000000E+00 0. -1.
         11    1    1    2    0    0  0.71980624540E+01 -0.12971916707E+01 -0.46553164092E+03  0.46558909299E+03  0.00000000000E+00 0.  1.
        -15    1    1    2    0    0 -0.35020889332E+01  0.42898295918E+01 -0.53846140587E+01  0.79258477391E+01  0.17770000000E+01 0.  1.
         15    1    1    2    0    0  0.37572598806E+01  0.70366288818E+01 -0.27103379215E+02  0.28308691982E+02  0.17770000000E+01 0. -1.
</event>
<event>
 6   1  0.1826851E-04  0.5029413E+03  0.7546771E-02  0.9393252E-01
        -11   -1    0    0    0    0  0.00000000000E+00  0.00000000000E+00  0.50000000000E+03  0.50000000000E+03  0.00000000000E+00 0. -1.
         11   -1    0    0    0    0 -0.00000000000E+00 -0.00000000000E+00 -0.50000000000E+03  0.50000000000E+03  0.00000000000E+00 0.  1.
        -11    1    1    2    0    0  0.92578172947E+01 -0.20203632562E+02  0.38400561593E+03  0.38464816003E+03  0.00000000000E+00 0. -1.
         11    1    1    2    0    0 -0.72026813683E+01  0.22912218872E+01 -0.49700118469E+03  0.49705865439E+03  0.00000000000E+00 0.  1.
        -15    1    1    2    0    0  0.12516056137E+02  0.11490897932E+02  0.38914624805E+02  0.42499389987E+02  0.17770000000E+01 0.  1.
         15    1    1    2    0    0 -0.14571192063E+02  0.64215127430E+01  0.74080943955E+02  0.75793795593E+02  0.17770000000E+01 0. -1.
</event>
<event>
 6   1  0.1826851E-04  0.5055455E+03  0.7546771E-02  0.9387486E-01
        -11   -1    0    0    0    0  0.00000000000E+00  0.00000000000E+00  0.50000000000E+03  0.50000000000E+03  0.00000000000E+00 0.  1.
         11   -1    0    0    0    0 -0.00000000000E+00 -0.00000000000E+00 -0.50000000000E+03  0.50000000000E+03  0.00000000000E+00 0.  1.
        -11    1    1    2    0    0 -0.17817152884E+02  0.61810080465E+01  0.44094156814E+03  0.44134467518E+03  0.00000000000E+00 0.  1.
         11    1    1    2    0    0  0.57581270910E+01  0.81036903278E+01 -0.49435451095E+03  0.49445445526E+03  0.00000000000E+00 0.  1.
        -15    1    1    2    0    0  0.14028391683E+02 -0.12774857310E+02  0.56639527663E+02  0.59759405748E+02  0.17770000000E+01 0. -1.
         15    1    1    2    0    0 -0.19693658896E+01 -0.15098410639E+01 -0.32265848473E+01  0.44414638153E+01  0.17770000000E+01 0.  1.
</event>
<event>
 6   1  0.1826851E-04  0.5156198E+03  0.7546771E-02  0.9365522E-01
        -11   -1    0    0    0    0  0.00000000000E+00  0.00000000000E+00  0.50000000000E+03  0.50000000000E+03  0.00000000000E+00 0. -1.
         11   -1    0    0    0    0 -0.00000000000E+00 -0.00000000000E+00 -0.50000000000E+03  0.50000000000E+03  0.00000000000E+00 0.  1.
        -11    1    1    2    0    0  0.30209244993E+01 -0.29347322605E+02  0.44020369551E+03  0.44119121124E+03  0.00000000000E+00 0. -1.
         11    1    1    2    0    0  0.76159014882E+00 -0.26570631164E+02 -0.48365030838E+03  0.48438022179E+03  0.00000000000E+00 0.  1.
        -15    1    1    2    0    0 -0.12518083763E+02  0.36244145749E+02  0.23375829281E+02  0.44943605171E+02  0.17770000000E+01 0.  1.
         15    1    1    2    0    0  0.87355691152E+01  0.19673808020E+02  0.20070783589E+02  0.29484961805E+02  0.17770000000E+01 0. -1.
</event>
<event>
 6   1  0.1826851E-04  0.5023329E+03  0.7546771E-02  0.9394605E-01
        -11   -1    0    0    0    0  0.00000000000E+00  0.00000000000E+00  0.50000000000E+03  0.50000000000E+03  0.00000000000E+00 0.  1.
         11   -1    0    0    0    0 -0.00000000000E+00 -0.00000000000E+00 -0.50000000000E+03  0.50000000000E+03  0.00000000000E+00 0.  1.
        -11    1    1    2    0    0 -0.13054211995E+02 -0.40603879505E+01  0.49747928254E+03  0.49766709330E+03  0.00000000000E+00 0.  1.
         11    1    1    2    0    0 -0.58732824738E+01 -0.17209580476E+01 -0.41377652428E+03  0.41382178434E+03  0.00000000000E+00 0.  1.
        -15    1    1    2    0    0  0.68709588908E+00  0.76635487419E+01 -0.44499530952E+02  0.45194779168E+02  0.17770000000E+01 0. -1.
         15    1    1    2    0    0  0.18240398579E+02 -0.18822027439E+01 -0.39203227304E+02  0.43316343192E+02  0.17770000000E+01 0.  1.
</event>
<event>
 6   1  0.1826851E-04  0.4806469E+03  0.7546771E-02  0.9444186E-01
        -11   -1    0    0    0    0  0.00000000000E+00  0.00000000000E+00  0.50000000000E+03  0.50000000000E+03  0.00000000000E+00 0.  1.
         11   -1    0    0    0    0 -0.00000000000E+00 -0.00000000000E+00 -0.50000000000E+03  0.50000000000E+03  0.00000000000E+00 0.  1.
        -11    1    1    2    0    0  0.15092939038E+02  0.20047927599E+02  0.48399913419E+03  0.48464923203E+03  0.00000000000E+00 0.  1.
         11    1    1    2    0    0  0.42806272489E+01 -0.90268402340E+01 -0.47682509651E+03  0.47692974354E+03  0.00000000000E+00 0.  1.
        -15    1    1    2    0    0 -0.60011353451E+01 -0.84519957766E+00 -0.17509182537E+02  0.18613360521E+02  0.17770000000E+01 0. -1.
         15    1    1    2    0    0 -0.13372430942E+02 -0.10175887788E+02  0.10335144854E+02  0.19807663914E+02  0.17770000000E+01 0.  1.
</event>
<event>
 6   1  0.1826851E-04  0.5354780E+03  0.7546771E-02  0.9323747E-01
        -11   -1    0    0    0    0  0.00000000000E+00  0.00000000000E+00  0.50000000000E+03  0.50000000000E+03  0.00000000000E+00 0. -1.
         11   -1    0    0    0    0 -0.00000000000E+00 -0.00000000000E+00 -0.50000000000E+03  0.50000000000E+03  0.00000000000E+00 0. -1.
        -11    1    1    2    0    0  0.53112797929E+02  0.67265952413E+02  0.28962172521E+03  0.30203711920E+03  0.00000000000E+00 0. -1.
         11    1    1    2    0    0 -0.20433836345E+02  0.11954715461E+02 -0.46391831677E+03  0.46452197099E+03  0.00000000000E+00 0. -1.
        -15    1    1    2    0    0 -0.43629860368E+02 -0.75713967779E+02  0.19274129783E+03  0.21163302023E+03  0.17770000000E+01 0. -1.
         15    1    1    2    0    0  0.10950898784E+02 -0.35067000951E+01 -0.18444706273E+02  0.21807889586E+02  0.17770000000E+01 0.  1.
</event>
<event>
 6   1  0.1826851E-04  0.5032504E+03  0.7546771E-02  0.9392566E-01
        -11   -1    0    0    0    0  0.00000000000E+00  0.00000000000E+00  0.50000000000E+03  0.50000000000E+03  0.00000000000E+00 0. -1.
         11   -1    0    0    0    0 -0.00000000000E+00 -0.00000000000E+00 -0.50000000000E+03  0.50000000000E+03  0.00000000000E+00 0.  1.
        -11    1    1    2    0    0 -0.12899706778E+02 -0.47413581344E+01  0.47042493540E+03  0.47062565034E+03  0.00000000000E+00 0. -1.
         11    1    1    2    0    0  0.12760559959E+02 -0.36197437020E+01 -0.49657250083E+03  0.49674961803E+03  0.00000000000E+00 0.  1.
        -15    1    1    2    0    0  0.13634018110E+01  0.12932804235E+02  0.23502523584E+02  0.26919187092E+02  0.17770000000E+01 0. -1.
         15    1    1    2    0    0 -0.12242549912E+01 -0.45717023991E+01  0.26450418442E+01  0.57055445373E+01  0.17770000000E+01 0.  1.
</event>
<event>
 6   1  0.1826851E-04  0.5000302E+03  0.7546771E-02  0.9399742E-01
        -11   -1    0    0    0    0  0.00000000000E+00  0.00000000000E+00  0.50000000000E+03  0.50000000000E+03  0.00000000000E+00 0.  1.
         11   -1    0    0    0    0 -0.00000000000E+00 -0.00000000000E+00 -0.50000000000E+03  0.50000000000E+03  0.00000000000E+00 0.  1.
        -11    1    1    2    0    0  0.19280876989E+01 -0.11691952237E+02  0.49982931588E+03  0.49996976337E+03  0.00000000000E+00 0.  1.
         11    1    1    2    0    0 -0.14156579457E+01  0.27216353475E+01 -0.18960327401E+03  0.18962809101E+03  0.00000000000E+00 0.  1.
        -15    1    1    2    0    0 -0.90016198939E+00  0.81318564042E+01 -0.23376409748E+03  0.23391397645E+03  0.17770000000E+01 0.  1.
         15    1    1    2    0    0  0.38773223622E+00  0.83846048538E+00 -0.76461944392E+02  0.76488169160E+02  0.17770000000E+01 0. -1.
</event>
<event>
 6   1  0.1826851E-04  0.5001070E+03  0.7546771E-02  0.9399570E-01
        -11   -1    0    0    0    0  0.00000000000E+00  0.00000000000E+00  0.50000000000E+03  0.50000000000E+03  0.00000000000E+00 0. -1.
         11   -1    0    0    0    0 -0.00000000000E+00 -0.00000000000E+00 -0.50000000000E+03  0.50000000000E+03  0.00000000000E+00 0.  1.
        -11    1    1    2    0    0 -0.99950799633E+01  0.26565605469E+02  0.49908650134E+03  0.49989295738E+03  0.00000000000E+00 0. -1.
         11    1    1    2    0    0  0.17938544708E+01 -0.17909499336E+02 -0.33496853590E+03  0.33545176721E+03  0.00000000000E+00 0.  1.
        -15    1    1    2    0    0  0.64294949741E+01 -0.36030552792E+01 -0.10219173756E+03  0.10247257861E+03  0.17770000000E+01 0.  1.
         15    1    1    2    0    0  0.17717305184E+01 -0.50530508534E+01 -0.61926227884E+02  0.62182696797E+02  0.17770000000E+01 0. -1.
</event>
<event>
 6   1  0.1826851E-04  0.5004522E+03  0.7546771E-02  0.9398798E-01
        -11   -1    0    0    0    0  0.00000000000E+00  0.00000000000E+00  0.50000000000E+03  0.50000000000E+03  0.00000000000E+00 0. -1.
         11   -1    0    0    0    0 -0.00000000000E+00 -0.00000000000E+00 -0.50000000000E+03  0.50000000000E+03  0.00000000000E+00 0.  1.
        -11    1    1    2    0    0 -0.10835079822E+02 -0.61813372154E+01  0.49939201198E+03  0.49954778501E+03  0.00000000000E+00 0. -1.
         11    1    1    2    0    0 -0.37795048359E+01 -0.17087244601E+01 -0.29881724452E+03  0.29884603062E+03  0.00000000000E+00 0.  1.
        -15    1    1    2    0    0  0.27440216512E+01  0.27505869042E+01 -0.11126753246E+03  0.11134952579E+03  0.17770000000E+01 0.  1.
         15    1    1    2    0    0  0.11870563007E+02  0.51394747713E+01 -0.89307234993E+02  0.90256658581E+02  0.17770000000E+01 0.  1.
</event>
<event>
 6   1  0.1826851E-04  0.5088469E+03  0.7546771E-02  0.9380229E-01
        -11   -1    0    0    0    0  0.00000000000E+00  0.00000000000E+00  0.50000000000E+03  0.50000000000E+03  0.00000000000E+00 0. -1.
         11   -1    0    0    0    0 -0.00000000000E+00 -0.00000000000E+00 -0.50000000000E+03  0.50000000000E+03  0.00000000000E+00 0. -1.
        -11    1    1    2    0    0 -0.43782605795E+02  0.11810972791E+02  0.38659379863E+03  0.38924437155E+03  0.00000000000E+00 0. -1.
         11    1    1    2    0    0  0.19121294541E+00 -0.31294202128E+02 -0.49015513065E+03  0.49115314898E+03  0.00000000000E+00 0. -1.
        -15    1    1    2    0    0  0.68944910762E+01  0.15510437816E+02  0.60487212518E+02  0.62848773223E+02  0.17770000000E+01 0.  1.
         15    1    1    2    0    0  0.36696901773E+02  0.39727915204E+01  0.43074119506E+02  0.56753706244E+02  0.17770000000E+01 0. -1.
</event>
<event>
 6   1  0.1826851E-04  0.5029530E+03  0.7546771E-02  0.9393226E-01
        -11   -1    0    0    0    0  0.00000000000E+00  0.00000000000E+00  0.50000000000E+03  0.50000000000E+03  0.00000000000E+00 0. -1.
         11   -1    0    0    0    0 -0.00000000000E+00 -0.00000000000E+00 -0.50000000000E+03  0.50000000000E+03  0.00000000000E+00 0. -1.
        -11    1    1    2    0    0 -0.14965618327E+02 -0.54323649959E+00  0.49682139535E+03  0.49704704376E+03  0.00000000000E+00 0. -1.
         11    1    1    2    0    0  0.50586661406E+01 -0.45424117882E+01 -0.47013809193E+03  0.47018724897E+03  0.00000000000E+00 0. -1.
        -15    1    1    2    0    0 -0.51805601619E+00  0.77572197010E+01 -0.93873887524E+01  0.12317614871E+02  0.17770000000E+01 0. -1.
         15    1    1    2    0    0  0.10425008202E+02 -0.26715714131E+01 -0.17295914665E+02  0.20448092403E+02  0.17770000000E+01 0.  1.
</event>
<event>
 6   1  0.1826851E-04  0.4900254E+03  0.7546771E-02  0.9422409E-01
        -11   -1    0    0    0    0  0.00000000000E+00  0.00000000000E+00  0.50000000000E+03  0.50000000000E+03  0.00000000000E+00 0.  1.
         11   -1    0    0    0    0 -0.00000000000E+00 -0.00000000000E+00 -0.50000000000E+03  0.50000000000E+03  0.00000000000E+00 0. -1.
        -11    1    1    2    0    0 -0.90269848323E+01  0.11670047362E+02  0.49101299426E+03  0.49123460484E+03  0.00000000000E+00 0.  1.
         11    1    1    2    0    0 -0.51926502932E+01 -0.50747882956E+01 -0.48888987519E+03  0.48894378732E+03  0.00000000000E+00 0. -1.
        -15    1    1    2    0    0  0.47188272958E+01 -0.79061790107E+01  0.13368696798E+01  0.94720613985E+01  0.17770000000E+01 0. -1.
         15    1    1    2    0    0  0.95008078297E+01  0.13109199440E+01 -0.34599887454E+01  0.10349546446E+02  0.17770000000E+01 0.  1.
</event>
<event>
 6   1  0.1826851E-04  0.5038720E+03  0.7546771E-02  0.9391187E-01
        -11   -1    0    0    0    0  0.00000000000E+00  0.00000000000E+00  0.50000000000E+03  0.50000000000E+03  0.00000000000E+00 0.  1.
         11   -1    0    0    0    0 -0.00000000000E+00 -0.00000000000E+00 -0.50000000000E+03  0.50000000000E+03  0.00000000000E+00 0. -1.
        -11    1    1    2    0    0 -0.32008207517E+01  0.17530298692E+02  0.49580782930E+03  0.49612796758E+03  0.00000000000E+00 0.  1.
         11    1    1    2    0    0  0.64856153216E+01  0.11114632719E+01 -0.45377586138E+03  0.45382356807E+03  0.00000000000E+00 0. -1.
        -15    1    1    2    0    0  0.33493730708E+01 -0.20969336907E+01 -0.24856049590E+02  0.25230861284E+02  0.17770000000E+01 0.  1.
         15    1    1    2    0    0 -0.66341676407E+01 -0.16544828273E+02 -0.17175918322E+02  0.24817603069E+02  0.17770000000E+01 0. -1.
</event>
<event>
 6   1  0.1826851E-04  0.5024407E+03  0.7546771E-02  0.9394365E-01
        -11   -1    0    0    0    0  0.00000000000E+00  0.00000000000E+00  0.50000000000E+03  0.50000000000E+03  0.00000000000E+00 0. -1.
         11   -1    0    0    0    0 -0.00000000000E+00 -0.00000000000E+00 -0.50000000000E+03  0.50000000000E+03  0.00000000000E+00 0.  1.
        -11    1    1    2    0    0  0.11520386195E+02 -0.23412961700E+02  0.72233790151E+02  0.76802386117E+02  0.00000000000E+00 0. -1.
         11    1    1    2    0    0 -0.11812480006E+01  0.96774430686E+01 -0.49746380957E+03  0.49755933323E+03  0.00000000000E+00 0.  1.
        -15    1    1    2    0    0  0.72006351796E-01  0.16812786751E+01  0.39775731714E+02  0.39850952878E+02  0.17770000000E+01 0. -1.
         15    1    1    2    0    0 -0.10411144546E+02  0.12054239956E+02  0.38545428771E+03  0.38578732778E+03  0.17770000000E+01 0. -1.
</event>
<event>
 6   1  0.1826851E-04  0.5001363E+03  0.7546771E-02  0.9399505E-01
        -11   -1    0    0    0    0  0.00000000000E+00  0.00000000000E+00  0.50000000000E+03  0.50000000000E+03  0.00000000000E+00 0.  1.
         11   -1    0    0    0    0 -0.00000000000E+00 -0.00000000000E+00 -0.50000000000E+03  0.50000000000E+03  0.00000000000E+00 0. -1.
        -11    1    1    2    0    0  0.62499008931E+01 -0.38410401575E+01  0.10738642099E+03  0.10763669571E+03  0.00000000000E+00 0.  1.
         11    1    1    2    0    0 -0.93085646153E+01 -0.23096004581E+01 -0.49977168888E+03  0.49986370606E+03  0.00000000000E+00 0. -1.
        -15    1    1    2    0    0  0.19436105719E+01  0.48225234323E+01  0.34905745613E+03  0.34910070147E+03  0.17770000000E+01 0.  1.
         15    1    1    2    0    0  0.11150531504E+01  0.13281171834E+01  0.43327811764E+02  0.43398896761E+02  0.17770000000E+01 0. -1.
</event>
<event>
 6   1  0.1826851E-04  0.5005769E+03  0.7546771E-02  0.9398520E-01
        -11   -1    0    0    0    0  0.00000000000E+00  0.00000000000E+00  0.50000000000E+03  0.50000000000E+03  0.00000000000E+00 0. -1.
         11   -1    0    0    0    0 -0.00000000000E+00 -0.00000000000E+00 -0.50000000000E+03  0.50000000000E+03  0.00000000000E+00 0.  1.
        -11    1    1    2    0    0  0.17583028719E+01 -0.81158877117E+01  0.45057729408E+02  0.45816571694E+02  0.00000000000E+00 0. -1.
         11    1    1    2    0    0  0.11657025364E+02 -0.46372752126E+01 -0.49926552637E+03  0.49942312360E+03  0.00000000000E+00 0.  1.
        -15    1    1    2    0    0 -0.34392095994E+01 -0.11991884010E+01  0.42843025578E+02  0.43034274540E+02  0.17770000000E+01 0.  1.
         15    1    1    2    0    0 -0.99761186368E+01  0.13952351325E+02  0.41136477139E+03  0.41172603017E+03  0.17770000000E+01 0. -1.
</event>
<event>
 6   1  0.1826851E-04  0.5017205E+03  0.7546771E-02  0.9395968E-01
        -11   -1    0    0    0    0  0.00000000000E+00  0.00000000000E+00  0.50000000000E+03  0.50000000000E+03  0.00000000000E+00 0.  1.
         11   -1    0    0    0    0 -0.00000000000E+00 -0.00000000000E+00 -0.50000000000E+03  0.50000000000E+03  0.00000000000E+00 0.  1.
        -11    1    1    2    0    0 -0.10210160056E+02  0.12141379854E+02  0.66049107741E+02  0.67927498898E+02  0.00000000000E+00 0.  1.
         11    1    1    2    0    0  0.67541063432E+01 -0.39793614167E+01 -0.49821780748E+03  0.49827947676E+03  0.00000000000E+00 0.  1.
        -15    1    1    2    0    0 -0.58963016339E+01 -0.72235584189E+01  0.40267451321E+03  0.40278637947E+03  0.17770000000E+01 0.  1.
         15    1    1    2    0    0  0.93523553463E+01 -0.93846001853E+00  0.29494186533E+02  0.31006644868E+02  0.17770000000E+01 0. -1.
</event>
<event>
 6   1  0.1826851E-04  0.5022351E+03  0.7546771E-02  0.9394822E-01
        -11   -1    0    0    0    0  0.00000000000E+00  0.00000000000E+00  0.50000000000E+03  0.50000000000E+03  0.00000000000E+00 0. -1.
         11   -1    0    0    0    0 -0.00000000000E+00 -0.00000000000E+00 -0.50000000000E+03  0.50000000000E+03  0.00000000000E+00 0. -1.
        -11    1    1    2    0    0  0.17060244506E+02 -0.19059119820E+02  0.85305414329E+02  0.89057934541E+02  0.00000000000E+00 0. -1.
         11    1    1    2    0    0 -0.29948084190E+02  0.16812316888E+01 -0.49686032823E+03  0.49776490440E+03  0.00000000000E+00 0. -1.
        -15    1    1    2    0    0 -0.80790906718E+01  0.11513275885E+02  0.19840477078E+03  0.19891062823E+03  0.17770000000E+01 0. -1.
         15    1    1    2    0    0  0.20966930356E+02  0.58646122461E+01  0.21315014312E+03  0.21426653282E+03  0.17770000000E+01 0.  1.
</event>
<event>
 6   1  0.1826851E-04  0.5030739E+03  0.7546771E-02  0.9392958E-01
        -11   -1    0    0    0    0  0.00000000000E+00  0.00000000000E+00  0.50000000000E+03  0.50000000000E+03  0.00000000000E+00 0.  1.
         11   -1    0    0    0    0 -0.00000000000E+00 -0.00000000000E+00 -0.50000000000E+03  0.50000000000E+03  0.00000000000E+00 0. -1.
        -11    1    1    2    0    0  0.28383396423E+02 -0.63692408312E+00  0.42875988406E+03  0.42969880270E+03  0.00000000000E+00 0.  1.
         11    1    1    2    0    0 -0.75988923592E+01  0.63798231997E+01 -0.49682702280E+03  0.49692608696E+03  0.00000000000E+00 0. -1.
        -15    1    1    2    0    0 -0.15743722145E+02  0.37467717245E+01  0.45304574707E+02  0.48141097866E+02  0.17770000000E+01 0.  1.
         15    1    1    2    0    0 -0.50407819185E+01 -0.94896708410E+01  0.22762564037E+02  0.25234012474E+02  0.17770000000E+01 0. -1.
</event>
<event>
 6   1  0.1826851E-04  0.5042741E+03  0.7546771E-02  0.9390297E-01
        -11   -1    0    0    0    0  0.00000000000E+00  0.00000000000E+00  0.50000000000E+03  0.50000000000E+03  0.00000000000E+00 0. -1.
         11   -1    0    0    0    0 -0.00000000000E+00 -0.00000000000E+00 -0.50000000000E+03  0.50000000000E+03  0.00000000000E+00 0. -1.
        -11    1    1    2    0    0 -0.11936224726E+02  0.76419302301E+00  0.47774254616E+03  0.47789224504E+03  0.00000000000E+00 0. -1.
         11    1    1    2    0    0 -0.49323340516E+01  0.53776924418E+01 -0.49567220107E+03  0.49572591057E+03  0.00000000000E+00 0. -1.
        -15    1    1    2    0    0  0.27382286799E+01 -0.33979803012E+01  0.58141972703E+01  0.74837681237E+01  0.17770000000E+01 0.  1.
         15    1    1    2    0    0  0.14130330097E+02 -0.27439051636E+01  0.12115457634E+02  0.18898076275E+02  0.17770000000E+01 0. -1.
</event>
<event>
 6   1  0.1826851E-04  0.5006862E+03  0.7546771E-02  0.9398276E-01
        -11   -1    0    0    0    0  0.00000000000E+00  0.00000000000E+00  0.50000000000E+03  0.50000000000E+03  0.00000000000E+00 0.  1.
         11   -1    0    0    0    0 -0.00000000000E+00 -0.00000000000E+00 -0.50000000000E+03  0.50000000000E+03  0.00000000000E+00 0. -1.
        -11    1    1    2    0    0  0.24457318050E+02 -0.10122636505E+02  0.31294464478E+03  0.31406206214E+03  0.00000000000E+00 0.  1.
         11    1    1    2    0    0 -0.13974124470E+02  0.66386178364E+01 -0.49907409835E+03  0.49931383222E+03  0.00000000000E+00 0. -1.
        -15    1    1    2    0    0 -0.57726091429E+01  0.32939575717E+01  0.59837500809E+02  0.60231697675E+02  0.17770000000E+01 0. -1.
         15    1    1    2    0    0 -0.47105844373E+01  0.19006109666E+00  0.12629195276E+03  0.12639240796E+03  0.17770000000E+01 0.  1.
</event>
<event>
 6   1  0.1826851E-04  0.4954636E+03  0.7546771E-02  0.9410018E-01
        -11   -1    0    0    0    0  0.00000000000E+00  0.00000000000E+00  0.50000000000E+03  0.50000000000E+03  0.00000000000E+00 0. -1.
         11   -1    0    0    0    0 -0.00000000000E+00 -0.00000000000E+00 -0.50000000000E+03  0.50000000000E+03  0.00000000000E+00 0. -1.
        -11    1    1    2    0    0  0.10571224733E+02 -0.13103734919E+01  0.49669159847E+03  0.49680580900E+03  0.00000000000E+00 0. -1.
         11    1    1    2    0    0 -0.50378103506E+01  0.58464398833E+01 -0.49409042702E+03  0.49415069611E+03  0.00000000000E+00 0. -1.
        -15    1    1    2    0    0 -0.44471748147E+01 -0.25829655886E+01 -0.29119682728E+01  0.61714150150E+01  0.17770000000E+01 0. -1.
         15    1    1    2    0    0 -0.10862395671E+01 -0.19531008027E+01  0.31079682189E+00  0.28720798748E+01  0.17770000000E+01 0.  1.
</event>
<event>
 6   1  0.1826851E-04  0.5011700E+03  0.7546771E-02  0.9397196E-01
        -11   -1    0    0    0    0  0.00000000000E+00  0.00000000000E+00  0.50000000000E+03  0.50000000000E+03  0.00000000000E+00 0.  1.
         11   -1    0    0    0    0 -0.00000000000E+00 -0.00000000000E+00 -0.50000000000E+03  0.50000000000E+03  0.00000000000E+00 0. -1.
        -11    1    1    2    0    0  0.12030152969E+02  0.78766538676E+01  0.49862274181E+03  0.49883003609E+03  0.00000000000E+00 0.  1.
         11    1    1    2    0    0  0.77117314914E+01 -0.65844148617E+01 -0.38129871678E+03  0.38143352860E+03  0.00000000000E+00 0. -1.
        -15    1    1    2    0    0 -0.14976663717E+02 -0.66338023592E+01 -0.84927911038E+02  0.86511361058E+02  0.17770000000E+01 0.  1.
         15    1    1    2    0    0 -0.47652207429E+01  0.53415633533E+01 -0.32396113992E+02  0.33225074245E+02  0.17770000000E+01 0. -1.
</event>
<event>
 6   1  0.1826851E-04  0.5004012E+03  0.7546771E-02  0.9398913E-01
        -11   -1    0    0    0    0  0.00000000000E+00  0.00000000000E+00  0.50000000000E+03  0.50000000000E+03  0.00000000000E+00 0.  1.
         11   -1    0    0    0    0 -0.00000000000E+00 -0.00000000000E+00 -0.50000000000E+03  0.50000000000E+03  0.00000000000E+00 0. -1.
        -11    1    1    2    0    0 -0.48832486941E+01 -0.32669799275E+01  0.43624427087E+02  0.44018290680E+02  0.00000000000E+00 0.  1.
         11    1    1    2    0    0 -0.28202075743E+01  0.96234489643E+01 -0.49949818698E+03  0.49959884221E+03  0.00000000000E+00 0. -1.
        -15    1    1    2    0    0 -0.44663901509E+01  0.26859046574E+01  0.74239348324E+02  0.74443275676E+02  0.17770000000E+01 0. -1.
         15    1    1    2    0    0  0.12169846419E+02 -0.90423736942E+01  0.38163441157E+03  0.38193959144E+03  0.17770000000E+01 0.  1.
</event>
<event>
 6   1  0.1826851E-04  0.5019277E+03  0.7546771E-02  0.9395507E-01
        -11   -1    0    0    0    0  0.00000000000E+00  0.00000000000E+00  0.50000000000E+03  0.50000000000E+03  0.00000000000E+00 0.  1.
         11   -1    0    0    0    0 -0.00000000000E+00 -0.00000000000E+00 -0.50000000000E+03  0.50000000000E+03  0.00000000000E+00 0.  1.
        -11    1    1    2    0    0 -0.17928915181E+01  0.19682156091E+02  0.49768001673E+03  0.49807228469E+03  0.00000000000E+00 0.  1.
         11    1    1    2    0    0  0.97775361278E+01  0.19938129062E+01 -0.42619774164E+03  0.42631454407E+03  0.00000000000E+00 0.  1.
        -15    1    1    2    0    0 -0.43718649453E+01 -0.34411173369E+01 -0.13854016491E+02  0.15034826023E+02  0.17770000000E+01 0. -1.
         15    1    1    2    0    0 -0.36127796644E+01 -0.18234851660E+02 -0.57628258593E+02  0.60578345218E+02  0.17770000000E+01 0.  1.
</event>
<event>
 6   1  0.1826851E-04  0.5075638E+03  0.7546771E-02  0.9383042E-01
        -11   -1    0    0    0    0  0.00000000000E+00  0.00000000000E+00  0.50000000000E+03  0.50000000000E+03  0.00000000000E+00 0. -1.
         11   -1    0    0    0    0 -0.00000000000E+00 -0.00000000000E+00 -0.50000000000E+03  0.50000000000E+03  0.00000000000E+00 0.  1.
        -11    1    1    2    0    0 -0.79143605387E+01  0.12069502091E+02  0.48086223411E+03  0.48107878583E+03  0.00000000000E+00 0. -1.
         11    1    1    2    0    0 -0.65825295020E+01 -0.13059253195E+02 -0.49221902798E+03  0.49243623475E+03  0.00000000000E+00 0.  1.
        -15    1    1    2    0    0  0.33082894629E+01 -0.82642938613E+01  0.61197769272E+01  0.10947727199E+02  0.17770000000E+01 0. -1.
         15    1    1    2    0    0  0.11188600578E+02  0.92540449658E+01  0.52370169392E+01  0.15537252220E+02  0.17770000000E+01 0.  1.
</event>
<event>
 6   1  0.1826851E-04  0.5008526E+03  0.7546771E-02  0.9397904E-01
        -11   -1    0    0    0    0  0.00000000000E+00  0.00000000000E+00  0.50000000000E+03  0.50000000000E+03  0.00000000000E+00 0.  1.
         11   -1    0    0    0    0 -0.00000000000E+00 -0.00000000000E+00 -0.50000000000E+03  0.50000000000E+03  0.00000000000E+00 0.  1.
        -11    1    1    2    0    0 -0.23529730293E+01 -0.61474515396E+01  0.43560749181E+03  0.43565722140E+03  0.00000000000E+00 0.  1.
         11    1    1    2    0    0 -0.65074071857E+01  0.21043388742E+01 -0.49910053405E+03  0.49914739074E+03  0.00000000000E+00 0.  1.
        -15    1    1    2    0    0  0.29561155604E+01  0.54743727165E+01  0.15640661328E+02  0.16926174749E+02  0.17770000000E+01 0.  1.
         15    1    1    2    0    0  0.59042646547E+01 -0.14312600511E+01  0.47852380912E+02  0.48269213112E+02  0.17770000000E+01 0. -1.
</event>
<event>
 6   1  0.1826851E-04  0.5069777E+03  0.7546771E-02  0.9384330E-01
        -11   -1    0    0    0    0  0.00000000000E+00  0.00000000000E+00  0.50000000000E+03  0.50000000000E+03  0.00000000000E+00 0. -1.
         11   -1    0    0    0    0 -0.00000000000E+00 -0.00000000000E+00 -0.50000000000E+03  0.50000000000E+03  0.00000000000E+00 0. -1.
        -11    1    1    2    0    0  0.19753221159E+02 -0.87437249893E+00  0.49262562868E+03  0.49302227567E+03  0.00000000000E+00 0. -1.
         11    1    1    2    0    0 -0.92543456597E+00  0.84467266937E+01 -0.47832381206E+03  0.47839928178E+03  0.00000000000E+00 0. -1.
        -15    1    1    2    0    0 -0.14050207525E+02  0.15333129502E+01 -0.92492631430E+01  0.16984286202E+02  0.17770000000E+01 0. -1.
         15    1    1    2    0    0 -0.47775790676E+01 -0.91056671449E+01 -0.50525534717E+01  0.11594156351E+02  0.17770000000E+01 0.  1.
</event>
<event>
 6   1  0.1826851E-04  0.4779546E+03  0.7546771E-02  0.9450536E-01
        -11   -1    0    0    0    0  0.00000000000E+00  0.00000000000E+00  0.50000000000E+03  0.50000000000E+03  0.00000000000E+00 0. -1.
         11   -1    0    0    0    0 -0.00000000000E+00 -0.00000000000E+00 -0.50000000000E+03  0.50000000000E+03  0.00000000000E+00 0.  1.
        -11    1    1    2    0    0 -0.12007293493E+02 -0.39350361269E+02 -0.13127417301E+02  0.43185126074E+02  0.00000000000E+00 0. -1.
         11    1    1    2    0    0  0.19105079709E+02 -0.35386508063E+00 -0.47077677544E+03  0.47116441036E+03  0.00000000000E+00 0.  1.
        -15    1    1    2    0    0 -0.70253971690E+01  0.36826147564E+02  0.42726556897E+03  0.42891088294E+03  0.17770000000E+01 0. -1.
         15    1    1    2    0    0 -0.72389046639E-01  0.28780787856E+01  0.56638623777E+02  0.56739580630E+02  0.17770000000E+01 0.  1.
</event>
<event>
 6   1  0.1826851E-04  0.5027490E+03  0.7546771E-02  0.9393680E-01
        -11   -1    0    0    0    0  0.00000000000E+00  0.00000000000E+00  0.50000000000E+03  0.50000000000E+03  0.00000000000E+00 0. -1.
         11   -1    0    0    0    0 -0.00000000000E+00 -0.00000000000E+00 -0.50000000000E+03  0.50000000000E+03  0.00000000000E+00 0.  1.
        -11    1    1    2    0    0 -0.14279433097E+02  0.11450229009E+02  0.42202029664E+03  0.42241702230E+03  0.00000000000E+00 0. -1.
         11    1    1    2    0    0  0.68009936253E+01  0.15171008935E+02 -0.49697298213E+03  0.49725100100E+03  0.00000000000E+00 0.  1.
        -15    1    1    2    0    0  0.82630016525E+01 -0.21391804699E+02  0.64589051098E+02  0.68562305645E+02  0.17770000000E+01 0. -1.
         15    1    1    2    0    0 -0.78456218063E+00 -0.52294332454E+01  0.10363634398E+02  0.11769671058E+02  0.17770000000E+01 0.  1.
</event>
<event>
 6   1  0.1826851E-04  0.5019037E+03  0.7546771E-02  0.9395560E-01
        -11   -1    0    0    0    0  0.00000000000E+00  0.00000000000E+00  0.50000000000E+03  0.50000000000E+03  0.00000000000E+00 0.  1.
         11   -1    0    0    0    0 -0.00000000000E+00 -0.00000000000E+00 -0.50000000000E+03  0.50000000000E+03  0.00000000000E+00 0. -1.
        -11    1    1    2    0    0 -0.79023357251E+01 -0.71532678924E+01  0.44661056088E+03  0.44673774101E+03  0.00000000000E+00 0.  1.
         11    1    1    2    0    0 -0.83599448590E+01  0.83035154927E+01 -0.49795686524E+03  0.49809625243E+03  0.00000000000E+00 0. -1.
        -15    1    1    2    0    0  0.15543083149E+01 -0.25580005080E+01  0.21878177113E+02  0.22153365516E+02  0.17770000000E+01 0.  1.
         15    1    1    2    0    0  0.14707972269E+02  0.14077529076E+01  0.29468127244E+02  0.33012641045E+02  0.17770000000E+01 0. -1.
</event>
<event>
 6   1  0.1826851E-04  0.5018571E+03  0.7546771E-02  0.9395664E-01
        -11   -1    0    0    0    0  0.00000000000E+00  0.00000000000E+00  0.50000000000E+03  0.50000000000E+03  0.00000000000E+00 0. -1.
         11   -1    0    0    0    0 -0.00000000000E+00 -0.00000000000E+00 -0.50000000000E+03  0.50000000000E+03  0.00000000000E+00 0. -1.
        -11    1    1    2    0    0  0.12532252701E+02  0.11423141573E+02  0.49785416411E+03  0.49814286529E+03  0.00000000000E+00 0. -1.
         11    1    1    2    0    0  0.36816743945E+00  0.35187172620E+01 -0.26227170625E+03  0.26229556767E+03  0.00000000000E+00 0. -1.
        -15    1    1    2    0    0 -0.60663575966E+01 -0.50042964557E+01 -0.21809650390E+03  0.21824547285E+03  0.17770000000E+01 0. -1.
         15    1    1    2    0    0 -0.68340625443E+01 -0.99375623792E+01 -0.17485953951E+02  0.21316094189E+02  0.17770000000E+01 0.  1.
</event>
<event>
 6   1  0.1826851E-04  0.5044939E+03  0.7546771E-02  0.9389810E-01
        -11   -1    0    0    0    0  0.00000000000E+00  0.00000000000E+00  0.50000000000E+03  0.50000000000E+03  0.00000000000E+00 0.  1.
         11   -1    0    0    0    0 -0.00000000000E+00 -0.00000000000E+00 -0.50000000000E+03  0.50000000000E+03  0.00000000000E+00 0. -1.
        -11    1    1    2    0    0 -0.33701374628E+02 -0.81971873407E+01  0.13653846476E+03  0.14087486962E+03  0.00000000000E+00 0.  1.
         11    1    1    2    0    0  0.59637221965E+01 -0.13848073897E+02 -0.49527667941E+03  0.49550612943E+03  0.00000000000E+00 0. -1.
        -15    1    1    2    0    0  0.13412199278E+02 -0.12059078167E+02  0.19011830511E+03  0.19098019825E+03  0.17770000000E+01 0.  1.
         15    1    1    2    0    0  0.14325453153E+02  0.34104339404E+02  0.16861990955E+03  0.17263880270E+03  0.17770000000E+01 0. -1.
</event>
<event>
 6   1  0.1826851E-04  0.5008779E+03  0.7546771E-02  0.9397848E-01
        -11   -1    0    0    0    0  0.00000000000E+00  0.00000000000E+00  0.50000000000E+03  0.50000000000E+03  0.00000000000E+00 0.  1.
         11   -1    0    0    0    0 -0.00000000000E+00 -0.00000000000E+00 -0.50000000000E+03  0.50000000000E+03  0.00000000000E+00 0.  1.
        -11    1    1    2    0    0 -0.12130847275E+02  0.93833058104E+00  0.32769872917E+03  0.32792452641E+03  0.00000000000E+00 0.  1.
         11    1    1    2    0    0 -0.97721590818E+00  0.96428190759E+01 -0.49902799502E+03  0.49912210803E+03  0.00000000000E+00 0.  1.
        -15    1    1    2    0    0  0.79701031729E+01 -0.14575497995E+02  0.13145811388E+03  0.13251551275E+03  0.17770000000E+01 0. -1.
         15    1    1    2    0    0  0.51379600100E+01  0.39943483384E+01  0.39871151972E+02  0.40437852815E+02  0.17770000000E+01 0.  1.
</event>
<event>
 6   1  0.1826851E-04  0.5005530E+03  0.7546771E-02  0.9398573E-01
        -11   -1    0    0    0    0  0.00000000000E+00  0.00000000000E+00  0.50000000000E+03  0.50000000000E+03  0.00000000000E+00 0.  1.
         11   -1    0    0    0    0 -0.00000000000E+00 -0.00000000000E+00 -0.50000000000E+03  0.50000000000E+03  0.00000000000E+00 0. -1.
        -11    1    1    2    0    0  0.53097919607E+01  0.22951717419E+02  0.23507915686E+03  0.23625660882E+03  0.00000000000E+00 0.  1.
         11    1    1    2    0    0 -0.13752933857E+02 -0.14351352092E+02 -0.49905128737E+03  0.49944698609E+03  0.00000000000E+00 0. -1.
        -15    1    1    2    0    0  0.30074879866E+01 -0.44395513352E+01  0.14892679953E+03  0.14903390201E+03  0.17770000000E+01 0.  1.
         15    1    1    2    0    0  0.54356539096E+01 -0.41608139919E+01  0.11504533097E+03  0.11526250307E+03  0.17770000000E+01 0.  1.
</event>
<event>
 6   1  0.1826851E-04  0.5005462E+03  0.7546771E-02  0.9398588E-01
        -11   -1    0    0    0    0  0.00000000000E+00  0.00000000000E+00  0.50000000000E+03  0.50000000000E+03  0.00000000000E+00 0. -1.
         11   -1    0    0    0    0 -0.00000000000E+00 -0.00000000000E+00 -0.50000000000E+03  0.50000000000E+03  0.00000000000E+00 0. -1.
        -11    1    1    2    0    0  0.86434831906E+01  0.17934441137E+01  0.47192849470E+03  0.47201104897E+03  0.00000000000E+00 0. -1.
         11    1    1    2    0    0 -0.87910444968E+01  0.27417386027E+01 -0.49936890436E+03  0.49945380390E+03  0.00000000000E+00 0. -1.
        -15    1    1    2    0    0 -0.34517255425E+00 -0.22844723667E+01  0.23259425058E+02  0.23441342562E+02  0.17770000000E+01 0. -1.
         15    1    1    2    0    0  0.49273386045E+00 -0.22507103496E+01  0.41809845983E+01  0.50938045650E+01  0.17770000000E+01 0.  1.
</event>
<event>
 6   1  0.1826851E-04  0.5084831E+03  0.7546771E-02  0.9381026E-01
        -11   -1    0    0    0    0  0.00000000000E+00  0.00000000000E+00  0.50000000000E+03  0.50000000000E+03  0.00000000000E+00 0.  1.
         11   -1    0    0    0    0 -0.00000000000E+00 -0.00000000000E+00 -0.50000000000E+03  0.50000000000E+03  0.00000000000E+00 0.  1.
        -11    1    1    2    0    0 -0.14230518195E+02 -0.12977643745E+02  0.45994054375E+03  0.46034360066E+03  0.00000000000E+00 0.  1.
         11    1    1    2    0    0 -0.17067798970E+02  0.12626549442E+02 -0.49105816545E+03  0.49151689836E+03  0.00000000000E+00 0.  1.
        -15    1    1    2    0    0  0.21251118918E+02 -0.28772651245E+01  0.30621609411E+02  0.37426319640E+02  0.17770000000E+01 0.  1.
         15    1    1    2    0    0  0.10047198248E+02  0.32283594278E+01  0.49601229057E+00  0.10713181340E+02  0.17770000000E+01 0. -1.
</event>
<event>
 6   1  0.1826851E-04  0.5107719E+03  0.7546771E-02  0.9376024E-01
        -11   -1    0    0    0    0  0.00000000000E+00  0.00000000000E+00  0.50000000000E+03  0.50000000000E+03  0.00000000000E+00 0. -1.
         11   -1    0    0    0    0 -0.00000000000E+00 -0.00000000000E+00 -0.50000000000E+03  0.50000000000E+03  0.00000000000E+00 0.  1.
        -11    1    1    2    0    0 -0.15876452397E+02 -0.28884990396E+02  0.48811647586E+03  0.48922806381E+03  0.00000000000E+00 0. -1.
         11    1    1    2    0    0 -0.14920776770E+02 -0.13903523823E+02 -0.40100451359E+03  0.40152279820E+03  0.00000000000E+00 0.  1.
        -15    1    1    2    0    0  0.26095607649E+02  0.27628845211E+02 -0.85016254044E+02  0.93141048990E+02  0.17770000000E+01 0. -1.
         15    1    1    2    0    0  0.47016215187E+01  0.15159669007E+02 -0.20957082185E+01  0.16108089001E+02  0.17770000000E+01 0.  1.
</event>
<event>
 6   1  0.1826851E-04  0.5077578E+03  0.7546771E-02  0.9382616E-01
        -11   -1    0    0    0    0  0.00000000000E+00  0.00000000000E+00  0.50000000000E+03  0.50000000000E+03  0.00000000000E+00 0. -1.
         11   -1    0    0    0    0 -0.00000000000E+00 -0.00000000000E+00 -0.50000000000E+03  0.50000000000E+03  0.00000000000E+00 0.  1.
        -11    1    1    2    0    0  0.22300667381E+02 -0.20362366669E+02  0.20321941869E+02  0.36399547570E+02  0.00000000000E+00 0. -1.
         11    1    1    2    0    0 -0.20757255705E+02  0.14599112135E+02 -0.49158758858E+03  0.49224217108E+03  0.00000000000E+00 0.  1.
        -15    1    1    2    0    0  0.21550484724E+01  0.12229307603E+01  0.11671098308E+03  0.11675080768E+03  0.17770000000E+01 0. -1.
         15    1    1    2    0    0 -0.36984601490E+01  0.45403237728E+01  0.35455466363E+03  0.35460747367E+03  0.17770000000E+01 0.  1.
</event>
<event>
 6   1  0.1826851E-04  0.5027192E+03  0.7546771E-02  0.9393746E-01
        -11   -1    0    0    0    0  0.00000000000E+00  0.00000000000E+00  0.50000000000E+03  0.50000000000E+03  0.00000000000E+00 0.  1.
         11   -1    0    0    0    0 -0.00000000000E+00 -0.00000000000E+00 -0.50000000000E+03  0.50000000000E+03  0.00000000000E+00 0. -1.
        -11    1    1    2    0    0 -0.12068485962E+02 -0.48797634970E+01  0.49711033803E+03  0.49728075432E+03  0.00000000000E+00 0.  1.
         11    1    1    2    0    0 -0.46640041961E+01  0.55165633990E+01 -0.45524117023E+03  0.45529848284E+03  0.00000000000E+00 0. -1.
        -15    1    1    2    0    0  0.14544812752E+02 -0.25209354904E+01 -0.18158892893E+02  0.23469337738E+02  0.17770000000E+01 0. -1.
         15    1    1    2    0    0  0.21876774053E+01  0.18841355884E+01 -0.23710274905E+02  0.23951425102E+02  0.17770000000E+01 0.  1.
</event>
<event>
 6   1  0.1826851E-04  0.5037749E+03  0.7546771E-02  0.9391403E-01
        -11   -1    0    0    0    0  0.00000000000E+00  0.00000000000E+00  0.50000000000E+03  0.50000000000E+03  0.00000000000E+00 0. -1.
         11   -1    0    0    0    0 -0.00000000000E+00 -0.00000000000E+00 -0.50000000000E+03  0.50000000000E+03  0.00000000000E+00 0. -1.
        -11    1    1    2    0    0  0.25820210998E+01  0.11821559098E+02  0.49607757857E+03  0.49622513041E+03  0.00000000000E+00 0. -1.
         11    1    1    2    0    0 -0.14522875600E+02 -0.56063797113E+00 -0.47558226652E+03  0.47580428798E+03  0.00000000000E+00 0. -1.
        -15    1    1    2    0    0  0.12469635352E+02 -0.71249412466E+01 -0.14916111604E+02  0.20782317194E+02  0.17770000000E+01 0.  1.
         15    1    1    2    0    0 -0.52878085132E+00 -0.41359798803E+01 -0.55792004398E+01  0.71882644154E+01  0.17770000000E+01 0. -1.
</event>
<event>
 6   1  0.1826851E-04  0.5044426E+03  0.7546771E-02  0.9389924E-01
        -11   -1    0    0    0    0  0.00000000000E+00  0.00000000000E+00  0.50000000000E+03  0.50000000000E+03  0.00000000000E+00 0. -1.
         11   -1    0    0    0    0 -0.00000000000E+00 -0.00000000000E+00 -0.50000000000E+03  0.50000000000E+03  0.00000000000E+00 0.  1.
        -11    1    1    2    0    0 -0.27161621799E+02 -0.14429390370E+01  0.35554655566E+02  0.44765715724E+02  0.00000000000E+00 0. -1.
         11    1    1    2    0    0  0.22072252743E+02  0.59798894386E+01 -0.49502949319E+03  0.49555740591E+03  0.00000000000E+00 0.  1.
        -15    1    1    2    0    0  0.54929443764E+01  0.23080616306E+00  0.37698852980E+03  0.37703280367E+03  0.17770000000E+01 0. -1.
         15    1    1    2    0    0 -0.40357532021E+00 -0.47677565646E+01  0.82486307824E+02  0.82644074700E+02  0.17770000000E+01 0.  1.
</event>
<event>
 6   1  0.1826851E-04  0.4261340E+03  0.7546771E-02  0.9582186E-01
        -11   -1    0    0    0    0  0.00000000000E+00  0.00000000000E+00  0.50000000000E+03  0.50000000000E+03  0.00000000000E+00 0. -1.
         11   -1    0    0    0    0 -0.00000000000E+00 -0.00000000000E+00 -0.50000000000E+03  0.50000000000E+03  0.00000000000E+00 0.  1.
        -11    1    1    2    0    0  0.63719440512E+02 -0.79333078819E+02  0.39479111674E+03  0.40769342691E+03  0.00000000000E+00 0. -1.
         11    1    1    2    0    0 -0.13736320542E+02 -0.59039322770E+01 -0.45193736730E+03  0.45218461592E+03  0.00000000000E+00 0.  1.
        -15    1    1    2    0    0  0.61499441229E+01  0.11542598500E+02 -0.16950101502E+02  0.21482948187E+02  0.17770000000E+01 0. -1.
         15    1    1    2    0    0 -0.56133064093E+02  0.73694412596E+02  0.74096352064E+02  0.11863900897E+03  0.17770000000E+01 0.  1.
</event>
<event>
 6   1  0.1826851E-04  0.5071667E+03  0.7546771E-02  0.9383915E-01
        -11   -1    0    0    0    0  0.00000000000E+00  0.00000000000E+00  0.50000000000E+03  0.50000000000E+03  0.00000000000E+00 0.  1.
         11   -1    0    0    0    0 -0.00000000000E+00 -0.00000000000E+00 -0.50000000000E+03  0.50000000000E+03  0.00000000000E+00 0. -1.
        -11    1    1    2    0    0  0.78435541284E+01 -0.27190381807E+02  0.20979032047E+02  0.35227233638E+02  0.00000000000E+00 0.  1.
         11    1    1    2    0    0  0.22200160001E+00  0.19036066633E+02 -0.49246544521E+03  0.49283327388E+03  0.00000000000E+00 0. -1.
        -15    1    1    2    0    0 -0.11161695643E+02  0.71357855873E+01  0.20907855419E+03  0.20950537568E+03  0.17770000000E+01 0.  1.
         15    1    1    2    0    0  0.30961399151E+01  0.10185295861E+01  0.26240785897E+03  0.26243411680E+03  0.17770000000E+01 0. -1.
</event>
<event>
 6   1  0.1826851E-04  0.5017320E+03  0.7546771E-02  0.9395943E-01
        -11   -1    0    0    0    0  0.00000000000E+00  0.00000000000E+00  0.50000000000E+03  0.50000000000E+03  0.00000000000E+00 0. -1.
         11   -1    0    0    0    0 -0.00000000000E+00 -0.00000000000E+00 -0.50000000000E+03  0.50000000000E+03  0.00000000000E+00 0. -1.
        -11    1    1    2    0    0  0.37198175643E+00  0.97723871530E+01  0.37454246360E+03  0.37467011484E+03  0.00000000000E+00 0. -1.
         11    1    1    2    0    0  0.16146159361E+02  0.10171955977E+02 -0.49790241386E+03  0.49826798098E+03  0.00000000000E+00 0. -1.
        -15    1    1    2    0    0 -0.54198529677E+01 -0.95434595887E+01  0.23067000598E+02  0.25606574794E+02  0.17770000000E+01 0.  1.
         15    1    1    2    0    0 -0.11098288150E+02 -0.10400883542E+02  0.10029294966E+03  0.10145532938E+03  0.17770000000E+01 0. -1.
</event>
<event>
 6   1  0.1826851E-04  0.5012057E+03  0.7546771E-02  0.9397116E-01
        -11   -1    0    0    0    0  0.00000000000E+00  0.00000000000E+00  0.50000000000E+03  0.50000000000E+03  0.00000000000E+00 0. -1.
         11   -1    0    0    0    0 -0.00000000000E+00 -0.00000000000E+00 -0.50000000000E+03  0.50000000000E+03  0.00000000000E+00 0. -1.
        -11    1    1    2    0    0  0.16709335917E+02  0.46373472094E+00  0.41579622218E+03  0.41613208880E+03  0.00000000000E+00 0. -1.
         11    1    1    2    0    0 -0.13245127036E+02  0.12976069871E+02 -0.49844955175E+03  0.49879431374E+03  0.00000000000E+00 0. -1.
        -15    1    1    2    0    0  0.17805094377E+01 -0.12868340659E+02  0.70459027717E+02  0.71668659267E+02  0.17770000000E+01 0.  1.
         15    1    1    2    0    0 -0.52447183181E+01 -0.57146393210E+00  0.12194301853E+02  0.13404938192E+02  0.17770000000E+01 0. -1.
</event>
<event>
 6   1  0.1826851E-04  0.5003032E+03  0.7546771E-02  0.9399132E-01
        -11   -1    0    0    0    0  0.00000000000E+00  0.00000000000E+00  0.50000000000E+03  0.50000000000E+03  0.00000000000E+00 0.  1.
         11   -1    0    0    0    0 -0.00000000000E+00 -0.00000000000E+00 -0.50000000000E+03  0.50000000000E+03  0.00000000000E+00 0. -1.
        -11    1    1    2    0    0 -0.10030123040E+02 -0.16198926662E+01  0.32565338620E+03  0.32581184043E+03  0.00000000000E+00 0.  1.
         11    1    1    2    0    0  0.61445792232E+01 -0.43372554213E+01 -0.49964022149E+03  0.49969682665E+03  0.00000000000E+00 0. -1.
        -15    1    1    2    0    0  0.29883198471E+01  0.29508103065E+01  0.22291624577E+02  0.22753276517E+02  0.17770000000E+01 0. -1.
         15    1    1    2    0    0  0.89722397008E+00  0.30063377811E+01  0.15169521071E+03  0.15173805639E+03  0.17770000000E+01 0.  1.
</event>
<event>
 6   1  0.1826851E-04  0.5100711E+03  0.7546771E-02  0.9377553E-01
        -11   -1    0    0    0    0  0.00000000000E+00  0.00000000000E+00  0.50000000000E+03  0.50000000000E+03  0.00000000000E+00 0.  1.
         11   -1    0    0    0    0 -0.00000000000E+00 -0.00000000000E+00 -0.50000000000E+03  0.50000000000E+03  0.00000000000E+00 0. -1.
        -11    1    1    2    0    0 -0.15266125837E+02 -0.11375587921E+02  0.48955881676E+03  0.48992886593E+03  0.00000000000E+00 0.  1.
         11    1    1    2    0    0  0.71484817731E+01 -0.14429157756E+01 -0.47767351819E+03  0.47772918351E+03  0.00000000000E+00 0. -1.
        -15    1    1    2    0    0 -0.29032998293E+01  0.41577129614E+01 -0.16599271433E+02  0.17447328393E+02  0.17770000000E+01 0.  1.
         15    1    1    2    0    0  0.11020943894E+02  0.86607907354E+01  0.47139728580E+01  0.14894622170E+02  0.17770000000E+01 0. -1.
</event>
<event>
 6   1  0.1826851E-04  0.5008919E+03  0.7546771E-02  0.9397816E-01
        -11   -1    0    0    0    0  0.00000000000E+00  0.00000000000E+00  0.50000000000E+03  0.50000000000E+03  0.00000000000E+00 0.  1.
         11   -1    0    0    0    0 -0.00000000000E+00 -0.00000000000E+00 -0.50000000000E+03  0.50000000000E+03  0.00000000000E+00 0.  1.
        -11    1    1    2    0    0  0.84022176618E+00  0.17385967024E+02  0.49880451972E+03  0.49910813129E+03  0.00000000000E+00 0.  1.
         11    1    1    2    0    0 -0.30981782308E+01  0.47699763188E+01 -0.25602043026E+03  0.25608360372E+03  0.00000000000E+00 0.  1.
        -15    1    1    2    0    0  0.23778492744E+01 -0.19970264494E+01 -0.14027527472E+03  0.14032089192E+03  0.17770000000E+01 0.  1.
         15    1    1    2    0    0 -0.11989280985E+00 -0.20158916894E+02 -0.10250881474E+03  0.10448737308E+03  0.17770000000E+01 0. -1.
</event>
<event>
 6   1  0.1826851E-04  0.5112978E+03  0.7546771E-02  0.9374879E-01
        -11   -1    0    0    0    0  0.00000000000E+00  0.00000000000E+00  0.50000000000E+03  0.50000000000E+03  0.00000000000E+00 0.  1.
         11   -1    0    0    0    0 -0.00000000000E+00 -0.00000000000E+00 -0.50000000000E+03  0.50000000000E+03  0.00000000000E+00 0. -1.
        -11    1    1    2    0    0 -0.39748210617E+01 -0.36835091085E+02  0.38084449695E+03  0.38264233168E+03  0.00000000000E+00 0.  1.
         11    1    1    2    0    0  0.35371219352E+02 -0.25388250618E+02 -0.48675877539E+03  0.48870215044E+03  0.00000000000E+00 0. -1.
        -15    1    1    2    0    0 -0.11418560938E+02  0.34944404753E+02  0.38774385017E+02  0.53461253445E+02  0.17770000000E+01 0. -1.
         15    1    1    2    0    0 -0.19977837352E+02  0.27278936951E+02  0.67139893418E+02  0.75194264433E+02  0.17770000000E+01 0.  1.
</event>
<event>
 6   1  0.1826851E-04  0.5002214E+03  0.7546771E-02  0.9399315E-01
        -11   -1    0    0    0    0  0.00000000000E+00  0.00000000000E+00  0.50000000000E+03  0.50000000000E+03  0.00000000000E+00 0.  1.
         11   -1    0    0    0    0 -0.00000000000E+00 -0.00000000000E+00 -0.50000000000E+03  0.50000000000E+03  0.00000000000E+00 0. -1.
        -11    1    1    2    0    0 -0.80920347208E+01  0.40609178029E+01  0.49969662659E+03  0.49977864171E+03  0.00000000000E+00 0.  1.
         11    1    1    2    0    0 -0.13629346038E+01 -0.48361660648E+01 -0.31866789035E+03  0.31870749981E+03  0.00000000000E+00 0. -1.
        -15    1    1    2    0    0  0.37399623210E+01  0.43134233579E+01 -0.63965816753E+02  0.64244660331E+02  0.17770000000E+01 0.  1.
         15    1    1    2    0    0  0.57150070035E+01 -0.35381750960E+01 -0.11706291948E+03  0.11726919815E+03  0.17770000000E+01 0. -1.
</event>
<event>
 6   1  0.1826851E-04  0.5001211E+03  0.7546771E-02  0.9399539E-01
        -11   -1    0    0    0    0  0.00000000000E+00  0.00000000000E+00  0.50000000000E+03  0.50000000000E+03  0.00000000000E+00 0. -1.
         11   -1    0    0    0    0 -0.00000000000E+00 -0.00000000000E+00 -0.50000000000E+03  0.50000000000E+03  0.00000000000E+00 0. -1.
        -11    1    1    2    0    0  0.14158549365E+02 -0.37670331561E+01  0.49966415227E+03  0.49987890546E+03  0.00000000000E+00 0. -1.
         11    1    1    2    0    0 -0.10924489526E+02  0.42053197728E+00 -0.44184192013E+03  0.44197715292E+03  0.00000000000E+00 0. -1.
        -15    1    1    2    0    0 -0.26205721245E+01  0.20611457472E+01 -0.39644566656E+02  0.39824177510E+02  0.17770000000E+01 0. -1.
         15    1    1    2    0    0 -0.61348771489E+00  0.12853554316E+01 -0.18177665481E+02  0.18319764111E+02  0.17770000000E+01 0. -1.
</event>
<event>
 6   1  0.1826851E-04  0.5103479E+03  0.7546771E-02  0.9376949E-01
        -11   -1    0    0    0    0  0.00000000000E+00  0.00000000000E+00  0.50000000000E+03  0.50000000000E+03  0.00000000000E+00 0. -1.
         11   -1    0    0    0    0 -0.00000000000E+00 -0.00000000000E+00 -0.50000000000E+03  0.50000000000E+03  0.00000000000E+00 0.  1.
        -11    1    1    2    0    0 -0.19154460276E+02 -0.23178947058E+02  0.48872793573E+03  0.48965207249E+03  0.00000000000E+00 0. -1.
         11    1    1    2    0    0 -0.33505618584E+01  0.10168319940E+02 -0.47204689384E+03  0.47216828671E+03  0.00000000000E+00 0.  1.
        -15    1    1    2    0    0  0.72555602100E+01 -0.36085155700E+00  0.45583104667E+01  0.87583840471E+01  0.17770000000E+01 0. -1.
         15    1    1    2    0    0  0.15249461924E+02  0.13371478676E+02 -0.21239352361E+02  0.29421256749E+02  0.17770000000E+01 0.  1.
</event>
<event>
 6   1  0.1826851E-04  0.4469025E+03  0.7546771E-02  0.9527146E-01
        -11   -1    0    0    0    0  0.00000000000E+00  0.00000000000E+00  0.50000000000E+03  0.50000000000E+03  0.00000000000E+00 0.  1.
         11   -1    0    0    0    0 -0.00000000000E+00 -0.00000000000E+00 -0.50000000000E+03  0.50000000000E+03  0.00000000000E+00 0.  1.
        -11    1    1    2    0    0  0.38743242988E+02 -0.40727636506E+02  0.45336345217E+03  0.45683498007E+03  0.00000000000E+00 0.  1.
         11    1    1    2    0    0 -0.60528575203E+01 -0.12664857021E+02 -0.43904994600E+03  0.43927427739E+03  0.00000000000E+00 0.  1.
        -15    1    1    2    0    0 -0.53102731467E+02  0.57685031344E+02 -0.22220312637E+02  0.81512961872E+02  0.17770000000E+01 0. -1.
         15    1    1    2    0    0  0.20412345999E+02 -0.42925378177E+01  0.79068064662E+01  0.22377780668E+02  0.17770000000E+01 0.  1.
</event>
<event>
 6   1  0.1826851E-04  0.5028695E+03  0.7546771E-02  0.9393412E-01
        -11   -1    0    0    0    0  0.00000000000E+00  0.00000000000E+00  0.50000000000E+03  0.50000000000E+03  0.00000000000E+00 0. -1.
         11   -1    0    0    0    0 -0.00000000000E+00 -0.00000000000E+00 -0.50000000000E+03  0.50000000000E+03  0.00000000000E+00 0. -1.
        -11    1    1    2    0    0 -0.15146711563E+02 -0.20819642737E+02  0.49646330129E+03  0.49713045563E+03  0.00000000000E+00 0. -1.
         11    1    1    2    0    0 -0.18447523106E+02 -0.13708873521E+02 -0.25747252468E+03  0.25849631581E+03  0.00000000000E+00 0. -1.
        -15    1    1    2    0    0  0.26175306286E+02  0.28709710015E+02 -0.15368549394E+03  0.15853006934E+03  0.17770000000E+01 0. -1.
         15    1    1    2    0    0  0.74189283829E+01  0.58188062426E+01 -0.85305282673E+02  0.85843159223E+02  0.17770000000E+01 0.  1.
</event>
<event>
 6   1  0.1826851E-04  0.5017082E+03  0.7546771E-02  0.9395996E-01
        -11   -1    0    0    0    0  0.00000000000E+00  0.00000000000E+00  0.50000000000E+03  0.50000000000E+03  0.00000000000E+00 0.  1.
         11   -1    0    0    0    0 -0.00000000000E+00 -0.00000000000E+00 -0.50000000000E+03  0.50000000000E+03  0.00000000000E+00 0. -1.
        -11    1    1    2    0    0  0.10696367075E+01  0.94788685133E+01  0.47715742240E+03  0.47725276198E+03  0.00000000000E+00 0.  1.
         11    1    1    2    0    0 -0.92274508011E+01 -0.32785074096E+01 -0.49819560067E+03  0.49829183315E+03  0.00000000000E+00 0. -1.
        -15    1    1    2    0    0  0.26947713035E+01 -0.53747990860E+01  0.78482441596E+01  0.10045044698E+02  0.17770000000E+01 0.  1.
         15    1    1    2    0    0  0.54630427901E+01 -0.82556201774E+00  0.13189934117E+02  0.14410360168E+02  0.17770000000E+01 0. -1.
</event>
<event>
 6   1  0.1826851E-04  0.5061525E+03  0.7546771E-02  0.9386147E-01
        -11   -1    0    0    0    0  0.00000000000E+00  0.00000000000E+00  0.50000000000E+03  0.50000000000E+03  0.00000000000E+00 0. -1.
         11   -1    0    0    0    0 -0.00000000000E+00 -0.00000000000E+00 -0.50000000000E+03  0.50000000000E+03  0.00000000000E+00 0.  1.
        -11    1    1    2    0    0 -0.36599072136E+02  0.11694148285E+02  0.28694045696E+03  0.28950141801E+03  0.00000000000E+00 0. -1.
         11    1    1    2    0    0  0.92463455777E+01  0.45484290194E+01 -0.49373997940E+03  0.49384749708E+03  0.00000000000E+00 0.  1.
        -15    1    1    2    0    0  0.19953555053E+02 -0.83860122620E+01  0.19974184417E+02  0.29505852522E+02  0.17770000000E+01 0. -1.
         15    1    1    2    0    0  0.73991715054E+01 -0.78565650427E+01  0.18682533802E+03  0.18714523239E+03  0.17770000000E+01 0.  1.
</event>
<event>
 6   1  0.1826851E-04  0.5044621E+03  0.7546771E-02  0.9389880E-01
        -11   -1    0    0    0    0  0.00000000000E+00  0.00000000000E+00  0.50000000000E+03  0.50000000000E+03  0.00000000000E+00 0. -1.
         11   -1    0    0    0    0 -0.00000000000E+00 -0.00000000000E+00 -0.50000000000E+03  0.50000000000E+03  0.00000000000E+00 0. -1.
        -11    1    1    2    0    0 -0.21822978451E+02  0.26999093763E+02  0.57891280588E+02  0.67502546771E+02  0.00000000000E+00 0. -1.
         11    1    1    2    0    0  0.22198480658E+02 -0.27755746967E+02 -0.49426176590E+03  0.49553793726E+03  0.00000000000E+00 0. -1.
        -15    1    1    2    0    0  0.79207357777E+01  0.69602758406E+01  0.14226986962E+03  0.14267114995E+03  0.17770000000E+01 0.  1.
         15    1    1    2    0    0 -0.82962379846E+01 -0.62036226368E+01  0.29410061569E+03  0.29428836602E+03  0.17770000000E+01 0. -1.
</event>
<event>
 6   1  0.1826851E-04  0.5003007E+03  0.7546771E-02  0.9399137E-01
        -11   -1    0    0    0    0  0.00000000000E+00  0.00000000000E+00  0.50000000000E+03  0.50000000000E+03  0.00000000000E+00 0.  1.
         11   -1    0    0    0    0 -0.00000000000E+00 -0.00000000000E+00 -0.50000000000E+03  0.50000000000E+03  0.00000000000E+00 0. -1.
        -11    1    1    2    0    0  0.62676809327E+01 -0.20635998264E+01  0.32405126128E+02  0.33070144661E+02  0.00000000000E+00 0.  1.
         11    1    1    2    0    0 -0.11949672459E+02 -0.35995484174E+01 -0.49954342250E+03  0.49969929196E+03  0.00000000000E+00 0. -1.
        -15    1    1    2    0    0  0.22868498296E+01  0.34174278728E+01  0.29924305161E+03  0.29927657804E+03  0.17770000000E+01 0.  1.
         15    1    1    2    0    0  0.33951416967E+01  0.22457203710E+01  0.16789524476E+03  0.16795398534E+03  0.17770000000E+01 0.  1.
</event>
<event>
 6   1  0.1826851E-04  0.5021733E+03  0.7546771E-02  0.9394960E-01
        -11   -1    0    0    0    0  0.00000000000E+00  0.00000000000E+00  0.50000000000E+03  0.50000000000E+03  0.00000000000E+00 0.  1.
         11   -1    0    0    0    0 -0.00000000000E+00 -0.00000000000E+00 -0.50000000000E+03  0.50000000000E+03  0.00000000000E+00 0. -1.
        -11    1    1    2    0    0 -0.11837636713E+02  0.15727126887E+01  0.49768344895E+03  0.49782669517E+03  0.00000000000E+00 0.  1.
         11    1    1    2    0    0  0.32292784961E+01  0.84998080246E+01 -0.47279092896E+03  0.47287835379E+03  0.00000000000E+00 0. -1.
        -15    1    1    2    0    0  0.42814004565E+01 -0.95842012055E+01 -0.18709735238E+02  0.21526709556E+02  0.17770000000E+01 0. -1.
         15    1    1    2    0    0  0.43269577607E+01 -0.48831950780E+00 -0.61827847539E+01  0.77682414817E+01  0.17770000000E+01 0.  1.
</event>
<event>
 6   1  0.1826851E-04  0.5008812E+03  0.7546771E-02  0.9397840E-01
        -11   -1    0    0    0    0  0.00000000000E+00  0.00000000000E+00  0.50000000000E+03  0.50000000000E+03  0.00000000000E+00 0. -1.
         11   -1    0    0    0    0 -0.00000000000E+00 -0.00000000000E+00 -0.50000000000E+03  0.50000000000E+03  0.00000000000E+00 0.  1.
        -11    1    1    2    0    0  0.87413984731E+01  0.85257226331E+01  0.19660584457E+03  0.19698466467E+03  0.00000000000E+00 0. -1.
         11    1    1    2    0    0 -0.59817303693E+01  0.41189325350E+01 -0.49906592257E+03  0.49911876520E+03  0.00000000000E+00 0.  1.
        -15    1    1    2    0    0 -0.26966094431E+01 -0.21178970109E+01  0.26269331144E+03  0.26272169837E+03  0.17770000000E+01 0.  1.
         15    1    1    2    0    0 -0.63058660603E-01 -0.10526758157E+02  0.39766766557E+02  0.41174871767E+02  0.17770000000E+01 0. -1.
</event>
<event>
 6   1  0.1826851E-04  0.5007721E+03  0.7546771E-02  0.9398084E-01
        -11   -1    0    0    0    0  0.00000000000E+00  0.00000000000E+00  0.50000000000E+03  0.50000000000E+03  0.00000000000E+00 0. -1.
         11   -1    0    0    0    0 -0.00000000000E+00 -0.00000000000E+00 -0.50000000000E+03  0.50000000000E+03  0.00000000000E+00 0. -1.
        -11    1    1    2    0    0 -0.36729667981E+01 -0.98866505879E+01  0.49911646834E+03  0.49922788936E+03  0.00000000000E+00 0. -1.
         11    1    1    2    0    0  0.58088547250E+01 -0.37074741289E+01 -0.43408872173E+03  0.43414341697E+03  0.00000000000E+00 0. -1.
        -15    1    1    2    0    0 -0.20631843397E+01  0.57531088171E+01 -0.24671543175E+02  0.25479359535E+02  0.17770000000E+01 0. -1.
         15    1    1    2    0    0 -0.72703587223E-01  0.78410158996E+01 -0.40356203429E+02  0.41149334142E+02  0.17770000000E+01 0.  1.
</event>
<event>
 6   1  0.1826851E-04  0.5002032E+03  0.7546771E-02  0.9399355E-01
        -11   -1    0    0    0    0  0.00000000000E+00  0.00000000000E+00  0.50000000000E+03  0.50000000000E+03  0.00000000000E+00 0.  1.
         11   -1    0    0    0    0 -0.00000000000E+00 -0.00000000000E+00 -0.50000000000E+03  0.50000000000E+03  0.00000000000E+00 0. -1.
        -11    1    1    2    0    0  0.28433113166E+01  0.85935198430E+01  0.49971487168E+03  0.49979684471E+03  0.00000000000E+00 0.  1.
         11    1    1    2    0    0 -0.31986798335E+01  0.37467921737E+00 -0.20634724583E+03  0.20637237654E+03  0.00000000000E+00 0. -1.
        -15    1    1    2    0    0  0.42591092336E+01 -0.75415535828E+00 -0.18752388910E+03  0.18758218326E+03  0.17770000000E+01 0. -1.
         15    1    1    2    0    0 -0.39037407167E+01 -0.82140437021E+01 -0.10584373675E+03  0.10624859549E+03  0.17770000000E+01 0. -1.
</event>
<event>
 6   1  0.1826851E-04  0.5027537E+03  0.7546771E-02  0.9393669E-01
        -11   -1    0    0    0    0  0.00000000000E+00  0.00000000000E+00  0.50000000000E+03  0.50000000000E+03  0.00000000000E+00 0. -1.
         11   -1    0    0    0    0 -0.00000000000E+00 -0.00000000000E+00 -0.50000000000E+03  0.50000000000E+03  0.00000000000E+00 0.  1.
        -11    1    1    2    0    0  0.14420754347E+02  0.24574896361E+02  0.62180033589E+02  0.68397662710E+02  0.00000000000E+00 0. -1.
         11    1    1    2    0    0 -0.21222704122E+02 -0.19400726127E+02 -0.49641420330E+03  0.49724626955E+03  0.00000000000E+00 0.  1.
        -15    1    1    2    0    0  0.66961086568E+01 -0.33122158473E+01  0.30892692419E+03  0.30902234687E+03  0.17770000000E+01 0. -1.
         15    1    1    2    0    0  0.10584111776E+00 -0.18619543866E+01  0.12530724552E+03  0.12533372086E+03  0.17770000000E+01 0. -1.
</event>
<event>
 6   1  0.1826851E-04  0.5005129E+03  0.7546771E-02  0.9398663E-01
        -11   -1    0    0    0    0  0.00000000000E+00  0.00000000000E+00  0.50000000000E+03  0.50000000000E+03  0.00000000000E+00 0.  1.
         11   -1    0    0    0    0 -0.00000000000E+00 -0.00000000000E+00 -0.50000000000E+03  0.50000000000E+03  0.00000000000E+00 0.  1.
        -11    1    1    2    0    0  0.89367366124E+01  0.30292386613E+01  0.13033806959E+03  0.13067920237E+03  0.00000000000E+00 0.  1.
         11    1    1    2    0    0  0.15741454845E+02 -0.57121713843E+00 -0.49923864503E+03  0.49948708129E+03  0.00000000000E+00 0.  1.
        -15    1    1    2    0    0 -0.13513268767E+02 -0.27156513680E+00  0.14571620244E+03  0.14635249080E+03  0.17770000000E+01 0.  1.
         15    1    1    2    0    0 -0.11164922690E+02 -0.21864563861E+01  0.22318437300E+03  0.22348122554E+03  0.17770000000E+01 0.  1.
</event>
<event>
 6   1  0.1826851E-04  0.5010325E+03  0.7546771E-02  0.9397502E-01
        -11   -1    0    0    0    0  0.00000000000E+00  0.00000000000E+00  0.50000000000E+03  0.50000000000E+03  0.00000000000E+00 0.  1.
         11   -1    0    0    0    0 -0.00000000000E+00 -0.00000000000E+00 -0.50000000000E+03  0.50000000000E+03  0.00000000000E+00 0.  1.
        -11    1    1    2    0    0  0.18010214717E+01 -0.82207402153E+01  0.44829717676E+03  0.44837616233E+03  0.00000000000E+00 0.  1.
         11    1    1    2    0    0 -0.52122625361E+01 -0.48401554477E+01 -0.49891684047E+03  0.49896754252E+03  0.00000000000E+00 0.  1.
        -15    1    1    2    0    0  0.10362369243E+01  0.69963487557E+01  0.19655503041E+02  0.20964713489E+02  0.17770000000E+01 0.  1.
         15    1    1    2    0    0  0.23750041402E+01  0.60645469073E+01  0.30964160662E+02  0.31691581664E+02  0.17770000000E+01 0. -1.
</event>
<event>
 6   1  0.1826851E-04  0.5042708E+03  0.7546771E-02  0.9390304E-01
        -11   -1    0    0    0    0  0.00000000000E+00  0.00000000000E+00  0.50000000000E+03  0.50000000000E+03  0.00000000000E+00 0. -1.
         11   -1    0    0    0    0 -0.00000000000E+00 -0.00000000000E+00 -0.50000000000E+03  0.50000000000E+03  0.00000000000E+00 0.  1.
        -11    1    1    2    0    0  0.73426452206E+01 -0.10375400867E+02  0.45890634489E+03  0.45908234202E+03  0.00000000000E+00 0. -1.
         11    1    1    2    0    0  0.64447337689E+01  0.43132647815E+01 -0.49566850026E+03  0.49572916093E+03  0.00000000000E+00 0.  1.
        -15    1    1    2    0    0 -0.12216097562E+02 -0.15168623102E+01  0.34874133491E+02  0.37025623920E+02  0.17770000000E+01 0.  1.
         15    1    1    2    0    0 -0.15712814271E+01  0.75789983961E+01  0.18880218855E+01  0.81628731248E+01  0.17770000000E+01 0. -1.
</event>
<event>
 6   1  0.1826851E-04  0.5019082E+03  0.7546771E-02  0.9395550E-01
        -11   -1    0    0    0    0  0.00000000000E+00  0.00000000000E+00  0.50000000000E+03  0.50000000000E+03  0.00000000000E+00 0. -1.
         11   -1    0    0    0    0 -0.00000000000E+00 -0.00000000000E+00 -0.50000000000E+03  0.50000000000E+03  0.00000000000E+00 0. -1.
        -11    1    1    2    0    0  0.17159376191E+02  0.23624444531E+01  0.40491765169E+03  0.40528795934E+03  0.00000000000E+00 0. -1.
         11    1    1    2    0    0  0.45376991775E+01 -0.14219131595E+02 -0.49786812749E+03  0.49809180558E+03  0.00000000000E+00 0. -1.
        -15    1    1    2    0    0 -0.18574909684E+02  0.76972962812E+01  0.62527462829E+02  0.65704771338E+02  0.17770000000E+01 0. -1.
         15    1    1    2    0    0 -0.31221656844E+01  0.41593908602E+01  0.30423012970E+02  0.30915463737E+02  0.17770000000E+01 0.  1.
</event>
<event>
 6   1  0.1826851E-04  0.5018793E+03  0.7546771E-02  0.9395615E-01
        -11   -1    0    0    0    0  0.00000000000E+00  0.00000000000E+00  0.50000000000E+03  0.50000000000E+03  0.00000000000E+00 0. -1.
         11   -1    0    0    0    0 -0.00000000000E+00 -0.00000000000E+00 -0.50000000000E+03  0.50000000000E+03  0.00000000000E+00 0.  1.
        -11    1    1    2    0    0 -0.54855995817E+00 -0.68011869073E+01  0.49807400653E+03  0.49812074143E+03  0.00000000000E+00 0. -1.
         11    1    1    2    0    0  0.75187824555E+01 -0.10039449349E-03 -0.48090334525E+03  0.48096211864E+03  0.00000000000E+00 0.  1.
        -15    1    1    2    0    0 -0.24487482138E+01  0.10784937666E+01 -0.10123362295E+02  0.10620720774E+02  0.17770000000E+01 0. -1.
         15    1    1    2    0    0 -0.45214742835E+01  0.57227935352E+01 -0.70472989822E+01  0.10296419158E+02  0.17770000000E+01 0.  1.
</event>
<event>
 6   1  0.1826851E-04  0.5002836E+03  0.7546771E-02  0.9399175E-01
        -11   -1    0    0    0    0  0.00000000000E+00  0.00000000000E+00  0.50000000000E+03  0.50000000000E+03  0.00000000000E+00 0. -1.
         11   -1    0    0    0    0 -0.00000000000E+00 -0.00000000000E+00 -0.50000000000E+03  0.50000000000E+03  0.00000000000E+00 0.  1.
        -11    1    1    2    0    0 -0.84026244895E+00  0.37350132079E+01  0.13559703531E+02  0.14089780853E+02  0.00000000000E+00 0. -1.
         11    1    1    2    0    0 -0.32876744623E+01 -0.11319151743E+02 -0.49957734101E+03  0.49971637121E+03  0.00000000000E+00 0.  1.
        -15    1    1    2    0    0 -0.25645368563E+01  0.98449414382E+00  0.86826130838E+02  0.86887748292E+02  0.17770000000E+01 0. -1.
         15    1    1    2    0    0  0.66924737676E+01  0.65996443913E+01  0.39919150664E+03  0.39930609965E+03  0.17770000000E+01 0. -1.
</event>
<event>
 6   1  0.1826851E-04  0.4769666E+03  0.7546771E-02  0.9452877E-01
        -11   -1    0    0    0    0  0.00000000000E+00  0.00000000000E+00  0.50000000000E+03  0.50000000000E+03  0.00000000000E+00 0. -1.
         11   -1    0    0    0    0 -0.00000000000E+00 -0.00000000000E+00 -0.50000000000E+03  0.50000000000E+03  0.00000000000E+00 0.  1.
        -11    1    1    2    0    0  0.72126123192E+01 -0.33771895247E+02  0.47246479125E+03  0.47372517524E+03  0.00000000000E+00 0. -1.
         11    1    1    2    0    0 -0.11880937384E+02  0.35156300347E+01 -0.48057386076E+03  0.48073355612E+03  0.00000000000E+00 0.  1.
        -15    1    1    2    0    0  0.35058818950E+01  0.33679798917E+02  0.15376520468E+02  0.37231910691E+02  0.17770000000E+01 0. -1.
         15    1    1    2    0    0  0.11624431700E+01 -0.34235337053E+01 -0.72674509561E+01  0.83093579508E+01  0.17770000000E+01 0.  1.
</event>
<event>
 6   1  0.1826851E-04  0.5000457E+03  0.7546771E-02  0.9399708E-01
        -11   -1    0    0    0    0  0.00000000000E+00  0.00000000000E+00  0.50000000000E+03  0.50000000000E+03  0.00000000000E+00 0.  1.
         11   -1    0    0    0    0 -0.00000000000E+00 -0.00000000000E+00 -0.50000000000E+03  0.50000000000E+03  0.00000000000E+00 0.  1.
        -11    1    1    2    0    0 -0.25261212960E+01  0.49029197107E+01  0.25694583520E+03  0.25700502356E+03  0.00000000000E+00 0.  1.
         11    1    1    2    0    0  0.65493645269E+01 -0.60392715826E+01 -0.49987496700E+03  0.49995434753E+03  0.00000000000E+00 0.  1.
        -15    1    1    2    0    0 -0.28802955980E+01 -0.65838102923E+00  0.19559623062E+03  0.19562661560E+03  0.17770000000E+01 0.  1.
         15    1    1    2    0    0 -0.11429476329E+01  0.17947329010E+01  0.47332901183E+02  0.47414013318E+02  0.17770000000E+01 0. -1.
</event>
<event>
 6   1  0.1826851E-04  0.5164529E+03  0.7546771E-02  0.9363729E-01
        -11   -1    0    0    0    0  0.00000000000E+00  0.00000000000E+00  0.50000000000E+03  0.50000000000E+03  0.00000000000E+00 0.  1.
         11   -1    0    0    0    0 -0.00000000000E+00 -0.00000000000E+00 -0.50000000000E+03  0.50000000000E+03  0.00000000000E+00 0. -1.
        -11    1    1    2    0    0  0.86001680811E+02  0.76329511982E+02  0.46967573796E+03  0.48354708388E+03  0.00000000000E+00 0.  1.
         11    1    1    2    0    0  0.14798126041E+01  0.78863699740E+01 -0.30207761576E+03  0.30218416672E+03  0.00000000000E+00 0. -1.
        -15    1    1    2    0    0 -0.81844211596E+02 -0.82246952700E+02 -0.12248283235E+03  0.16872533345E+03  0.17770000000E+01 0. -1.
         15    1    1    2    0    0 -0.56372818192E+01 -0.19689292568E+01 -0.45115289851E+02  0.45543415946E+02  0.17770000000E+01 0.  1.
</event>
<event>
 6   1  0.1826851E-04  0.5013424E+03  0.7546771E-02  0.9396811E-01
        -11   -1    0    0    0    0  0.00000000000E+00  0.00000000000E+00  0.50000000000E+03  0.50000000000E+03  0.00000000000E+00 0.  1.
         11   -1    0    0    0    0 -0.00000000000E+00 -0.00000000000E+00 -0.50000000000E+03  0.50000000000E+03  0.00000000000E+00 0. -1.
        -11    1    1    2    0    0  0.10126585494E+02 -0.23168525164E+02  0.22527552600E+03  0.22669007677E+03  0.00000000000E+00 0.  1.
         11    1    1    2    0    0  0.66589750206E+01  0.35314664347E+01 -0.49860065354E+03  0.49865762294E+03  0.00000000000E+00 0. -1.
        -15    1    1    2    0    0 -0.16577772175E+02  0.18078272850E+02  0.25022473405E+03  0.25143035167E+03  0.17770000000E+01 0.  1.
         15    1    1    2    0    0 -0.20778834000E+00  0.15587858796E+01  0.23100393489E+02  0.23221948621E+02  0.17770000000E+01 0. -1.
</event>
<event>
 6   1  0.1826851E-04  0.5001259E+03  0.7546771E-02  0.9399528E-01
        -11   -1    0    0    0    0  0.00000000000E+00  0.00000000000E+00  0.50000000000E+03  0.50000000000E+03  0.00000000000E+00 0. -1.
         11   -1    0    0    0    0 -0.00000000000E+00 -0.00000000000E+00 -0.50000000000E+03  0.50000000000E+03  0.00000000000E+00 0.  1.
        -11    1    1    2    0    0  0.47890483029E+02 -0.22212046744E+01  0.49756977381E+03  0.49987409607E+03  0.00000000000E+00 0. -1.
         11    1    1    2    0    0 -0.30425141170E+02  0.38489052986E+01 -0.36364627545E+03  0.36493714108E+03  0.00000000000E+00 0.  1.
        -15    1    1    2    0    0 -0.64427704196E+01  0.12750912849E+01 -0.42686545022E+02  0.43225386099E+02  0.17770000000E+01 0.  1.
         15    1    1    2    0    0 -0.11022571440E+02 -0.29027919091E+01 -0.91236953331E+02  0.91963376755E+02  0.17770000000E+01 0. -1.
</event>
<event>
 6   1  0.1826851E-04  0.5007036E+03  0.7546771E-02  0.9398237E-01
        -11   -1    0    0    0    0  0.00000000000E+00  0.00000000000E+00  0.50000000000E+03  0.50000000000E+03  0.00000000000E+00 0.  1.
         11   -1    0    0    0    0 -0.00000000000E+00 -0.00000000000E+00 -0.50000000000E+03  0.50000000000E+03  0.00000000000E+00 0.  1.
        -11    1    1    2    0    0 -0.58246812408E+01 -0.13676258016E+02  0.49907506812E+03  0.49929639550E+03  0.00000000000E+00 0.  1.
         11    1    1    2    0    0  0.12397080106E+00 -0.93730320269E+01 -0.27104478499E+03  0.27120682987E+03  0.00000000000E+00 0.  1.
        -15    1    1    2    0    0 -0.52011614101E+00  0.46947740915E+01 -0.23119996790E+02  0.23664391079E+02  0.17770000000E+01 0. -1.
         15    1    1    2    0    0  0.62208265807E+01  0.18354515951E+02 -0.20491028634E+03  0.20583238354E+03  0.17770000000E+01 0.  1.
</event>
<event>
 6   1  0.1826851E-04  0.5004245E+03  0.7546771E-02  0.9398860E-01
        -11   -1    0    0    0    0  0.00000000000E+00  0.00000000000E+00  0.50000000000E+03  0.50000000000E+03  0.00000000000E+00 0. -1.
         11   -1    0    0    0    0 -0.00000000000E+00 -0.00000000000E+00 -0.50000000000E+03  0.50000000000E+03  0.00000000000E+00 0. -1.
        -11    1    1    2    0    0 -0.32055438978E+01  0.79616856632E+01  0.39997208061E+03  0.40006415638E+03  0.00000000000E+00 0. -1.
         11    1    1    2    0    0 -0.12729698621E+01 -0.98538023014E+01 -0.49947666349E+03  0.49957547502E+03  0.00000000000E+00 0. -1.
        -15    1    1    2    0    0  0.69980123052E+01 -0.25619962280E+01  0.58190852153E+02  0.58693006434E+02  0.17770000000E+01 0.  1.
         15    1    1    2    0    0 -0.25194985452E+01  0.44541128662E+01  0.41313730727E+02  0.41667362166E+02  0.17770000000E+01 0. -1.
</event>
<event>
 6   1  0.1826851E-04  0.4987838E+03  0.7546771E-02  0.9402535E-01
        -11   -1    0    0    0    0  0.00000000000E+00  0.00000000000E+00  0.50000000000E+03  0.50000000000E+03  0.00000000000E+00 0.  1.
         11   -1    0    0    0    0 -0.00000000000E+00 -0.00000000000E+00 -0.50000000000E+03  0.50000000000E+03  0.00000000000E+00 0. -1.
        -11    1    1    2    0    0 -0.15844933612E+01  0.18674227326E+01  0.12453457620E+00  0.24522226112E+01  0.00000000000E+00 0.  1.
         11    1    1    2    0    0 -0.66767555455E+00 -0.12556418431E+02 -0.49868565258E+03  0.49884415354E+03  0.00000000000E+00 0. -1.
        -15    1    1    2    0    0  0.15884641173E+01  0.61834835672E+01  0.34820642478E+03  0.34826947996E+03  0.17770000000E+01 0.  1.
         15    1    1    2    0    0  0.66370479850E+00  0.45055121309E+01  0.15035469322E+03  0.15043414388E+03  0.17770000000E+01 0. -1.
</event>
<event>
 6   1  0.1826851E-04  0.5027190E+03  0.7546771E-02  0.9393746E-01
        -11   -1    0    0    0    0  0.00000000000E+00  0.00000000000E+00  0.50000000000E+03  0.50000000000E+03  0.00000000000E+00 0. -1.
         11   -1    0    0    0    0 -0.00000000000E+00 -0.00000000000E+00 -0.50000000000E+03  0.50000000000E+03  0.00000000000E+00 0. -1.
        -11    1    1    2    0    0 -0.11210860201E+02 -0.16610159434E+02  0.62774354396E+02  0.65895374289E+02  0.00000000000E+00 0. -1.
         11    1    1    2    0    0  0.85120313672E+01  0.14931200717E+02 -0.49698390731E+03  0.49728100663E+03  0.00000000000E+00 0. -1.
        -15    1    1    2    0    0  0.62345044178E+00  0.23124228025E+02  0.14895294567E+03  0.15074898462E+03  0.17770000000E+01 0.  1.
         15    1    1    2    0    0  0.20753783919E+01 -0.21445269308E+02  0.28525660724E+03  0.28607463445E+03  0.17770000000E+01 0. -1.
</event>
<event>
 6   1  0.1826851E-04  0.5045608E+03  0.7546771E-02  0.9389662E-01
        -11   -1    0    0    0    0  0.00000000000E+00  0.00000000000E+00  0.50000000000E+03  0.50000000000E+03  0.00000000000E+00 0. -1.
         11   -1    0    0    0    0 -0.00000000000E+00 -0.00000000000E+00 -0.50000000000E+03  0.50000000000E+03  0.00000000000E+00 0.  1.
        -11    1    1    2    0    0 -0.29762051515E+02  0.13050430075E+02  0.35517738531E+03  0.35666099937E+03  0.00000000000E+00 0. -1.
         11    1    1    2    0    0 -0.12512199854E+02 -0.14208584824E+02 -0.49507729568E+03  0.49543916652E+03  0.00000000000E+00 0.  1.
        -15    1    1    2    0    0  0.37914595558E+02  0.80515396385E+01  0.12418511795E+03  0.13010551524E+03  0.17770000000E+01 0.  1.
         15    1    1    2    0    0  0.43596558109E+01 -0.68933848895E+01  0.15714792422E+02  0.17794318866E+02  0.17770000000E+01 0. -1.
</event>
<event>
 6   1  0.1826851E-04  0.4861885E+03  0.7546771E-02  0.9431256E-01
        -11   -1    0    0    0    0  0.00000000000E+00  0.00000000000E+00  0.50000000000E+03  0.50000000000E+03  0.00000000000E+00 0. -1.
         11   -1    0    0    0    0 -0.00000000000E+00 -0.00000000000E+00 -0.50000000000E+03  0.50000000000E+03  0.00000000000E+00 0.  1.
        -11    1    1    2    0    0  0.60880961964E+01  0.26611064794E+02  0.10744474367E+01  0.27319738690E+02  0.00000000000E+00 0. -1.
         11    1    1    2    0    0  0.76938136240E+01 -0.94908198943E+01 -0.48651175105E+03  0.48666513574E+03  0.00000000000E+00 0.  1.
        -15    1    1    2    0    0 -0.14344159233E+02 -0.14733905503E+02  0.43036309192E+03  0.43085773928E+03  0.17770000000E+01 0. -1.
         15    1    1    2    0    0  0.56224941204E+00 -0.23863393968E+01  0.55074211694E+02  0.55157386294E+02  0.17770000000E+01 0.  1.
</event>
<event>
 6   1  0.1826851E-04  0.5005798E+03  0.7546771E-02  0.9398513E-01
        -11   -1    0    0    0    0  0.00000000000E+00  0.00000000000E+00  0.50000000000E+03  0.50000000000E+03  0.00000000000E+00 0.  1.
         11   -1    0    0    0    0 -0.00000000000E+00 -0.00000000000E+00 -0.50000000000E+03  0.50000000000E+03  0.00000000000E+00 0. -1.
        -11    1    1    2    0    0  0.27663878894E+02  0.99479215367E+01  0.49855417703E+03  0.49942018258E+03  0.00000000000E+00 0.  1.
         11    1    1    2    0    0 -0.81791336772E+01  0.21413558398E+01 -0.32773761096E+03  0.32784664902E+03  0.00000000000E+00 0. -1.
        -15    1    1    2    0    0 -0.20489920709E+02 -0.10860042685E+02 -0.15289740001E+03  0.15465623180E+03  0.17770000000E+01 0. -1.
         15    1    1    2    0    0  0.10051754925E+01 -0.12292346913E+01 -0.17919166055E+02  0.18076936599E+02  0.17770000000E+01 0.  1.
</event>
<event>
 6   1  0.1826851E-04  0.5000771E+03  0.7546771E-02  0.9399637E-01
        -11   -1    0    0    0    0  0.00000000000E+00  0.00000000000E+00  0.50000000000E+03  0.50000000000E+03  0.00000000000E+00 0. -1.
         11   -1    0    0    0    0 -0.00000000000E+00 -0.00000000000E+00 -0.50000000000E+03  0.50000000000E+03  0.00000000000E+00 0.  1.
        -11    1    1    2    0    0 -0.42958750963E+01 -0.54126535586E+01  0.14576413608E+03  0.14592784083E+03  0.00000000000E+00 0. -1.
         11    1    1    2    0    0  0.95784795242E+01  0.26972087658E+01 -0.49982385217E+03  0.49992289946E+03  0.00000000000E+00 0.  1.
        -15    1    1    2    0    0 -0.28727379150E+01 -0.67006822851E+00  0.15367009318E+03  0.15370867536E+03  0.17770000000E+01 0.  1.
         15    1    1    2    0    0 -0.24098665129E+01  0.33855130213E+01  0.20038962291E+03  0.20044058435E+03  0.17770000000E+01 0. -1.
</event>
<event>
 6   1  0.1826851E-04  0.5008285E+03  0.7546771E-02  0.9397958E-01
        -11   -1    0    0    0    0  0.00000000000E+00  0.00000000000E+00  0.50000000000E+03  0.50000000000E+03  0.00000000000E+00 0. -1.
         11   -1    0    0    0    0 -0.00000000000E+00 -0.00000000000E+00 -0.50000000000E+03  0.50000000000E+03  0.00000000000E+00 0. -1.
        -11    1    1    2    0    0  0.22739679204E+02 -0.26438086807E+02  0.18157181720E+03  0.18489021133E+03  0.00000000000E+00 0. -1.
         11    1    1    2    0    0 -0.30503829059E+02  0.30016591376E+02 -0.49733361639E+03  0.49917151895E+03  0.00000000000E+00 0. -1.
        -15    1    1    2    0    0  0.68476579625E+01 -0.78643155460E+00  0.21794513824E+03  0.21806134436E+03  0.17770000000E+01 0. -1.
         15    1    1    2    0    0  0.91649189228E+00 -0.27920730140E+01  0.97816660955E+02  0.97876925363E+02  0.17770000000E+01 0. -1.
</event>
<event>
 6   1  0.1826851E-04  0.5006041E+03  0.7546771E-02  0.9398459E-01
        -11   -1    0    0    0    0  0.00000000000E+00  0.00000000000E+00  0.50000000000E+03  0.50000000000E+03  0.00000000000E+00 0.  1.
         11   -1    0    0    0    0 -0.00000000000E+00 -0.00000000000E+00 -0.50000000000E+03  0.50000000000E+03  0.00000000000E+00 0. -1.
        -11    1    1    2    0    0  0.28858154168E+01 -0.78246756628E+01  0.49932628469E+03  0.49939592716E+03  0.00000000000E+00 0.  1.
         11    1    1    2    0    0 -0.11008935954E+02  0.53947214503E+01 -0.18737232313E+03  0.18777296707E+03  0.00000000000E+00 0. -1.
        -15    1    1    2    0    0  0.10500670666E+02 -0.69049448593E+00 -0.67440229842E+02  0.68279449303E+02  0.17770000000E+01 0.  1.
         15    1    1    2    0    0 -0.23775501290E+01  0.31204486984E+01 -0.24451373173E+03  0.24455165646E+03  0.17770000000E+01 0. -1.
</event>
<event>
 6   1  0.1826851E-04  0.5008953E+03  0.7546771E-02  0.9397809E-01
        -11   -1    0    0    0    0  0.00000000000E+00  0.00000000000E+00  0.50000000000E+03  0.50000000000E+03  0.00000000000E+00 0.  1.
         11   -1    0    0    0    0 -0.00000000000E+00 -0.00000000000E+00 -0.50000000000E+03  0.50000000000E+03  0.00000000000E+00 0.  1.
        -11    1    1    2    0    0  0.54789224226E+01  0.36975338590E+01  0.47621844320E+03  0.47626431316E+03  0.00000000000E+00 0.  1.
         11    1    1    2    0    0 -0.10467307387E+01 -0.73608615119E+01 -0.49904932331E+03  0.49910470346E+03  0.00000000000E+00 0.  1.
        -15    1    1    2    0    0  0.83570721544E+00 -0.74788174584E+00  0.42557610098E+01  0.47462579395E+01  0.17770000000E+01 0. -1.
         15    1    1    2    0    0 -0.52678988994E+01  0.44112093987E+01  0.18575119094E+02  0.19884725432E+02  0.17770000000E+01 0. -1.
</event>
<event>
 6   1  0.1826851E-04  0.5003764E+03  0.7546771E-02  0.9398968E-01
        -11   -1    0    0    0    0  0.00000000000E+00  0.00000000000E+00  0.50000000000E+03  0.50000000000E+03  0.00000000000E+00 0. -1.
         11   -1    0    0    0    0 -0.00000000000E+00 -0.00000000000E+00 -0.50000000000E+03  0.50000000000E+03  0.00000000000E+00 0. -1.
        -11    1    1    2    0    0 -0.19079791927E+01  0.61268451454E+01  0.19935150500E+03  0.19945475969E+03  0.00000000000E+00 0. -1.
         11    1    1    2    0    0  0.49201824845E+01  0.88444122906E+01 -0.49952103296E+03  0.49962355248E+03  0.00000000000E+00 0. -1.
        -15    1    1    2    0    0 -0.12328906885E+01 -0.16524880261E+01  0.17487245772E+03  0.17489363892E+03  0.17770000000E+01 0.  1.
         15    1    1    2    0    0 -0.17793126033E+01 -0.13318769410E+02  0.12529707024E+03  0.12602804891E+03  0.17770000000E+01 0. -1.
</event>
<event>
 6   1  0.1826851E-04  0.5041494E+03  0.7546771E-02  0.9390573E-01
        -11   -1    0    0    0    0  0.00000000000E+00  0.00000000000E+00  0.50000000000E+03  0.50000000000E+03  0.00000000000E+00 0. -1.
         11   -1    0    0    0    0 -0.00000000000E+00 -0.00000000000E+00 -0.50000000000E+03  0.50000000000E+03  0.00000000000E+00 0.  1.
        -11    1    1    2    0    0 -0.14797399598E+02  0.31309889516E+02  0.87642590291E+02  0.94236382832E+02  0.00000000000E+00 0. -1.
         11    1    1    2    0    0 -0.55025297976E+01 -0.76321496155E+01 -0.49576135387E+03  0.49585063026E+03  0.00000000000E+00 0.  1.
        -15    1    1    2    0    0  0.20547026996E+02 -0.10958218264E+02  0.32147525160E+03  0.32232244412E+03  0.17770000000E+01 0. -1.
         15    1    1    2    0    0 -0.24709760020E+00 -0.12719521637E+02  0.86643511980E+02  0.87590542784E+02  0.17770000000E+01 0.  1.
</event>
<event>
 6   1  0.1826851E-04  0.5024720E+03  0.7546771E-02  0.9394295E-01
        -11   -1    0    0    0    0  0.00000000000E+00  0.00000000000E+00  0.50000000000E+03  0.50000000000E+03  0.00000000000E+00 0. -1.
         11   -1    0    0    0    0 -0.00000000000E+00 -0.00000000000E+00 -0.50000000000E+03  0.50000000000E+03  0.00000000000E+00 0.  1.
        -11    1    1    2    0    0 -0.32317738582E+01  0.12663385105E+02  0.13780655122E+02  0.18992423231E+02  0.00000000000E+00 0. -1.
         11    1    1    2    0    0  0.66006238708E+01 -0.20235098025E+02 -0.49707255864E+03  0.49752804542E+03  0.00000000000E+00 0.  1.
        -15    1    1    2    0    0  0.26619706628E+01  0.52984838130E+01  0.30401824208E+03  0.30408125438E+03  0.17770000000E+01 0. -1.
         15    1    1    2    0    0 -0.60308206754E+01  0.22732291070E+01  0.17927366143E+03  0.17939827697E+03  0.17770000000E+01 0. -1.
</event>
<event>
 6   1  0.1826851E-04  0.5066761E+03  0.7546771E-02  0.9384994E-01
        -11   -1    0    0    0    0  0.00000000000E+00  0.00000000000E+00  0.50000000000E+03  0.50000000000E+03  0.00000000000E+00 0. -1.
         11   -1    0    0    0    0 -0.00000000000E+00 -0.00000000000E+00 -0.50000000000E+03  0.50000000000E+03  0.00000000000E+00 0.  1.
        -11    1    1    2    0    0  0.55628781322E+01  0.92088589427E+01  0.47248128286E+03  0.47260375723E+03  0.00000000000E+00 0. -1.
         11    1    1    2    0    0  0.10120820009E+02  0.46831815212E+01 -0.49319782886E+03  0.49332389115E+03  0.00000000000E+00 0.  1.
        -15    1    1    2    0    0 -0.50708226037E+01 -0.12768076784E+02  0.18359771865E+02  0.22999477790E+02  0.17770000000E+01 0. -1.
         15    1    1    2    0    0 -0.10612875538E+02 -0.11239636796E+01  0.23567741391E+01  0.11072873831E+02  0.17770000000E+01 0. -1.
</event>
<event>
 6   1  0.1826851E-04  0.4813203E+03  0.7546771E-02  0.9442605E-01
        -11   -1    0    0    0    0  0.00000000000E+00  0.00000000000E+00  0.50000000000E+03  0.50000000000E+03  0.00000000000E+00 0. -1.
         11   -1    0    0    0    0 -0.00000000000E+00 -0.00000000000E+00 -0.50000000000E+03  0.50000000000E+03  0.00000000000E+00 0. -1.
        -11    1    1    2    0    0  0.23097329906E+02  0.10094115998E+02  0.47588340606E+03  0.47655051567E+03  0.00000000000E+00 0. -1.
         11    1    1    2    0    0  0.61162741596E+01  0.69229252488E+01 -0.48665611108E+03  0.48674377875E+03  0.00000000000E+00 0. -1.
        -15    1    1    2    0    0 -0.32692004746E+01 -0.63049178998E+00  0.34382551576E+01  0.51053422187E+01  0.17770000000E+01 0.  1.
         15    1    1    2    0    0 -0.25944403591E+02 -0.16386549457E+02  0.73344498631E+01  0.31600363362E+02  0.17770000000E+01 0. -1.
</event>
<event>
 6   1  0.1826851E-04  0.5000641E+03  0.7546771E-02  0.9399666E-01
        -11   -1    0    0    0    0  0.00000000000E+00  0.00000000000E+00  0.50000000000E+03  0.50000000000E+03  0.00000000000E+00 0. -1.
         11   -1    0    0    0    0 -0.00000000000E+00 -0.00000000000E+00 -0.50000000000E+03  0.50000000000E+03  0.00000000000E+00 0.  1.
        -11    1    1    2    0    0 -0.11447602011E+02 -0.23001577111E+00  0.49980478708E+03  0.49993592158E+03  0.00000000000E+00 0. -1.
         11    1    1    2    0    0  0.82706350426E+01  0.33910593533E+01 -0.34984383610E+03  0.34995801512E+03  0.00000000000E+00 0.  1.
        -15    1    1    2    0    0  0.19161670765E+01 -0.35192420615E+01 -0.10298589282E+03  0.10307913761E+03  0.17770000000E+01 0.  1.
         15    1    1    2    0    0  0.12607998919E+01  0.35819847935E+00 -0.46975058156E+02  0.47026925695E+02  0.17770000000E+01 0. -1.
</event>
<event>
 6   1  0.1826851E-04  0.5001901E+03  0.7546771E-02  0.9399385E-01
        -11   -1    0    0    0    0  0.00000000000E+00  0.00000000000E+00  0.50000000000E+03  0.50000000000E+03  0.00000000000E+00 0.  1.
         11   -1    0    0    0    0 -0.00000000000E+00 -0.00000000000E+00 -0.50000000000E+03  0.50000000000E+03  0.00000000000E+00 0.  1.
        -11    1    1    2    0    0  0.70927437546E+01 -0.30869830413E+01  0.22763555689E+03  0.22776694940E+03  0.00000000000E+00 0.  1.
         11    1    1    2    0    0 -0.93105431803E+01  0.38834158232E+01 -0.49970812538E+03  0.49980994159E+03  0.00000000000E+00 0.  1.
        -15    1    1    2    0    0 -0.41015651839E+01  0.33170568565E+01  0.15128930145E+03  0.15139166479E+03  0.17770000000E+01 0. -1.
         15    1    1    2    0    0  0.63193646095E+01 -0.41134896384E+01  0.12078326704E+03  0.12103144423E+03  0.17770000000E+01 0.  1.
</event>
<event>
 6   1  0.1826851E-04  0.5000474E+03  0.7546771E-02  0.9399704E-01
        -11   -1    0    0    0    0  0.00000000000E+00  0.00000000000E+00  0.50000000000E+03  0.50000000000E+03  0.00000000000E+00 0.  1.
         11   -1    0    0    0    0 -0.00000000000E+00 -0.00000000000E+00 -0.50000000000E+03  0.50000000000E+03  0.00000000000E+00 0.  1.
        -11    1    1    2    0    0 -0.11971718516E+02 -0.10268714311E+02  0.49970375257E+03  0.49995260663E+03  0.00000000000E+00 0.  1.
         11    1    1    2    0    0  0.53745119335E+01  0.18506454413E+01 -0.24014258395E+03  0.24020984762E+03  0.00000000000E+00 0.  1.
        -15    1    1    2    0    0  0.36592269802E+01  0.55570938423E+01 -0.11403822269E+03  0.11424598548E+03  0.17770000000E+01 0. -1.
         15    1    1    2    0    0  0.29379796020E+01  0.28609750274E+01 -0.14552294593E+03  0.14559156028E+03  0.17770000000E+01 0. -1.
</event>
<event>
 6   1  0.1826851E-04  0.5079684E+03  0.7546771E-02  0.9382154E-01
        -11   -1    0    0    0    0  0.00000000000E+00  0.00000000000E+00  0.50000000000E+03  0.50000000000E+03  0.00000000000E+00 0. -1.
         11   -1    0    0    0    0 -0.00000000000E+00 -0.00000000000E+00 -0.50000000000E+03  0.50000000000E+03  0.00000000000E+00 0. -1.
        -11    1    1    2    0    0  0.38781653195E+02  0.35416911920E+02  0.63469912121E+02  0.82382061270E+02  0.00000000000E+00 0. -1.
         11    1    1    2    0    0 -0.42677958422E+02 -0.34125978688E+02 -0.48898788188E+03  0.49203164450E+03  0.00000000000E+00 0. -1.
        -15    1    1    2    0    0 -0.87596610359E+00 -0.10825146281E+01  0.84146045884E+02  0.84176326372E+02  0.17770000000E+01 0.  1.
         15    1    1    2    0    0  0.47722713302E+01 -0.20841860408E+00  0.34137192388E+03  0.34140996786E+03  0.17770000000E+01 0. -1.
</event>
<event>
 6   1  0.1826851E-04  0.5047666E+03  0.7546771E-02  0.9389207E-01
        -11   -1    0    0    0    0  0.00000000000E+00  0.00000000000E+00  0.50000000000E+03  0.50000000000E+03  0.00000000000E+00 0. -1.
         11   -1    0    0    0    0 -0.00000000000E+00 -0.00000000000E+00 -0.50000000000E+03  0.50000000000E+03  0.00000000000E+00 0.  1.
        -11    1    1    2    0    0 -0.88438318005E+01 -0.21918051910E+02  0.49466906500E+03  0.49523337754E+03  0.00000000000E+00 0. -1.
         11    1    1    2    0    0  0.29779399400E+02 -0.31172266027E-01 -0.36759511561E+03  0.36879937990E+03  0.00000000000E+00 0.  1.
        -15    1    1    2    0    0  0.64733458924E+01  0.89651898690E+01 -0.73753209717E+02  0.74598743347E+02  0.17770000000E+01 0.  1.
         15    1    1    2    0    0 -0.27408913491E+02  0.12984034307E+02 -0.53320739682E+02  0.61368499207E+02  0.17770000000E+01 0. -1.
</event>
<event>
 6   1  0.1826851E-04  0.5000453E+03  0.7546771E-02  0.9399708E-01
        -11   -1    0    0    0    0  0.00000000000E+00  0.00000000000E+00  0.50000000000E+03  0.50000000000E+03  0.00000000000E+00 0.  1.
         11   -1    0    0    0    0 -0.00000000000E+00 -0.00000000000E+00 -0.50000000000E+03  0.50000000000E+03  0.00000000000E+00 0. -1.
        -11    1    1    2    0    0 -0.11701157314E+01  0.11074745322E+01  0.17334935950E+02  0.17409643163E+02  0.00000000000E+00 0.  1.
         11    1    1    2    0    0  0.94523378907E+01 -0.12288512585E+01 -0.49986381463E+03  0.49995468789E+03  0.00000000000E+00 0. -1.
        -15    1    1    2    0    0 -0.33766697352E+01 -0.14046655700E+01  0.29498808912E+03  0.29501611047E+03  0.17770000000E+01 0.  1.
         15    1    1    2    0    0 -0.49055524241E+01  0.15260422962E+01  0.18754078955E+03  0.18761955848E+03  0.17770000000E+01 0. -1.
</event>
<event>
 6   1  0.1826851E-04  0.4591225E+03  0.7546771E-02  0.9496229E-01
        -11   -1    0    0    0    0  0.00000000000E+00  0.00000000000E+00  0.50000000000E+03  0.50000000000E+03  0.00000000000E+00 0. -1.
         11   -1    0    0    0    0 -0.00000000000E+00 -0.00000000000E+00 -0.50000000000E+03  0.50000000000E+03  0.00000000000E+00 0. -1.
        -11    1    1    2    0    0  0.57595318793E+02 -0.17558557854E+02  0.44761008163E+03  0.45164179266E+03  0.00000000000E+00 0. -1.
         11    1    1    2    0    0 -0.15617907106E+02 -0.26216329551E+02 -0.46783199267E+03  0.46882618135E+03  0.00000000000E+00 0. -1.
        -15    1    1    2    0    0  0.17009841122E+01  0.20642749134E+02 -0.83631296218E+01  0.22407947359E+02  0.17770000000E+01 0.  1.
         15    1    1    2    0    0 -0.43678395800E+02  0.23132138271E+02  0.28585040654E+02  0.57124078626E+02  0.17770000000E+01 0. -1.
</event>
<event>
 6   1  0.1826851E-04  0.5009549E+03  0.7546771E-02  0.9397676E-01
        -11   -1    0    0    0    0  0.00000000000E+00  0.00000000000E+00  0.50000000000E+03  0.50000000000E+03  0.00000000000E+00 0.  1.
         11   -1    0    0    0    0 -0.00000000000E+00 -0.00000000000E+00 -0.50000000000E+03  0.50000000000E+03  0.00000000000E+00 0.  1.
        -11    1    1    2    0    0  0.13469398086E+02  0.94529456780E+01  0.49877370426E+03  0.49904507906E+03  0.00000000000E+00 0.  1.
         11    1    1    2    0    0  0.15684349116E+01 -0.65533661489E+01 -0.43869685200E+03  0.43874860062E+03  0.00000000000E+00 0.  1.
        -15    1    1    2    0    0 -0.90823179674E+01 -0.34662337468E+01 -0.38061818546E+02  0.39323822755E+02  0.17770000000E+01 0.  1.
         15    1    1    2    0    0 -0.59555150299E+01  0.56665421766E+00 -0.22015033718E+02  0.22882497567E+02  0.17770000000E+01 0. -1.
</event>
<event>
 6   1  0.1826851E-04  0.5012844E+03  0.7546771E-02  0.9396940E-01
        -11   -1    0    0    0    0  0.00000000000E+00  0.00000000000E+00  0.50000000000E+03  0.50000000000E+03  0.00000000000E+00 0.  1.
         11   -1    0    0    0    0 -0.00000000000E+00 -0.00000000000E+00 -0.50000000000E+03  0.50000000000E+03  0.00000000000E+00 0. -1.
        -11    1    1    2    0    0  0.36787234565E+01  0.18642823923E+02  0.41758873943E+03  0.41802086454E+03  0.00000000000E+00 0.  1.
         11    1    1    2    0    0  0.15771326198E+01 -0.10518965680E+02 -0.49860214682E+03  0.49871558708E+03  0.00000000000E+00 0. -1.
        -15    1    1    2    0    0  0.25320571867E+01 -0.10440545070E+02  0.44048557588E+02  0.45374546273E+02  0.17770000000E+01 0. -1.
         15    1    1    2    0    0 -0.77879132630E+01  0.23166868261E+01  0.36964849800E+02  0.37889002106E+02  0.17770000000E+01 0.  1.
</event>
<event>
 6   1  0.1826851E-04  0.4938818E+03  0.7546771E-02  0.9413605E-01
        -11   -1    0    0    0    0  0.00000000000E+00  0.00000000000E+00  0.50000000000E+03  0.50000000000E+03  0.00000000000E+00 0.  1.
         11   -1    0    0    0    0 -0.00000000000E+00 -0.00000000000E+00 -0.50000000000E+03  0.50000000000E+03  0.00000000000E+00 0. -1.
        -11    1    1    2    0    0  0.88215598959E+01 -0.34711885589E+01  0.49442936295E+03  0.49452023620E+03  0.00000000000E+00 0.  1.
         11    1    1    2    0    0  0.18074846414E+01  0.72579655508E+01 -0.49325178345E+03  0.49330849064E+03  0.00000000000E+00 0. -1.
        -15    1    1    2    0    0 -0.50835651243E+01 -0.51533006776E+00 -0.91676543369E+00  0.54869287687E+01  0.17770000000E+01 0.  1.
         15    1    1    2    0    0 -0.55454794130E+01 -0.32714469241E+01 -0.26081406159E+00  0.66843443861E+01  0.17770000000E+01 0. -1.
</event>
<event>
 6   1  0.1826851E-04  0.4803107E+03  0.7546771E-02  0.9444977E-01
        -11   -1    0    0    0    0  0.00000000000E+00  0.00000000000E+00  0.50000000000E+03  0.50000000000E+03  0.00000000000E+00 0.  1.
         11   -1    0    0    0    0 -0.00000000000E+00 -0.00000000000E+00 -0.50000000000E+03  0.50000000000E+03  0.00000000000E+00 0. -1.
        -11    1    1    2    0    0  0.86300478730E+01 -0.14720769827E+02  0.48293096104E+03  0.48323233741E+03  0.00000000000E+00 0.  1.
         11    1    1    2    0    0 -0.13086119930E+02 -0.97307444976E+01 -0.47744782274E+03  0.47772623684E+03  0.00000000000E+00 0. -1.
        -15    1    1    2    0    0  0.31837191427E+01  0.15819083536E+02  0.11480135786E+02  0.19882925292E+02  0.17770000000E+01 0. -1.
         15    1    1    2    0    0  0.12723529141E+01  0.86324307891E+01 -0.16963274082E+02  0.19158500459E+02  0.17770000000E+01 0.  1.
</event>
<event>
 6   1  0.1826851E-04  0.5014403E+03  0.7546771E-02  0.9396593E-01
        -11   -1    0    0    0    0  0.00000000000E+00  0.00000000000E+00  0.50000000000E+03  0.50000000000E+03  0.00000000000E+00 0.  1.
         11   -1    0    0    0    0 -0.00000000000E+00 -0.00000000000E+00 -0.50000000000E+03  0.50000000000E+03  0.00000000000E+00 0.  1.
        -11    1    1    2    0    0  0.20925428100E+02 -0.93593467772E+01  0.49803239570E+03  0.49855966351E+03  0.00000000000E+00 0.  1.
         11    1    1    2    0    0  0.46903910880E+01  0.10604845368E+02 -0.29879113252E+03  0.29901605875E+03  0.00000000000E+00 0.  1.
        -15    1    1    2    0    0 -0.35780050930E+01 -0.52880646795E+01 -0.10972881670E+02  0.12819033101E+02  0.17770000000E+01 0. -1.
         15    1    1    2    0    0 -0.22037814095E+02  0.40425660891E+01 -0.18826838151E+03  0.18960524464E+03  0.17770000000E+01 0.  1.
</event>
<event>
 6   1  0.1826851E-04  0.5017405E+03  0.7546771E-02  0.9395924E-01
        -11   -1    0    0    0    0  0.00000000000E+00  0.00000000000E+00  0.50000000000E+03  0.50000000000E+03  0.00000000000E+00 0.  1.
         11   -1    0    0    0    0 -0.00000000000E+00 -0.00000000000E+00 -0.50000000000E+03  0.50000000000E+03  0.00000000000E+00 0.  1.
        -11    1    1    2    0    0  0.10534539764E+02  0.14908880122E+02  0.11652372244E+03  0.11794502586E+03  0.00000000000E+00 0.  1.
         11    1    1    2    0    0 -0.84957324006E+01  0.17937887202E+02 -0.49786401737E+03  0.49825949570E+03  0.00000000000E+00 0.  1.
        -15    1    1    2    0    0 -0.60372425051E+01 -0.10341910148E+00  0.20457233250E+02  0.21403623847E+02  0.17770000000E+01 0. -1.
         15    1    1    2    0    0  0.39984351414E+01 -0.32743348222E+02  0.36088306168E+03  0.36239185459E+03  0.17770000000E+01 0.  1.
</event>
<event>
 6   1  0.1826851E-04  0.4841420E+03  0.7546771E-02  0.9436009E-01
        -11   -1    0    0    0    0  0.00000000000E+00  0.00000000000E+00  0.50000000000E+03  0.50000000000E+03  0.00000000000E+00 0.  1.
         11   -1    0    0    0    0 -0.00000000000E+00 -0.00000000000E+00 -0.50000000000E+03  0.50000000000E+03  0.00000000000E+00 0. -1.
        -11    1    1    2    0    0 -0.12723076630E+02 -0.38756946729E+01  0.48683085906E+03  0.48701250808E+03  0.00000000000E+00 0.  1.
         11    1    1    2    0    0 -0.31752647706E+01  0.68891346589E+01 -0.48136245310E+03  0.48142221982E+03  0.00000000000E+00 0. -1.
        -15    1    1    2    0    0  0.60060631644E+01 -0.53240650540E+01 -0.15267154539E+02  0.17339613610E+02  0.17770000000E+01 0. -1.
         15    1    1    2    0    0  0.98922782366E+01  0.23106250680E+01  0.97987485741E+01  0.14225658492E+02  0.17770000000E+01 0.  1.
</event>
<event>
 6   1  0.1826851E-04  0.4869028E+03  0.7546771E-02  0.9429602E-01
        -11   -1    0    0    0    0  0.00000000000E+00  0.00000000000E+00  0.50000000000E+03  0.50000000000E+03  0.00000000000E+00 0.  1.
         11   -1    0    0    0    0 -0.00000000000E+00 -0.00000000000E+00 -0.50000000000E+03  0.50000000000E+03  0.00000000000E+00 0. -1.
        -11    1    1    2    0    0  0.15556495807E+02 -0.10195437884E+02  0.48114448314E+03  0.48150385790E+03  0.00000000000E+00 0.  1.
         11    1    1    2    0    0 -0.23955369054E+01 -0.70032717806E+01 -0.49255379609E+03  0.49260940556E+03  0.00000000000E+00 0. -1.
        -15    1    1    2    0    0 -0.49088893359E+01  0.21943793264E+01  0.48757740126E+01  0.74728439273E+01  0.17770000000E+01 0. -1.
         15    1    1    2    0    0 -0.82520695657E+01  0.15004330338E+02  0.65335389327E+01  0.18413892609E+02  0.17770000000E+01 0.  1.
</event>
<event>
 6   1  0.1826851E-04  0.5001985E+03  0.7546771E-02  0.9399366E-01
        -11   -1    0    0    0    0  0.00000000000E+00  0.00000000000E+00  0.50000000000E+03  0.50000000000E+03  0.00000000000E+00 0. -1.
         11   -1    0    0    0    0 -0.00000000000E+00 -0.00000000000E+00 -0.50000000000E+03  0.50000000000E+03  0.00000000000E+00 0. -1.
        -11    1    1    2    0    0  0.93160066960E+01  0.19651266573E+01  0.49971077813E+03  0.49980147207E+03  0.00000000000E+00 0. -1.
         11    1    1    2    0    0 -0.82602682686E+00  0.44108890395E+01 -0.32188687302E+03  0.32191815308E+03  0.00000000000E+00 0. -1.
        -15    1    1    2    0    0 -0.27477647709E+01 -0.27888331156E+01 -0.11257415837E+03  0.11265623224E+03  0.17770000000E+01 0.  1.
         15    1    1    2    0    0 -0.57422150982E+01 -0.35871825812E+01 -0.65249746746E+02  0.65624142604E+02  0.17770000000E+01 0. -1.
</event>
<event>
 6   1  0.1826851E-04  0.4838603E+03  0.7546771E-02  0.9436666E-01
        -11   -1    0    0    0    0  0.00000000000E+00  0.00000000000E+00  0.50000000000E+03  0.50000000000E+03  0.00000000000E+00 0.  1.
         11   -1    0    0    0    0 -0.00000000000E+00 -0.00000000000E+00 -0.50000000000E+03  0.50000000000E+03  0.00000000000E+00 0.  1.
        -11    1    1    2    0    0  0.39372815020E+01 -0.25975323133E+02  0.48549312541E+03  0.48620344961E+03  0.00000000000E+00 0.  1.
         11    1    1    2    0    0 -0.84679634924E+01 -0.15433716433E+01 -0.48184894740E+03  0.48192582055E+03  0.00000000000E+00 0.  1.
        -15    1    1    2    0    0  0.33747962960E+01  0.37557272320E+01 -0.58286001715E+01  0.79135988046E+01  0.17770000000E+01 0.  1.
         15    1    1    2    0    0  0.11558856944E+01  0.23762967545E+02  0.21844221625E+01  0.23957131036E+02  0.17770000000E+01 0. -1.
</event>
<event>
 6   1  0.1826851E-04  0.5002550E+03  0.7546771E-02  0.9399239E-01
        -11   -1    0    0    0    0  0.00000000000E+00  0.00000000000E+00  0.50000000000E+03  0.50000000000E+03  0.00000000000E+00 0.  1.
         11   -1    0    0    0    0 -0.00000000000E+00 -0.00000000000E+00 -0.50000000000E+03  0.50000000000E+03  0.00000000000E+00 0.  1.
        -11    1    1    2    0    0 -0.87462767172E+01 -0.13212930881E+01  0.39663675005E+03  0.39673537108E+03  0.00000000000E+00 0.  1.
         11    1    1    2    0    0  0.68199907522E+01 -0.22552982255E+01 -0.49969339946E+03  0.49974502710E+03  0.00000000000E+00 0.  1.
        -15    1    1    2    0    0 -0.10036406546E+01 -0.18750595947E+01  0.49450788790E+02  0.49528389677E+02  0.17770000000E+01 0.  1.
         15    1    1    2    0    0  0.29299266195E+01  0.54516509084E+01  0.53605860620E+02  0.53991212150E+02  0.17770000000E+01 0. -1.
</event>
<event>
 6   1  0.1826851E-04  0.5004382E+03  0.7546771E-02  0.9398830E-01
        -11   -1    0    0    0    0  0.00000000000E+00  0.00000000000E+00  0.50000000000E+03  0.50000000000E+03  0.00000000000E+00 0.  1.
         11   -1    0    0    0    0 -0.00000000000E+00 -0.00000000000E+00 -0.50000000000E+03  0.50000000000E+03  0.00000000000E+00 0.  1.
        -11    1    1    2    0    0  0.14670251075E+02 -0.40551232999E+01  0.49932984326E+03  0.49956176061E+03  0.00000000000E+00 0.  1.
         11    1    1    2    0    0  0.59306024179E+01  0.11112414478E+01 -0.16085715785E+03  0.16097028339E+03  0.00000000000E+00 0.  1.
        -15    1    1    2    0    0 -0.46549143550E+01  0.58974327843E+01 -0.17818293793E+03  0.17835011925E+03  0.17770000000E+01 0.  1.
         15    1    1    2    0    0 -0.15945939138E+02 -0.29535509322E+01 -0.16028974749E+03  0.16111783675E+03  0.17770000000E+01 0. -1.
</event>
<event>
 6   1  0.1826851E-04  0.5000839E+03  0.7546771E-02  0.9399622E-01
        -11   -1    0    0    0    0  0.00000000000E+00  0.00000000000E+00  0.50000000000E+03  0.50000000000E+03  0.00000000000E+00 0.  1.
         11   -1    0    0    0    0 -0.00000000000E+00 -0.00000000000E+00 -0.50000000000E+03  0.50000000000E+03  0.00000000000E+00 0.  1.
        -11    1    1    2    0    0 -0.75596734517E+01 -0.34190595251E+01  0.19578021916E+03  0.19595594618E+03  0.00000000000E+00 0.  1.
         11    1    1    2    0    0  0.78737302612E+01  0.39277150259E+00 -0.49985389174E+03  0.49991605594E+03  0.00000000000E+00 0.  1.
        -15    1    1    2    0    0 -0.15210548748E+01  0.18733655389E+01  0.21529560788E+03  0.21531646386E+03  0.17770000000E+01 0.  1.
         15    1    1    2    0    0  0.12069980653E+01  0.11529224836E+01  0.88778064696E+02  0.88811534019E+02  0.17770000000E+01 0.  1.
</event>
<event>
 6   1  0.1826851E-04  0.5052985E+03  0.7546771E-02  0.9388031E-01
        -11   -1    0    0    0    0  0.00000000000E+00  0.00000000000E+00  0.50000000000E+03  0.50000000000E+03  0.00000000000E+00 0.  1.
         11   -1    0    0    0    0 -0.00000000000E+00 -0.00000000000E+00 -0.50000000000E+03  0.50000000000E+03  0.00000000000E+00 0. -1.
        -11    1    1    2    0    0  0.77859361408E+01 -0.37110255697E+02  0.31547900460E+03  0.31774957785E+03  0.00000000000E+00 0.  1.
         11    1    1    2    0    0  0.11393015922E+02  0.61148009716E+01 -0.49453244093E+03  0.49470145213E+03  0.00000000000E+00 0. -1.
        -15    1    1    2    0    0 -0.45177180520E+01  0.19943173189E+02  0.24780613349E+02  0.32177266201E+02  0.17770000000E+01 0.  1.
         15    1    1    2    0    0 -0.14661234011E+02  0.11052281537E+02  0.15427282298E+03  0.15537170383E+03  0.17770000000E+01 0. -1.
</event>
<event>
 6   1  0.1826851E-04  0.5114749E+03  0.7546771E-02  0.9374493E-01
        -11   -1    0    0    0    0  0.00000000000E+00  0.00000000000E+00  0.50000000000E+03  0.50000000000E+03  0.00000000000E+00 0. -1.
         11   -1    0    0    0    0 -0.00000000000E+00 -0.00000000000E+00 -0.50000000000E+03  0.50000000000E+03  0.00000000000E+00 0.  1.
        -11    1    1    2    0    0  0.40877697056E+02 -0.33331829799E+02  0.26072575074E+03  0.26600735721E+03  0.00000000000E+00 0. -1.
         11    1    1    2    0    0  0.26957262717E+01 -0.79295586024E+01 -0.48845325925E+03  0.48852505699E+03  0.00000000000E+00 0.  1.
        -15    1    1    2    0    0 -0.19003497448E+02  0.19524088885E+02  0.20173785676E+03  0.20357711939E+03  0.17770000000E+01 0.  1.
         15    1    1    2    0    0 -0.24569925880E+02  0.21737299516E+02  0.25989651755E+02  0.41890466402E+02  0.17770000000E+01 0. -1.
</event>
<event>
 6   1  0.1826851E-04  0.5014111E+03  0.7546771E-02  0.9396658E-01
        -11   -1    0    0    0    0  0.00000000000E+00  0.00000000000E+00  0.50000000000E+03  0.50000000000E+03  0.00000000000E+00 0.  1.
         11   -1    0    0    0    0 -0.00000000000E+00 -0.00000000000E+00 -0.50000000000E+03  0.50000000000E+03  0.00000000000E+00 0. -1.
        -11    1    1    2    0    0  0.57367301950E+01  0.52428114342E+01  0.49852831061E+03  0.49858888237E+03  0.00000000000E+00 0.  1.
         11    1    1    2    0    0  0.32787856076E+00 -0.68848687206E+01 -0.48779801396E+03  0.48784670886E+03  0.00000000000E+00 0. -1.
        -15    1    1    2    0    0 -0.49121932711E+01 -0.77463152806E-01 -0.50651768954E+01  0.72766330987E+01  0.17770000000E+01 0.  1.
         15    1    1    2    0    0 -0.11524154847E+01  0.17195204392E+01 -0.56651197589E+01  0.62877756697E+01  0.17770000000E+01 0. -1.
</event>
<event>
 6   1  0.1826851E-04  0.5005473E+03  0.7546771E-02  0.9398586E-01
        -11   -1    0    0    0    0  0.00000000000E+00  0.00000000000E+00  0.50000000000E+03  0.50000000000E+03  0.00000000000E+00 0. -1.
         11   -1    0    0    0    0 -0.00000000000E+00 -0.00000000000E+00 -0.50000000000E+03  0.50000000000E+03  0.00000000000E+00 0.  1.
        -11    1    1    2    0    0 -0.55210420233E+01 -0.62082534788E+01  0.42464127788E+03  0.42472254378E+03  0.00000000000E+00 0. -1.
         11    1    1    2    0    0 -0.45769215080E+01  0.66760614123E+01 -0.49938707548E+03  0.49945266960E+03  0.00000000000E+00 0.  1.
        -15    1    1    2    0    0  0.80647885564E+01  0.25831801890E+01  0.52708497246E+02  0.53414015439E+02  0.17770000000E+01 0. -1.
         15    1    1    2    0    0  0.20331749749E+01 -0.30509881225E+01  0.22037300361E+02  0.22410771187E+02  0.17770000000E+01 0.  1.
</event>
<event>
 6   1  0.1826851E-04  0.5006301E+03  0.7546771E-02  0.9398401E-01
        -11   -1    0    0    0    0  0.00000000000E+00  0.00000000000E+00  0.50000000000E+03  0.50000000000E+03  0.00000000000E+00 0. -1.
         11   -1    0    0    0    0 -0.00000000000E+00 -0.00000000000E+00 -0.50000000000E+03  0.50000000000E+03  0.00000000000E+00 0.  1.
        -11    1    1    2    0    0  0.10578411718E+02  0.37536638469E+01  0.49924374316E+03  0.49936991085E+03  0.00000000000E+00 0. -1.
         11    1    1    2    0    0  0.17700735013E+00  0.56100263123E+01 -0.40837957170E+03  0.40841814151E+03  0.00000000000E+00 0.  1.
        -15    1    1    2    0    0 -0.72752908933E+01 -0.52193462844E+01 -0.39923766398E+02  0.40954075324E+02  0.17770000000E+01 0.  1.
         15    1    1    2    0    0 -0.34801281750E+01 -0.41443438748E+01 -0.50940405054E+02  0.51257872316E+02  0.17770000000E+01 0. -1.
</event>
<event>
 6   1  0.1826851E-04  0.5000742E+03  0.7546771E-02  0.9399644E-01
        -11   -1    0    0    0    0  0.00000000000E+00  0.00000000000E+00  0.50000000000E+03  0.50000000000E+03  0.00000000000E+00 0. -1.
         11   -1    0    0    0    0 -0.00000000000E+00 -0.00000000000E+00 -0.50000000000E+03  0.50000000000E+03  0.00000000000E+00 0. -1.
        -11    1    1    2    0    0 -0.44597355989E+01 -0.79629500010E+01  0.25849184783E+03  0.25865292035E+03  0.00000000000E+00 0. -1.
         11    1    1    2    0    0  0.43784212879E+01  0.13296734114E+02 -0.49972971976E+03  0.49992576101E+03  0.00000000000E+00 0. -1.
        -15    1    1    2    0    0  0.23526741319E+01 -0.37892643934E+01  0.76244701676E+02  0.76395718878E+02  0.17770000000E+01 0. -1.
         15    1    1    2    0    0 -0.22713598208E+01 -0.15445197193E+01  0.16499317025E+03  0.16502559976E+03  0.17770000000E+01 0.  1.
</event>
<event>
 6   1  0.1826851E-04  0.5031721E+03  0.7546771E-02  0.9392740E-01
        -11   -1    0    0    0    0  0.00000000000E+00  0.00000000000E+00  0.50000000000E+03  0.50000000000E+03  0.00000000000E+00 0. -1.
         11   -1    0    0    0    0 -0.00000000000E+00 -0.00000000000E+00 -0.50000000000E+03  0.50000000000E+03  0.00000000000E+00 0.  1.
        -11    1    1    2    0    0  0.66302373986E+01 -0.11102702933E+01  0.49678246223E+03  0.49682794560E+03  0.00000000000E+00 0. -1.
         11    1    1    2    0    0 -0.48464782032E+01 -0.65164863555E+01 -0.48920144392E+03  0.48926884806E+03  0.00000000000E+00 0.  1.
        -15    1    1    2    0    0 -0.18505050364E+01  0.62395926627E+01 -0.84439712332E+00  0.67990897176E+01  0.17770000000E+01 0. -1.
         15    1    1    2    0    0  0.66745840987E-01  0.13871639861E+01 -0.67366211903E+01  0.71041166230E+01  0.17770000000E+01 0.  1.
</event>
<event>
 6   1  0.1826851E-04  0.5000556E+03  0.7546771E-02  0.9399685E-01
        -11   -1    0    0    0    0  0.00000000000E+00  0.00000000000E+00  0.50000000000E+03  0.50000000000E+03  0.00000000000E+00 0.  1.
         11   -1    0    0    0    0 -0.00000000000E+00 -0.00000000000E+00 -0.50000000000E+03  0.50000000000E+03  0.00000000000E+00 0. -1.
        -11    1    1    2    0    0 -0.10583131298E+01 -0.19718719013E+01  0.39902224205E+02  0.39964932153E+02  0.00000000000E+00 0.  1.
         11    1    1    2    0    0  0.51274902408E+01 -0.51601686894E+01 -0.49989150514E+03  0.49994443232E+03  0.00000000000E+00 0. -1.
        -15    1    1    2    0    0 -0.28203924113E+01  0.47067586790E+01  0.36502722084E+03  0.36507278435E+03  0.17770000000E+01 0.  1.
         15    1    1    2    0    0 -0.12487846997E+01  0.24252819118E+01  0.94962060095E+02  0.95017851175E+02  0.17770000000E+01 0.  1.
</event>
<event>
 6   1  0.1826851E-04  0.4325328E+03  0.7546771E-02  0.9564878E-01
        -11   -1    0    0    0    0  0.00000000000E+00  0.00000000000E+00  0.50000000000E+03  0.50000000000E+03  0.00000000000E+00 0. -1.
         11   -1    0    0    0    0 -0.00000000000E+00 -0.00000000000E+00 -0.50000000000E+03  0.50000000000E+03  0.00000000000E+00 0.  1.
        -11    1    1    2    0    0 -0.83149345167E+02  0.73108247387E+02  0.44959297699E+03  0.46302534962E+03  0.00000000000E+00 0. -1.
         11    1    1    2    0    0 -0.64806606203E+01 -0.13903350606E+02 -0.40932630521E+03  0.40961363046E+03  0.00000000000E+00 0.  1.
        -15    1    1    2    0    0  0.14938103196E+01  0.90120244404E+01 -0.41512400120E+01  0.10190121512E+02  0.17770000000E+01 0. -1.
         15    1    1    2    0    0  0.88136195468E+02 -0.68216921222E+02 -0.36115431759E+02  0.11717089840E+03  0.17770000000E+01 0.  1.
</event>
<event>
 6   1  0.1826851E-04  0.5007081E+03  0.7546771E-02  0.9398227E-01
        -11   -1    0    0    0    0  0.00000000000E+00  0.00000000000E+00  0.50000000000E+03  0.50000000000E+03  0.00000000000E+00 0. -1.
         11   -1    0    0    0    0 -0.00000000000E+00 -0.00000000000E+00 -0.50000000000E+03  0.50000000000E+03  0.00000000000E+00 0. -1.
        -11    1    1    2    0    0 -0.13924268487E+01 -0.11614930784E+02  0.34862064264E+03  0.34881685444E+03  0.00000000000E+00 0. -1.
         11    1    1    2    0    0 -0.65118379146E+01 -0.53504801887E+01 -0.49922079599E+03  0.49929193346E+03  0.00000000000E+00 0. -1.
        -15    1    1    2    0    0  0.79953443350E+01  0.14479883930E+02  0.13147795906E+03  0.13252623898E+03  0.17770000000E+01 0. -1.
         15    1    1    2    0    0 -0.91079571718E-01  0.24855270427E+01  0.19122194293E+02  0.19364973115E+02  0.17770000000E+01 0.  1.
</event>
<event>
 6   1  0.1826851E-04  0.4624808E+03  0.7546771E-02  0.9487911E-01
        -11   -1    0    0    0    0  0.00000000000E+00  0.00000000000E+00  0.50000000000E+03  0.50000000000E+03  0.00000000000E+00 0. -1.
         11   -1    0    0    0    0 -0.00000000000E+00 -0.00000000000E+00 -0.50000000000E+03  0.50000000000E+03  0.00000000000E+00 0.  1.
        -11    1    1    2    0    0 -0.61443190563E+02 -0.29929074145E+02  0.45198336551E+03  0.45712140383E+03  0.00000000000E+00 0. -1.
         11    1    1    2    0    0 -0.35283546592E+01  0.11491069318E+02 -0.47033039589E+03  0.47048397981E+03  0.00000000000E+00 0.  1.
        -15    1    1    2    0    0  0.15916101966E+02  0.50250968302E+01 -0.32801094089E+01  0.17102360851E+02  0.17770000000E+01 0. -1.
         15    1    1    2    0    0  0.49055443257E+02  0.13412907997E+02  0.21627139794E+02  0.55292255504E+02  0.17770000000E+01 0.  1.
</event>
<event>
 6   1  0.1826851E-04  0.5072567E+03  0.7546771E-02  0.9383717E-01
        -11   -1    0    0    0    0  0.00000000000E+00  0.00000000000E+00  0.50000000000E+03  0.50000000000E+03  0.00000000000E+00 0.  1.
         11   -1    0    0    0    0 -0.00000000000E+00 -0.00000000000E+00 -0.50000000000E+03  0.50000000000E+03  0.00000000000E+00 0.  1.
        -11    1    1    2    0    0  0.29577251741E+02 -0.17906737335E+02  0.49152868525E+03  0.49274325312E+03  0.00000000000E+00 0.  1.
         11    1    1    2    0    0 -0.12712816458E+02  0.81944953686E+01 -0.45945156762E+03  0.45970045513E+03  0.00000000000E+00 0.  1.
        -15    1    1    2    0    0 -0.56359967953E+01 -0.10152873289E+02 -0.14710203288E+02  0.18825331489E+02  0.17770000000E+01 0. -1.
         15    1    1    2    0    0 -0.11228438487E+02  0.19865115255E+02 -0.17366914347E+02  0.28730960268E+02  0.17770000000E+01 0.  1.
</event>
<event>
 6   1  0.1826851E-04  0.4902683E+03  0.7546771E-02  0.9421852E-01
        -11   -1    0    0    0    0  0.00000000000E+00  0.00000000000E+00  0.50000000000E+03  0.50000000000E+03  0.00000000000E+00 0. -1.
         11   -1    0    0    0    0 -0.00000000000E+00 -0.00000000000E+00 -0.50000000000E+03  0.50000000000E+03  0.00000000000E+00 0. -1.
        -11    1    1    2    0    0 -0.71075799667E+01  0.62998902145E+01  0.48839554965E+03  0.48848789056E+03  0.00000000000E+00 0. -1.
         11    1    1    2    0    0 -0.17781723153E+01  0.81068704297E+01 -0.49213198031E+03  0.49220195986E+03  0.00000000000E+00 0. -1.
        -15    1    1    2    0    0 -0.73279402290E+00 -0.48694813118E+01  0.41989904139E+00  0.52519405491E+01  0.17770000000E+01 0.  1.
         15    1    1    2    0    0  0.96185463048E+01 -0.95372793323E+01  0.33165316178E+01  0.14058209027E+02  0.17770000000E+01 0. -1.
</event>
<event>
 6   1  0.1826851E-04  0.5014189E+03  0.7546771E-02  0.9396640E-01
        -11   -1    0    0    0    0  0.00000000000E+00  0.00000000000E+00  0.50000000000E+03  0.50000000000E+03  0.00000000000E+00 0.  1.
         11   -1    0    0    0    0 -0.00000000000E+00 -0.00000000000E+00 -0.50000000000E+03  0.50000000000E+03  0.00000000000E+00 0.  1.
        -11    1    1    2    0    0 -0.13193440443E+02  0.16246631071E+01  0.44444195945E+03  0.44464071082E+03  0.00000000000E+00 0.  1.
         11    1    1    2    0    0 -0.24764593984E+01 -0.67757212486E+01 -0.49852889390E+03  0.49858108799E+03  0.00000000000E+00 0.  1.
        -15    1    1    2    0    0  0.84940094979E+01  0.14687448811E+01  0.32324840620E+02  0.33501618751E+02  0.17770000000E+01 0. -1.
         15    1    1    2    0    0  0.71758903433E+01  0.36823132604E+01  0.21762093828E+02  0.23276582437E+02  0.17770000000E+01 0.  1.
</event>
<event>
 6   1  0.1826851E-04  0.5044544E+03  0.7546771E-02  0.9389897E-01
        -11   -1    0    0    0    0  0.00000000000E+00  0.00000000000E+00  0.50000000000E+03  0.50000000000E+03  0.00000000000E+00 0. -1.
         11   -1    0    0    0    0 -0.00000000000E+00 -0.00000000000E+00 -0.50000000000E+03  0.50000000000E+03  0.00000000000E+00 0. -1.
        -11    1    1    2    0    0  0.14882820644E+02  0.14450856750E+02  0.49511121167E+03  0.49554559582E+03  0.00000000000E+00 0. -1.
         11    1    1    2    0    0 -0.71461259188E+01 -0.67661806697E+01 -0.48040634139E+03  0.48050712915E+03  0.00000000000E+00 0. -1.
        -15    1    1    2    0    0 -0.19097033927E+01 -0.69544888654E+01  0.60649728004E+00  0.74523452938E+01  0.17770000000E+01 0.  1.
         15    1    1    2    0    0 -0.58269913329E+01 -0.73018721447E+00 -0.15311367565E+02  0.16494929738E+02  0.17770000000E+01 0. -1.
</event>
<event>
 6   1  0.1826851E-04  0.5013664E+03  0.7546771E-02  0.9396757E-01
        -11   -1    0    0    0    0  0.00000000000E+00  0.00000000000E+00  0.50000000000E+03  0.50000000000E+03  0.00000000000E+00 0. -1.
         11   -1    0    0    0    0 -0.00000000000E+00 -0.00000000000E+00 -0.50000000000E+03  0.50000000000E+03  0.00000000000E+00 0.  1.
        -11    1    1    2    0    0 -0.67085458695E+01  0.39274880682E+01  0.49857300997E+03  0.49863360899E+03  0.00000000000E+00 0. -1.
         11    1    1    2    0    0 -0.42756671985E+01 -0.68367979957E+01 -0.46931489258E+03  0.46938416200E+03  0.00000000000E+00 0.  1.
        -15    1    1    2    0    0  0.53653155156E+01  0.35289286169E+01 -0.11872125506E+02  0.13614148552E+02  0.17770000000E+01 0. -1.
         15    1    1    2    0    0  0.56188975524E+01 -0.61961868939E+00 -0.17385991879E+02  0.18368080456E+02  0.17770000000E+01 0.  1.
</event>
<event>
 6   1  0.1826851E-04  0.5008936E+03  0.7546771E-02  0.9397812E-01
        -11   -1    0    0    0    0  0.00000000000E+00  0.00000000000E+00  0.50000000000E+03  0.50000000000E+03  0.00000000000E+00 0.  1.
         11   -1    0    0    0    0 -0.00000000000E+00 -0.00000000000E+00 -0.50000000000E+03  0.50000000000E+03  0.00000000000E+00 0.  1.
        -11    1    1    2    0    0  0.97891779383E+01 -0.20182459994E+02  0.49860204356E+03  0.49910635894E+03  0.00000000000E+00 0.  1.
         11    1    1    2    0    0  0.54713686321E+01  0.13454278310E+02 -0.40571346678E+03  0.40597336194E+03  0.00000000000E+00 0.  1.
        -15    1    1    2    0    0 -0.11653226183E+02  0.59011861169E+01 -0.45980584747E+02  0.47832975872E+02  0.17770000000E+01 0. -1.
         15    1    1    2    0    0 -0.36073203874E+01  0.82699556679E+00 -0.46907992025E+02  0.47087303245E+02  0.17770000000E+01 0.  1.
</event>
<event>
 6   1  0.1826851E-04  0.5010863E+03  0.7546771E-02  0.9397382E-01
        -11   -1    0    0    0    0  0.00000000000E+00  0.00000000000E+00  0.50000000000E+03  0.50000000000E+03  0.00000000000E+00 0. -1.
         11   -1    0    0    0    0 -0.00000000000E+00 -0.00000000000E+00 -0.50000000000E+03  0.50000000000E+03  0.00000000000E+00 0. -1.
        -11    1    1    2    0    0  0.13745615422E+02 -0.85677941442E+01  0.22096107248E+03  0.22155393157E+03  0.00000000000E+00 0. -1.
         11    1    1    2    0    0  0.45756517179E+01  0.81478647549E+01 -0.49882613550E+03  0.49891365760E+03  0.00000000000E+00 0. -1.
        -15    1    1    2    0    0 -0.65636140994E+01 -0.79785037848E+01  0.20267867186E+03  0.20294959795E+03  0.17770000000E+01 0.  1.
         15    1    1    2    0    0 -0.11757653041E+02  0.83984331741E+01  0.75186391149E+02  0.76582812875E+02  0.17770000000E+01 0. -1.
</event>
<event>
 6   1  0.1826851E-04  0.5018893E+03  0.7546771E-02  0.9395592E-01
        -11   -1    0    0    0    0  0.00000000000E+00  0.00000000000E+00  0.50000000000E+03  0.50000000000E+03  0.00000000000E+00 0. -1.
         11   -1    0    0    0    0 -0.00000000000E+00 -0.00000000000E+00 -0.50000000000E+03  0.50000000000E+03  0.00000000000E+00 0. -1.
        -11    1    1    2    0    0  0.10110346924E+02  0.22773359208E+01  0.49800284928E+03  0.49811067372E+03  0.00000000000E+00 0. -1.
         11    1    1    2    0    0  0.43274229619E+00 -0.75191456687E+01 -0.45580255489E+03  0.45586477585E+03  0.00000000000E+00 0. -1.
        -15    1    1    2    0    0 -0.79681858796E+01 -0.21782377190E+01 -0.11405818119E+02  0.14194615942E+02  0.17770000000E+01 0.  1.
         15    1    1    2    0    0 -0.25749033404E+01  0.74200474669E+01 -0.30794476273E+02  0.31829934489E+02  0.17770000000E+01 0. -1.
</event>
<event>
 6   1  0.1826851E-04  0.5111277E+03  0.7546771E-02  0.9375249E-01
        -11   -1    0    0    0    0  0.00000000000E+00  0.00000000000E+00  0.50000000000E+03  0.50000000000E+03  0.00000000000E+00 0.  1.
         11   -1    0    0    0    0 -0.00000000000E+00 -0.00000000000E+00 -0.50000000000E+03  0.50000000000E+03  0.00000000000E+00 0. -1.
        -11    1    1    2    0    0  0.37480012134E+02  0.94783647070E+01  0.48734133080E+03  0.48887233856E+03  0.00000000000E+00 0.  1.
         11    1    1    2    0    0 -0.12961263990E+02  0.90269642106E+01 -0.45925418904E+03  0.45952572354E+03  0.00000000000E+00 0. -1.
        -15    1    1    2    0    0 -0.30241376052E+02 -0.20927356428E+02 -0.23586666309E+02  0.43726235021E+02  0.17770000000E+01 0. -1.
         15    1    1    2    0    0  0.57226279073E+01  0.24220275101E+01 -0.45004754516E+01  0.78757028712E+01  0.17770000000E+01 0.  1.
</event>
<event>
 6   1  0.1826851E-04  0.5019528E+03  0.7546771E-02  0.9395451E-01
        -11   -1    0    0    0    0  0.00000000000E+00  0.00000000000E+00  0.50000000000E+03  0.50000000000E+03  0.00000000000E+00 0. -1.
         11   -1    0    0    0    0 -0.00000000000E+00 -0.00000000000E+00 -0.50000000000E+03  0.50000000000E+03  0.00000000000E+00 0. -1.
        -11    1    1    2    0    0  0.23906099366E+02 -0.67388429094E+00  0.92580768869E+02  0.95619843502E+02  0.00000000000E+00 0. -1.
         11    1    1    2    0    0 -0.12171825211E+02  0.28181187548E+02 -0.49710031059E+03  0.49804723817E+03  0.00000000000E+00 0. -1.
        -15    1    1    2    0    0 -0.19277001886E+01 -0.69946142021E+01  0.25266925298E+03  0.25277964670E+03  0.17770000000E+01 0. -1.
         15    1    1    2    0    0 -0.98065739662E+01 -0.20512689055E+02  0.15185028874E+03  0.15355327162E+03  0.17770000000E+01 0.  1.
</event>
<event>
 6   1  0.1826851E-04  0.5018142E+03  0.7546771E-02  0.9395760E-01
        -11   -1    0    0    0    0  0.00000000000E+00  0.00000000000E+00  0.50000000000E+03  0.50000000000E+03  0.00000000000E+00 0. -1.
         11   -1    0    0    0    0 -0.00000000000E+00 -0.00000000000E+00 -0.50000000000E+03  0.50000000000E+03  0.00000000000E+00 0. -1.
        -11    1    1    2    0    0 -0.12931348778E+02  0.29520440083E+01  0.47834063627E+03  0.47852450162E+03  0.00000000000E+00 0. -1.
         11    1    1    2    0    0  0.53192368375E+01 -0.96430872349E+01 -0.49806409612E+03  0.49818583606E+03  0.00000000000E+00 0. -1.
        -15    1    1    2    0    0  0.59619976159E+01  0.29974890316E+01  0.70526609108E+01  0.98705679162E+01  0.17770000000E+01 0.  1.
         15    1    1    2    0    0  0.16501143245E+01  0.36935541950E+01  0.12670798939E+02  0.13419094404E+02  0.17770000000E+01 0. -1.
</event>
<event>
 6   1  0.1826851E-04  0.5001633E+03  0.7546771E-02  0.9399444E-01
        -11   -1    0    0    0    0  0.00000000000E+00  0.00000000000E+00  0.50000000000E+03  0.50000000000E+03  0.00000000000E+00 0. -1.
         11   -1    0    0    0    0 -0.00000000000E+00 -0.00000000000E+00 -0.50000000000E+03  0.50000000000E+03  0.00000000000E+00 0. -1.
        -11    1    1    2    0    0 -0.17454468259E+01  0.13580610638E+02  0.49964914272E+03  0.49983671873E+03  0.00000000000E+00 0. -1.
         11    1    1    2    0    0 -0.16238277896E+01  0.10269793370E+00 -0.84663366606E+02  0.84678999809E+02  0.00000000000E+00 0. -1.
        -15    1    1    2    0    0  0.32335612871E+01  0.10454478594E+01 -0.17399412308E+03  0.17403637975E+03  0.17770000000E+01 0. -1.
         15    1    1    2    0    0  0.13571332847E+00 -0.14728756431E+02 -0.24099165303E+03  0.24144790172E+03  0.17770000000E+01 0. -1.
</event>
<event>
 6   1  0.1826851E-04  0.5021549E+03  0.7546771E-02  0.9395001E-01
        -11   -1    0    0    0    0  0.00000000000E+00  0.00000000000E+00  0.50000000000E+03  0.50000000000E+03  0.00000000000E+00 0. -1.
         11   -1    0    0    0    0 -0.00000000000E+00 -0.00000000000E+00 -0.50000000000E+03  0.50000000000E+03  0.00000000000E+00 0.  1.
        -11    1    1    2    0    0  0.20144944241E+02  0.14059130321E+01  0.49743538316E+03  0.49784511224E+03  0.00000000000E+00 0. -1.
         11    1    1    2    0    0  0.19983047217E+01 -0.69082048822E+01 -0.43850619896E+03  0.43856516397E+03  0.00000000000E+00 0.  1.
        -15    1    1    2    0    0 -0.11727275682E+02  0.10519015621E+00 -0.33235747809E+02  0.35288988670E+02  0.17770000000E+01 0. -1.
         15    1    1    2    0    0 -0.10415973280E+02  0.53971016939E+01 -0.25693436385E+02  0.28300735120E+02  0.17770000000E+01 0.  1.
</event>
<event>
 6   1  0.1826851E-04  0.5005749E+03  0.7546771E-02  0.9398524E-01
        -11   -1    0    0    0    0  0.00000000000E+00  0.00000000000E+00  0.50000000000E+03  0.50000000000E+03  0.00000000000E+00 0. -1.
         11   -1    0    0    0    0 -0.00000000000E+00 -0.00000000000E+00 -0.50000000000E+03  0.50000000000E+03  0.00000000000E+00 0. -1.
        -11    1    1    2    0    0 -0.57106497608E+01 -0.10824754075E+02  0.49927514812E+03  0.49942512988E+03  0.00000000000E+00 0. -1.
         11    1    1    2    0    0 -0.31432300489E+00  0.62142060306E+01 -0.43136259625E+03  0.43140746933E+03  0.00000000000E+00 0. -1.
        -15    1    1    2    0    0  0.18750337975E+01  0.34397952369E+01 -0.80838277797E+01  0.91571798926E+01  0.17770000000E+01 0. -1.
         15    1    1    2    0    0  0.41499389682E+01  0.11707528072E+01 -0.59828724099E+02  0.60010220895E+02  0.17770000000E+01 0.  1.
</event>
<event>
 6   1  0.1826851E-04  0.5001074E+03  0.7546771E-02  0.9399569E-01
        -11   -1    0    0    0    0  0.00000000000E+00  0.00000000000E+00  0.50000000000E+03  0.50000000000E+03  0.00000000000E+00 0. -1.
         11   -1    0    0    0    0 -0.00000000000E+00 -0.00000000000E+00 -0.50000000000E+03  0.50000000000E+03  0.00000000000E+00 0.  1.
        -11    1    1    2    0    0  0.11836731540E+02  0.11158567652E+02  0.49962783786E+03  0.49989258667E+03  0.00000000000E+00 0. -1.
         11    1    1    2    0    0  0.10408298361E+00 -0.28171239245E+01 -0.15061982681E+03  0.15064620556E+03  0.00000000000E+00 0.  1.
        -15    1    1    2    0    0 -0.11383983136E+02 -0.68824380017E+01 -0.20757676763E+03  0.20801018055E+03  0.17770000000E+01 0.  1.
         15    1    1    2    0    0 -0.55683138801E+00 -0.14590057261E+01 -0.14143124342E+03  0.14145102722E+03  0.17770000000E+01 0. -1.
</event>
<event>
 6   1  0.1826851E-04  0.5001929E+03  0.7546771E-02  0.9399378E-01
        -11   -1    0    0    0    0  0.00000000000E+00  0.00000000000E+00  0.50000000000E+03  0.50000000000E+03  0.00000000000E+00 0. -1.
         11   -1    0    0    0    0 -0.00000000000E+00 -0.00000000000E+00 -0.50000000000E+03  0.50000000000E+03  0.00000000000E+00 0.  1.
        -11    1    1    2    0    0 -0.19384269188E+02 -0.38366949092E+01  0.49941635261E+03  0.49980712618E+03  0.00000000000E+00 0. -1.
         11    1    1    2    0    0  0.84894741050E+00  0.87431445605E+00 -0.81071217208E+02  0.81080376152E+02  0.00000000000E+00 0.  1.
        -15    1    1    2    0    0  0.12052350419E+02  0.90448714256E+00 -0.10815777968E+03  0.10884548811E+03  0.17770000000E+01 0.  1.
         15    1    1    2    0    0  0.64829713584E+01  0.20578933106E+01 -0.31018735572E+03  0.31026700956E+03  0.17770000000E+01 0. -1.
</event>
<event>
 6   1  0.1826851E-04  0.5077696E+03  0.7546771E-02  0.9382591E-01
        -11   -1    0    0    0    0  0.00000000000E+00  0.00000000000E+00  0.50000000000E+03  0.50000000000E+03  0.00000000000E+00 0.  1.
         11   -1    0    0    0    0 -0.00000000000E+00 -0.00000000000E+00 -0.50000000000E+03  0.50000000000E+03  0.00000000000E+00 0.  1.
        -11    1    1    2    0    0  0.58818501598E+01 -0.28157070697E+02  0.45031572605E+03  0.45123349823E+03  0.00000000000E+00 0.  1.
         11    1    1    2    0    0  0.10655674593E+02 -0.33866634971E+01 -0.49210344015E+03  0.49223044268E+03  0.00000000000E+00 0.  1.
        -15    1    1    2    0    0 -0.13859555365E+01  0.58295291603E+01  0.15542859425E+02  0.16752387624E+02  0.17770000000E+01 0.  1.
         15    1    1    2    0    0 -0.15151569216E+02  0.25714205034E+02  0.26244854669E+02  0.39783671473E+02  0.17770000000E+01 0. -1.
</event>
<event>
 6   1  0.1826851E-04  0.4823311E+03  0.7546771E-02  0.9440237E-01
        -11   -1    0    0    0    0  0.00000000000E+00  0.00000000000E+00  0.50000000000E+03  0.50000000000E+03  0.00000000000E+00 0.  1.
         11   -1    0    0    0    0 -0.00000000000E+00 -0.00000000000E+00 -0.50000000000E+03  0.50000000000E+03  0.00000000000E+00 0.  1.
        -11    1    1    2    0    0 -0.19472862653E+02 -0.14459849671E+02  0.48301976936E+03  0.48362834618E+03  0.00000000000E+00 0.  1.
         11    1    1    2    0    0 -0.28688900746E+01  0.78152711400E+01 -0.48124499422E+03  0.48131699892E+03  0.00000000000E+00 0.  1.
        -15    1    1    2    0    0  0.49256138069E+01  0.28315591248E+01 -0.12730483766E+02  0.14053552731E+02  0.17770000000E+01 0. -1.
         15    1    1    2    0    0  0.17416138921E+02  0.38130194065E+01  0.10955708619E+02  0.21001102168E+02  0.17770000000E+01 0.  1.
</event>
<event>
 6   1  0.1826851E-04  0.5029626E+03  0.7546771E-02  0.9393205E-01
        -11   -1    0    0    0    0  0.00000000000E+00  0.00000000000E+00  0.50000000000E+03  0.50000000000E+03  0.00000000000E+00 0.  1.
         11   -1    0    0    0    0 -0.00000000000E+00 -0.00000000000E+00 -0.50000000000E+03  0.50000000000E+03  0.00000000000E+00 0. -1.
        -11    1    1    2    0    0 -0.46485338389E+01  0.12960980932E+02  0.49684662796E+03  0.49703739056E+03  0.00000000000E+00 0.  1.
         11    1    1    2    0    0 -0.39471695952E+01 -0.58269155904E+01 -0.43065347728E+03  0.43071098267E+03  0.00000000000E+00 0. -1.
        -15    1    1    2    0    0  0.62998774366E-01 -0.46255782062E+01  0.46680623479E+00  0.49775073729E+01  0.17770000000E+01 0. -1.
         15    1    1    2    0    0  0.85327046597E+01 -0.25084871359E+01 -0.66659956914E+02  0.67274119402E+02  0.17770000000E+01 0.  1.
</event>
<event>
 6   1  0.1826851E-04  0.5001267E+03  0.7546771E-02  0.9399526E-01
        -11   -1    0    0    0    0  0.00000000000E+00  0.00000000000E+00  0.50000000000E+03  0.50000000000E+03  0.00000000000E+00 0.  1.
         11   -1    0    0    0    0 -0.00000000000E+00 -0.00000000000E+00 -0.50000000000E+03  0.50000000000E+03  0.00000000000E+00 0.  1.
        -11    1    1    2    0    0  0.14168824743E+02 -0.83193142253E+01  0.28837596638E+03  0.28884366804E+03  0.00000000000E+00 0.  1.
         11    1    1    2    0    0 -0.17826373203E+02  0.45248569068E+01 -0.49953489366E+03  0.49987334785E+03  0.00000000000E+00 0.  1.
        -15    1    1    2    0    0 -0.96581146628E-01  0.20945646669E+01  0.77321428200E+02  0.77370262484E+02  0.17770000000E+01 0.  1.
         15    1    1    2    0    0  0.37541296066E+01  0.16998926516E+01  0.13383749908E+03  0.13391272162E+03  0.17770000000E+01 0.  1.
</event>
<event>
 6   1  0.1826851E-04  0.5011409E+03  0.7546771E-02  0.9397260E-01
        -11   -1    0    0    0    0  0.00000000000E+00  0.00000000000E+00  0.50000000000E+03  0.50000000000E+03  0.00000000000E+00 0.  1.
         11   -1    0    0    0    0 -0.00000000000E+00 -0.00000000000E+00 -0.50000000000E+03  0.50000000000E+03  0.00000000000E+00 0.  1.
        -11    1    1    2    0    0 -0.20364700501E+02 -0.58619839497E+01  0.14934016118E+03  0.15083622782E+03  0.00000000000E+00 0.  1.
         11    1    1    2    0    0 -0.36115657438E+01  0.11457836627E+02 -0.49871440310E+03  0.49885907958E+03  0.00000000000E+00 0.  1.
        -15    1    1    2    0    0  0.18700305240E+02 -0.63533436849E+01  0.26122102092E+03  0.26197260523E+03  0.17770000000E+01 0.  1.
         15    1    1    2    0    0  0.52759610051E+01  0.75749100796E+00  0.88153220996E+02  0.88332087364E+02  0.17770000000E+01 0.  1.
</event>
<event>
 6   1  0.1826851E-04  0.5001586E+03  0.7546771E-02  0.9399455E-01
        -11   -1    0    0    0    0  0.00000000000E+00  0.00000000000E+00  0.50000000000E+03  0.50000000000E+03  0.00000000000E+00 0.  1.
         11   -1    0    0    0    0 -0.00000000000E+00 -0.00000000000E+00 -0.50000000000E+03  0.50000000000E+03  0.00000000000E+00 0.  1.
        -11    1    1    2    0    0  0.33460312580E+01 -0.36840014769E+01  0.92162361530E+02  0.92296634147E+02  0.00000000000E+00 0.  1.
         11    1    1    2    0    0  0.75151595079E+01  0.77688853547E-01 -0.49978490933E+03  0.49984141410E+03  0.00000000000E+00 0.  1.
        -15    1    1    2    0    0 -0.43047558732E+01  0.95124872896E+00  0.70272873527E+02  0.70433445749E+02  0.17770000000E+01 0.  1.
         15    1    1    2    0    0 -0.65564348927E+01  0.26550638944E+01  0.33734967427E+03  0.33742850600E+03  0.17770000000E+01 0.  1.
</event>
<event>
 6   1  0.1826851E-04  0.5032374E+03  0.7546771E-02  0.9392595E-01
        -11   -1    0    0    0    0  0.00000000000E+00  0.00000000000E+00  0.50000000000E+03  0.50000000000E+03  0.00000000000E+00 0. -1.
         11   -1    0    0    0    0 -0.00000000000E+00 -0.00000000000E+00 -0.50000000000E+03  0.50000000000E+03  0.00000000000E+00 0.  1.
        -11    1    1    2    0    0  0.57316905795E+01  0.34758843438E+02  0.17198602147E+03  0.17555688837E+03  0.00000000000E+00 0. -1.
         11    1    1    2    0    0  0.18944127691E+02 -0.34759463633E+00 -0.49640117764E+03  0.49676264952E+03  0.00000000000E+00 0.  1.
        -15    1    1    2    0    0 -0.18909998249E+02 -0.23927216728E+02  0.27951544522E+03  0.28117990963E+03  0.17770000000E+01 0. -1.
         15    1    1    2    0    0 -0.57658200222E+01 -0.10484032073E+02  0.44899710946E+02  0.46500552481E+02  0.17770000000E+01 0.  1.
</event>
<event>
 6   1  0.1826851E-04  0.4906856E+03  0.7546771E-02  0.9420896E-01
        -11   -1    0    0    0    0  0.00000000000E+00  0.00000000000E+00  0.50000000000E+03  0.50000000000E+03  0.00000000000E+00 0. -1.
         11   -1    0    0    0    0 -0.00000000000E+00 -0.00000000000E+00 -0.50000000000E+03  0.50000000000E+03  0.00000000000E+00 0.  1.
        -11    1    1    2    0    0  0.31643462177E+01 -0.11759460092E+02  0.49448188025E+03  0.49463181043E+03  0.00000000000E+00 0. -1.
         11    1    1    2    0    0 -0.11013060603E+02 -0.18850982944E+01 -0.48676775983E+03  0.48689597771E+03  0.00000000000E+00 0.  1.
        -15    1    1    2    0    0  0.43675173621E+01  0.53852750509E+01 -0.56134965030E+01  0.90964535546E+01  0.17770000000E+01 0.  1.
         15    1    1    2    0    0  0.34811970230E+01  0.82592833359E+01 -0.21006239170E+01  0.93757583041E+01  0.17770000000E+01 0. -1.
</event>
<event>
 6   1  0.1826851E-04  0.5034566E+03  0.7546771E-02  0.9392108E-01
        -11   -1    0    0    0    0  0.00000000000E+00  0.00000000000E+00  0.50000000000E+03  0.50000000000E+03  0.00000000000E+00 0.  1.
         11   -1    0    0    0    0 -0.00000000000E+00 -0.00000000000E+00 -0.50000000000E+03  0.50000000000E+03  0.00000000000E+00 0. -1.
        -11    1    1    2    0    0  0.42155082047E+01 -0.82773476976E+01  0.49645651911E+03  0.49654341236E+03  0.00000000000E+00 0.  1.
         11    1    1    2    0    0  0.72480686233E+01  0.11353579575E+02 -0.46677599917E+03  0.46697031133E+03  0.00000000000E+00 0. -1.
        -15    1    1    2    0    0 -0.35412561665E+01  0.61321613096E+01 -0.47872522796E+01  0.87303728989E+01  0.17770000000E+01 0. -1.
         15    1    1    2    0    0 -0.79223206615E+01 -0.92083931873E+01 -0.24893267665E+02  0.27755903405E+02  0.17770000000E+01 0.  1.
</event>
<event>
 6   1  0.1826851E-04  0.5056668E+03  0.7546771E-02  0.9387218E-01
        -11   -1    0    0    0    0  0.00000000000E+00  0.00000000000E+00  0.50000000000E+03  0.50000000000E+03  0.00000000000E+00 0.  1.
         11   -1    0    0    0    0 -0.00000000000E+00 -0.00000000000E+00 -0.50000000000E+03  0.50000000000E+03  0.00000000000E+00 0.  1.
        -11    1    1    2    0    0  0.44508390645E+01  0.15788442300E+02  0.46898694507E+03  0.46927373624E+03  0.00000000000E+00 0.  1.
         11    1    1    2    0    0 -0.21184178185E+01  0.92537245369E+01 -0.49424201087E+03  0.49433317148E+03  0.00000000000E+00 0.  1.
        -15    1    1    2    0    0 -0.71817282673E+00 -0.20571099646E+02  0.22758230264E+02  0.30737284958E+02  0.17770000000E+01 0. -1.
         15    1    1    2    0    0 -0.16142484192E+01 -0.44710671910E+01  0.24968355321E+01  0.56558073217E+01  0.17770000000E+01 0.  1.
</event>
<event>
 6   1  0.1826851E-04  0.5001074E+03  0.7546771E-02  0.9399569E-01
        -11   -1    0    0    0    0  0.00000000000E+00  0.00000000000E+00  0.50000000000E+03  0.50000000000E+03  0.00000000000E+00 0.  1.
         11   -1    0    0    0    0 -0.00000000000E+00 -0.00000000000E+00 -0.50000000000E+03  0.50000000000E+03  0.00000000000E+00 0.  1.
        -11    1    1    2    0    0  0.18889644744E+01  0.35447143705E+01  0.62141173892E+02  0.62270849355E+02  0.00000000000E+00 0.  1.
         11    1    1    2    0    0  0.42756948589E+01 -0.53469974165E+01 -0.49984568658E+03  0.49989257080E+03  0.00000000000E+00 0.  1.
        -15    1    1    2    0    0 -0.52916152985E+01  0.40647452097E+00  0.40638001079E+03  0.40641854942E+03  0.17770000000E+01 0.  1.
         15    1    1    2    0    0 -0.87304403477E+00  0.13958085250E+01  0.31324501896E+02  0.31418030418E+02  0.17770000000E+01 0. -1.
</event>
<event>
 6   1  0.1826851E-04  0.5007399E+03  0.7546771E-02  0.9398156E-01
        -11   -1    0    0    0    0  0.00000000000E+00  0.00000000000E+00  0.50000000000E+03  0.50000000000E+03  0.00000000000E+00 0. -1.
         11   -1    0    0    0    0 -0.00000000000E+00 -0.00000000000E+00 -0.50000000000E+03  0.50000000000E+03  0.00000000000E+00 0.  1.
        -11    1    1    2    0    0 -0.71313610341E+01  0.38004517200E+01  0.43481794555E+03  0.43489302767E+03  0.00000000000E+00 0. -1.
         11    1    1    2    0    0  0.58133609138E+01  0.85103437003E+01 -0.49915368986E+03  0.49926007974E+03  0.00000000000E+00 0.  1.
        -15    1    1    2    0    0  0.23585224597E+01 -0.21852481326E+01  0.18440545074E+02  0.18802908531E+02  0.17770000000E+01 0.  1.
         15    1    1    2    0    0 -0.10405223394E+01 -0.10125547288E+02  0.45895199237E+02  0.47043984064E+02  0.17770000000E+01 0. -1.
</event>
<event>
 6   1  0.1826851E-04  0.5020530E+03  0.7546771E-02  0.9395228E-01
        -11   -1    0    0    0    0  0.00000000000E+00  0.00000000000E+00  0.50000000000E+03  0.50000000000E+03  0.00000000000E+00 0. -1.
         11   -1    0    0    0    0 -0.00000000000E+00 -0.00000000000E+00 -0.50000000000E+03  0.50000000000E+03  0.00000000000E+00 0.  1.
        -11    1    1    2    0    0  0.68536004254E+01  0.15314150098E+02  0.45078242472E+03  0.45109454605E+03  0.00000000000E+00 0. -1.
         11    1    1    2    0    0 -0.65594515341E+01 -0.27847292978E+01 -0.49789599644E+03  0.49794698954E+03  0.00000000000E+00 0.  1.
        -15    1    1    2    0    0  0.61864779265E+01 -0.46370303879E+01  0.12315618323E+02  0.14649462230E+02  0.17770000000E+01 0. -1.
         15    1    1    2    0    0 -0.64806268178E+01 -0.78923904120E+01  0.34797953392E+02  0.36309002184E+02  0.17770000000E+01 0.  1.
</event>
<event>
 6   1  0.1826851E-04  0.5057790E+03  0.7546771E-02  0.9386971E-01
        -11   -1    0    0    0    0  0.00000000000E+00  0.00000000000E+00  0.50000000000E+03  0.50000000000E+03  0.00000000000E+00 0. -1.
         11   -1    0    0    0    0 -0.00000000000E+00 -0.00000000000E+00 -0.50000000000E+03  0.50000000000E+03  0.00000000000E+00 0.  1.
        -11    1    1    2    0    0 -0.15740998883E+02  0.26055195295E+02  0.49328260446E+03  0.49422098307E+03  0.00000000000E+00 0. -1.
         11    1    1    2    0    0  0.43740484768E+01  0.12464022978E+02 -0.41962345577E+03  0.41983130993E+03  0.00000000000E+00 0.  1.
        -15    1    1    2    0    0  0.73153359501E+01 -0.37822654822E+02 -0.57923007195E+02  0.69586635566E+02  0.17770000000E+01 0.  1.
         15    1    1    2    0    0  0.40516144560E+01 -0.69656345093E+00 -0.15736141491E+02  0.16361071431E+02  0.17770000000E+01 0. -1.
</event>
<event>
 6   1  0.1826851E-04  0.5008531E+03  0.7546771E-02  0.9397903E-01
        -11   -1    0    0    0    0  0.00000000000E+00  0.00000000000E+00  0.50000000000E+03  0.50000000000E+03  0.00000000000E+00 0. -1.
         11   -1    0    0    0    0 -0.00000000000E+00 -0.00000000000E+00 -0.50000000000E+03  0.50000000000E+03  0.00000000000E+00 0.  1.
        -11    1    1    2    0    0  0.99465509027E+01  0.40647435435E+01  0.84948142021E+02  0.85625012979E+02  0.00000000000E+00 0. -1.
         11    1    1    2    0    0  0.30326149565E+01  0.66912935688E+01 -0.49909279646E+03  0.49914686180E+03  0.00000000000E+00 0.  1.
        -15    1    1    2    0    0 -0.91239584288E+01 -0.64817028402E+01  0.39490163454E+03  0.39506419451E+03  0.17770000000E+01 0. -1.
         15    1    1    2    0    0 -0.38552074304E+01 -0.42743342720E+01  0.19243019902E+02  0.20163930712E+02  0.17770000000E+01 0.  1.
</event>
<event>
 6   1  0.1826851E-04  0.4867870E+03  0.7546771E-02  0.9429870E-01
        -11   -1    0    0    0    0  0.00000000000E+00  0.00000000000E+00  0.50000000000E+03  0.50000000000E+03  0.00000000000E+00 0. -1.
         11   -1    0    0    0    0 -0.00000000000E+00 -0.00000000000E+00 -0.50000000000E+03  0.50000000000E+03  0.00000000000E+00 0.  1.
        -11    1    1    2    0    0 -0.18025775206E+02  0.44382577878E+01  0.48924078873E+03  0.48959286766E+03  0.00000000000E+00 0. -1.
         11    1    1    2    0    0 -0.27447421784E+01 -0.12016790195E+02 -0.48408885597E+03  0.48424576129E+03  0.00000000000E+00 0.  1.
        -15    1    1    2    0    0  0.11784495004E+02  0.83573667770E+01 -0.79061533332E+01  0.16564567349E+02  0.17770000000E+01 0.  1.
         15    1    1    2    0    0  0.89860223804E+01 -0.77883436960E+00  0.27542205709E+01  0.95968036944E+01  0.17770000000E+01 0. -1.
</event>
<event>
 6   1  0.1826851E-04  0.4940816E+03  0.7546771E-02  0.9413151E-01
        -11   -1    0    0    0    0  0.00000000000E+00  0.00000000000E+00  0.50000000000E+03  0.50000000000E+03  0.00000000000E+00 0. -1.
         11   -1    0    0    0    0 -0.00000000000E+00 -0.00000000000E+00 -0.50000000000E+03  0.50000000000E+03  0.00000000000E+00 0.  1.
        -11    1    1    2    0    0 -0.45862726276E+01 -0.52931000930E+01  0.49536190071E+03  0.49541140831E+03  0.00000000000E+00 0. -1.
         11    1    1    2    0    0  0.69886873382E+01  0.13569913252E+01 -0.49271464562E+03  0.49276607552E+03  0.00000000000E+00 0.  1.
        -15    1    1    2    0    0 -0.59750865355E+01  0.79854881319E+00 -0.47932274726E+00  0.63029214345E+01  0.17770000000E+01 0.  1.
         15    1    1    2    0    0  0.35726718250E+01  0.31375599546E+01 -0.21679323473E+01  0.55195947406E+01  0.17770000000E+01 0. -1.
</event>
<event>
 6   1  0.1826851E-04  0.4841324E+03  0.7546771E-02  0.9436032E-01
        -11   -1    0    0    0    0  0.00000000000E+00  0.00000000000E+00  0.50000000000E+03  0.50000000000E+03  0.00000000000E+00 0.  1.
         11   -1    0    0    0    0 -0.00000000000E+00 -0.00000000000E+00 -0.50000000000E+03  0.50000000000E+03  0.00000000000E+00 0.  1.
        -11    1    1    2    0    0  0.21036551727E+02  0.22050407567E+01  0.47639948627E+03  0.47686881763E+03  0.00000000000E+00 0.  1.
         11    1    1    2    0    0  0.40797742980E+01 -0.96558933953E+01 -0.49176047792E+03  0.49187218714E+03  0.00000000000E+00 0.  1.
        -15    1    1    2    0    0 -0.22977758219E+02  0.55797774292E+01  0.14516361584E+02  0.27802765539E+02  0.17770000000E+01 0.  1.
         15    1    1    2    0    0 -0.21385678053E+01  0.18710752094E+01  0.84463006703E+00  0.34562296867E+01  0.17770000000E+01 0. -1.
</event>
<event>
 6   1  0.1826851E-04  0.5032584E+03  0.7546771E-02  0.9392548E-01
        -11   -1    0    0    0    0  0.00000000000E+00  0.00000000000E+00  0.50000000000E+03  0.50000000000E+03  0.00000000000E+00 0.  1.
         11   -1    0    0    0    0 -0.00000000000E+00 -0.00000000000E+00 -0.50000000000E+03  0.50000000000E+03  0.00000000000E+00 0.  1.
        -11    1    1    2    0    0  0.10681074759E+02 -0.33068280153E+01  0.49661575089E+03  0.49674160738E+03  0.00000000000E+00 0.  1.
         11    1    1    2    0    0  0.65898941009E+01 -0.76142624952E+01 -0.46525864924E+03  0.46536761210E+03  0.00000000000E+00 0.  1.
        -15    1    1    2    0    0 -0.11194562245E+02  0.90073885553E+01 -0.23705282718E+02  0.27776778614E+02  0.17770000000E+01 0.  1.
         15    1    1    2    0    0 -0.60764066148E+01  0.19137019551E+01 -0.76518189361E+01  0.10114001906E+02  0.17770000000E+01 0. -1.
</event>
<event>
 6   1  0.1826851E-04  0.5020710E+03  0.7546771E-02  0.9395187E-01
        -11   -1    0    0    0    0  0.00000000000E+00  0.00000000000E+00  0.50000000000E+03  0.50000000000E+03  0.00000000000E+00 0.  1.
         11   -1    0    0    0    0 -0.00000000000E+00 -0.00000000000E+00 -0.50000000000E+03  0.50000000000E+03  0.00000000000E+00 0. -1.
        -11    1    1    2    0    0  0.73696649026E+01 -0.17072791946E+02  0.49758161047E+03  0.49792896207E+03  0.00000000000E+00 0.  1.
         11    1    1    2    0    0  0.64767483503E+01 -0.56003197624E+00 -0.40409046465E+03  0.40414275390E+03  0.00000000000E+00 0. -1.
        -15    1    1    2    0    0 -0.12345385040E+01  0.15727521943E+02 -0.43549467371E+02  0.46352916511E+02  0.17770000000E+01 0. -1.
         15    1    1    2    0    0 -0.12611874749E+02  0.19053019792E+01 -0.49941678449E+02  0.51575367527E+02  0.17770000000E+01 0.  1.
</event>
<event>
 6   1  0.1826851E-04  0.5004532E+03  0.7546771E-02  0.9398796E-01
        -11   -1    0    0    0    0  0.00000000000E+00  0.00000000000E+00  0.50000000000E+03  0.50000000000E+03  0.00000000000E+00 0.  1.
         11   -1    0    0    0    0 -0.00000000000E+00 -0.00000000000E+00 -0.50000000000E+03  0.50000000000E+03  0.00000000000E+00 0.  1.
        -11    1    1    2    0    0 -0.94594295406E+02 -0.43699272777E+01  0.49048932586E+03  0.49954675033E+03  0.00000000000E+00 0.  1.
         11    1    1    2    0    0  0.92791627169E+02  0.38912992018E+01 -0.44797954844E+03  0.45750530500E+03  0.00000000000E+00 0.  1.
        -15    1    1    2    0    0  0.64145431082E+00 -0.19707275559E+01 -0.24199807668E+02  0.24353308829E+02  0.17770000000E+01 0. -1.
         15    1    1    2    0    0  0.11612139255E+01  0.24493556319E+01 -0.18309969746E+02  0.18594635837E+02  0.17770000000E+01 0.  1.
</event>
<event>
 6   1  0.1826851E-04  0.5000442E+03  0.7546771E-02  0.9399711E-01
        -11   -1    0    0    0    0  0.00000000000E+00  0.00000000000E+00  0.50000000000E+03  0.50000000000E+03  0.00000000000E+00 0. -1.
         11   -1    0    0    0    0 -0.00000000000E+00 -0.00000000000E+00 -0.50000000000E+03  0.50000000000E+03  0.00000000000E+00 0.  1.
        -11    1    1    2    0    0 -0.60909987250E+01 -0.14698218883E+01  0.24044900908E+03  0.24053063549E+03  0.00000000000E+00 0. -1.
         11    1    1    2    0    0  0.70855267210E+01  0.53606113499E+01 -0.49987686787E+03  0.49995582192E+03  0.00000000000E+00 0.  1.
        -15    1    1    2    0    0 -0.53470345928E+00  0.48196433773E+00  0.80779001616E+02  0.80801751395E+02  0.17770000000E+01 0. -1.
         15    1    1    2    0    0 -0.45982453666E+00 -0.43727537993E+01  0.17864885717E+03  0.17871179119E+03  0.17770000000E+01 0. -1.
</event>
<event>
 6   1  0.1826851E-04  0.5004610E+03  0.7546771E-02  0.9398779E-01
        -11   -1    0    0    0    0  0.00000000000E+00  0.00000000000E+00  0.50000000000E+03  0.50000000000E+03  0.00000000000E+00 0. -1.
         11   -1    0    0    0    0 -0.00000000000E+00 -0.00000000000E+00 -0.50000000000E+03  0.50000000000E+03  0.00000000000E+00 0. -1.
        -11    1    1    2    0    0 -0.10185979154E+02  0.62997327967E+01  0.49939545145E+03  0.49953904526E+03  0.00000000000E+00 0. -1.
         11    1    1    2    0    0  0.44058714275E+01  0.50634248706E+01 -0.40369184272E+03  0.40374763635E+03  0.00000000000E+00 0. -1.
        -15    1    1    2    0    0  0.27348661285E+01 -0.34229671598E+01 -0.47346899398E+02  0.47582379181E+02  0.17770000000E+01 0. -1.
         15    1    1    2    0    0  0.30452415986E+01 -0.79401905075E+01 -0.48356709333E+02  0.49130939215E+02  0.17770000000E+01 0.  1.
</event>
<event>
 6   1  0.1826851E-04  0.5001049E+03  0.7546771E-02  0.9399575E-01
        -11   -1    0    0    0    0  0.00000000000E+00  0.00000000000E+00  0.50000000000E+03  0.50000000000E+03  0.00000000000E+00 0. -1.
         11   -1    0    0    0    0 -0.00000000000E+00 -0.00000000000E+00 -0.50000000000E+03  0.50000000000E+03  0.00000000000E+00 0.  1.
        -11    1    1    2    0    0  0.61072379987E+01 -0.24341803002E+01  0.20925336680E+03  0.20935662184E+03  0.00000000000E+00 0. -1.
         11    1    1    2    0    0 -0.61968191927E+01 -0.66869483753E+01 -0.49981200946E+03  0.49989514965E+03  0.00000000000E+00 0.  1.
        -15    1    1    2    0    0 -0.33130409776E+00  0.79965713539E+00  0.52594531955E+02  0.52631660951E+02  0.17770000000E+01 0.  1.
         15    1    1    2    0    0  0.42088529184E+00  0.83214715401E+01  0.23796411070E+03  0.23811656755E+03  0.17770000000E+01 0. -1.
</event>
<event>
 6   1  0.1826851E-04  0.5000833E+03  0.7546771E-02  0.9399623E-01
        -11   -1    0    0    0    0  0.00000000000E+00  0.00000000000E+00  0.50000000000E+03  0.50000000000E+03  0.00000000000E+00 0. -1.
         11   -1    0    0    0    0 -0.00000000000E+00 -0.00000000000E+00 -0.50000000000E+03  0.50000000000E+03  0.00000000000E+00 0.  1.
        -11    1    1    2    0    0  0.14801188336E+01  0.67390177241E+01  0.20115017847E+03  0.20126847595E+03  0.00000000000E+00 0. -1.
         11    1    1    2    0    0  0.39016766050E+01 -0.67664261752E+01 -0.49985572160E+03  0.49991674309E+03  0.00000000000E+00 0.  1.
        -15    1    1    2    0    0 -0.35155408545E+01 -0.66376616863E+00  0.25293502765E+03  0.25296657004E+03  0.17770000000E+01 0. -1.
         15    1    1    2    0    0 -0.18662545840E+01  0.69117461969E+00  0.45770515475E+02  0.45848210918E+02  0.17770000000E+01 0. -1.
</event>
<event>
 6   1  0.1826851E-04  0.5015470E+03  0.7546771E-02  0.9396355E-01
        -11   -1    0    0    0    0  0.00000000000E+00  0.00000000000E+00  0.50000000000E+03  0.50000000000E+03  0.00000000000E+00 0.  1.
         11   -1    0    0    0    0 -0.00000000000E+00 -0.00000000000E+00 -0.50000000000E+03  0.50000000000E+03  0.00000000000E+00 0. -1.
        -11    1    1    2    0    0 -0.12393266910E+02  0.46740690908E+01  0.49827693511E+03  0.49845295069E+03  0.00000000000E+00 0.  1.
         11    1    1    2    0    0 -0.91008417681E+01 -0.48533777529E+00 -0.40611297871E+03  0.40621522910E+03  0.00000000000E+00 0. -1.
        -15    1    1    2    0    0  0.14840847762E+02 -0.24684048690E+01 -0.41609863621E+02  0.44281850283E+02  0.17770000000E+01 0.  1.
         15    1    1    2    0    0  0.66532609163E+01 -0.17203264464E+01 -0.50554092783E+02  0.51049969931E+02  0.17770000000E+01 0. -1.
</event>
<event>
 6   1  0.1826851E-04  0.4907886E+03  0.7546771E-02  0.9420660E-01
        -11   -1    0    0    0    0  0.00000000000E+00  0.00000000000E+00  0.50000000000E+03  0.50000000000E+03  0.00000000000E+00 0. -1.
         11   -1    0    0    0    0 -0.00000000000E+00 -0.00000000000E+00 -0.50000000000E+03  0.50000000000E+03  0.00000000000E+00 0.  1.
        -11    1    1    2    0    0 -0.44079489310E+01  0.77049779849E+01  0.48799313588E+03  0.48807386466E+03  0.00000000000E+00 0. -1.
         11    1    1    2    0    0  0.10264986587E+02  0.62051203597E+01 -0.49348901866E+03  0.49363476884E+03  0.00000000000E+00 0.  1.
        -15    1    1    2    0    0  0.44017120209E+00 -0.84317740947E+01  0.11184779305E+01  0.87004187803E+01  0.17770000000E+01 0. -1.
         15    1    1    2    0    0 -0.62972088578E+01 -0.54783242498E+01  0.43774048458E+01  0.95909477201E+01  0.17770000000E+01 0.  1.
</event>
<event>
 6   1  0.1826851E-04  0.5009882E+03  0.7546771E-02  0.9397601E-01
        -11   -1    0    0    0    0  0.00000000000E+00  0.00000000000E+00  0.50000000000E+03  0.50000000000E+03  0.00000000000E+00 0. -1.
         11   -1    0    0    0    0 -0.00000000000E+00 -0.00000000000E+00 -0.50000000000E+03  0.50000000000E+03  0.00000000000E+00 0. -1.
        -11    1    1    2    0    0  0.10740459806E+02  0.17949627954E+02  0.49857316901E+03  0.49901177489E+03  0.00000000000E+00 0. -1.
         11    1    1    2    0    0  0.51227525695E+01 -0.27210710086E+01 -0.35114647715E+03  0.35119438383E+03  0.00000000000E+00 0. -1.
        -15    1    1    2    0    0 -0.43390575891E+01 -0.98635492918E+00 -0.71788510521E+02  0.71948233394E+02  0.17770000000E+01 0.  1.
         15    1    1    2    0    0 -0.11524154786E+02 -0.14242202017E+02 -0.75638181339E+02  0.77845607885E+02  0.17770000000E+01 0. -1.
</event>
<event>
 6   1  0.1826851E-04  0.5017602E+03  0.7546771E-02  0.9395880E-01
        -11   -1    0    0    0    0  0.00000000000E+00  0.00000000000E+00  0.50000000000E+03  0.50000000000E+03  0.00000000000E+00 0.  1.
         11   -1    0    0    0    0 -0.00000000000E+00 -0.00000000000E+00 -0.50000000000E+03  0.50000000000E+03  0.00000000000E+00 0.  1.
        -11    1    1    2    0    0 -0.12005237341E+02 -0.29259447414E+01  0.43191433143E+03  0.43209105125E+03  0.00000000000E+00 0.  1.
         11    1    1    2    0    0  0.62147467601E+00  0.14103314867E+02 -0.49803979472E+03  0.49823982864E+03  0.00000000000E+00 0.  1.
        -15    1    1    2    0    0  0.10792820604E+02 -0.82266282224E+00  0.40699481756E+02  0.42151717579E+02  0.17770000000E+01 0.  1.
         15    1    1    2    0    0  0.59094206162E+00 -0.10354707304E+02  0.25425981531E+02  0.27517402524E+02  0.17770000000E+01 0. -1.
</event>
<event>
 6   1  0.1826851E-04  0.5001290E+03  0.7546771E-02  0.9399521E-01
        -11   -1    0    0    0    0  0.00000000000E+00  0.00000000000E+00  0.50000000000E+03  0.50000000000E+03  0.00000000000E+00 0. -1.
         11   -1    0    0    0    0 -0.00000000000E+00 -0.00000000000E+00 -0.50000000000E+03  0.50000000000E+03  0.00000000000E+00 0. -1.
        -11    1    1    2    0    0  0.36172140553E+01  0.35839634424E+01  0.57767353257E+02  0.57991345335E+02  0.00000000000E+00 0. -1.
         11    1    1    2    0    0 -0.21467515265E+01 -0.79764549738E+01 -0.49980274740E+03  0.49987100205E+03  0.00000000000E+00 0. -1.
        -15    1    1    2    0    0  0.27271800895E+01  0.32909288245E+01  0.26364899112E+03  0.26368962053E+03  0.17770000000E+01 0. -1.
         15    1    1    2    0    0 -0.41976426183E+01  0.11015627070E+01  0.17838640302E+03  0.17844803209E+03  0.17770000000E+01 0.  1.
</event>
<event>
 6   1  0.1826851E-04  0.4962328E+03  0.7546771E-02  0.9408279E-01
        -11   -1    0    0    0    0  0.00000000000E+00  0.00000000000E+00  0.50000000000E+03  0.50000000000E+03  0.00000000000E+00 0.  1.
         11   -1    0    0    0    0 -0.00000000000E+00 -0.00000000000E+00 -0.50000000000E+03  0.50000000000E+03  0.00000000000E+00 0.  1.
        -11    1    1    2    0    0 -0.44175211726E+01  0.29716876270E+01  0.67938469176E+01  0.86314411660E+01  0.00000000000E+00 0.  1.
         11    1    1    2    0    0  0.81516480750E+01 -0.71445913528E+01 -0.49843505145E+03  0.49855290097E+03  0.00000000000E+00 0.  1.
        -15    1    1    2    0    0  0.14543910884E+02  0.38702935696E+01  0.18178785407E+03  0.18241843693E+03  0.17770000000E+01 0.  1.
         15    1    1    2    0    0 -0.18278037787E+02  0.30261015624E+00  0.30985335046E+03  0.31039722093E+03  0.17770000000E+01 0. -1.
</event>
<event>
 6   1  0.1826851E-04  0.5009258E+03  0.7546771E-02  0.9397741E-01
        -11   -1    0    0    0    0  0.00000000000E+00  0.00000000000E+00  0.50000000000E+03  0.50000000000E+03  0.00000000000E+00 0.  1.
         11   -1    0    0    0    0 -0.00000000000E+00 -0.00000000000E+00 -0.50000000000E+03  0.50000000000E+03  0.00000000000E+00 0. -1.
        -11    1    1    2    0    0 -0.38844621148E+01  0.10380915989E+01  0.88528655481E+01  0.97231635028E+01  0.00000000000E+00 0.  1.
         11    1    1    2    0    0 -0.78910278855E+01  0.27950056285E+01 -0.49900399050E+03  0.49907420582E+03  0.00000000000E+00 0. -1.
        -15    1    1    2    0    0  0.71731181619E+01 -0.15253488393E+01  0.47568960617E+03  0.47574945030E+03  0.17770000000E+01 0.  1.
         15    1    1    2    0    0  0.46023718383E+01 -0.23077483881E+01  0.14461518786E+02  0.15453180377E+02  0.17770000000E+01 0. -1.
</event>
<event>
 6   1  0.1826851E-04  0.4923065E+03  0.7546771E-02  0.9417191E-01
        -11   -1    0    0    0    0  0.00000000000E+00  0.00000000000E+00  0.50000000000E+03  0.50000000000E+03  0.00000000000E+00 0.  1.
         11   -1    0    0    0    0 -0.00000000000E+00 -0.00000000000E+00 -0.50000000000E+03  0.50000000000E+03  0.00000000000E+00 0.  1.
        -11    1    1    2    0    0 -0.70827049806E+01 -0.44068685995E+01  0.49231867133E+03  0.49238933715E+03  0.00000000000E+00 0.  1.
         11    1    1    2    0    0 -0.64599145795E+01  0.35277058420E+01 -0.49226224545E+03  0.49231726914E+03  0.00000000000E+00 0.  1.
        -15    1    1    2    0    0  0.46955548253E+01  0.25872773282E+01 -0.18352729482E+01  0.59387031316E+01  0.17770000000E+01 0. -1.
         15    1    1    2    0    0  0.88470647348E+01 -0.17081145708E+01  0.17788470650E+01  0.93546905716E+01  0.17770000000E+01 0.  1.
</event>
<event>
 6   1  0.1826851E-04  0.5005462E+03  0.7546771E-02  0.9398588E-01
        -11   -1    0    0    0    0  0.00000000000E+00  0.00000000000E+00  0.50000000000E+03  0.50000000000E+03  0.00000000000E+00 0. -1.
         11   -1    0    0    0    0 -0.00000000000E+00 -0.00000000000E+00 -0.50000000000E+03  0.50000000000E+03  0.00000000000E+00 0.  1.
        -11    1    1    2    0    0  0.51102358835E+01 -0.64977525963E+01  0.35093173837E+03  0.35102908753E+03  0.00000000000E+00 0. -1.
         11    1    1    2    0    0  0.68936935913E+01  0.95284146464E+01 -0.49931528100E+03  0.49945376516E+03  0.00000000000E+00 0.  1.
        -15    1    1    2    0    0 -0.22752890980E+01  0.32844306961E+01  0.81121938078E+02  0.81239713146E+02  0.17770000000E+01 0. -1.
         15    1    1    2    0    0 -0.97286403768E+01 -0.63150927462E+01  0.67261604553E+02  0.68277434164E+02  0.17770000000E+01 0.  1.
</event>
<event>
 6   1  0.1826851E-04  0.5133885E+03  0.7546771E-02  0.9370340E-01
        -11   -1    0    0    0    0  0.00000000000E+00  0.00000000000E+00  0.50000000000E+03  0.50000000000E+03  0.00000000000E+00 0. -1.
         11   -1    0    0    0    0 -0.00000000000E+00 -0.00000000000E+00 -0.50000000000E+03  0.50000000000E+03  0.00000000000E+00 0.  1.
        -11    1    1    2    0    0 -0.24619283788E+02 -0.18389759843E+02  0.48564021433E+03  0.48661145709E+03  0.00000000000E+00 0. -1.
         11    1    1    2    0    0 -0.84593292074E+01  0.37618847648E+01 -0.45803121998E+03  0.45812477613E+03  0.00000000000E+00 0.  1.
        -15    1    1    2    0    0  0.95963613155E+01 -0.94798344167E+01 -0.42321022075E+01  0.14248713246E+02  0.17770000000E+01 0. -1.
         15    1    1    2    0    0  0.23482251680E+02  0.24107709495E+02 -0.23376892144E+02  0.41015053533E+02  0.17770000000E+01 0.  1.
</event>
<event>
 6   1  0.1826851E-04  0.5000985E+03  0.7546771E-02  0.9399589E-01
        -11   -1    0    0    0    0  0.00000000000E+00  0.00000000000E+00  0.50000000000E+03  0.50000000000E+03  0.00000000000E+00 0.  1.
         11   -1    0    0    0    0 -0.00000000000E+00 -0.00000000000E+00 -0.50000000000E+03  0.50000000000E+03  0.00000000000E+00 0. -1.
        -11    1    1    2    0    0 -0.93304312748E+01 -0.41423151770E+01  0.31114207198E+03  0.31130949982E+03  0.00000000000E+00 0.  1.
         11    1    1    2    0    0  0.76927930066E+01  0.11658731334E+01 -0.49984098814E+03  0.49990154205E+03  0.00000000000E+00 0. -1.
        -15    1    1    2    0    0  0.77749361449E+00  0.11209233445E+01  0.13762392416E+03  0.13764215632E+03  0.17770000000E+01 0. -1.
         15    1    1    2    0    0  0.86014465364E+00  0.18555186991E+01  0.51074991997E+02  0.51146801805E+02  0.17770000000E+01 0.  1.
</event>
<event>
 6   1  0.1826851E-04  0.4746209E+03  0.7546771E-02  0.9458460E-01
        -11   -1    0    0    0    0  0.00000000000E+00  0.00000000000E+00  0.50000000000E+03  0.50000000000E+03  0.00000000000E+00 0. -1.
         11   -1    0    0    0    0 -0.00000000000E+00 -0.00000000000E+00 -0.50000000000E+03  0.50000000000E+03  0.00000000000E+00 0.  1.
        -11    1    1    2    0    0 -0.22623314870E+02 -0.29174817003E+02  0.48583752656E+03  0.48723822360E+03  0.00000000000E+00 0. -1.
         11    1    1    2    0    0 -0.65391817901E+01  0.72947587834E+00 -0.46310248253E+03  0.46314922256E+03  0.00000000000E+00 0.  1.
        -15    1    1    2    0    0  0.28114883400E+02  0.28803867731E+02 -0.17409650920E+02  0.43890353599E+02  0.17770000000E+01 0. -1.
         15    1    1    2    0    0  0.10476132601E+01 -0.35852660683E+00 -0.53253931109E+01  0.57222002461E+01  0.17770000000E+01 0.  1.
</event>
<event>
 6   1  0.1826851E-04  0.5049859E+03  0.7546771E-02  0.9388722E-01
        -11   -1    0    0    0    0  0.00000000000E+00  0.00000000000E+00  0.50000000000E+03  0.50000000000E+03  0.00000000000E+00 0.  1.
         11   -1    0    0    0    0 -0.00000000000E+00 -0.00000000000E+00 -0.50000000000E+03  0.50000000000E+03  0.00000000000E+00 0. -1.
        -11    1    1    2    0    0 -0.13511350589E+02 -0.73117984825E+00  0.47710705200E+03  0.47729888989E+03  0.00000000000E+00 0.  1.
         11    1    1    2    0    0 -0.15942606877E+01 -0.87011500357E+01 -0.49493505659E+03  0.49501410275E+03  0.00000000000E+00 0. -1.
        -15    1    1    2    0    0  0.50007959998E+01  0.14720249786E+01 -0.14999648724E+00  0.55095413707E+01  0.17770000000E+01 0. -1.
         15    1    1    2    0    0  0.10104815277E+02  0.79603049054E+01  0.17978001079E+02  0.22177465991E+02  0.17770000000E+01 0.  1.
</event>
<event>
 6   1  0.1826851E-04  0.5000938E+03  0.7546771E-02  0.9399600E-01
        -11   -1    0    0    0    0  0.00000000000E+00  0.00000000000E+00  0.50000000000E+03  0.50000000000E+03  0.00000000000E+00 0. -1.
         11   -1    0    0    0    0 -0.00000000000E+00 -0.00000000000E+00 -0.50000000000E+03  0.50000000000E+03  0.00000000000E+00 0.  1.
        -11    1    1    2    0    0 -0.37263550877E+01  0.91989832405E+00  0.41267353063E+02  0.41445462526E+02  0.00000000000E+00 0. -1.
         11    1    1    2    0    0  0.71646618983E+01  0.27798292914E+00 -0.49985475894E+03  0.49990618088E+03  0.00000000000E+00 0.  1.
        -15    1    1    2    0    0 -0.45557272731E+01 -0.88027925505E-01  0.35530369491E+03  0.35533735484E+03  0.17770000000E+01 0. -1.
         15    1    1    2    0    0  0.11174204625E+01 -0.11098533277E+01  0.10328371096E+03  0.10331100175E+03  0.17770000000E+01 0.  1.
</event>
<event>
 6   1  0.1826851E-04  0.5017939E+03  0.7546771E-02  0.9395805E-01
        -11   -1    0    0    0    0  0.00000000000E+00  0.00000000000E+00  0.50000000000E+03  0.50000000000E+03  0.00000000000E+00 0.  1.
         11   -1    0    0    0    0 -0.00000000000E+00 -0.00000000000E+00 -0.50000000000E+03  0.50000000000E+03  0.00000000000E+00 0. -1.
        -11    1    1    2    0    0 -0.92653159320E+01 -0.16240236107E+02  0.36222348602E+03  0.36270572807E+03  0.00000000000E+00 0.  1.
         11    1    1    2    0    0  0.64159474070E+01  0.10578737791E+02 -0.49805249145E+03  0.49820614038E+03  0.00000000000E+00 0. -1.
        -15    1    1    2    0    0 -0.10699831611E+02  0.83211430166E+00  0.24331232646E+02  0.26652306125E+02  0.17770000000E+01 0. -1.
         15    1    1    2    0    0  0.13549200136E+02  0.48293840144E+01  0.11149777279E+03  0.11243582543E+03  0.17770000000E+01 0.  1.
</event>
<event>
 6   1  0.1826851E-04  0.5004333E+03  0.7546771E-02  0.9398841E-01
        -11   -1    0    0    0    0  0.00000000000E+00  0.00000000000E+00  0.50000000000E+03  0.50000000000E+03  0.00000000000E+00 0.  1.
         11   -1    0    0    0    0 -0.00000000000E+00 -0.00000000000E+00 -0.50000000000E+03  0.50000000000E+03  0.00000000000E+00 0.  1.
        -11    1    1    2    0    0  0.76420234124E+01 -0.19656001666E+01  0.72208545484E+02  0.72638406830E+02  0.00000000000E+00 0.  1.
         11    1    1    2    0    0  0.10842435186E+02 -0.65097439119E+01 -0.49940663898E+03  0.49956673851E+03  0.00000000000E+00 0.  1.
        -15    1    1    2    0    0 -0.12638729943E+01  0.20379217786E+01  0.12321921398E+03  0.12325535657E+03  0.17770000000E+01 0.  1.
         15    1    1    2    0    0 -0.17220585604E+02  0.64374222999E+01  0.30397887952E+03  0.30453949809E+03  0.17770000000E+01 0.  1.
</event>
<event>
 6   1  0.1826851E-04  0.4243872E+03  0.7546771E-02  0.9586968E-01
        -11   -1    0    0    0    0  0.00000000000E+00  0.00000000000E+00  0.50000000000E+03  0.50000000000E+03  0.00000000000E+00 0. -1.
         11   -1    0    0    0    0 -0.00000000000E+00 -0.00000000000E+00 -0.50000000000E+03  0.50000000000E+03  0.00000000000E+00 0. -1.
        -11    1    1    2    0    0  0.91053210234E+02 -0.84114499412E+02  0.66115904959E+02  0.14048931986E+03  0.00000000000E+00 0. -1.
         11    1    1    2    0    0 -0.81073598014E+02  0.48074217711E+02 -0.45666305115E+03  0.46628875280E+03  0.00000000000E+00 0. -1.
        -15    1    1    2    0    0 -0.86874962042E+01  0.30836453374E+02  0.37911546888E+03  0.38047083452E+03  0.17770000000E+01 0. -1.
         15    1    1    2    0    0 -0.12921160156E+01  0.52038283270E+01  0.11431677305E+02  0.12751092819E+02  0.17770000000E+01 0.  1.
</event>
<event>
 6   1  0.1826851E-04  0.5010330E+03  0.7546771E-02  0.9397501E-01
        -11   -1    0    0    0    0  0.00000000000E+00  0.00000000000E+00  0.50000000000E+03  0.50000000000E+03  0.00000000000E+00 0. -1.
         11   -1    0    0    0    0 -0.00000000000E+00 -0.00000000000E+00 -0.50000000000E+03  0.50000000000E+03  0.00000000000E+00 0. -1.
        -11    1    1    2    0    0 -0.76126016916E+01  0.73256503013E+01  0.37863340228E+03  0.37878076796E+03  0.00000000000E+00 0. -1.
         11    1    1    2    0    0 -0.11215286322E+02 -0.25270217710E+01 -0.49883452533E+03  0.49896698503E+03  0.00000000000E+00 0. -1.
        -15    1    1    2    0    0  0.36958032176E+01 -0.11189846966E+01  0.90166472605E+01  0.99683872815E+01  0.17770000000E+01 0. -1.
         15    1    1    2    0    0  0.15132084796E+02 -0.36796438337E+01  0.11118447579E+03  0.11228385973E+03  0.17770000000E+01 0.  1.
</event>
<event>
 6   1  0.1826851E-04  0.5046497E+03  0.7546771E-02  0.9389465E-01
        -11   -1    0    0    0    0  0.00000000000E+00  0.00000000000E+00  0.50000000000E+03  0.50000000000E+03  0.00000000000E+00 0. -1.
         11   -1    0    0    0    0 -0.00000000000E+00 -0.00000000000E+00 -0.50000000000E+03  0.50000000000E+03  0.00000000000E+00 0.  1.
        -11    1    1    2    0    0 -0.10539937340E+01 -0.72787956951E+01  0.49529566697E+03  0.49535026949E+03  0.00000000000E+00 0. -1.
         11    1    1    2    0    0 -0.80903516862E+01  0.69462734633E+01 -0.48483695379E+03  0.48495420018E+03  0.00000000000E+00 0.  1.
        -15    1    1    2    0    0  0.12057730246E+01 -0.21710368812E+01 -0.10753703341E+02  0.11178870885E+02  0.17770000000E+01 0.  1.
         15    1    1    2    0    0  0.79385723956E+01  0.25035591130E+01  0.29499016463E+00  0.85166594455E+01  0.17770000000E+01 0.  1.
</event>
<event>
 6   1  0.1826851E-04  0.5050414E+03  0.7546771E-02  0.9388599E-01
        -11   -1    0    0    0    0  0.00000000000E+00  0.00000000000E+00  0.50000000000E+03  0.50000000000E+03  0.00000000000E+00 0.  1.
         11   -1    0    0    0    0 -0.00000000000E+00 -0.00000000000E+00 -0.50000000000E+03  0.50000000000E+03  0.00000000000E+00 0. -1.
        -11    1    1    2    0    0 -0.61420253191E+02 -0.19871085762E+01  0.26370961982E+03  0.27077510907E+03  0.00000000000E+00 0.  1.
         11    1    1    2    0    0  0.42938809364E+02  0.18968640759E+02 -0.49272756100E+03  0.49495858418E+03  0.00000000000E+00 0. -1.
        -15    1    1    2    0    0  0.14747293805E+02 -0.47078918765E+01  0.21343800571E+03  0.21400604414E+03  0.17770000000E+01 0.  1.
         15    1    1    2    0    0  0.37341500216E+01 -0.12273640306E+02  0.15579935472E+02  0.20260262611E+02  0.17770000000E+01 0. -1.
</event>
<event>
 6   1  0.1826851E-04  0.5065601E+03  0.7546771E-02  0.9385249E-01
        -11   -1    0    0    0    0  0.00000000000E+00  0.00000000000E+00  0.50000000000E+03  0.50000000000E+03  0.00000000000E+00 0. -1.
         11   -1    0    0    0    0 -0.00000000000E+00 -0.00000000000E+00 -0.50000000000E+03  0.50000000000E+03  0.00000000000E+00 0. -1.
        -11    1    1    2    0    0  0.37507605568E+02  0.47648587621E+02 -0.47298539891E+02  0.76904877957E+02  0.00000000000E+00 0. -1.
         11    1    1    2    0    0 -0.92095014460E+01 -0.32723912184E+02 -0.42830823099E+03  0.42965522233E+03  0.00000000000E+00 0. -1.
        -15    1    1    2    0    0 -0.17034510913E+02  0.56189746019E+02  0.18873616074E+03  0.19766627993E+03  0.17770000000E+01 0.  1.
         15    1    1    2    0    0 -0.11263593209E+02 -0.71114421456E+02  0.28687061014E+03  0.29577361978E+03  0.17770000000E+01 0. -1.
</event>
<event>
 6   1  0.1826851E-04  0.5001234E+03  0.7546771E-02  0.9399534E-01
        -11   -1    0    0    0    0  0.00000000000E+00  0.00000000000E+00  0.50000000000E+03  0.50000000000E+03  0.00000000000E+00 0. -1.
         11   -1    0    0    0    0 -0.00000000000E+00 -0.00000000000E+00 -0.50000000000E+03  0.50000000000E+03  0.00000000000E+00 0. -1.
        -11    1    1    2    0    0 -0.23011532047E+02  0.41298036469E+01  0.26597697752E+03  0.26700250646E+03  0.00000000000E+00 0. -1.
         11    1    1    2    0    0  0.30163147812E+02 -0.10208012053E+02 -0.49886131683E+03  0.49987661720E+03  0.00000000000E+00 0. -1.
        -15    1    1    2    0    0 -0.55316133272E+01  0.48314498219E+01  0.14730789037E+03  0.14750157269E+03  0.17770000000E+01 0. -1.
         15    1    1    2    0    0 -0.16200024380E+01  0.12467585843E+01  0.85576448944E+02  0.85619303651E+02  0.17770000000E+01 0. -1.
</event>
<event>
 6   1  0.1826851E-04  0.5042201E+03  0.7546771E-02  0.9390416E-01
        -11   -1    0    0    0    0  0.00000000000E+00  0.00000000000E+00  0.50000000000E+03  0.50000000000E+03  0.00000000000E+00 0. -1.
         11   -1    0    0    0    0 -0.00000000000E+00 -0.00000000000E+00 -0.50000000000E+03  0.50000000000E+03  0.00000000000E+00 0. -1.
        -11    1    1    2    0    0 -0.12858952956E+02  0.11230733556E+02  0.46725591620E+03  0.46756772052E+03  0.00000000000E+00 0. -1.
         11    1    1    2    0    0 -0.60067778344E+01 -0.94500912142E+01 -0.49565347835E+03  0.49577994736E+03  0.00000000000E+00 0. -1.
        -15    1    1    2    0    0  0.12373777664E+02 -0.72541526752E+01  0.16636564609E+02  0.22037833734E+02  0.17770000000E+01 0. -1.
         15    1    1    2    0    0  0.64919531260E+01  0.54735103337E+01  0.11760997547E+02  0.14614498385E+02  0.17770000000E+01 0.  1.
</event>
<event>
 6   1  0.1826851E-04  0.5041026E+03  0.7546771E-02  0.9390676E-01
        -11   -1    0    0    0    0  0.00000000000E+00  0.00000000000E+00  0.50000000000E+03  0.50000000000E+03  0.00000000000E+00 0.  1.
         11   -1    0    0    0    0 -0.00000000000E+00 -0.00000000000E+00 -0.50000000000E+03  0.50000000000E+03  0.00000000000E+00 0.  1.
        -11    1    1    2    0    0  0.14137489595E+02 -0.12964811086E+02  0.49552628470E+03  0.49589742263E+03  0.00000000000E+00 0.  1.
         11    1    1    2    0    0  0.74885723581E+01 -0.38794033041E+01 -0.42477885416E+03  0.42486257005E+03  0.00000000000E+00 0.  1.
        -15    1    1    2    0    0 -0.14438666286E+02  0.13769471571E+02 -0.67802340236E+02  0.70699282189E+02  0.17770000000E+01 0.  1.
         15    1    1    2    0    0 -0.71873956665E+01  0.30747428192E+01 -0.29450903067E+01  0.85407251323E+01  0.17770000000E+01 0. -1.
</event>
<event>
 6   1  0.1826851E-04  0.4583200E+03  0.7546771E-02  0.9498228E-01
        -11   -1    0    0    0    0  0.00000000000E+00  0.00000000000E+00  0.50000000000E+03  0.50000000000E+03  0.00000000000E+00 0. -1.
         11   -1    0    0    0    0 -0.00000000000E+00 -0.00000000000E+00 -0.50000000000E+03  0.50000000000E+03  0.00000000000E+00 0. -1.
        -11    1    1    2    0    0  0.22166167725E+02  0.65215646110E+02  0.46873867848E+03  0.47377248569E+03  0.00000000000E+00 0. -1.
         11    1    1    2    0    0 -0.21073425753E+01 -0.56547833328E+01 -0.44527816229E+03  0.44531905335E+03  0.00000000000E+00 0. -1.
        -15    1    1    2    0    0 -0.26969835296E+02 -0.61194070466E+02 -0.27749400741E+02  0.72424258688E+02  0.17770000000E+01 0. -1.
         15    1    1    2    0    0  0.69110101464E+01  0.16332076893E+01  0.42888845442E+01  0.84842022744E+01  0.17770000000E+01 0.  1.
</event>
<event>
 6   1  0.1826851E-04  0.5003628E+03  0.7546771E-02  0.9398998E-01
        -11   -1    0    0    0    0  0.00000000000E+00  0.00000000000E+00  0.50000000000E+03  0.50000000000E+03  0.00000000000E+00 0.  1.
         11   -1    0    0    0    0 -0.00000000000E+00 -0.00000000000E+00 -0.50000000000E+03  0.50000000000E+03  0.00000000000E+00 0.  1.
        -11    1    1    2    0    0 -0.90202225407E+01  0.18983745677E+01  0.49955217356E+03  0.49963721073E+03  0.00000000000E+00 0.  1.
         11    1    1    2    0    0  0.94300641406E+00  0.64097442009E+01 -0.38970474079E+03  0.38975859076E+03  0.00000000000E+00 0.  1.
        -15    1    1    2    0    0  0.65040709605E+01 -0.79879752053E+01 -0.84568967777E+02  0.85212550289E+02  0.17770000000E+01 0.  1.
         15    1    1    2    0    0  0.15731451662E+01 -0.32014356330E+00 -0.25278464995E+02  0.25391648216E+02  0.17770000000E+01 0. -1.
</event>
<event>
 6   1  0.1826851E-04  0.5002832E+03  0.7546771E-02  0.9399176E-01
        -11   -1    0    0    0    0  0.00000000000E+00  0.00000000000E+00  0.50000000000E+03  0.50000000000E+03  0.00000000000E+00 0.  1.
         11   -1    0    0    0    0 -0.00000000000E+00 -0.00000000000E+00 -0.50000000000E+03  0.50000000000E+03  0.00000000000E+00 0. -1.
        -11    1    1    2    0    0 -0.41745683205E+01  0.17294034150E+02  0.36314387974E+03  0.36357941090E+03  0.00000000000E+00 0.  1.
         11    1    1    2    0    0 -0.26355442134E-01 -0.14125474682E+02 -0.49951713735E+03  0.49971682004E+03  0.00000000000E+00 0. -1.
        -15    1    1    2    0    0  0.53975998414E+01 -0.42508079744E+01  0.10027046706E+03  0.10052128006E+03  0.17770000000E+01 0.  1.
         15    1    1    2    0    0 -0.11966760788E+01  0.10822485065E+01  0.36102790549E+02  0.36182488995E+02  0.17770000000E+01 0. -1.
</event>
<event>
 6   1  0.1826851E-04  0.4875681E+03  0.7546771E-02  0.9428065E-01
        -11   -1    0    0    0    0  0.00000000000E+00  0.00000000000E+00  0.50000000000E+03  0.50000000000E+03  0.00000000000E+00 0. -1.
         11   -1    0    0    0    0 -0.00000000000E+00 -0.00000000000E+00 -0.50000000000E+03  0.50000000000E+03  0.00000000000E+00 0. -1.
        -11    1    1    2    0    0 -0.14431659045E+02 -0.12795218634E+01  0.48363442850E+03  0.48385139288E+03  0.00000000000E+00 0. -1.
         11    1    1    2    0    0 -0.52990199425E+01  0.11885163345E+02 -0.49140066008E+03  0.49157292994E+03  0.00000000000E+00 0. -1.
        -15    1    1    2    0    0  0.80255536068E+01 -0.68295059017E+01  0.52075096495E+01  0.11888126316E+02  0.17770000000E+01 0.  1.
         15    1    1    2    0    0  0.11705125380E+02 -0.37761355799E+01  0.25587219345E+01  0.12687550868E+02  0.17770000000E+01 0. -1.
</event>
<event>
 6   1  0.1826851E-04  0.5076222E+03  0.7546771E-02  0.9382914E-01
        -11   -1    0    0    0    0  0.00000000000E+00  0.00000000000E+00  0.50000000000E+03  0.50000000000E+03  0.00000000000E+00 0. -1.
         11   -1    0    0    0    0 -0.00000000000E+00 -0.00000000000E+00 -0.50000000000E+03  0.50000000000E+03  0.00000000000E+00 0.  1.
        -11    1    1    2    0    0 -0.24113564289E+02  0.15887253647E+02  0.39316767713E+03  0.39422670020E+03  0.00000000000E+00 0. -1.
         11    1    1    2    0    0 -0.12527563342E+02  0.90741341693E+01 -0.49213472647E+03  0.49237777036E+03  0.00000000000E+00 0.  1.
        -15    1    1    2    0    0  0.17799220530E+02 -0.21471984305E+02  0.85381470403E+02  0.89838808867E+02  0.17770000000E+01 0.  1.
         15    1    1    2    0    0  0.18841907100E+02 -0.34894035111E+01  0.13585578939E+02  0.23556720573E+02  0.17770000000E+01 0. -1.
</event>
<event>
 6   1  0.1826851E-04  0.4847959E+03  0.7546771E-02  0.9434488E-01
        -11   -1    0    0    0    0  0.00000000000E+00  0.00000000000E+00  0.50000000000E+03  0.50000000000E+03  0.00000000000E+00 0.  1.
         11   -1    0    0    0    0 -0.00000000000E+00 -0.00000000000E+00 -0.50000000000E+03  0.50000000000E+03  0.00000000000E+00 0. -1.
        -11    1    1    2    0    0 -0.10772594807E+02 -0.62622350855E+01  0.49104158002E+03  0.49119965156E+03  0.00000000000E+00 0.  1.
         11    1    1    2    0    0 -0.11237378517E+02 -0.42155628782E+00 -0.47861248385E+03  0.47874457290E+03  0.00000000000E+00 0. -1.
        -15    1    1    2    0    0  0.13884093733E+02  0.20443178176E+01  0.31079428755E+00  0.14149262038E+02  0.17770000000E+01 0.  1.
         15    1    1    2    0    0  0.81258795906E+01  0.46394735557E+01 -0.12739890451E+02  0.15906513499E+02  0.17770000000E+01 0. -1.
</event>
<event>
 6   1  0.1826851E-04  0.5000950E+03  0.7546771E-02  0.9399597E-01
        -11   -1    0    0    0    0  0.00000000000E+00  0.00000000000E+00  0.50000000000E+03  0.50000000000E+03  0.00000000000E+00 0.  1.
         11   -1    0    0    0    0 -0.00000000000E+00 -0.00000000000E+00 -0.50000000000E+03  0.50000000000E+03  0.00000000000E+00 0. -1.
        -11    1    1    2    0    0 -0.96411836578E+01  0.21208380302E+01  0.49980754319E+03  0.49990502158E+03  0.00000000000E+00 0.  1.
         11    1    1    2    0    0  0.12717772347E+01 -0.50066792815E+01 -0.26183609936E+03  0.26188705043E+03  0.00000000000E+00 0. -1.
        -15    1    1    2    0    0  0.63943892637E+01  0.66326887817E+00 -0.18700933991E+03  0.18712824234E+03  0.17770000000E+01 0. -1.
         15    1    1    2    0    0  0.19750171594E+01  0.22225723731E+01 -0.50962103917E+02  0.51079685643E+02  0.17770000000E+01 0.  1.
</event>
<event>
 6   1  0.1826851E-04  0.5000462E+03  0.7546771E-02  0.9399706E-01
        -11   -1    0    0    0    0  0.00000000000E+00  0.00000000000E+00  0.50000000000E+03  0.50000000000E+03  0.00000000000E+00 0.  1.
         11   -1    0    0    0    0 -0.00000000000E+00 -0.00000000000E+00 -0.50000000000E+03  0.50000000000E+03  0.00000000000E+00 0.  1.
        -11    1    1    2    0    0  0.63373513071E+01  0.11856367271E+02  0.49977306341E+03  0.49995384825E+03  0.00000000000E+00 0.  1.
         11    1    1    2    0    0 -0.32690157952E+01 -0.94853696344E+01 -0.32911183422E+03  0.32926472348E+03  0.00000000000E+00 0.  1.
        -15    1    1    2    0    0 -0.35487926745E+01 -0.19620945376E+01 -0.10536329776E+03  0.10545627524E+03  0.17770000000E+01 0.  1.
         15    1    1    2    0    0  0.48045716263E+00 -0.40890309930E+00 -0.65297931429E+02  0.65325153033E+02  0.17770000000E+01 0. -1.
</event>
<event>
 6   1  0.1826851E-04  0.5003906E+03  0.7546771E-02  0.9398936E-01
        -11   -1    0    0    0    0  0.00000000000E+00  0.00000000000E+00  0.50000000000E+03  0.50000000000E+03  0.00000000000E+00 0. -1.
         11   -1    0    0    0    0 -0.00000000000E+00 -0.00000000000E+00 -0.50000000000E+03  0.50000000000E+03  0.00000000000E+00 0. -1.
        -11    1    1    2    0    0 -0.18018522311E+01 -0.21642909410E+02  0.49913717782E+03  0.49960943194E+03  0.00000000000E+00 0. -1.
         11    1    1    2    0    0  0.16683381962E+01  0.33059717859E+01 -0.20850863937E+03  0.20854151983E+03  0.00000000000E+00 0. -1.
        -15    1    1    2    0    0  0.34408680558E+01  0.17032919682E+02 -0.27926019934E+03  0.27980596239E+03  0.17770000000E+01 0.  1.
         15    1    1    2    0    0 -0.33073540210E+01  0.13040179416E+01 -0.11368339113E+02  0.12043085842E+02  0.17770000000E+01 0. -1.
</event>
<event>
 6   1  0.1826851E-04  0.5077852E+03  0.7546771E-02  0.9382556E-01
        -11   -1    0    0    0    0  0.00000000000E+00  0.00000000000E+00  0.50000000000E+03  0.50000000000E+03  0.00000000000E+00 0.  1.
         11   -1    0    0    0    0 -0.00000000000E+00 -0.00000000000E+00 -0.50000000000E+03  0.50000000000E+03  0.00000000000E+00 0.  1.
        -11    1    1    2    0    0  0.48000965001E+02  0.10895570699E+02  0.48974749559E+03  0.49221480630E+03  0.00000000000E+00 0.  1.
         11    1    1    2    0    0  0.32949813841E+01 -0.13972672515E+02 -0.40169181794E+03  0.40194826667E+03  0.00000000000E+00 0.  1.
        -15    1    1    2    0    0 -0.31155962405E+02 -0.75633517022E+01 -0.32130995560E+02  0.45425289070E+02  0.17770000000E+01 0. -1.
         15    1    1    2    0    0 -0.20139983980E+02  0.10640453518E+02 -0.55924682088E+02  0.60411637964E+02  0.17770000000E+01 0.  1.
</event>
<event>
 6   1  0.1826851E-04  0.5015142E+03  0.7546771E-02  0.9396428E-01
        -11   -1    0    0    0    0  0.00000000000E+00  0.00000000000E+00  0.50000000000E+03  0.50000000000E+03  0.00000000000E+00 0.  1.
         11   -1    0    0    0    0 -0.00000000000E+00 -0.00000000000E+00 -0.50000000000E+03  0.50000000000E+03  0.00000000000E+00 0.  1.
        -11    1    1    2    0    0  0.52908869688E+01 -0.10635723263E+02  0.49834428299E+03  0.49848584381E+03  0.00000000000E+00 0.  1.
         11    1    1    2    0    0  0.67048366912E+01  0.67151830221E+01 -0.43986107835E+03  0.43996342662E+03  0.00000000000E+00 0.  1.
        -15    1    1    2    0    0 -0.31189889899E+01 -0.14138333851E+01 -0.40794096255E+02  0.40976127628E+02  0.17770000000E+01 0.  1.
         15    1    1    2    0    0 -0.88767346701E+01  0.53343736263E+01 -0.17689108388E+02  0.20574601939E+02  0.17770000000E+01 0. -1.
</event>
<event>
 6   1  0.1826851E-04  0.5001048E+03  0.7546771E-02  0.9399575E-01
        -11   -1    0    0    0    0  0.00000000000E+00  0.00000000000E+00  0.50000000000E+03  0.50000000000E+03  0.00000000000E+00 0.  1.
         11   -1    0    0    0    0 -0.00000000000E+00 -0.00000000000E+00 -0.50000000000E+03  0.50000000000E+03  0.00000000000E+00 0. -1.
        -11    1    1    2    0    0 -0.69454880866E+01 -0.23185573816E+01  0.49984156957E+03  0.49989519920E+03  0.00000000000E+00 0.  1.
         11    1    1    2    0    0  0.12792165501E+01  0.53898379036E+01 -0.86360108100E+02  0.86537593095E+02  0.00000000000E+00 0. -1.
        -15    1    1    2    0    0  0.17973299246E+00 -0.12480581203E+01 -0.74754618654E+02  0.74786367021E+02  0.17770000000E+01 0. -1.
         15    1    1    2    0    0  0.54865385440E+01 -0.18232224018E+01 -0.33872684281E+03  0.33878084069E+03  0.17770000000E+01 0. -1.
</event>
<event>
 6   1  0.1826851E-04  0.5004512E+03  0.7546771E-02  0.9398801E-01
        -11   -1    0    0    0    0  0.00000000000E+00  0.00000000000E+00  0.50000000000E+03  0.50000000000E+03  0.00000000000E+00 0.  1.
         11   -1    0    0    0    0 -0.00000000000E+00 -0.00000000000E+00 -0.50000000000E+03  0.50000000000E+03  0.00000000000E+00 0. -1.
        -11    1    1    2    0    0  0.62710389197E+01 -0.36223301094E+01  0.44698002584E+03  0.44703869039E+03  0.00000000000E+00 0.  1.
         11    1    1    2    0    0 -0.14495971249E+01  0.93285254829E+01 -0.49945956315E+03  0.49954877433E+03  0.00000000000E+00 0. -1.
        -15    1    1    2    0    0 -0.26369434571E+01 -0.43348510594E+01  0.44761089195E+02  0.45082782073E+02  0.17770000000E+01 0.  1.
         15    1    1    2    0    0 -0.21844983376E+01 -0.13713443142E+01  0.77184481116E+01  0.83297532056E+01  0.17770000000E+01 0.  1.
</event>
<event>
 6   1  0.1826851E-04  0.5001807E+03  0.7546771E-02  0.9399405E-01
        -11   -1    0    0    0    0  0.00000000000E+00  0.00000000000E+00  0.50000000000E+03  0.50000000000E+03  0.00000000000E+00 0.  1.
         11   -1    0    0    0    0 -0.00000000000E+00 -0.00000000000E+00 -0.50000000000E+03  0.50000000000E+03  0.00000000000E+00 0.  1.
        -11    1    1    2    0    0  0.66145077991E+01  0.54213881546E+01  0.49974609534E+03  0.49981927031E+03  0.00000000000E+00 0.  1.
         11    1    1    2    0    0  0.28201460595E+01 -0.29653907925E+01 -0.28803527774E+03  0.28806434696E+03  0.00000000000E+00 0.  1.
        -15    1    1    2    0    0 -0.93123055663E+01 -0.56154684557E+00 -0.12246235629E+03  0.12283004847E+03  0.17770000000E+01 0. -1.
         15    1    1    2    0    0 -0.12234829231E+00 -0.18944505166E+01 -0.89248461312E+02  0.89286334270E+02  0.17770000000E+01 0.  1.
</event>
<event>
 6   1  0.1826851E-04  0.5072901E+03  0.7546771E-02  0.9383644E-01
        -11   -1    0    0    0    0  0.00000000000E+00  0.00000000000E+00  0.50000000000E+03  0.50000000000E+03  0.00000000000E+00 0.  1.
         11   -1    0    0    0    0 -0.00000000000E+00 -0.00000000000E+00 -0.50000000000E+03  0.50000000000E+03  0.00000000000E+00 0. -1.
        -11    1    1    2    0    0  0.27671375923E+02 -0.47421037416E+02  0.48964125363E+03  0.49270987111E+03  0.00000000000E+00 0.  1.
         11    1    1    2    0    0 -0.61828089622E+02  0.31272851263E+02 -0.16599873416E+03  0.17987852467E+03  0.00000000000E+00 0. -1.
        -15    1    1    2    0    0  0.23522992477E+02  0.12192932151E+02 -0.99730012581E+02  0.10320480564E+03  0.17770000000E+01 0. -1.
         15    1    1    2    0    0  0.10633721221E+02  0.39552540012E+01 -0.22391250689E+03  0.22420679858E+03  0.17770000000E+01 0.  1.
</event>
<event>
 6   1  0.1826851E-04  0.5061565E+03  0.7546771E-02  0.9386139E-01
        -11   -1    0    0    0    0  0.00000000000E+00  0.00000000000E+00  0.50000000000E+03  0.50000000000E+03  0.00000000000E+00 0.  1.
         11   -1    0    0    0    0 -0.00000000000E+00 -0.00000000000E+00 -0.50000000000E+03  0.50000000000E+03  0.00000000000E+00 0.  1.
        -11    1    1    2    0    0 -0.22729632394E+01  0.23893566204E+02  0.44089959535E+03  0.44155240012E+03  0.00000000000E+00 0.  1.
         11    1    1    2    0    0  0.12157372527E+02 -0.10557846671E+02 -0.49358096178E+03  0.49384353358E+03  0.00000000000E+00 0.  1.
        -15    1    1    2    0    0 -0.23489352573E+01  0.99666988790E+01  0.27654437788E+02  0.29542820478E+02  0.17770000000E+01 0.  1.
         15    1    1    2    0    0 -0.75354740301E+01 -0.23302418412E+02  0.25026928637E+02  0.35061245824E+02  0.17770000000E+01 0. -1.
</event>
<event>
 6   1  0.1826851E-04  0.5012194E+03  0.7546771E-02  0.9397085E-01
        -11   -1    0    0    0    0  0.00000000000E+00  0.00000000000E+00  0.50000000000E+03  0.50000000000E+03  0.00000000000E+00 0. -1.
         11   -1    0    0    0    0 -0.00000000000E+00 -0.00000000000E+00 -0.50000000000E+03  0.50000000000E+03  0.00000000000E+00 0. -1.
        -11    1    1    2    0    0 -0.10009638832E+02 -0.11679602197E+02  0.49854332605E+03  0.49878056691E+03  0.00000000000E+00 0. -1.
         11    1    1    2    0    0  0.11941312214E+02  0.14859838660E+02 -0.47375463107E+03  0.47413801810E+03  0.00000000000E+00 0. -1.
        -15    1    1    2    0    0 -0.21752212890E+01 -0.56785677051E+01 -0.22120456222E+02  0.23009781209E+02  0.17770000000E+01 0. -1.
         15    1    1    2    0    0  0.24354790721E+00  0.24983312424E+01 -0.26682387584E+01  0.40716337816E+01  0.17770000000E+01 0.  1.
</event>
<event>
 6   1  0.1826851E-04  0.5182832E+03  0.7546771E-02  0.9359804E-01
        -11   -1    0    0    0    0  0.00000000000E+00  0.00000000000E+00  0.50000000000E+03  0.50000000000E+03  0.00000000000E+00 0. -1.
         11   -1    0    0    0    0 -0.00000000000E+00 -0.00000000000E+00 -0.50000000000E+03  0.50000000000E+03  0.00000000000E+00 0. -1.
        -11    1    1    2    0    0  0.11955713866E+03  0.35908568026E+02  0.46526094355E+03  0.48171680504E+03  0.00000000000E+00 0. -1.
         11    1    1    2    0    0 -0.15348634436E+02  0.17873179213E+02 -0.31180879551E+03  0.31269754728E+03  0.00000000000E+00 0. -1.
        -15    1    1    2    0    0 -0.90329905126E+02 -0.22613025540E+02 -0.14148107995E+03  0.16938386699E+03  0.17770000000E+01 0.  1.
         15    1    1    2    0    0 -0.13878599095E+02 -0.31168721700E+02 -0.11971068095E+02  0.36201780696E+02  0.17770000000E+01 0. -1.
</event>
<event>
 6   1  0.1826851E-04  0.5078703E+03  0.7546771E-02  0.9382370E-01
        -11   -1    0    0    0    0  0.00000000000E+00  0.00000000000E+00  0.50000000000E+03  0.50000000000E+03  0.00000000000E+00 0.  1.
         11   -1    0    0    0    0 -0.00000000000E+00 -0.00000000000E+00 -0.50000000000E+03  0.50000000000E+03  0.00000000000E+00 0.  1.
        -11    1    1    2    0    0 -0.99800681308E+01  0.10904513752E+02  0.44811658519E+03  0.44836032843E+03  0.00000000000E+00 0.  1.
         11    1    1    2    0    0 -0.20735738695E+02  0.65922933680E+01 -0.49164851354E+03  0.49212974921E+03  0.00000000000E+00 0.  1.
        -15    1    1    2    0    0  0.28298061178E+02 -0.12338317577E+02  0.43707249236E+02  0.53539664846E+02  0.17770000000E+01 0.  1.
         15    1    1    2    0    0  0.24177456480E+01 -0.51584895432E+01 -0.17532088716E+00  0.59702575153E+01  0.17770000000E+01 0. -1.
</event>
<event>
 6   1  0.1826851E-04  0.5002647E+03  0.7546771E-02  0.9399218E-01
        -11   -1    0    0    0    0  0.00000000000E+00  0.00000000000E+00  0.50000000000E+03  0.50000000000E+03  0.00000000000E+00 0.  1.
         11   -1    0    0    0    0 -0.00000000000E+00 -0.00000000000E+00 -0.50000000000E+03  0.50000000000E+03  0.00000000000E+00 0.  1.
        -11    1    1    2    0    0  0.16444379233E+02  0.97841483183E+01  0.49936886040E+03  0.49973533586E+03  0.00000000000E+00 0.  1.
         11    1    1    2    0    0 -0.51223493222E+00 -0.25894937214E+01 -0.19489597337E+03  0.19491384840E+03  0.00000000000E+00 0.  1.
        -15    1    1    2    0    0 -0.11658903006E+02 -0.90840056274E+01 -0.13757027730E+03  0.13837336486E+03  0.17770000000E+01 0. -1.
         15    1    1    2    0    0 -0.42732412948E+01  0.18893510306E+01 -0.16690260973E+03  0.16697745088E+03  0.17770000000E+01 0.  1.
</event>
<event>
 6   1  0.1826851E-04  0.5000956E+03  0.7546771E-02  0.9399596E-01
        -11   -1    0    0    0    0  0.00000000000E+00  0.00000000000E+00  0.50000000000E+03  0.50000000000E+03  0.00000000000E+00 0. -1.
         11   -1    0    0    0    0 -0.00000000000E+00 -0.00000000000E+00 -0.50000000000E+03  0.50000000000E+03  0.00000000000E+00 0. -1.
        -11    1    1    2    0    0 -0.55035675801E+01  0.27398096971E+00  0.62402248670E+02  0.62645071320E+02  0.00000000000E+00 0. -1.
         11    1    1    2    0    0  0.99611126279E+01 -0.25689588353E+01 -0.49979855713E+03  0.49990441189E+03  0.00000000000E+00 0. -1.
        -15    1    1    2    0    0 -0.15187911265E+01 -0.46031881303E+00  0.11978179609E+03  0.11980548829E+03  0.17770000000E+01 0. -1.
         15    1    1    2    0    0 -0.29387539213E+01  0.27552966786E+01  0.31761451237E+03  0.31764502850E+03  0.17770000000E+01 0. -1.
</event>
<event>
 6   1  0.1826851E-04  0.5004202E+03  0.7546771E-02  0.9398870E-01
        -11   -1    0    0    0    0  0.00000000000E+00  0.00000000000E+00  0.50000000000E+03  0.50000000000E+03  0.00000000000E+00 0. -1.
         11   -1    0    0    0    0 -0.00000000000E+00 -0.00000000000E+00 -0.50000000000E+03  0.50000000000E+03  0.00000000000E+00 0.  1.
        -11    1    1    2    0    0  0.31000970307E+02  0.57341169362E+01  0.49858406060E+03  0.49957982920E+03  0.00000000000E+00 0. -1.
         11    1    1    2    0    0 -0.13273625206E+02 -0.13727834029E+02 -0.33432140394E+03  0.33486630718E+03  0.00000000000E+00 0.  1.
        -15    1    1    2    0    0 -0.65393760523E+01  0.12524275937E+01 -0.76062770640E+02  0.76374307332E+02  0.17770000000E+01 0.  1.
         15    1    1    2    0    0 -0.11187969049E+02  0.67412894994E+01 -0.88199886025E+02  0.89179556286E+02  0.17770000000E+01 0.  1.
</event>
<event>
 6   1  0.1826851E-04  0.5022646E+03  0.7546771E-02  0.9394757E-01
        -11   -1    0    0    0    0  0.00000000000E+00  0.00000000000E+00  0.50000000000E+03  0.50000000000E+03  0.00000000000E+00 0.  1.
         11   -1    0    0    0    0 -0.00000000000E+00 -0.00000000000E+00 -0.50000000000E+03  0.50000000000E+03  0.00000000000E+00 0. -1.
        -11    1    1    2    0    0 -0.82247875308E+01 -0.14014188783E+02  0.49747004796E+03  0.49773536466E+03  0.00000000000E+00 0.  1.
         11    1    1    2    0    0  0.65366154958E+01 -0.69065309362E+01 -0.42791520056E+03  0.42802084806E+03  0.00000000000E+00 0. -1.
        -15    1    1    2    0    0  0.28281185237E+01  0.14004680663E+02 -0.62516149692E+02  0.64152599606E+02  0.17770000000E+01 0.  1.
         15    1    1    2    0    0 -0.11399464888E+01  0.69160390562E+01 -0.70386977083E+01  0.10091187673E+02  0.17770000000E+01 0. -1.
</event>
<event>
 6   1  0.1826851E-04  0.5001082E+03  0.7546771E-02  0.9399568E-01
        -11   -1    0    0    0    0  0.00000000000E+00  0.00000000000E+00  0.50000000000E+03  0.50000000000E+03  0.00000000000E+00 0. -1.
         11   -1    0    0    0    0 -0.00000000000E+00 -0.00000000000E+00 -0.50000000000E+03  0.50000000000E+03  0.00000000000E+00 0. -1.
        -11    1    1    2    0    0 -0.67059522838E+01  0.51747780551E+01  0.49982005839E+03  0.49989182719E+03  0.00000000000E+00 0. -1.
         11    1    1    2    0    0 -0.19542877759E+01  0.67630800161E+00 -0.14829057457E+03  0.14830499364E+03  0.00000000000E+00 0. -1.
        -15    1    1    2    0    0  0.97198203687E+01 -0.29665910641E+01 -0.25622915383E+03  0.25643676135E+03  0.17770000000E+01 0. -1.
         15    1    1    2    0    0 -0.10595803090E+01 -0.28844949926E+01 -0.95300329988E+02  0.95366417814E+02  0.17770000000E+01 0. -1.
</event>
<event>
 6   1  0.1826851E-04  0.5005403E+03  0.7546771E-02  0.9398602E-01
        -11   -1    0    0    0    0  0.00000000000E+00  0.00000000000E+00  0.50000000000E+03  0.50000000000E+03  0.00000000000E+00 0. -1.
         11   -1    0    0    0    0 -0.00000000000E+00 -0.00000000000E+00 -0.50000000000E+03  0.50000000000E+03  0.00000000000E+00 0. -1.
        -11    1    1    2    0    0  0.54707374642E+01 -0.50482181790E+01  0.39903691021E+03  0.39910633819E+03  0.00000000000E+00 0. -1.
         11    1    1    2    0    0 -0.46576378019E+01 -0.51536189806E+01 -0.49941141423E+03  0.49945972214E+03  0.00000000000E+00 0. -1.
        -15    1    1    2    0    0  0.36013273765E+01  0.45093553723E+01  0.65566527180E+02  0.65843990312E+02  0.17770000000E+01 0. -1.
         15    1    1    2    0    0 -0.44144270388E+01  0.56924817873E+01  0.34807976835E+02  0.35589949358E+02  0.17770000000E+01 0.  1.
</event>
<event>
 6   1  0.1826851E-04  0.5010941E+03  0.7546771E-02  0.9397365E-01
        -11   -1    0    0    0    0  0.00000000000E+00  0.00000000000E+00  0.50000000000E+03  0.50000000000E+03  0.00000000000E+00 0. -1.
         11   -1    0    0    0    0 -0.00000000000E+00 -0.00000000000E+00 -0.50000000000E+03  0.50000000000E+03  0.00000000000E+00 0. -1.
        -11    1    1    2    0    0  0.72756048031E+01  0.71996627251E+01 -0.77353127558E+02  0.78027404876E+02  0.00000000000E+00 0. -1.
         11    1    1    2    0    0 -0.18902838264E+02 -0.41222145424E+02 -0.41842818450E+03  0.42087851947E+03  0.00000000000E+00 0. -1.
        -15    1    1    2    0    0 -0.19298330674E+02  0.13615818963E-01  0.64019079990E+02  0.66888161015E+02  0.17770000000E+01 0.  1.
         15    1    1    2    0    0  0.30925564135E+02  0.34008866880E+02  0.43176223207E+03  0.43420591464E+03  0.17770000000E+01 0. -1.
</event>
<event>
 6   1  0.1826851E-04  0.5037965E+03  0.7546771E-02  0.9391354E-01
        -11   -1    0    0    0    0  0.00000000000E+00  0.00000000000E+00  0.50000000000E+03  0.50000000000E+03  0.00000000000E+00 0.  1.
         11   -1    0    0    0    0 -0.00000000000E+00 -0.00000000000E+00 -0.50000000000E+03  0.50000000000E+03  0.00000000000E+00 0. -1.
        -11    1    1    2    0    0  0.42043154386E+01 -0.83701949938E+01  0.48749924813E+03  0.48758922605E+03  0.00000000000E+00 0.  1.
         11    1    1    2    0    0  0.43596915338E+01  0.11920279608E+02 -0.49604109379E+03  0.49620345293E+03  0.00000000000E+00 0. -1.
        -15    1    1    2    0    0 -0.38957200502E+01 -0.37523800562E+01 -0.66369197423E+00  0.57319461644E+01  0.17770000000E+01 0. -1.
         15    1    1    2    0    0 -0.46682869223E+01  0.20229544168E+00  0.92055376292E+01  0.10475374851E+02  0.17770000000E+01 0.  1.
</event>
<event>
 6   1  0.1826851E-04  0.5001648E+03  0.7546771E-02  0.9399441E-01
        -11   -1    0    0    0    0  0.00000000000E+00  0.00000000000E+00  0.50000000000E+03  0.50000000000E+03  0.00000000000E+00 0. -1.
         11   -1    0    0    0    0 -0.00000000000E+00 -0.00000000000E+00 -0.50000000000E+03  0.50000000000E+03  0.00000000000E+00 0. -1.
        -11    1    1    2    0    0  0.17510353225E+02 -0.17576825413E+02  0.49921902083E+03  0.49983516085E+03  0.00000000000E+00 0. -1.
         11    1    1    2    0    0 -0.81741415148E+01  0.77036832408E+01 -0.19364645152E+03  0.19397193486E+03  0.00000000000E+00 0. -1.
        -15    1    1    2    0    0 -0.23755045832E+01  0.81043920313E+01 -0.73900212542E+02  0.74402441727E+02  0.17770000000E+01 0.  1.
         15    1    1    2    0    0 -0.69607071269E+01  0.17687501405E+01 -0.23167235676E+03  0.23179046257E+03  0.17770000000E+01 0. -1.
</event>
<event>
 6   1  0.1826851E-04  0.5001305E+03  0.7546771E-02  0.9399518E-01
        -11   -1    0    0    0    0  0.00000000000E+00  0.00000000000E+00  0.50000000000E+03  0.50000000000E+03  0.00000000000E+00 0.  1.
         11   -1    0    0    0    0 -0.00000000000E+00 -0.00000000000E+00 -0.50000000000E+03  0.50000000000E+03  0.00000000000E+00 0.  1.
        -11    1    1    2    0    0  0.20823656865E+01 -0.83909270717E+01  0.39037042798E+03  0.39046615083E+03  0.00000000000E+00 0.  1.
         11    1    1    2    0    0  0.96740423749E+00  0.70683617631E+01 -0.49981858993E+03  0.49986950342E+03  0.00000000000E+00 0.  1.
        -15    1    1    2    0    0 -0.37232075001E+01  0.84757636130E-01  0.87982312039E+02  0.88079023716E+02  0.17770000000E+01 0.  1.
         15    1    1    2    0    0  0.67343757613E+00  0.12378076725E+01  0.21465849909E+02  0.21585322034E+02  0.17770000000E+01 0. -1.
</event>
<event>
 6   1  0.1826851E-04  0.5037186E+03  0.7546771E-02  0.9391527E-01
        -11   -1    0    0    0    0  0.00000000000E+00  0.00000000000E+00  0.50000000000E+03  0.50000000000E+03  0.00000000000E+00 0. -1.
         11   -1    0    0    0    0 -0.00000000000E+00 -0.00000000000E+00 -0.50000000000E+03  0.50000000000E+03  0.00000000000E+00 0.  1.
        -11    1    1    2    0    0 -0.22885094039E+02 -0.61190339972E+01  0.49571566473E+03  0.49628136210E+03  0.00000000000E+00 0. -1.
         11    1    1    2    0    0 -0.99051880842E+01 -0.11376109036E+02 -0.38291725016E+03  0.38321423392E+03  0.00000000000E+00 0.  1.
        -15    1    1    2    0    0  0.18063755761E+02  0.18974411404E+02 -0.57144011499E+02  0.62888181238E+02  0.17770000000E+01 0.  1.
         15    1    1    2    0    0  0.14726526362E+02 -0.14792683706E+01 -0.55654403071E+02  0.57616222748E+02  0.17770000000E+01 0. -1.
</event>
<event>
 6   1  0.1826851E-04  0.5001734E+03  0.7546771E-02  0.9399422E-01
        -11   -1    0    0    0    0  0.00000000000E+00  0.00000000000E+00  0.50000000000E+03  0.50000000000E+03  0.00000000000E+00 0. -1.
         11   -1    0    0    0    0 -0.00000000000E+00 -0.00000000000E+00 -0.50000000000E+03  0.50000000000E+03  0.00000000000E+00 0.  1.
        -11    1    1    2    0    0  0.16594096726E+02 -0.49031660745E+01  0.49952702040E+03  0.49982661914E+03  0.00000000000E+00 0. -1.
         11    1    1    2    0    0 -0.68223427101E+01  0.49046060378E+01 -0.14030679014E+03  0.14055815480E+03  0.00000000000E+00 0.  1.
        -15    1    1    2    0    0  0.10399481639E+01  0.28969108825E+01 -0.31638269335E+02  0.31837264336E+02  0.17770000000E+01 0. -1.
         15    1    1    2    0    0 -0.10811702180E+02 -0.28983508459E+01 -0.32758196092E+03  0.32777796173E+03  0.17770000000E+01 0.  1.
</event>
<event>
 6   1  0.1826851E-04  0.5007320E+03  0.7546771E-02  0.9398173E-01
        -11   -1    0    0    0    0  0.00000000000E+00  0.00000000000E+00  0.50000000000E+03  0.50000000000E+03  0.00000000000E+00 0. -1.
         11   -1    0    0    0    0 -0.00000000000E+00 -0.00000000000E+00 -0.50000000000E+03  0.50000000000E+03  0.00000000000E+00 0.  1.
        -11    1    1    2    0    0 -0.76476409273E+01 -0.42832753229E+00  0.34704097223E+02  0.35539333706E+02  0.00000000000E+00 0. -1.
         11    1    1    2    0    0  0.51745540729E+01  0.84866734390E+01 -0.49916900470E+03  0.49926795900E+03  0.00000000000E+00 0.  1.
        -15    1    1    2    0    0  0.11227889652E+02  0.28185759221E+01  0.24168498106E+03  0.24196858820E+03  0.17770000000E+01 0. -1.
         15    1    1    2    0    0 -0.87548027976E+01 -0.10876921829E+02  0.22277992642E+03  0.22322411909E+03  0.17770000000E+01 0.  1.
</event>
<event>
 6   1  0.1826851E-04  0.5016603E+03  0.7546771E-02  0.9396102E-01
        -11   -1    0    0    0    0  0.00000000000E+00  0.00000000000E+00  0.50000000000E+03  0.50000000000E+03  0.00000000000E+00 0.  1.
         11   -1    0    0    0    0 -0.00000000000E+00 -0.00000000000E+00 -0.50000000000E+03  0.50000000000E+03  0.00000000000E+00 0.  1.
        -11    1    1    2    0    0 -0.14567804474E+02 -0.58332083693E+00  0.43309114882E+03  0.43333647940E+03  0.00000000000E+00 0.  1.
         11    1    1    2    0    0  0.65411728170E+01 -0.45978829717E+01 -0.49827555036E+03  0.49833969494E+03  0.00000000000E+00 0.  1.
        -15    1    1    2    0    0  0.12216370651E+02 -0.13138272918E+01  0.43399692973E+02  0.45140413525E+02  0.17770000000E+01 0. -1.
         15    1    1    2    0    0 -0.41897389938E+01  0.64950311004E+01  0.21784708570E+02  0.23183412137E+02  0.17770000000E+01 0.  1.
</event>
<event>
 6   1  0.1826851E-04  0.5048405E+03  0.7546771E-02  0.9389043E-01
        -11   -1    0    0    0    0  0.00000000000E+00  0.00000000000E+00  0.50000000000E+03  0.50000000000E+03  0.00000000000E+00 0.  1.
         11   -1    0    0    0    0 -0.00000000000E+00 -0.00000000000E+00 -0.50000000000E+03  0.50000000000E+03  0.00000000000E+00 0. -1.
        -11    1    1    2    0    0  0.16193523891E+02 -0.47785839827E+01  0.49487156252E+03  0.49515949802E+03  0.00000000000E+00 0.  1.
         11    1    1    2    0    0 -0.10627878424E+02  0.19819544163E+01 -0.49043849500E+03  0.49055763914E+03  0.00000000000E+00 0. -1.
        -15    1    1    2    0    0 -0.52184397499E+01  0.30090996229E+00 -0.79033366446E+01  0.96407011854E+01  0.17770000000E+01 0. -1.
         15    1    1    2    0    0 -0.34720571640E+00  0.24957196041E+01  0.34702691167E+01  0.46421616618E+01  0.17770000000E+01 0.  1.
</event>
<event>
 6   1  0.1826851E-04  0.5074012E+03  0.7546771E-02  0.9383400E-01
        -11   -1    0    0    0    0  0.00000000000E+00  0.00000000000E+00  0.50000000000E+03  0.50000000000E+03  0.00000000000E+00 0. -1.
         11   -1    0    0    0    0 -0.00000000000E+00 -0.00000000000E+00 -0.50000000000E+03  0.50000000000E+03  0.00000000000E+00 0.  1.
        -11    1    1    2    0    0 -0.94068883128E+01  0.46861090896E+01  0.48262401845E+03  0.48273843057E+03  0.00000000000E+00 0. -1.
         11    1    1    2    0    0  0.45416401409E+01  0.70652773094E+01 -0.49252722335E+03  0.49259883311E+03  0.00000000000E+00 0.  1.
        -15    1    1    2    0    0 -0.13512665687E+01 -0.67535447401E+01 -0.42744819962E+01  0.82985066868E+01  0.17770000000E+01 0.  1.
         15    1    1    2    0    0  0.62165147405E+01 -0.49978416590E+01  0.14177686901E+02  0.16364229637E+02  0.17770000000E+01 0. -1.
</event>
<event>
 6   1  0.1826851E-04  0.5023710E+03  0.7546771E-02  0.9394520E-01
        -11   -1    0    0    0    0  0.00000000000E+00  0.00000000000E+00  0.50000000000E+03  0.50000000000E+03  0.00000000000E+00 0.  1.
         11   -1    0    0    0    0 -0.00000000000E+00 -0.00000000000E+00 -0.50000000000E+03  0.50000000000E+03  0.00000000000E+00 0. -1.
        -11    1    1    2    0    0 -0.33256667406E+01 -0.93288911505E+01  0.49753040662E+03  0.49762897201E+03  0.00000000000E+00 0.  1.
         11    1    1    2    0    0 -0.19684710681E+01 -0.72825642759E+01 -0.44581804707E+03  0.44588186969E+03  0.00000000000E+00 0. -1.
        -15    1    1    2    0    0  0.61345227767E+01  0.11906243641E+02 -0.18615998521E+02  0.23002263743E+02  0.17770000000E+01 0.  1.
         15    1    1    2    0    0 -0.84038496794E+00  0.47052117851E+01 -0.33096361032E+02  0.33486894562E+02  0.17770000000E+01 0.  1.
</event>
<event>
 6   1  0.1826851E-04  0.5003604E+03  0.7546771E-02  0.9399004E-01
        -11   -1    0    0    0    0  0.00000000000E+00  0.00000000000E+00  0.50000000000E+03  0.50000000000E+03  0.00000000000E+00 0.  1.
         11   -1    0    0    0    0 -0.00000000000E+00 -0.00000000000E+00 -0.50000000000E+03  0.50000000000E+03  0.00000000000E+00 0.  1.
        -11    1    1    2    0    0  0.84491427017E+01  0.24485594592E+01  0.26268933002E+03  0.26283657958E+03  0.00000000000E+00 0.  1.
         11    1    1    2    0    0  0.19904560934E+01 -0.72178977567E+01 -0.49958349879E+03  0.49963960234E+03  0.00000000000E+00 0.  1.
        -15    1    1    2    0    0 -0.33121675972E+00  0.63262718023E+01  0.70583503935E+02  0.70889492706E+02  0.17770000000E+01 0.  1.
         15    1    1    2    0    0 -0.10108382035E+02 -0.15569335049E+01  0.16631066483E+03  0.16663432538E+03  0.17770000000E+01 0. -1.
</event>
<event>
 6   1  0.1826851E-04  0.5058186E+03  0.7546771E-02  0.9386884E-01
        -11   -1    0    0    0    0  0.00000000000E+00  0.00000000000E+00  0.50000000000E+03  0.50000000000E+03  0.00000000000E+00 0. -1.
         11   -1    0    0    0    0 -0.00000000000E+00 -0.00000000000E+00 -0.50000000000E+03  0.50000000000E+03  0.00000000000E+00 0.  1.
        -11    1    1    2    0    0  0.12959609938E+02 -0.41412801125E+02  0.28500752196E+03  0.28829196860E+03  0.00000000000E+00 0. -1.
         11    1    1    2    0    0  0.10333524108E+02  0.12211123887E+01 -0.49407186849E+03  0.49418142829E+03  0.00000000000E+00 0.  1.
        -15    1    1    2    0    0 -0.10505247285E+01  0.48343170818E+01  0.10836863022E+03  0.10849604587E+03  0.17770000000E+01 0.  1.
         15    1    1    2    0    0 -0.22242609317E+02  0.35357371655E+02  0.10069571631E+03  0.10903055724E+03  0.17770000000E+01 0. -1.
</event>
<event>
 6   1  0.1826851E-04  0.5001340E+03  0.7546771E-02  0.9399510E-01
        -11   -1    0    0    0    0  0.00000000000E+00  0.00000000000E+00  0.50000000000E+03  0.50000000000E+03  0.00000000000E+00 0.  1.
         11   -1    0    0    0    0 -0.00000000000E+00 -0.00000000000E+00 -0.50000000000E+03  0.50000000000E+03  0.00000000000E+00 0.  1.
        -11    1    1    2    0    0 -0.10030790371E+02  0.51669413673E+01  0.33083711740E+03  0.33102947344E+03  0.00000000000E+00 0.  1.
         11    1    1    2    0    0  0.67465755051E+01 -0.14031328620E+01 -0.49981854567E+03  0.49986604572E+03  0.00000000000E+00 0.  1.
        -15    1    1    2    0    0  0.26645532119E+01 -0.17298214757E+01  0.10499090516E+03  0.10505398622E+03  0.17770000000E+01 0. -1.
         15    1    1    2    0    0  0.61966165413E+00 -0.20339870295E+01  0.63990523116E+02  0.64050494623E+02  0.17770000000E+01 0. -1.
</event>
<event>
 6   1  0.1826851E-04  0.5034995E+03  0.7546771E-02  0.9392013E-01
        -11   -1    0    0    0    0  0.00000000000E+00  0.00000000000E+00  0.50000000000E+03  0.50000000000E+03  0.00000000000E+00 0.  1.
         11   -1    0    0    0    0 -0.00000000000E+00 -0.00000000000E+00 -0.50000000000E+03  0.50000000000E+03  0.00000000000E+00 0. -1.
        -11    1    1    2    0    0  0.15383760651E+02 -0.86415757105E+01  0.49618687141E+03  0.49650050179E+03  0.00000000000E+00 0.  1.
         11    1    1    2    0    0 -0.34928880849E+01  0.53682194995E+01 -0.45353533047E+03  0.45358054856E+03  0.00000000000E+00 0. -1.
        -15    1    1    2    0    0 -0.44785069135E+01 -0.53719672193E+01 -0.35779694322E+02  0.36500127544E+02  0.17770000000E+01 0.  1.
         15    1    1    2    0    0 -0.74123656523E+01  0.86453234302E+01 -0.68718466179E+01  0.13418822106E+02  0.17770000000E+01 0. -1.
</event>
<event>
 6   1  0.1826851E-04  0.5010363E+03  0.7546771E-02  0.9397494E-01
        -11   -1    0    0    0    0  0.00000000000E+00  0.00000000000E+00  0.50000000000E+03  0.50000000000E+03  0.00000000000E+00 0.  1.
         11   -1    0    0    0    0 -0.00000000000E+00 -0.00000000000E+00 -0.50000000000E+03  0.50000000000E+03  0.00000000000E+00 0. -1.
        -11    1    1    2    0    0 -0.81126416782E+01  0.49958953326E+00  0.49889750574E+03  0.49896371189E+03  0.00000000000E+00 0.  1.
         11    1    1    2    0    0 -0.54485373073E+01 -0.90769828198E+01 -0.32936070475E+03  0.32953080585E+03  0.00000000000E+00 0. -1.
        -15    1    1    2    0    0  0.73421455155E+01  0.25925345744E+01 -0.17760786914E+02  0.19473870111E+02  0.17770000000E+01 0.  1.
         15    1    1    2    0    0  0.62190334701E+01  0.59848587121E+01 -0.15177601408E+03  0.15203161215E+03  0.17770000000E+01 0. -1.
</event>
<event>
 6   1  0.1826851E-04  0.5035013E+03  0.7546771E-02  0.9392009E-01
        -11   -1    0    0    0    0  0.00000000000E+00  0.00000000000E+00  0.50000000000E+03  0.50000000000E+03  0.00000000000E+00 0. -1.
         11   -1    0    0    0    0 -0.00000000000E+00 -0.00000000000E+00 -0.50000000000E+03  0.50000000000E+03  0.00000000000E+00 0.  1.
        -11    1    1    2    0    0 -0.72415018834E+02 -0.17891260077E+02  0.49086341042E+03  0.49649866045E+03  0.00000000000E+00 0. -1.
         11    1    1    2    0    0 -0.24295848700E+01  0.33419891618E+01 -0.25129819162E+03  0.25133215649E+03  0.00000000000E+00 0.  1.
        -15    1    1    2    0    0  0.28211352193E+02  0.14893549773E+02 -0.90966870447E+02  0.96414871598E+02  0.17770000000E+01 0. -1.
         15    1    1    2    0    0  0.46633251510E+02 -0.34427885802E+00 -0.14859834835E+03  0.15575431145E+03  0.17770000000E+01 0.  1.
</event>
<event>
 6   1  0.1826851E-04  0.5119057E+03  0.7546771E-02  0.9373557E-01
        -11   -1    0    0    0    0  0.00000000000E+00  0.00000000000E+00  0.50000000000E+03  0.50000000000E+03  0.00000000000E+00 0.  1.
         11   -1    0    0    0    0 -0.00000000000E+00 -0.00000000000E+00 -0.50000000000E+03  0.50000000000E+03  0.00000000000E+00 0. -1.
        -11    1    1    2    0    0 -0.72798965210E+01 -0.17485812930E+02  0.47607314302E+03  0.47644977495E+03  0.00000000000E+00 0.  1.
         11    1    1    2    0    0  0.12583708108E+02  0.54622488535E+01 -0.48790151645E+03  0.48809433067E+03  0.00000000000E+00 0. -1.
        -15    1    1    2    0    0 -0.12344711084E+02 -0.61048211111E+01  0.53450944897E+01  0.14879129566E+02  0.17770000000E+01 0. -1.
         15    1    1    2    0    0  0.70408994968E+01  0.18128385187E+02  0.64832789424E+01  0.20576764811E+02  0.17770000000E+01 0. -1.
</event>
<event>
 6   1  0.1826851E-04  0.5001495E+03  0.7546771E-02  0.9399475E-01
        -11   -1    0    0    0    0  0.00000000000E+00  0.00000000000E+00  0.50000000000E+03  0.50000000000E+03  0.00000000000E+00 0. -1.
         11   -1    0    0    0    0 -0.00000000000E+00 -0.00000000000E+00 -0.50000000000E+03  0.50000000000E+03  0.00000000000E+00 0. -1.
        -11    1    1    2    0    0 -0.27586512237E+02  0.32987703941E+02  0.49799732270E+03  0.49985051534E+03  0.00000000000E+00 0. -1.
         11    1    1    2    0    0 -0.86160296611E+00  0.21999406260E-01 -0.20281000324E+02  0.20299305845E+02  0.00000000000E+00 0. -1.
        -15    1    1    2    0    0  0.33612159715E+01 -0.88181481878E+01 -0.14224329533E+03  0.14256707301E+03  0.17770000000E+01 0.  1.
         15    1    1    2    0    0  0.25086899231E+02 -0.24191555159E+02 -0.33547302705E+03  0.33728310580E+03  0.17770000000E+01 0. -1.
</event>
<event>
 6   1  0.1826851E-04  0.5205530E+03  0.7546771E-02  0.9354960E-01
        -11   -1    0    0    0    0  0.00000000000E+00  0.00000000000E+00  0.50000000000E+03  0.50000000000E+03  0.00000000000E+00 0. -1.
         11   -1    0    0    0    0 -0.00000000000E+00 -0.00000000000E+00 -0.50000000000E+03  0.50000000000E+03  0.00000000000E+00 0. -1.
        -11    1    1    2    0    0  0.29652919439E+02  0.53286034578E+02  0.47555310322E+03  0.47944702637E+03  0.00000000000E+00 0. -1.
         11    1    1    2    0    0 -0.27062668197E+02 -0.41311707439E+01 -0.43065037989E+03  0.43151964530E+03  0.00000000000E+00 0. -1.
        -15    1    1    2    0    0  0.18079396880E+01  0.44992617079E+01  0.10538127377E+02  0.11735495705E+02  0.17770000000E+01 0.  1.
         15    1    1    2    0    0 -0.43981909297E+01 -0.53654125542E+02 -0.55440850715E+02  0.77297832623E+02  0.17770000000E+01 0. -1.
</event>
<event>
 6   1  0.1826851E-04  0.5082495E+03  0.7546771E-02  0.9381538E-01
        -11   -1    0    0    0    0  0.00000000000E+00  0.00000000000E+00  0.50000000000E+03  0.50000000000E+03  0.00000000000E+00 0.  1.
         11   -1    0    0    0    0 -0.00000000000E+00 -0.00000000000E+00 -0.50000000000E+03  0.50000000000E+03  0.00000000000E+00 0. -1.
        -11    1    1    2    0    0  0.29064207215E+02 -0.80370495126E+01  0.42550159446E+03  0.42656878600E+03  0.00000000000E+00 0.  1.
         11    1    1    2    0    0  0.28631919843E+00 -0.90072004424E+01 -0.49166787575E+03  0.49175045672E+03  0.00000000000E+00 0. -1.
        -15    1    1    2    0    0 -0.12164666401E+02 -0.98345338768E+01  0.18449214083E+02  0.24253420264E+02  0.17770000000E+01 0. -1.
         15    1    1    2    0    0 -0.17185860013E+02  0.26878783832E+02  0.47717067207E+02  0.57427337014E+02  0.17770000000E+01 0.  1.
</event>
<event>
 6   1  0.1826851E-04  0.5004093E+03  0.7546771E-02  0.9398894E-01
        -11   -1    0    0    0    0  0.00000000000E+00  0.00000000000E+00  0.50000000000E+03  0.50000000000E+03  0.00000000000E+00 0.  1.
         11   -1    0    0    0    0 -0.00000000000E+00 -0.00000000000E+00 -0.50000000000E+03  0.50000000000E+03  0.00000000000E+00 0. -1.
        -11    1    1    2    0    0  0.10643020240E+02 -0.24270702886E+01  0.49947146584E+03  0.49959074225E+03  0.00000000000E+00 0.  1.
         11    1    1    2    0    0 -0.48142176817E+01 -0.38656071476E+01 -0.43344002717E+03  0.43348399828E+03  0.00000000000E+00 0. -1.
        -15    1    1    2    0    0  0.57434093837E+00  0.21576835126E+01 -0.12293174199E+02  0.12620036709E+02  0.17770000000E+01 0.  1.
         15    1    1    2    0    0 -0.64031434963E+01  0.41349939235E+01 -0.53738264471E+02  0.54305222757E+02  0.17770000000E+01 0. -1.
</event>
<event>
 6   1  0.1826851E-04  0.4827592E+03  0.7546771E-02  0.9439236E-01
        -11   -1    0    0    0    0  0.00000000000E+00  0.00000000000E+00  0.50000000000E+03  0.50000000000E+03  0.00000000000E+00 0. -1.
         11   -1    0    0    0    0 -0.00000000000E+00 -0.00000000000E+00 -0.50000000000E+03  0.50000000000E+03  0.00000000000E+00 0.  1.
        -11    1    1    2    0    0 -0.14701518976E+02 -0.53295848796E+01  0.48867740428E+03  0.48892754533E+03  0.00000000000E+00 0. -1.
         11    1    1    2    0    0 -0.91293254731E+01 -0.43684661174E+01 -0.47689808927E+03  0.47700546709E+03  0.00000000000E+00 0.  1.
        -15    1    1    2    0    0  0.44532551586E+01  0.39459408944E+01 -0.12289594988E+02  0.13769306628E+02  0.17770000000E+01 0.  1.
         15    1    1    2    0    0  0.19377589291E+02  0.57521101026E+01  0.51027998314E+00  0.20297680952E+02  0.17770000000E+01 0. -1.
</event>
<event>
 6   1  0.1826851E-04  0.5045630E+03  0.7546771E-02  0.9389657E-01
        -11   -1    0    0    0    0  0.00000000000E+00  0.00000000000E+00  0.50000000000E+03  0.50000000000E+03  0.00000000000E+00 0.  1.
         11   -1    0    0    0    0 -0.00000000000E+00 -0.00000000000E+00 -0.50000000000E+03  0.50000000000E+03  0.00000000000E+00 0.  1.
        -11    1    1    2    0    0  0.17681881480E+02 -0.17950097833E+02  0.39643886902E+03  0.39723875920E+03  0.00000000000E+00 0.  1.
         11    1    1    2    0    0  0.75648471348E+01  0.16299703279E+02 -0.49511104977E+03  0.49543703823E+03  0.00000000000E+00 0.  1.
        -15    1    1    2    0    0  0.26602642761E+01 -0.72749911990E+01  0.55714675332E+01  0.97057448162E+01  0.17770000000E+01 0. -1.
         15    1    1    2    0    0 -0.27906992890E+02  0.89253857536E+01  0.93100713224E+02  0.97618457757E+02  0.17770000000E+01 0.  1.
</event>
<event>
 6   1  0.1826851E-04  0.5007041E+03  0.7546771E-02  0.9398236E-01
        -11   -1    0    0    0    0  0.00000000000E+00  0.00000000000E+00  0.50000000000E+03  0.50000000000E+03  0.00000000000E+00 0. -1.
         11   -1    0    0    0    0 -0.00000000000E+00 -0.00000000000E+00 -0.50000000000E+03  0.50000000000E+03  0.00000000000E+00 0.  1.
        -11    1    1    2    0    0  0.84717918262E+01  0.27683031191E+02  0.49845587859E+03  0.49929588860E+03  0.00000000000E+00 0. -1.
         11    1    1    2    0    0 -0.45834972132E+01 -0.10765236730E+02 -0.29440686063E+03  0.29463926818E+03  0.00000000000E+00 0.  1.
        -15    1    1    2    0    0 -0.27795748736E+01 -0.22525316115E+02 -0.16081264313E+03  0.16241607008E+03  0.17770000000E+01 0. -1.
         15    1    1    2    0    0 -0.11087197393E+01  0.56075216539E+01 -0.43236374829E+02  0.43648773132E+02  0.17770000000E+01 0.  1.
</event>
<event>
 6   1  0.1826851E-04  0.5002212E+03  0.7546771E-02  0.9399315E-01
        -11   -1    0    0    0    0  0.00000000000E+00  0.00000000000E+00  0.50000000000E+03  0.50000000000E+03  0.00000000000E+00 0.  1.
         11   -1    0    0    0    0 -0.00000000000E+00 -0.00000000000E+00 -0.50000000000E+03  0.50000000000E+03  0.00000000000E+00 0.  1.
        -11    1    1    2    0    0 -0.79181928721E+01  0.47641638647E+01  0.49969331736E+03  0.49977875750E+03  0.00000000000E+00 0.  1.
         11    1    1    2    0    0  0.70997845902E+01  0.11811466221E+01 -0.37807741187E+03  0.37814591286E+03  0.00000000000E+00 0.  1.
        -15    1    1    2    0    0 -0.27201144239E+01 -0.30070849705E+01 -0.29792455754E+02  0.30119590491E+02  0.17770000000E+01 0.  1.
         15    1    1    2    0    0  0.35385227058E+01 -0.29382255162E+01 -0.91823449733E+02  0.91955739147E+02  0.17770000000E+01 0.  1.
</event>
<event>
 6   1  0.1826851E-04  0.5056325E+03  0.7546771E-02  0.9387294E-01
        -11   -1    0    0    0    0  0.00000000000E+00  0.00000000000E+00  0.50000000000E+03  0.50000000000E+03  0.00000000000E+00 0. -1.
         11   -1    0    0    0    0 -0.00000000000E+00 -0.00000000000E+00 -0.50000000000E+03  0.50000000000E+03  0.00000000000E+00 0. -1.
        -11    1    1    2    0    0 -0.26965393977E+02 -0.14887241076E+02  0.42512279737E+03  0.42623720539E+03  0.00000000000E+00 0. -1.
         11    1    1    2    0    0 -0.75779604188E+01  0.42060317388E+01 -0.49429151525E+03  0.49436749310E+03  0.00000000000E+00 0. -1.
        -15    1    1    2    0    0  0.86788267272E+01  0.75060457259E+01  0.31372031959E+02  0.33451829159E+02  0.17770000000E+01 0.  1.
         15    1    1    2    0    0  0.25864527668E+02  0.31751636110E+01  0.37796685923E+02  0.45943472346E+02  0.17770000000E+01 0. -1.
</event>
<event>
 6   1  0.1826851E-04  0.5102691E+03  0.7546771E-02  0.9377121E-01
        -11   -1    0    0    0    0  0.00000000000E+00  0.00000000000E+00  0.50000000000E+03  0.50000000000E+03  0.00000000000E+00 0. -1.
         11   -1    0    0    0    0 -0.00000000000E+00 -0.00000000000E+00 -0.50000000000E+03  0.50000000000E+03  0.00000000000E+00 0.  1.
        -11    1    1    2    0    0 -0.20852270584E+01  0.46965402143E+02  0.48746926713E+03  0.48973092977E+03  0.00000000000E+00 0. -1.
         11    1    1    2    0    0 -0.39246392396E+01  0.16289293671E+02 -0.38693989069E+03  0.38730249533E+03  0.00000000000E+00 0.  1.
        -15    1    1    2    0    0 -0.10246359170E+02 -0.16870841112E+02 -0.17375390206E+02  0.26356689282E+02  0.17770000000E+01 0. -1.
         15    1    1    2    0    0  0.16256225468E+02 -0.46383854702E+02 -0.83153986242E+02  0.96609885625E+02  0.17770000000E+01 0.  1.
</event>
<event>
 6   1  0.1826851E-04  0.5015902E+03  0.7546771E-02  0.9396259E-01
        -11   -1    0    0    0    0  0.00000000000E+00  0.00000000000E+00  0.50000000000E+03  0.50000000000E+03  0.00000000000E+00 0.  1.
         11   -1    0    0    0    0 -0.00000000000E+00 -0.00000000000E+00 -0.50000000000E+03  0.50000000000E+03  0.00000000000E+00 0.  1.
        -11    1    1    2    0    0  0.97609349500E+01 -0.21799455810E+01  0.40524218154E+03  0.40536558032E+03  0.00000000000E+00 0.  1.
         11    1    1    2    0    0  0.13004262287E+02 -0.43844772901E+01 -0.49822084438E+03  0.49840981557E+03  0.00000000000E+00 0.  1.
        -15    1    1    2    0    0 -0.17294360506E+02  0.21441541967E+01  0.64467945191E+02  0.66805433826E+02  0.17770000000E+01 0.  1.
         15    1    1    2    0    0 -0.54708367310E+01  0.44202686744E+01  0.28510717657E+02  0.29419170281E+02  0.17770000000E+01 0. -1.
</event>
<event>
 6   1  0.1826851E-04  0.5014812E+03  0.7546771E-02  0.9396502E-01
        -11   -1    0    0    0    0  0.00000000000E+00  0.00000000000E+00  0.50000000000E+03  0.50000000000E+03  0.00000000000E+00 0. -1.
         11   -1    0    0    0    0 -0.00000000000E+00 -0.00000000000E+00 -0.50000000000E+03  0.50000000000E+03  0.00000000000E+00 0. -1.
        -11    1    1    2    0    0 -0.15509330109E+02  0.55679096065E+00  0.45801889580E+03  0.45828174548E+03  0.00000000000E+00 0. -1.
         11    1    1    2    0    0  0.61704376296E+01  0.59442255983E+01 -0.49844521046E+03  0.49851884212E+03  0.00000000000E+00 0. -1.
        -15    1    1    2    0    0  0.83560218638E+01 -0.18255244905E+01  0.33369999629E+02  0.34494495870E+02  0.17770000000E+01 0.  1.
         15    1    1    2    0    0  0.98287061598E+00 -0.46754920684E+01  0.70563150396E+01  0.87049165228E+01  0.17770000000E+01 0. -1.
</event>
<event>
 6   1  0.1826851E-04  0.5001446E+03  0.7546771E-02  0.9399486E-01
        -11   -1    0    0    0    0  0.00000000000E+00  0.00000000000E+00  0.50000000000E+03  0.50000000000E+03  0.00000000000E+00 0.  1.
         11   -1    0    0    0    0 -0.00000000000E+00 -0.00000000000E+00 -0.50000000000E+03  0.50000000000E+03  0.00000000000E+00 0. -1.
        -11    1    1    2    0    0 -0.23410882902E+01 -0.12186845610E+01  0.11505048742E+02  0.11803899059E+02  0.00000000000E+00 0.  1.
         11    1    1    2    0    0  0.10648195399E+02 -0.43714187510E+01 -0.49972284896E+03  0.49985539823E+03  0.00000000000E+00 0. -1.
        -15    1    1    2    0    0 -0.51858593158E+01  0.43803787201E+01  0.35333064084E+03  0.35340031175E+03  0.17770000000E+01 0.  1.
         15    1    1    2    0    0 -0.31212477925E+01  0.12097245919E+01  0.13488715937E+03  0.13494039097E+03  0.17770000000E+01 0.  1.
</event>
<event>
 6   1  0.1826851E-04  0.5004485E+03  0.7546771E-02  0.9398807E-01
        -11   -1    0    0    0    0  0.00000000000E+00  0.00000000000E+00  0.50000000000E+03  0.50000000000E+03  0.00000000000E+00 0. -1.
         11   -1    0    0    0    0 -0.00000000000E+00 -0.00000000000E+00 -0.50000000000E+03  0.50000000000E+03  0.00000000000E+00 0.  1.
        -11    1    1    2    0    0 -0.54198836817E+01  0.33910688916E+01  0.27645574806E+02  0.28375205615E+02  0.00000000000E+00 0. -1.
         11    1    1    2    0    0 -0.73582457601E+01  0.45011014609E+00 -0.49949714534E+03  0.49955154347E+03  0.00000000000E+00 0.  1.
        -15    1    1    2    0    0  0.28818492276E+01 -0.23794476171E+01  0.10632353634E+03  0.10640403627E+03  0.17770000000E+01 0. -1.
         15    1    1    2    0    0  0.98962802142E+01 -0.14617314206E+01  0.36552803420E+03  0.36566921464E+03  0.17770000000E+01 0. -1.
</event>
<event>
 6   1  0.1826851E-04  0.4877620E+03  0.7546771E-02  0.9427617E-01
        -11   -1    0    0    0    0  0.00000000000E+00  0.00000000000E+00  0.50000000000E+03  0.50000000000E+03  0.00000000000E+00 0. -1.
         11   -1    0    0    0    0 -0.00000000000E+00 -0.00000000000E+00 -0.50000000000E+03  0.50000000000E+03  0.00000000000E+00 0. -1.
        -11    1    1    2    0    0  0.89693536907E+01  0.65835288558E+01  0.48727313916E+03  0.48740014803E+03  0.00000000000E+00 0. -1.
         11    1    1    2    0    0  0.60365188746E+01  0.10535068313E+02 -0.48823893598E+03  0.48838989121E+03  0.00000000000E+00 0. -1.
        -15    1    1    2    0    0 -0.14930118045E+02 -0.13996711116E+02  0.14061472433E+01  0.20590078338E+02  0.17770000000E+01 0.  1.
         15    1    1    2    0    0 -0.75754519847E-01 -0.31218860526E+01 -0.44035041763E+00  0.36198824239E+01  0.17770000000E+01 0. -1.
</event>
<event>
 6   1  0.1826851E-04  0.4746864E+03  0.7546771E-02  0.9458303E-01
        -11   -1    0    0    0    0  0.00000000000E+00  0.00000000000E+00  0.50000000000E+03  0.50000000000E+03  0.00000000000E+00 0. -1.
         11   -1    0    0    0    0 -0.00000000000E+00 -0.00000000000E+00 -0.50000000000E+03  0.50000000000E+03  0.00000000000E+00 0.  1.
        -11    1    1    2    0    0 -0.27339467293E+02 -0.18715090513E+02  0.46857736504E+03  0.46974721724E+03  0.00000000000E+00 0. -1.
         11    1    1    2    0    0 -0.23401943845E+01 -0.14293190107E+02 -0.48051963043E+03  0.48073785686E+03  0.00000000000E+00 0.  1.
        -15    1    1    2    0    0  0.25876371080E+02  0.34611638420E+02  0.12410171425E+02  0.44996912985E+02  0.17770000000E+01 0. -1.
         15    1    1    2    0    0  0.38032905979E+01 -0.16033577998E+01 -0.46790603570E+00  0.45180129111E+01  0.17770000000E+01 0.  1.
</event>
<event>
 6   1  0.1826851E-04  0.5125722E+03  0.7546771E-02  0.9372110E-01
        -11   -1    0    0    0    0  0.00000000000E+00  0.00000000000E+00  0.50000000000E+03  0.50000000000E+03  0.00000000000E+00 0.  1.
         11   -1    0    0    0    0 -0.00000000000E+00 -0.00000000000E+00 -0.50000000000E+03  0.50000000000E+03  0.00000000000E+00 0. -1.
        -11    1    1    2    0    0 -0.43657322454E+02 -0.13974062146E+02  0.48526759218E+03  0.48742781234E+03  0.00000000000E+00 0.  1.
         11    1    1    2    0    0 -0.19808635924E+02  0.62889073463E+01 -0.41505658333E+03  0.41557658714E+03  0.00000000000E+00 0. -1.
        -15    1    1    2    0    0  0.52100823556E+02  0.94813408721E+01 -0.46152625311E+02  0.70268159163E+02  0.17770000000E+01 0. -1.
         15    1    1    2    0    0  0.11365134821E+02 -0.17961860720E+01 -0.24058383538E+02  0.26727441355E+02  0.17770000000E+01 0.  1.
</event>
<event>
 6   1  0.1826851E-04  0.5019515E+03  0.7546771E-02  0.9395454E-01
        -11   -1    0    0    0    0  0.00000000000E+00  0.00000000000E+00  0.50000000000E+03  0.50000000000E+03  0.00000000000E+00 0. -1.
         11   -1    0    0    0    0 -0.00000000000E+00 -0.00000000000E+00 -0.50000000000E+03  0.50000000000E+03  0.00000000000E+00 0.  1.
        -11    1    1    2    0    0 -0.24002527290E+02  0.50078325557E+02  0.49494272267E+03  0.49804845019E+03  0.00000000000E+00 0. -1.
         11    1    1    2    0    0 -0.15171119758E+00 -0.59658835477E+01 -0.30517325669E+03  0.30523160285E+03  0.00000000000E+00 0.  1.
        -15    1    1    2    0    0  0.17995436389E+01 -0.82785137660E+00 -0.16907883180E+02  0.17116014075E+02  0.17770000000E+01 0. -1.
         15    1    1    2    0    0  0.22354694848E+02 -0.43284590632E+02 -0.17286158281E+03  0.17960393289E+03  0.17770000000E+01 0. -1.
</event>
<event>
 6   1  0.1826851E-04  0.4698923E+03  0.7546771E-02  0.9469818E-01
        -11   -1    0    0    0    0  0.00000000000E+00  0.00000000000E+00  0.50000000000E+03  0.50000000000E+03  0.00000000000E+00 0.  1.
         11   -1    0    0    0    0 -0.00000000000E+00 -0.00000000000E+00 -0.50000000000E+03  0.50000000000E+03  0.00000000000E+00 0. -1.
        -11    1    1    2    0    0  0.14080687568E+02  0.38296828471E+02  0.46508421746E+03  0.46687069105E+03  0.00000000000E+00 0.  1.
         11    1    1    2    0    0 -0.17438728520E+02  0.15250365278E+02 -0.47391973955E+03  0.47448561878E+03  0.00000000000E+00 0. -1.
        -15    1    1    2    0    0 -0.90989480450E+01 -0.19475762753E+02  0.17714189823E+01  0.21642362268E+02  0.17770000000E+01 0.  1.
         15    1    1    2    0    0  0.12456988997E+02 -0.34071430997E+02  0.70641031063E+01  0.37001327905E+02  0.17770000000E+01 0. -1.
</event>
<event>
 6   1  0.1826851E-04  0.5005450E+03  0.7546771E-02  0.9398591E-01
        -11   -1    0    0    0    0  0.00000000000E+00  0.00000000000E+00  0.50000000000E+03  0.50000000000E+03  0.00000000000E+00 0.  1.
         11   -1    0    0    0    0 -0.00000000000E+00 -0.00000000000E+00 -0.50000000000E+03  0.50000000000E+03  0.00000000000E+00 0.  1.
        -11    1    1    2    0    0 -0.10408184798E+02  0.68273516931E+01  0.31823915739E+03  0.31848250240E+03  0.00000000000E+00 0.  1.
         11    1    1    2    0    0 -0.59976974321E+01 -0.55125138121E+01 -0.49938860637E+03  0.49945504338E+03  0.00000000000E+00 0.  1.
        -15    1    1    2    0    0  0.72320492614E+01 -0.16383995410E+01  0.11538352598E+03  0.11563521387E+03  0.17770000000E+01 0. -1.
         15    1    1    2    0    0  0.91738329691E+01  0.32356166000E+00  0.65765923001E+02  0.66427240352E+02  0.17770000000E+01 0.  1.
</event>
<event>
 6   1  0.1826851E-04  0.5049516E+03  0.7546771E-02  0.9388798E-01
        -11   -1    0    0    0    0  0.00000000000E+00  0.00000000000E+00  0.50000000000E+03  0.50000000000E+03  0.00000000000E+00 0. -1.
         11   -1    0    0    0    0 -0.00000000000E+00 -0.00000000000E+00 -0.50000000000E+03  0.50000000000E+03  0.00000000000E+00 0. -1.
        -11    1    1    2    0    0 -0.17300741422E+02 -0.17893335350E+01  0.49474276709E+03  0.49504840466E+03  0.00000000000E+00 0. -1.
         11    1    1    2    0    0  0.28460415625E+01 -0.16135268730E+02 -0.46843381470E+03  0.46872026370E+03  0.00000000000E+00 0. -1.
        -15    1    1    2    0    0  0.12757393618E+01  0.69636833781E+01 -0.10872898781E+02  0.13095726556E+02  0.17770000000E+01 0. -1.
         15    1    1    2    0    0  0.13178960498E+02  0.10960918887E+02 -0.15436053613E+02  0.23135605089E+02  0.17770000000E+01 0.  1.
</event>
<event>
 6   1  0.1826851E-04  0.5001111E+03  0.7546771E-02  0.9399561E-01
        -11   -1    0    0    0    0  0.00000000000E+00  0.00000000000E+00  0.50000000000E+03  0.50000000000E+03  0.00000000000E+00 0.  1.
         11   -1    0    0    0    0 -0.00000000000E+00 -0.00000000000E+00 -0.50000000000E+03  0.50000000000E+03  0.00000000000E+00 0. -1.
        -11    1    1    2    0    0 -0.12524759159E+01 -0.72731451708E+01  0.49983436938E+03  0.49988885180E+03  0.00000000000E+00 0.  1.
         11    1    1    2    0    0  0.60980718529E+01  0.13896859997E+01 -0.27892423946E+03  0.27899435310E+03  0.00000000000E+00 0. -1.
        -15    1    1    2    0    0 -0.32078125527E+01  0.44048546930E+01 -0.93706885566E+02  0.93882005399E+02  0.17770000000E+01 0. -1.
         15    1    1    2    0    0 -0.16377833843E+01  0.14786044782E+01 -0.12720324436E+03  0.12723478970E+03  0.17770000000E+01 0.  1.
</event>
<event>
 6   1  0.1826851E-04  0.5020498E+03  0.7546771E-02  0.9395235E-01
        -11   -1    0    0    0    0  0.00000000000E+00  0.00000000000E+00  0.50000000000E+03  0.50000000000E+03  0.00000000000E+00 0. -1.
         11   -1    0    0    0    0 -0.00000000000E+00 -0.00000000000E+00 -0.50000000000E+03  0.50000000000E+03  0.00000000000E+00 0. -1.
        -11    1    1    2    0    0 -0.15401532367E+02  0.37293074056E+02  0.49631284835E+03  0.49795022242E+03  0.00000000000E+00 0. -1.
         11    1    1    2    0    0  0.50395448280E+01 -0.28866098830E+01 -0.24382292737E+03  0.24389208565E+03  0.00000000000E+00 0. -1.
        -15    1    1    2    0    0  0.57021090357E+01 -0.41031834523E+02 -0.23688154447E+03  0.24048315810E+03  0.17770000000E+01 0. -1.
         15    1    1    2    0    0  0.46598785033E+01  0.66253703496E+01 -0.15608376511E+02  0.17674533834E+02  0.17770000000E+01 0.  1.
</event>
<event>
 6   1  0.1826851E-04  0.5072391E+03  0.7546771E-02  0.9383756E-01
        -11   -1    0    0    0    0  0.00000000000E+00  0.00000000000E+00  0.50000000000E+03  0.50000000000E+03  0.00000000000E+00 0. -1.
         11   -1    0    0    0    0 -0.00000000000E+00 -0.00000000000E+00 -0.50000000000E+03  0.50000000000E+03  0.00000000000E+00 0.  1.
        -11    1    1    2    0    0  0.28978311023E+02 -0.11957844865E+03  0.47715259783E+03  0.49276094559E+03  0.00000000000E+00 0. -1.
         11    1    1    2    0    0 -0.34444250684E+02  0.11989603818E+03 -0.25659213076E+03  0.28530858372E+03  0.00000000000E+00 0.  1.
        -15    1    1    2    0    0  0.10524732989E+02 -0.62029940508E+01 -0.18821991127E+03  0.18862433530E+03  0.17770000000E+01 0.  1.
         15    1    1    2    0    0 -0.50587933285E+01  0.58854045196E+01 -0.32340555793E+02  0.33306135385E+02  0.17770000000E+01 0. -1.
</event>
<event>
 6   1  0.1826851E-04  0.4551216E+03  0.7546771E-02  0.9506237E-01
        -11   -1    0    0    0    0  0.00000000000E+00  0.00000000000E+00  0.50000000000E+03  0.50000000000E+03  0.00000000000E+00 0. -1.
         11   -1    0    0    0    0 -0.00000000000E+00 -0.00000000000E+00 -0.50000000000E+03  0.50000000000E+03  0.00000000000E+00 0.  1.
        -11    1    1    2    0    0  0.35920370574E+02 -0.35994460620E+02  0.43081347530E+03  0.43380424700E+03  0.00000000000E+00 0. -1.
         11    1    1    2    0    0  0.12287476298E+02 -0.10212199376E+02 -0.47994039678E+03  0.48020626354E+03  0.00000000000E+00 0.  1.
        -15    1    1    2    0    0 -0.12536442054E+02  0.20338863401E+01  0.14944840721E+02  0.19692766849E+02  0.17770000000E+01 0. -1.
         15    1    1    2    0    0 -0.35671404818E+02  0.44172773656E+02  0.34182080754E+02  0.66296722602E+02  0.17770000000E+01 0.  1.
</event>
<event>
 6   1  0.1826851E-04  0.5059684E+03  0.7546771E-02  0.9386553E-01
        -11   -1    0    0    0    0  0.00000000000E+00  0.00000000000E+00  0.50000000000E+03  0.50000000000E+03  0.00000000000E+00 0.  1.
         11   -1    0    0    0    0 -0.00000000000E+00 -0.00000000000E+00 -0.50000000000E+03  0.50000000000E+03  0.00000000000E+00 0. -1.
        -11    1    1    2    0    0 -0.11630504901E+02 -0.13440160541E+02  0.49371182069E+03  0.49403164721E+03  0.00000000000E+00 0.  1.
         11    1    1    2    0    0 -0.94844019923E+01  0.51270625305E+00 -0.46780637532E+03  0.46790279069E+03  0.00000000000E+00 0. -1.
        -15    1    1    2    0    0  0.12818930909E+02  0.75315861654E+01 -0.23269912878E+02  0.27671218878E+02  0.17770000000E+01 0. -1.
         15    1    1    2    0    0  0.82959759838E+01  0.53958681225E+01 -0.26355324916E+01  0.10394343213E+02  0.17770000000E+01 0.  1.
</event>
<event>
 6   1  0.1826851E-04  0.5012828E+03  0.7546771E-02  0.9396944E-01
        -11   -1    0    0    0    0  0.00000000000E+00  0.00000000000E+00  0.50000000000E+03  0.50000000000E+03  0.00000000000E+00 0. -1.
         11   -1    0    0    0    0 -0.00000000000E+00 -0.00000000000E+00 -0.50000000000E+03  0.50000000000E+03  0.00000000000E+00 0. -1.
        -11    1    1    2    0    0 -0.25462805847E+01  0.44698755009E+01  0.47079887126E+01  0.69734130472E+01  0.00000000000E+00 0. -1.
         11    1    1    2    0    0 -0.55776017265E+01 -0.56733310786E+01 -0.49865378113E+03  0.49871724430E+03  0.00000000000E+00 0. -1.
        -15    1    1    2    0    0  0.59837977427E+01 -0.19844070013E+01  0.46591644743E+03  0.46596248499E+03  0.17770000000E+01 0. -1.
         15    1    1    2    0    0  0.21400845684E+01  0.31878625790E+01  0.28029344992E+02  0.28346857664E+02  0.17770000000E+01 0.  1.
</event>
<event>
 6   1  0.1826851E-04  0.5027742E+03  0.7546771E-02  0.9393623E-01
        -11   -1    0    0    0    0  0.00000000000E+00  0.00000000000E+00  0.50000000000E+03  0.50000000000E+03  0.00000000000E+00 0. -1.
         11   -1    0    0    0    0 -0.00000000000E+00 -0.00000000000E+00 -0.50000000000E+03  0.50000000000E+03  0.00000000000E+00 0.  1.
        -11    1    1    2    0    0 -0.57331445855E+01  0.16627585864E+02  0.49691460684E+03  0.49722577573E+03  0.00000000000E+00 0. -1.
         11    1    1    2    0    0  0.93764839452E+01 -0.92426717573E+01 -0.48967398087E+03  0.48985094976E+03  0.00000000000E+00 0.  1.
        -15    1    1    2    0    0 -0.17134825958E+00 -0.27703460680E+01  0.24335893650E+00  0.33047133211E+01  0.17770000000E+01 0. -1.
         15    1    1    2    0    0 -0.34719911001E+01 -0.46145680389E+01 -0.74839849042E+01  0.96185611934E+01  0.17770000000E+01 0.  1.
</event>
<event>
 6   1  0.1826851E-04  0.5029950E+03  0.7546771E-02  0.9393133E-01
        -11   -1    0    0    0    0  0.00000000000E+00  0.00000000000E+00  0.50000000000E+03  0.50000000000E+03  0.00000000000E+00 0. -1.
         11   -1    0    0    0    0 -0.00000000000E+00 -0.00000000000E+00 -0.50000000000E+03  0.50000000000E+03  0.00000000000E+00 0. -1.
        -11    1    1    2    0    0  0.16459606743E+02  0.18709281284E+02  0.49637986071E+03  0.49700495166E+03  0.00000000000E+00 0. -1.
         11    1    1    2    0    0  0.44961125584E+00 -0.76595868238E+01 -0.45785084501E+03  0.45791513155E+03  0.00000000000E+00 0. -1.
        -15    1    1    2    0    0 -0.99306388712E+01 -0.12697288595E+01 -0.24487496991E+02  0.26514619319E+02  0.17770000000E+01 0. -1.
         15    1    1    2    0    0 -0.69785791274E+01 -0.97799656005E+01 -0.14041518704E+02  0.18565297474E+02  0.17770000000E+01 0.  1.
</event>
<event>
 6   1  0.1826851E-04  0.5027813E+03  0.7546771E-02  0.9393608E-01
        -11   -1    0    0    0    0  0.00000000000E+00  0.00000000000E+00  0.50000000000E+03  0.50000000000E+03  0.00000000000E+00 0.  1.
         11   -1    0    0    0    0 -0.00000000000E+00 -0.00000000000E+00 -0.50000000000E+03  0.50000000000E+03  0.00000000000E+00 0.  1.
        -11    1    1    2    0    0 -0.12681484993E+02  0.76245527527E+01  0.45602424781E+03  0.45626425288E+03  0.00000000000E+00 0.  1.
         11    1    1    2    0    0  0.32913838612E+01  0.68428551415E+01 -0.49716073083E+03  0.49721871460E+03  0.00000000000E+00 0.  1.
        -15    1    1    2    0    0 -0.18567641029E+01 -0.11309893419E+01  0.15199508677E+01  0.31929123799E+01  0.17770000000E+01 0.  1.
         15    1    1    2    0    0  0.11246865235E+02 -0.13336418552E+02  0.39616532151E+02  0.43324120142E+02  0.17770000000E+01 0. -1.
</event>
<event>
 6   1  0.1826851E-04  0.4840598E+03  0.7546771E-02  0.9436201E-01
        -11   -1    0    0    0    0  0.00000000000E+00  0.00000000000E+00  0.50000000000E+03  0.50000000000E+03  0.00000000000E+00 0.  1.
         11   -1    0    0    0    0 -0.00000000000E+00 -0.00000000000E+00 -0.50000000000E+03  0.50000000000E+03  0.00000000000E+00 0. -1.
        -11    1    1    2    0    0 -0.90286394005E+01 -0.30075467601E+02 -0.24128401049E+01  0.31493997495E+02  0.00000000000E+00 0.  1.
         11    1    1    2    0    0 -0.11379461131E+02  0.62599403509E+01 -0.48238981790E+03  0.48256462304E+03  0.00000000000E+00 0. -1.
        -15    1    1    2    0    0  0.19295734253E+02  0.17092174491E+02  0.34824680554E+03  0.34920404220E+03  0.17770000000E+01 0.  1.
         15    1    1    2    0    0  0.11123662789E+01  0.67233527592E+01  0.13655585247E+03  0.13673733727E+03  0.17770000000E+01 0.  1.
</event>
<event>
 6   1  0.1826851E-04  0.4893649E+03  0.7546771E-02  0.9423926E-01
        -11   -1    0    0    0    0  0.00000000000E+00  0.00000000000E+00  0.50000000000E+03  0.50000000000E+03  0.00000000000E+00 0. -1.
         11   -1    0    0    0    0 -0.00000000000E+00 -0.00000000000E+00 -0.50000000000E+03  0.50000000000E+03  0.00000000000E+00 0.  1.
        -11    1    1    2    0    0 -0.14920952706E+02  0.26317302775E+01  0.49184842227E+03  0.49208173236E+03  0.00000000000E+00 0. -1.
         11    1    1    2    0    0  0.41615402970E+01 -0.70411632001E+01 -0.48666223456E+03  0.48673095951E+03  0.00000000000E+00 0.  1.
        -15    1    1    2    0    0  0.89820594218E+01 -0.32992530489E+01  0.24643746734E+01  0.10039588322E+02  0.17770000000E+01 0.  1.
         15    1    1    2    0    0  0.17773529876E+01  0.77086859715E+01 -0.76505623887E+01  0.11147719808E+02  0.17770000000E+01 0. -1.
</event>
<event>
 6   1  0.1826851E-04  0.4921635E+03  0.7546771E-02  0.9417517E-01
        -11   -1    0    0    0    0  0.00000000000E+00  0.00000000000E+00  0.50000000000E+03  0.50000000000E+03  0.00000000000E+00 0. -1.
         11   -1    0    0    0    0 -0.00000000000E+00 -0.00000000000E+00 -0.50000000000E+03  0.50000000000E+03  0.00000000000E+00 0.  1.
        -11    1    1    2    0    0  0.10091126076E+02  0.61598278650E+01  0.48893253451E+03  0.48907545185E+03  0.00000000000E+00 0. -1.
         11    1    1    2    0    0  0.14256095303E+01 -0.98825330929E+01 -0.49524558323E+03  0.49534622693E+03  0.00000000000E+00 0.  1.
        -15    1    1    2    0    0 -0.99347659378E+01  0.52878437718E+01  0.50161939240E+01  0.12449128342E+02  0.17770000000E+01 0. -1.
         15    1    1    2    0    0 -0.15819696687E+01 -0.15651385440E+01  0.12968548015E+01  0.31291928785E+01  0.17770000000E+01 0. -1.
</event>
<event>
 6   1  0.1826851E-04  0.5039750E+03  0.7546771E-02  0.9390959E-01
        -11   -1    0    0    0    0  0.00000000000E+00  0.00000000000E+00  0.50000000000E+03  0.50000000000E+03  0.00000000000E+00 0.  1.
         11   -1    0    0    0    0 -0.00000000000E+00 -0.00000000000E+00 -0.50000000000E+03  0.50000000000E+03  0.00000000000E+00 0. -1.
        -11    1    1    2    0    0  0.10271704280E+02  0.10990058272E+02  0.49579685657E+03  0.49602501174E+03  0.00000000000E+00 0.  1.
         11    1    1    2    0    0 -0.42528203177E+01  0.59744282027E+01 -0.47627462761E+03  0.47633108357E+03  0.00000000000E+00 0. -1.
        -15    1    1    2    0    0 -0.10110660902E+00 -0.76664694902E+01 -0.49913359068E+01  0.93196641637E+01  0.17770000000E+01 0. -1.
         15    1    1    2    0    0 -0.59177773531E+01 -0.92980169849E+01 -0.14530893056E+02  0.18324240521E+02  0.17770000000E+01 0.  1.
</event>
<event>
 6   1  0.1826851E-04  0.4919759E+03  0.7546771E-02  0.9417945E-01
        -11   -1    0    0    0    0  0.00000000000E+00  0.00000000000E+00  0.50000000000E+03  0.50000000000E+03  0.00000000000E+00 0. -1.
         11   -1    0    0    0    0 -0.00000000000E+00 -0.00000000000E+00 -0.50000000000E+03  0.50000000000E+03  0.00000000000E+00 0. -1.
        -11    1    1    2    0    0  0.17116844573E+02  0.39749339486E+01  0.48928269487E+03  0.48959814334E+03  0.00000000000E+00 0. -1.
         11    1    1    2    0    0 -0.72460996196E+01  0.36878199771E+01 -0.49437941152E+03  0.49444626454E+03  0.00000000000E+00 0. -1.
        -15    1    1    2    0    0 -0.27886878183E+01 -0.53943772859E+01  0.53788292600E+01  0.83045541277E+01  0.17770000000E+01 0. -1.
         15    1    1    2    0    0 -0.70820571349E+01 -0.22683766398E+01 -0.28211260595E+00  0.76510379926E+01  0.17770000000E+01 0.  1.
</event>
<event>
 6   1  0.1826851E-04  0.5004869E+03  0.7546771E-02  0.9398721E-01
        -11   -1    0    0    0    0  0.00000000000E+00  0.00000000000E+00  0.50000000000E+03  0.50000000000E+03  0.00000000000E+00 0. -1.
         11   -1    0    0    0    0 -0.00000000000E+00 -0.00000000000E+00 -0.50000000000E+03  0.50000000000E+03  0.00000000000E+00 0.  1.
        -11    1    1    2    0    0  0.14238770365E+02  0.13187095696E+02  0.49913591970E+03  0.49951307131E+03  0.00000000000E+00 0. -1.
         11    1    1    2    0    0  0.44050288710E+01  0.32984447795E+01 -0.22956814609E+03  0.22963409529E+03  0.00000000000E+00 0.  1.
        -15    1    1    2    0    0 -0.26016922144E+01 -0.60253462501E-01 -0.43975824207E+02  0.44088584424E+02  0.17770000000E+01 0. -1.
         15    1    1    2    0    0 -0.16042107022E+02 -0.16425287013E+02 -0.22559194940E+03  0.22676424898E+03  0.17770000000E+01 0.  1.
</event>
<event>
 6   1  0.1826851E-04  0.5018313E+03  0.7546771E-02  0.9395721E-01
        -11   -1    0    0    0    0  0.00000000000E+00  0.00000000000E+00  0.50000000000E+03  0.50000000000E+03  0.00000000000E+00 0.  1.
         11   -1    0    0    0    0 -0.00000000000E+00 -0.00000000000E+00 -0.50000000000E+03  0.50000000000E+03  0.00000000000E+00 0.  1.
        -11    1    1    2    0    0  0.95256908564E+01 -0.32084199849E+01  0.47793368947E+03  0.47803937523E+03  0.00000000000E+00 0.  1.
         11    1    1    2    0    0 -0.73648940813E+01 -0.34376870533E+01 -0.49810238068E+03  0.49816868729E+03  0.00000000000E+00 0.  1.
        -15    1    1    2    0    0  0.32327620801E+01  0.23714117428E+01  0.33045199604E+01  0.54910768970E+01  0.17770000000E+01 0.  1.
         15    1    1    2    0    0 -0.53935588551E+01  0.42746952954E+01  0.16864171251E+02  0.18300860580E+02  0.17770000000E+01 0. -1.
</event>
<event>
 6   1  0.1826851E-04  0.5082349E+03  0.7546771E-02  0.9381570E-01
        -11   -1    0    0    0    0  0.00000000000E+00  0.00000000000E+00  0.50000000000E+03  0.50000000000E+03  0.00000000000E+00 0.  1.
         11   -1    0    0    0    0 -0.00000000000E+00 -0.00000000000E+00 -0.50000000000E+03  0.50000000000E+03  0.00000000000E+00 0. -1.
        -11    1    1    2    0    0  0.14954476351E+02 -0.35539937409E+01  0.48611503092E+03  0.48635798597E+03  0.00000000000E+00 0.  1.
         11    1    1    2    0    0 -0.91607671810E+01  0.72381695672E+00 -0.49167920616E+03  0.49176507129E+03  0.00000000000E+00 0. -1.
        -15    1    1    2    0    0  0.75489498310E+00  0.56929692065E+01 -0.57881209849E+01  0.83450487331E+01  0.17770000000E+01 0. -1.
         15    1    1    2    0    0 -0.65486041535E+01 -0.28627924223E+01  0.11352296225E+02  0.13531894006E+02  0.17770000000E+01 0.  1.
</event>
<event>
 6   1  0.1826851E-04  0.5009244E+03  0.7546771E-02  0.9397744E-01
        -11   -1    0    0    0    0  0.00000000000E+00  0.00000000000E+00  0.50000000000E+03  0.50000000000E+03  0.00000000000E+00 0. -1.
         11   -1    0    0    0    0 -0.00000000000E+00 -0.00000000000E+00 -0.50000000000E+03  0.50000000000E+03  0.00000000000E+00 0. -1.
        -11    1    1    2    0    0 -0.90910620495E+01  0.19911824052E+00  0.46459538182E+03  0.46468436155E+03  0.00000000000E+00 0. -1.
         11    1    1    2    0    0  0.69414643358E+01  0.59068512869E+01 -0.49899234073E+03  0.49907557637E+03  0.00000000000E+00 0. -1.
        -15    1    1    2    0    0  0.36925367219E+01 -0.17259086800E+01  0.26761177839E+02  0.27128065846E+02  0.17770000000E+01 0.  1.
         15    1    1    2    0    0 -0.15429390081E+01 -0.43800608474E+01  0.76357810707E+01  0.91119962341E+01  0.17770000000E+01 0. -1.
</event>
<event>
 6   1  0.1826851E-04  0.5081610E+03  0.7546771E-02  0.9381732E-01
        -11   -1    0    0    0    0  0.00000000000E+00  0.00000000000E+00  0.50000000000E+03  0.50000000000E+03  0.00000000000E+00 0.  1.
         11   -1    0    0    0    0 -0.00000000000E+00 -0.00000000000E+00 -0.50000000000E+03  0.50000000000E+03  0.00000000000E+00 0.  1.
        -11    1    1    2    0    0  0.82984765212E+01 -0.16787273940E+02  0.49148234953E+03  0.49183897484E+03  0.00000000000E+00 0.  1.
         11    1    1    2    0    0 -0.40636022826E+01 -0.68978449214E+01 -0.47053163748E+03  0.47059973969E+03  0.00000000000E+00 0.  1.
        -15    1    1    2    0    0  0.43607176167E+01  0.56097129159E+01 -0.14856285582E+02  0.16563565058E+02  0.17770000000E+01 0.  1.
         15    1    1    2    0    0 -0.85955918554E+01  0.18075405945E+02 -0.60944264699E+01  0.20997720410E+02  0.17770000000E+01 0. -1.
</event>
<event>
 6   1  0.1826851E-04  0.5005583E+03  0.7546771E-02  0.9398561E-01
        -11   -1    0    0    0    0  0.00000000000E+00  0.00000000000E+00  0.50000000000E+03  0.50000000000E+03  0.00000000000E+00 0.  1.
         11   -1    0    0    0    0 -0.00000000000E+00 -0.00000000000E+00 -0.50000000000E+03  0.50000000000E+03  0.00000000000E+00 0.  1.
        -11    1    1    2    0    0  0.98711046775E+00  0.58363753556E+01  0.35380750344E+03  0.35385701513E+03  0.00000000000E+00 0.  1.
         11    1    1    2    0    0 -0.85433690603E+01  0.61475065108E+01 -0.49933079878E+03  0.49944171592E+03  0.00000000000E+00 0.  1.
        -15    1    1    2    0    0  0.55555487496E+00 -0.57779721188E+01  0.10043804680E+03  0.10062133262E+03  0.17770000000E+01 0. -1.
         15    1    1    2    0    0  0.70007037176E+01 -0.62059097476E+01  0.45085248534E+02  0.46079936336E+02  0.17770000000E+01 0. -1.
</event>
<event>
 6   1  0.1826851E-04  0.5018858E+03  0.7546771E-02  0.9395600E-01
        -11   -1    0    0    0    0  0.00000000000E+00  0.00000000000E+00  0.50000000000E+03  0.50000000000E+03  0.00000000000E+00 0. -1.
         11   -1    0    0    0    0 -0.00000000000E+00 -0.00000000000E+00 -0.50000000000E+03  0.50000000000E+03  0.00000000000E+00 0. -1.
        -11    1    1    2    0    0  0.13943818970E+02 -0.15094103006E+01  0.49791674682E+03  0.49811423908E+03  0.00000000000E+00 0. -1.
         11    1    1    2    0    0  0.16116185934E+01  0.64047307781E+01 -0.41606897432E+03  0.41612138768E+03  0.00000000000E+00 0. -1.
        -15    1    1    2    0    0 -0.11291762593E+02  0.28429107017E+01 -0.69424121948E+02  0.70416279942E+02  0.17770000000E+01 0. -1.
         15    1    1    2    0    0 -0.42636749700E+01 -0.77382311793E+01 -0.12423650554E+02  0.15348093306E+02  0.17770000000E+01 0.  1.
</event>
<event>
 6   1  0.1826851E-04  0.5022728E+03  0.7546771E-02  0.9394739E-01
        -11   -1    0    0    0    0  0.00000000000E+00  0.00000000000E+00  0.50000000000E+03  0.50000000000E+03  0.00000000000E+00 0.  1.
         11   -1    0    0    0    0 -0.00000000000E+00 -0.00000000000E+00 -0.50000000000E+03  0.50000000000E+03  0.00000000000E+00 0. -1.
        -11    1    1    2    0    0  0.23862941076E+02  0.60185639147E+01  0.28071532398E+03  0.28179204422E+03  0.00000000000E+00 0.  1.
         11    1    1    2    0    0 -0.15538488024E+02  0.18342101132E+02 -0.49714638475E+03  0.49772723972E+03  0.00000000000E+00 0. -1.
        -15    1    1    2    0    0  0.10798884218E+02 -0.75433675093E+01  0.38549541124E+02  0.40776747585E+02  0.17770000000E+01 0.  1.
         15    1    1    2    0    0 -0.19123337270E+02 -0.16817297537E+02  0.17788151965E+03  0.17970396848E+03  0.17770000000E+01 0. -1.
</event>
<event>
 6   1  0.1826851E-04  0.5013893E+03  0.7546771E-02  0.9396706E-01
        -11   -1    0    0    0    0  0.00000000000E+00  0.00000000000E+00  0.50000000000E+03  0.50000000000E+03  0.00000000000E+00 0. -1.
         11   -1    0    0    0    0 -0.00000000000E+00 -0.00000000000E+00 -0.50000000000E+03  0.50000000000E+03  0.00000000000E+00 0.  1.
        -11    1    1    2    0    0 -0.41132655620E+01  0.11702720663E+02  0.32273975750E+02  0.34575744898E+02  0.00000000000E+00 0. -1.
         11    1    1    2    0    0  0.27662763383E+01 -0.17459210836E+02 -0.49829721907E+03  0.49861066461E+03  0.00000000000E+00 0.  1.
        -15    1    1    2    0    0  0.22144149067E+01  0.10059357986E+02  0.44959427795E+03  0.44971576225E+03  0.17770000000E+01 0. -1.
         15    1    1    2    0    0 -0.86742568306E+00 -0.43028678130E+01  0.16428965369E+02  0.17097828249E+02  0.17770000000E+01 0.  1.
</event>
<event>
 6   1  0.1826851E-04  0.4856306E+03  0.7546771E-02  0.9432549E-01
        -11   -1    0    0    0    0  0.00000000000E+00  0.00000000000E+00  0.50000000000E+03  0.50000000000E+03  0.00000000000E+00 0.  1.
         11   -1    0    0    0    0 -0.00000000000E+00 -0.00000000000E+00 -0.50000000000E+03  0.50000000000E+03  0.00000000000E+00 0. -1.
        -11    1    1    2    0    0 -0.41706744872E+01  0.26996870729E+02  0.86655454793E+01  0.28658632789E+02  0.00000000000E+00 0.  1.
         11    1    1    2    0    0 -0.80776300747E+02 -0.47566703222E+01 -0.48242698943E+03  0.48916585818E+03  0.00000000000E+00 0. -1.
        -15    1    1    2    0    0  0.10384130476E+01  0.10609419274E+01  0.19664279047E+02  0.19800138859E+02  0.17770000000E+01 0.  1.
         15    1    1    2    0    0  0.83908562187E+02 -0.23301142335E+02  0.45409716490E+03  0.46237537018E+03  0.17770000000E+01 0.  1.
</event>
<event>
 6   1  0.1826851E-04  0.5007226E+03  0.7546771E-02  0.9398194E-01
        -11   -1    0    0    0    0  0.00000000000E+00  0.00000000000E+00  0.50000000000E+03  0.50000000000E+03  0.00000000000E+00 0. -1.
         11   -1    0    0    0    0 -0.00000000000E+00 -0.00000000000E+00 -0.50000000000E+03  0.50000000000E+03  0.00000000000E+00 0.  1.
        -11    1    1    2    0    0 -0.12374771813E+02 -0.26032062258E+01  0.36915931047E+03  0.36937583592E+03  0.00000000000E+00 0. -1.
         11    1    1    2    0    0  0.10495775510E+02 -0.82951984365E+01 -0.49909810948E+03  0.49927737232E+03  0.00000000000E+00 0.  1.
        -15    1    1    2    0    0  0.28234902910E+00  0.60954832902E+01  0.11893928298E+03  0.11910896440E+03  0.17770000000E+01 0. -1.
         15    1    1    2    0    0  0.15966472738E+01  0.48029213721E+01  0.10999516039E+02  0.12237827353E+02  0.17770000000E+01 0.  1.
</event>
<event>
 6   1  0.1826851E-04  0.5004582E+03  0.7546771E-02  0.9398785E-01
        -11   -1    0    0    0    0  0.00000000000E+00  0.00000000000E+00  0.50000000000E+03  0.50000000000E+03  0.00000000000E+00 0. -1.
         11   -1    0    0    0    0 -0.00000000000E+00 -0.00000000000E+00 -0.50000000000E+03  0.50000000000E+03  0.00000000000E+00 0.  1.
        -11    1    1    2    0    0  0.16888112468E+01 -0.11963568827E+01  0.20039341498E+01  0.28808167756E+01  0.00000000000E+00 0. -1.
         11    1    1    2    0    0 -0.29531502332E+01  0.25350645280E+02 -0.49888942478E+03  0.49954182455E+03  0.00000000000E+00 0.  1.
        -15    1    1    2    0    0 -0.67284952362E+00 -0.19981208258E+02  0.44654049860E+03  0.44699136013E+03  0.17770000000E+01 0. -1.
         15    1    1    2    0    0  0.19371885101E+01 -0.41730801394E+01  0.50344992036E+02  0.50585998550E+02  0.17770000000E+01 0.  1.
</event>
<event>
 6   1  0.1826851E-04  0.5201131E+03  0.7546771E-02  0.9355897E-01
        -11   -1    0    0    0    0  0.00000000000E+00  0.00000000000E+00  0.50000000000E+03  0.50000000000E+03  0.00000000000E+00 0.  1.
         11   -1    0    0    0    0 -0.00000000000E+00 -0.00000000000E+00 -0.50000000000E+03  0.50000000000E+03  0.00000000000E+00 0. -1.
        -11    1    1    2    0    0 -0.48187098740E+02  0.14298098050E+02  0.47724736736E+03  0.47988694683E+03  0.00000000000E+00 0.  1.
         11    1    1    2    0    0  0.57402951428E+00  0.63052965047E+01 -0.44241088655E+03  0.44245618858E+03  0.00000000000E+00 0. -1.
        -15    1    1    2    0    0  0.18094986114E+02 -0.24613377067E+02  0.14990771772E+01  0.30637425064E+02  0.17770000000E+01 0.  1.
         15    1    1    2    0    0  0.29518083111E+02  0.40099825124E+01 -0.36335557986E+02  0.47019439527E+02  0.17770000000E+01 0. -1.
</event>
<event>
 6   1  0.1826851E-04  0.5003723E+03  0.7546771E-02  0.9398977E-01
        -11   -1    0    0    0    0  0.00000000000E+00  0.00000000000E+00  0.50000000000E+03  0.50000000000E+03  0.00000000000E+00 0. -1.
         11   -1    0    0    0    0 -0.00000000000E+00 -0.00000000000E+00 -0.50000000000E+03  0.50000000000E+03  0.00000000000E+00 0.  1.
        -11    1    1    2    0    0  0.15283291043E+02  0.26122574074E+01  0.49938702090E+03  0.49962766088E+03  0.00000000000E+00 0. -1.
         11    1    1    2    0    0 -0.70441631434E+00  0.44089908849E+01 -0.21884750075E+03  0.21889304234E+03  0.00000000000E+00 0.  1.
        -15    1    1    2    0    0 -0.86307526554E+01 -0.25508115063E+01 -0.51406196644E+02  0.52218304388E+02  0.17770000000E+01 0. -1.
         15    1    1    2    0    0 -0.59481220734E+01 -0.44704367860E+01 -0.22913332351E+03  0.22926099239E+03  0.17770000000E+01 0.  1.
</event>
<event>
 6   1  0.1826851E-04  0.4653618E+03  0.7546771E-02  0.9480836E-01
        -11   -1    0    0    0    0  0.00000000000E+00  0.00000000000E+00  0.50000000000E+03  0.50000000000E+03  0.00000000000E+00 0.  1.
         11   -1    0    0    0    0 -0.00000000000E+00 -0.00000000000E+00 -0.50000000000E+03  0.50000000000E+03  0.00000000000E+00 0. -1.
        -11    1    1    2    0    0 -0.28815454131E+02  0.44649595563E+02  0.47226461404E+03  0.47524497100E+03  0.00000000000E+00 0.  1.
         11    1    1    2    0    0 -0.12348149676E+02  0.23480773932E+01 -0.45751712040E+03  0.45768974833E+03  0.00000000000E+00 0. -1.
        -15    1    1    2    0    0  0.42620107842E+01 -0.49780422821E+01 -0.83308047084E+01  0.10747356744E+02  0.17770000000E+01 0.  1.
         15    1    1    2    0    0  0.36901593022E+02 -0.42019630674E+02 -0.64166889361E+01  0.56317923927E+02  0.17770000000E+01 0. -1.
</event>
<event>
 6   1  0.1826851E-04  0.5003317E+03  0.7546771E-02  0.9399068E-01
        -11   -1    0    0    0    0  0.00000000000E+00  0.00000000000E+00  0.50000000000E+03  0.50000000000E+03  0.00000000000E+00 0.  1.
         11   -1    0    0    0    0 -0.00000000000E+00 -0.00000000000E+00 -0.50000000000E+03  0.50000000000E+03  0.00000000000E+00 0. -1.
        -11    1    1    2    0    0  0.30954706601E+01  0.91721672605E+01  0.80810820923E+02  0.81388570261E+02  0.00000000000E+00 0.  1.
         11    1    1    2    0    0  0.65865727077E+01 -0.14627726502E+02 -0.49941075482E+03  0.49966834536E+03  0.00000000000E+00 0. -1.
        -15    1    1    2    0    0  0.23740647889E+01  0.31426440146E+01  0.14095824075E+03  0.14102445092E+03  0.17770000000E+01 0. -1.
         15    1    1    2    0    0 -0.12056108157E+02  0.23129152266E+01  0.27764169315E+03  0.27791863346E+03  0.17770000000E+01 0.  1.
</event>
<event>
 6   1  0.1826851E-04  0.5003892E+03  0.7546771E-02  0.9398939E-01
        -11   -1    0    0    0    0  0.00000000000E+00  0.00000000000E+00  0.50000000000E+03  0.50000000000E+03  0.00000000000E+00 0. -1.
         11   -1    0    0    0    0 -0.00000000000E+00 -0.00000000000E+00 -0.50000000000E+03  0.50000000000E+03  0.00000000000E+00 0.  1.
        -11    1    1    2    0    0  0.55310769057E+01  0.15396315101E+02  0.49934288270E+03  0.49961080236E+03  0.00000000000E+00 0. -1.
         11    1    1    2    0    0  0.30962999411E+01 -0.79245417202E+01 -0.28939802066E+03  0.28952305573E+03  0.00000000000E+00 0.  1.
        -15    1    1    2    0    0 -0.36693388177E+01 -0.31655796831E+01 -0.16211994011E+02  0.17013859671E+02  0.17770000000E+01 0. -1.
         15    1    1    2    0    0 -0.49580380291E+01 -0.43061936978E+01 -0.19373286803E+03  0.19385228224E+03  0.17770000000E+01 0.  1.
</event>
<event>
 6   1  0.1826851E-04  0.5012931E+03  0.7546771E-02  0.9396921E-01
        -11   -1    0    0    0    0  0.00000000000E+00  0.00000000000E+00  0.50000000000E+03  0.50000000000E+03  0.00000000000E+00 0.  1.
         11   -1    0    0    0    0 -0.00000000000E+00 -0.00000000000E+00 -0.50000000000E+03  0.50000000000E+03  0.00000000000E+00 0. -1.
        -11    1    1    2    0    0 -0.12006127848E+02 -0.12409262820E+02  0.49840785493E+03  0.49870685454E+03  0.00000000000E+00 0.  1.
         11    1    1    2    0    0 -0.34961414500E+01  0.70134825968E+01 -0.43891983967E+03  0.43898979214E+03  0.00000000000E+00 0. -1.
        -15    1    1    2    0    0  0.56089425071E+01  0.44865525459E+01 -0.35770294407E+02  0.36527538663E+02  0.17770000000E+01 0.  1.
         15    1    1    2    0    0  0.98933267906E+01  0.90922767750E+00 -0.23717720851E+02  0.25775814659E+02  0.17770000000E+01 0. -1.
</event>
<event>
 6   1  0.1826851E-04  0.5002202E+03  0.7546771E-02  0.9399317E-01
        -11   -1    0    0    0    0  0.00000000000E+00  0.00000000000E+00  0.50000000000E+03  0.50000000000E+03  0.00000000000E+00 0.  1.
         11   -1    0    0    0    0 -0.00000000000E+00 -0.00000000000E+00 -0.50000000000E+03  0.50000000000E+03  0.00000000000E+00 0. -1.
        -11    1    1    2    0    0 -0.93260198716E+01 -0.27321177947E+01  0.49968532768E+03  0.49977981733E+03  0.00000000000E+00 0.  1.
         11    1    1    2    0    0  0.20303902004E+01  0.48852436284E+01 -0.38524610851E+03  0.38528243175E+03  0.00000000000E+00 0. -1.
        -15    1    1    2    0    0  0.58692733201E+01 -0.14006011453E+01 -0.42941446416E+02  0.43399718918E+02  0.17770000000E+01 0. -1.
         15    1    1    2    0    0  0.14263563512E+01 -0.75252468841E+00 -0.71497772748E+02  0.71538032003E+02  0.17770000000E+01 0.  1.
</event>
<event>
 6   1  0.1826851E-04  0.5000723E+03  0.7546771E-02  0.9399648E-01
        -11   -1    0    0    0    0  0.00000000000E+00  0.00000000000E+00  0.50000000000E+03  0.50000000000E+03  0.00000000000E+00 0. -1.
         11   -1    0    0    0    0 -0.00000000000E+00 -0.00000000000E+00 -0.50000000000E+03  0.50000000000E+03  0.00000000000E+00 0. -1.
        -11    1    1    2    0    0  0.13653576669E+02  0.24241782657E+01  0.25923624262E+03  0.25960686872E+03  0.00000000000E+00 0. -1.
         11    1    1    2    0    0 -0.18598615282E+02 -0.25855559451E+01 -0.49957494359E+03  0.49992771263E+03  0.00000000000E+00 0. -1.
        -15    1    1    2    0    0 -0.58416948968E+00 -0.13262059010E+00  0.42648168092E+02  0.42689375878E+02  0.17770000000E+01 0. -1.
         15    1    1    2    0    0  0.55292081024E+01  0.29399826957E+00  0.19769053288E+03  0.19777604278E+03  0.17770000000E+01 0. -1.
</event>
<event>
 6   1  0.1826851E-04  0.4950405E+03  0.7546771E-02  0.9410976E-01
        -11   -1    0    0    0    0  0.00000000000E+00  0.00000000000E+00  0.50000000000E+03  0.50000000000E+03  0.00000000000E+00 0.  1.
         11   -1    0    0    0    0 -0.00000000000E+00 -0.00000000000E+00 -0.50000000000E+03  0.50000000000E+03  0.00000000000E+00 0.  1.
        -11    1    1    2    0    0 -0.56906143962E+01 -0.13659709667E+01  0.94264034957E+01  0.11095316658E+02  0.00000000000E+00 0.  1.
         11    1    1    2    0    0 -0.12855699858E+02  0.77364151087E+01 -0.49823092886E+03  0.49845679814E+03  0.00000000000E+00 0.  1.
        -15    1    1    2    0    0  0.11635216964E+02 -0.57610359616E+01  0.53398254455E+02  0.54982716529E+02  0.17770000000E+01 0. -1.
         15    1    1    2    0    0  0.69110972900E+01 -0.60940818045E+00  0.43540627091E+03  0.43546516867E+03  0.17770000000E+01 0.  1.
</event>
<event>
 6   1  0.1826851E-04  0.5049499E+03  0.7546771E-02  0.9388802E-01
        -11   -1    0    0    0    0  0.00000000000E+00  0.00000000000E+00  0.50000000000E+03  0.50000000000E+03  0.00000000000E+00 0. -1.
         11   -1    0    0    0    0 -0.00000000000E+00 -0.00000000000E+00 -0.50000000000E+03  0.50000000000E+03  0.00000000000E+00 0.  1.
        -11    1    1    2    0    0  0.69242712041E+01  0.10361003110E+02  0.45813265774E+03  0.45830211434E+03  0.00000000000E+00 0. -1.
         11    1    1    2    0    0  0.20157808369E+01  0.94974245452E+01 -0.49495490829E+03  0.49505012442E+03  0.00000000000E+00 0.  1.
        -15    1    1    2    0    0 -0.55046870523E-01 -0.19278366852E+01 -0.17531134161E+01  0.31544761994E+01  0.17770000000E+01 0. -1.
         15    1    1    2    0    0 -0.88850051705E+01 -0.17930590970E+02  0.38575363965E+02  0.43493285038E+02  0.17770000000E+01 0. -1.
</event>
<event>
 6   1  0.1826851E-04  0.5022359E+03  0.7546771E-02  0.9394821E-01
        -11   -1    0    0    0    0  0.00000000000E+00  0.00000000000E+00  0.50000000000E+03  0.50000000000E+03  0.00000000000E+00 0.  1.
         11   -1    0    0    0    0 -0.00000000000E+00 -0.00000000000E+00 -0.50000000000E+03  0.50000000000E+03  0.00000000000E+00 0.  1.
        -11    1    1    2    0    0  0.76000191231E+01 -0.14926324746E+02  0.49748217258E+03  0.49776406810E+03  0.00000000000E+00 0.  1.
         11    1    1    2    0    0 -0.10841810254E+02  0.29033045467E+00 -0.45907511312E+03  0.45920321060E+03  0.00000000000E+00 0.  1.
        -15    1    1    2    0    0 -0.40972093307E+01  0.77345230582E+01 -0.14514201990E+02  0.17041999872E+02  0.17770000000E+01 0. -1.
         15    1    1    2    0    0  0.73390004612E+01  0.69014712329E+01 -0.23892857474E+02  0.25990721426E+02  0.17770000000E+01 0.  1.
</event>
<event>
 6   1  0.1826851E-04  0.5015728E+03  0.7546771E-02  0.9396297E-01
        -11   -1    0    0    0    0  0.00000000000E+00  0.00000000000E+00  0.50000000000E+03  0.50000000000E+03  0.00000000000E+00 0. -1.
         11   -1    0    0    0    0 -0.00000000000E+00 -0.00000000000E+00 -0.50000000000E+03  0.50000000000E+03  0.00000000000E+00 0. -1.
        -11    1    1    2    0    0  0.38346728393E+01  0.35304899191E+02  0.49716045333E+03  0.49842718323E+03  0.00000000000E+00 0. -1.
         11    1    1    2    0    0  0.44422668349E+01 -0.42101448352E+02 -0.43768459300E+03  0.43972726620E+03  0.00000000000E+00 0. -1.
        -15    1    1    2    0    0 -0.50602142550E+01  0.28766143134E+01 -0.78109549954E+01  0.99019909692E+01  0.17770000000E+01 0. -1.
         15    1    1    2    0    0 -0.32167254192E+01  0.39199348477E+01 -0.51664905341E+02  0.51943559606E+02  0.17770000000E+01 0.  1.
</event>
<event>
 6   1  0.1826851E-04  0.5022221E+03  0.7546771E-02  0.9394851E-01
        -11   -1    0    0    0    0  0.00000000000E+00  0.00000000000E+00  0.50000000000E+03  0.50000000000E+03  0.00000000000E+00 0. -1.
         11   -1    0    0    0    0 -0.00000000000E+00 -0.00000000000E+00 -0.50000000000E+03  0.50000000000E+03  0.00000000000E+00 0.  1.
        -11    1    1    2    0    0 -0.54826029958E+01 -0.71601133558E+01  0.45617639171E+03  0.45626552194E+03  0.00000000000E+00 0. -1.
         11    1    1    2    0    0 -0.58630486596E+01 -0.54197311009E+01 -0.49771385953E+03  0.49777789705E+03  0.00000000000E+00 0.  1.
        -15    1    1    2    0    0  0.76411826400E+01  0.11440190493E+02  0.37876591007E+02  0.40336825681E+02  0.17770000000E+01 0.  1.
         15    1    1    2    0    0  0.37044690153E+01  0.11396539632E+01  0.36608768132E+01  0.56197553223E+01  0.17770000000E+01 0. -1.
</event>
<event>
 6   1  0.1826851E-04  0.5017456E+03  0.7546771E-02  0.9395912E-01
        -11   -1    0    0    0    0  0.00000000000E+00  0.00000000000E+00  0.50000000000E+03  0.50000000000E+03  0.00000000000E+00 0.  1.
         11   -1    0    0    0    0 -0.00000000000E+00 -0.00000000000E+00 -0.50000000000E+03  0.50000000000E+03  0.00000000000E+00 0.  1.
        -11    1    1    2    0    0 -0.10303728960E+02  0.40663354870E+01  0.49813122700E+03  0.49825437402E+03  0.00000000000E+00 0.  1.
         11    1    1    2    0    0  0.14769492535E+01  0.85168614203E+01 -0.44725378012E+03  0.44733730242E+03  0.00000000000E+00 0.  1.
        -15    1    1    2    0    0 -0.89846399766E+00 -0.37231755672E+01 -0.24687052236E+02  0.25045509597E+02  0.17770000000E+01 0. -1.
         15    1    1    2    0    0  0.97252437041E+01 -0.88600213401E+01 -0.26190394642E+02  0.29362813962E+02  0.17770000000E+01 0.  1.
</event>
<event>
 6   1  0.1826851E-04  0.5002101E+03  0.7546771E-02  0.9399340E-01
        -11   -1    0    0    0    0  0.00000000000E+00  0.00000000000E+00  0.50000000000E+03  0.50000000000E+03  0.00000000000E+00 0. -1.
         11   -1    0    0    0    0 -0.00000000000E+00 -0.00000000000E+00 -0.50000000000E+03  0.50000000000E+03  0.00000000000E+00 0.  1.
        -11    1    1    2    0    0  0.71370028297E+01 -0.16148273532E+02  0.24204272338E+03  0.24268577109E+03  0.00000000000E+00 0. -1.
         11    1    1    2    0    0 -0.14930041602E+02  0.18866265596E+02 -0.49921042918E+03  0.49978985056E+03  0.00000000000E+00 0.  1.
        -15    1    1    2    0    0 -0.24886861053E+00 -0.35399881368E+01  0.14387801346E+03  0.14393274102E+03  0.17770000000E+01 0.  1.
         15    1    1    2    0    0  0.80419073832E+01  0.82199607258E+00  0.11328969234E+03  0.11359163733E+03  0.17770000000E+01 0. -1.
</event>
<event>
 6   1  0.1826851E-04  0.5014009E+03  0.7546771E-02  0.9396681E-01
        -11   -1    0    0    0    0  0.00000000000E+00  0.00000000000E+00  0.50000000000E+03  0.50000000000E+03  0.00000000000E+00 0.  1.
         11   -1    0    0    0    0 -0.00000000000E+00 -0.00000000000E+00 -0.50000000000E+03  0.50000000000E+03  0.00000000000E+00 0.  1.
        -11    1    1    2    0    0  0.11655751194E+02  0.10497345540E+02  0.36086382531E+03  0.36120458361E+03  0.00000000000E+00 0.  1.
         11    1    1    2    0    0  0.10437277883E+02 -0.13006668746E+01 -0.49848819358E+03  0.49859914525E+03  0.00000000000E+00 0.  1.
        -15    1    1    2    0    0 -0.80561695018E+01 -0.21364902142E+01  0.79634330894E+02  0.80089018245E+02  0.17770000000E+01 0. -1.
         15    1    1    2    0    0 -0.14036859575E+02 -0.70601884511E+01  0.57990037371E+02  0.60107252898E+02  0.17770000000E+01 0.  1.
</event>
<event>
 6   1  0.1826851E-04  0.5000585E+03  0.7546771E-02  0.9399679E-01
        -11   -1    0    0    0    0  0.00000000000E+00  0.00000000000E+00  0.50000000000E+03  0.50000000000E+03  0.00000000000E+00 0.  1.
         11   -1    0    0    0    0 -0.00000000000E+00 -0.00000000000E+00 -0.50000000000E+03  0.50000000000E+03  0.00000000000E+00 0. -1.
        -11    1    1    2    0    0  0.36034426343E+01  0.63821668419E+01  0.24409999363E+03  0.24420999927E+03  0.00000000000E+00 0.  1.
         11    1    1    2    0    0 -0.43136863186E+01 -0.73899611388E+01 -0.49986826079E+03  0.49994149414E+03  0.00000000000E+00 0. -1.
        -15    1    1    2    0    0  0.29079459174E+01  0.94543414065E-02  0.13915200594E+03  0.13919373091E+03  0.17770000000E+01 0. -1.
         15    1    1    2    0    0 -0.21977022331E+01  0.99833995550E+00  0.11661626122E+03  0.11665477568E+03  0.17770000000E+01 0.  1.
</event>
<event>
 6   1  0.1826851E-04  0.5094130E+03  0.7546771E-02  0.9378990E-01
        -11   -1    0    0    0    0  0.00000000000E+00  0.00000000000E+00  0.50000000000E+03  0.50000000000E+03  0.00000000000E+00 0. -1.
         11   -1    0    0    0    0 -0.00000000000E+00 -0.00000000000E+00 -0.50000000000E+03  0.50000000000E+03  0.00000000000E+00 0. -1.
        -11    1    1    2    0    0  0.19759163571E+02  0.31382008109E+02  0.48918335663E+03  0.49058700695E+03  0.00000000000E+00 0. -1.
         11    1    1    2    0    0  0.89919302847E+01 -0.58246135797E+01 -0.45791399157E+03  0.45803930465E+03  0.00000000000E+00 0. -1.
        -15    1    1    2    0    0 -0.47548224105E+01 -0.64450123128E+01 -0.10422525353E+01  0.82698572669E+01  0.17770000000E+01 0. -1.
         15    1    1    2    0    0 -0.23996271446E+02 -0.19112382217E+02 -0.30227112530E+02  0.43103831131E+02  0.17770000000E+01 0.  1.
</event>
<event>
 6   1  0.1826851E-04  0.5035189E+03  0.7546771E-02  0.9391970E-01
        -11   -1    0    0    0    0  0.00000000000E+00  0.00000000000E+00  0.50000000000E+03  0.50000000000E+03  0.00000000000E+00 0.  1.
         11   -1    0    0    0    0 -0.00000000000E+00 -0.00000000000E+00 -0.50000000000E+03  0.50000000000E+03  0.00000000000E+00 0. -1.
        -11    1    1    2    0    0 -0.20024799951E+02  0.70743963085E+01  0.49602666053E+03  0.49648110503E+03  0.00000000000E+00 0.  1.
         11    1    1    2    0    0 -0.62039957214E+01  0.16925533312E+01 -0.44273558142E+03  0.44278228212E+03  0.00000000000E+00 0. -1.
        -15    1    1    2    0    0  0.35046074361E+01  0.13936866448E+01 -0.82728262070E+01  0.92640173897E+01  0.17770000000E+01 0. -1.
         15    1    1    2    0    0  0.22724188236E+02 -0.10160636284E+02 -0.45018252901E+02  0.51472595466E+02  0.17770000000E+01 0. -1.
</event>
<event>
 6   1  0.1826851E-04  0.5000918E+03  0.7546771E-02  0.9399604E-01
        -11   -1    0    0    0    0  0.00000000000E+00  0.00000000000E+00  0.50000000000E+03  0.50000000000E+03  0.00000000000E+00 0.  1.
         11   -1    0    0    0    0 -0.00000000000E+00 -0.00000000000E+00 -0.50000000000E+03  0.50000000000E+03  0.00000000000E+00 0.  1.
        -11    1    1    2    0    0 -0.11276382712E+02 -0.94809222546E+01  0.49969108806E+03  0.49990821976E+03  0.00000000000E+00 0.  1.
         11    1    1    2    0    0 -0.15265085510E+01 -0.59881383798E+00 -0.10123176777E+03  0.10124504735E+03  0.00000000000E+00 0.  1.
        -15    1    1    2    0    0  0.21668742194E+01  0.46363768541E+01 -0.14144181471E+03  0.14154552629E+03  0.17770000000E+01 0.  1.
         15    1    1    2    0    0  0.10636017044E+02  0.54433592384E+01 -0.25701750558E+03  0.25730120661E+03  0.17770000000E+01 0. -1.
</event>
<event>
 6   1  0.1826851E-04  0.5015654E+03  0.7546771E-02  0.9396314E-01
        -11   -1    0    0    0    0  0.00000000000E+00  0.00000000000E+00  0.50000000000E+03  0.50000000000E+03  0.00000000000E+00 0. -1.
         11   -1    0    0    0    0 -0.00000000000E+00 -0.00000000000E+00 -0.50000000000E+03  0.50000000000E+03  0.00000000000E+00 0.  1.
        -11    1    1    2    0    0  0.12954345908E+01  0.19188065732E+02  0.35494784370E+03  0.35546846803E+03  0.00000000000E+00 0. -1.
         11    1    1    2    0    0  0.15494425090E+02  0.23021767184E+01 -0.49818843048E+03  0.49843463913E+03  0.00000000000E+00 0.  1.
        -15    1    1    2    0    0 -0.33292567402E+01 -0.86910237698E+01  0.35002416668E+02  0.36262166871E+02  0.17770000000E+01 0. -1.
         15    1    1    2    0    0 -0.13460602940E+02 -0.12799218681E+02  0.10823817011E+03  0.10983472597E+03  0.17770000000E+01 0.  1.
</event>
<event>
 6   1  0.1826851E-04  0.5010412E+03  0.7546771E-02  0.9397483E-01
        -11   -1    0    0    0    0  0.00000000000E+00  0.00000000000E+00  0.50000000000E+03  0.50000000000E+03  0.00000000000E+00 0.  1.
         11   -1    0    0    0    0 -0.00000000000E+00 -0.00000000000E+00 -0.50000000000E+03  0.50000000000E+03  0.00000000000E+00 0.  1.
        -11    1    1    2    0    0 -0.90067377188E+01  0.93341378035E+01  0.13655686588E+03  0.13717151698E+03  0.00000000000E+00 0.  1.
         11    1    1    2    0    0 -0.10732451136E+02 -0.90003517732E+01 -0.49876215121E+03  0.49895879121E+03  0.00000000000E+00 0.  1.
        -15    1    1    2    0    0 -0.83365549298E+00  0.96747146846E+01  0.61208310210E+02  0.61999274620E+02  0.17770000000E+01 0. -1.
         15    1    1    2    0    0  0.20572844348E+02 -0.10008500715E+02  0.30099697513E+03  0.30187041719E+03  0.17770000000E+01 0.  1.
</event>
<event>
 6   1  0.1826851E-04  0.5033399E+03  0.7546771E-02  0.9392367E-01
        -11   -1    0    0    0    0  0.00000000000E+00  0.00000000000E+00  0.50000000000E+03  0.50000000000E+03  0.00000000000E+00 0. -1.
         11   -1    0    0    0    0 -0.00000000000E+00 -0.00000000000E+00 -0.50000000000E+03  0.50000000000E+03  0.00000000000E+00 0. -1.
        -11    1    1    2    0    0  0.53731879465E+01  0.46574351526E+01  0.46754705975E+03  0.46760112909E+03  0.00000000000E+00 0. -1.
         11    1    1    2    0    0 -0.84803011195E+01 -0.67965874145E+01 -0.49654113648E+03  0.49666005409E+03  0.00000000000E+00 0. -1.
        -15    1    1    2    0    0 -0.29586860326E+01 -0.25111361982E+01 -0.12866098603E+01  0.44578831274E+01  0.17770000000E+01 0.  1.
         15    1    1    2    0    0  0.60657992056E+01  0.46502884601E+01  0.30280686596E+02  0.31280933690E+02  0.17770000000E+01 0. -1.
</event>
<event>
 6   1  0.1826851E-04  0.5013800E+03  0.7546771E-02  0.9396727E-01
        -11   -1    0    0    0    0  0.00000000000E+00  0.00000000000E+00  0.50000000000E+03  0.50000000000E+03  0.00000000000E+00 0. -1.
         11   -1    0    0    0    0 -0.00000000000E+00 -0.00000000000E+00 -0.50000000000E+03  0.50000000000E+03  0.00000000000E+00 0.  1.
        -11    1    1    2    0    0  0.10461504067E+01 -0.75501119220E+01  0.32953456790E+03  0.32962270866E+03  0.00000000000E+00 0. -1.
         11    1    1    2    0    0  0.11963474668E+02 -0.19892848076E+01 -0.49847246610E+03  0.49861997698E+03  0.00000000000E+00 0.  1.
        -15    1    1    2    0    0 -0.87382588241E+01  0.10823100106E+02  0.16486800946E+03  0.16546333411E+03  0.17770000000E+01 0. -1.
         15    1    1    2    0    0 -0.42713662506E+01 -0.12837033761E+01  0.40698887454E+01  0.62939802514E+01  0.17770000000E+01 0.  1.
</event>
<event>
 6   1  0.1826851E-04  0.4777128E+03  0.7546771E-02  0.9451108E-01
        -11   -1    0    0    0    0  0.00000000000E+00  0.00000000000E+00  0.50000000000E+03  0.50000000000E+03  0.00000000000E+00 0. -1.
         11   -1    0    0    0    0 -0.00000000000E+00 -0.00000000000E+00 -0.50000000000E+03  0.50000000000E+03  0.00000000000E+00 0.  1.
        -11    1    1    2    0    0  0.23501218637E+02 -0.10220848188E+02  0.42455352767E+02  0.49590624050E+02  0.00000000000E+00 0. -1.
         11    1    1    2    0    0 -0.53091436824E+01  0.45914851413E+01 -0.49290899290E+03  0.49295896789E+03  0.00000000000E+00 0.  1.
        -15    1    1    2    0    0 -0.36559365926E+02  0.20984924510E+02  0.14388685704E+03  0.14994512213E+03  0.17770000000E+01 0.  1.
         15    1    1    2    0    0  0.18367290972E+02 -0.15355561463E+02  0.30656678310E+03  0.30750528593E+03  0.17770000000E+01 0. -1.
</event>
<event>
 6   1  0.1826851E-04  0.5009682E+03  0.7546771E-02  0.9397646E-01
        -11   -1    0    0    0    0  0.00000000000E+00  0.00000000000E+00  0.50000000000E+03  0.50000000000E+03  0.00000000000E+00 0.  1.
         11   -1    0    0    0    0 -0.00000000000E+00 -0.00000000000E+00 -0.50000000000E+03  0.50000000000E+03  0.00000000000E+00 0. -1.
        -11    1    1    2    0    0 -0.98713876114E+01 -0.22557143896E+02  0.22833366429E+03  0.22965742157E+03  0.00000000000E+00 0.  1.
         11    1    1    2    0    0  0.17690581230E+02  0.80033917581E+01 -0.49865392551E+03  0.49903181098E+03  0.00000000000E+00 0. -1.
        -15    1    1    2    0    0 -0.17371437702E+01  0.14238775790E+02  0.23358056380E+03  0.23402734438E+03  0.17770000000E+01 0.  1.
         15    1    1    2    0    0 -0.60820498483E+01  0.31497634864E+00  0.36739697417E+02  0.37283423069E+02  0.17770000000E+01 0. -1.
</event>
<event>
 6   1  0.1826851E-04  0.5006203E+03  0.7546771E-02  0.9398423E-01
        -11   -1    0    0    0    0  0.00000000000E+00  0.00000000000E+00  0.50000000000E+03  0.50000000000E+03  0.00000000000E+00 0. -1.
         11   -1    0    0    0    0 -0.00000000000E+00 -0.00000000000E+00 -0.50000000000E+03  0.50000000000E+03  0.00000000000E+00 0.  1.
        -11    1    1    2    0    0  0.10516568078E+02 -0.85328112339E+01  0.34702367306E+03  0.34728782981E+03  0.00000000000E+00 0. -1.
         11    1    1    2    0    0 -0.11446697523E+02 -0.70212508138E+01 -0.49919907493E+03  0.49937965644E+03  0.00000000000E+00 0.  1.
        -15    1    1    2    0    0  0.18908901685E+01  0.14178690551E+01  0.58527417414E+02  0.58602065974E+02  0.17770000000E+01 0. -1.
         15    1    1    2    0    0 -0.96076072362E+00  0.14136192993E+02  0.93647984463E+02  0.94730447779E+02  0.17770000000E+01 0.  1.
</event>
<event>
 6   1  0.1826851E-04  0.5033403E+03  0.7546771E-02  0.9392367E-01
        -11   -1    0    0    0    0  0.00000000000E+00  0.00000000000E+00  0.50000000000E+03  0.50000000000E+03  0.00000000000E+00 0.  1.
         11   -1    0    0    0    0 -0.00000000000E+00 -0.00000000000E+00 -0.50000000000E+03  0.50000000000E+03  0.00000000000E+00 0. -1.
        -11    1    1    2    0    0  0.28280345993E+02 -0.10839582794E+02  0.37304344702E+03  0.37427087502E+03  0.00000000000E+00 0.  1.
         11    1    1    2    0    0  0.51930631507E+00 -0.83432439030E+01 -0.49658939248E+03  0.49665974683E+03  0.00000000000E+00 0. -1.
        -15    1    1    2    0    0 -0.27501977422E+02  0.19786871474E+02  0.12092585798E+03  0.12559498358E+03  0.17770000000E+01 0. -1.
         15    1    1    2    0    0 -0.12976748863E+01 -0.60404477709E+00  0.26200874788E+01  0.34743945659E+01  0.17770000000E+01 0.  1.
</event>
<event>
 6   1  0.1826851E-04  0.5091014E+03  0.7546771E-02  0.9379672E-01
        -11   -1    0    0    0    0  0.00000000000E+00  0.00000000000E+00  0.50000000000E+03  0.50000000000E+03  0.00000000000E+00 0.  1.
         11   -1    0    0    0    0 -0.00000000000E+00 -0.00000000000E+00 -0.50000000000E+03  0.50000000000E+03  0.00000000000E+00 0. -1.
        -11    1    1    2    0    0 -0.25997985862E+02 -0.78575977837E+01  0.49014666803E+03  0.49089855703E+03  0.00000000000E+00 0.  1.
         11    1    1    2    0    0 -0.17893456253E+01  0.67855957312E+01 -0.46898697984E+03  0.46903947950E+03  0.00000000000E+00 0. -1.
        -15    1    1    2    0    0  0.26966199755E+02  0.68424902924E+01 -0.18154837456E+02  0.33267874214E+02  0.17770000000E+01 0. -1.
         15    1    1    2    0    0  0.82113173205E+00 -0.57704882399E+01 -0.30048507332E+01  0.67940892530E+01  0.17770000000E+01 0.  1.
</event>
<event>
 6   1  0.1826851E-04  0.5093145E+03  0.7546771E-02  0.9379206E-01
        -11   -1    0    0    0    0  0.00000000000E+00  0.00000000000E+00  0.50000000000E+03  0.50000000000E+03  0.00000000000E+00 0. -1.
         11   -1    0    0    0    0 -0.00000000000E+00 -0.00000000000E+00 -0.50000000000E+03  0.50000000000E+03  0.00000000000E+00 0.  1.
        -11    1    1    2    0    0  0.15609002165E+01  0.42381545396E+02  0.48884932102E+03  0.49068553113E+03  0.00000000000E+00 0. -1.
         11    1    1    2    0    0  0.11081683846E+02 -0.37262128618E+01 -0.44197550018E+03  0.44213010658E+03  0.00000000000E+00 0.  1.
        -15    1    1    2    0    0 -0.17931021262E+02 -0.19751912573E+02 -0.35455681855E+02  0.44406336018E+02  0.17770000000E+01 0.  1.
         15    1    1    2    0    0  0.52884371990E+01 -0.18903419962E+02 -0.11418138980E+02  0.22778026276E+02  0.17770000000E+01 0. -1.
</event>
<event>
 6   1  0.1826851E-04  0.5034805E+03  0.7546771E-02  0.9392055E-01
        -11   -1    0    0    0    0  0.00000000000E+00  0.00000000000E+00  0.50000000000E+03  0.50000000000E+03  0.00000000000E+00 0. -1.
         11   -1    0    0    0    0 -0.00000000000E+00 -0.00000000000E+00 -0.50000000000E+03  0.50000000000E+03  0.00000000000E+00 0. -1.
        -11    1    1    2    0    0  0.79738057494E+01  0.16871211352E+02  0.16987707794E+03  0.17089892030E+03  0.00000000000E+00 0. -1.
         11    1    1    2    0    0  0.27256218946E+02  0.44588037680E+02 -0.49376168711E+03  0.49651948424E+03  0.00000000000E+00 0. -1.
        -15    1    1    2    0    0 -0.16676210063E+02 -0.40429718797E+02  0.14367613304E+03  0.15019536304E+03  0.17770000000E+01 0. -1.
         15    1    1    2    0    0 -0.18553814632E+02 -0.21029530235E+02  0.18020847612E+03  0.18238623242E+03  0.17770000000E+01 0.  1.
</event>
<event>
 6   1  0.1826851E-04  0.4663153E+03  0.7546771E-02  0.9478506E-01
        -11   -1    0    0    0    0  0.00000000000E+00  0.00000000000E+00  0.50000000000E+03  0.50000000000E+03  0.00000000000E+00 0.  1.
         11   -1    0    0    0    0 -0.00000000000E+00 -0.00000000000E+00 -0.50000000000E+03  0.50000000000E+03  0.00000000000E+00 0.  1.
        -11    1    1    2    0    0  0.21965797972E+02 -0.25462877281E+02  0.47472075446E+03  0.47591033726E+03  0.00000000000E+00 0.  1.
         11    1    1    2    0    0  0.88010437175E+01  0.11685210683E+02 -0.45725878734E+03  0.45749273341E+03  0.00000000000E+00 0.  1.
        -15    1    1    2    0    0 -0.24810072043E+02  0.21327072608E+02  0.12508438408E+02  0.35071390922E+02  0.17770000000E+01 0. -1.
         15    1    1    2    0    0 -0.59567696468E+01 -0.75494060104E+01 -0.29970405525E+02  0.31525538410E+02  0.17770000000E+01 0.  1.
</event>
<event>
 6   1  0.1826851E-04  0.4885271E+03  0.7546771E-02  0.9425854E-01
        -11   -1    0    0    0    0  0.00000000000E+00  0.00000000000E+00  0.50000000000E+03  0.50000000000E+03  0.00000000000E+00 0.  1.
         11   -1    0    0    0    0 -0.00000000000E+00 -0.00000000000E+00 -0.50000000000E+03  0.50000000000E+03  0.00000000000E+00 0.  1.
        -11    1    1    2    0    0  0.11097958817E+02  0.14185866208E+01  0.48581254053E+03  0.48594135614E+03  0.00000000000E+00 0.  1.
         11    1    1    2    0    0  0.70663837475E+01  0.28119905073E+01 -0.49124709557E+03  0.49130596371E+03  0.00000000000E+00 0.  1.
        -15    1    1    2    0    0 -0.38706912824E+01  0.36673159050E+01  0.20365236960E+01  0.59780109330E+01  0.17770000000E+01 0.  1.
         15    1    1    2    0    0 -0.14293651282E+02 -0.78978930331E+01  0.33980313458E+01  0.16774669218E+02  0.17770000000E+01 0. -1.
</event>
<event>
 6   1  0.1826851E-04  0.5008259E+03  0.7546771E-02  0.9397964E-01
        -11   -1    0    0    0    0  0.00000000000E+00  0.00000000000E+00  0.50000000000E+03  0.50000000000E+03  0.00000000000E+00 0.  1.
         11   -1    0    0    0    0 -0.00000000000E+00 -0.00000000000E+00 -0.50000000000E+03  0.50000000000E+03  0.00000000000E+00 0. -1.
        -11    1    1    2    0    0  0.12998477262E+02 -0.64727141521E+01  0.49896283839E+03  0.49917408840E+03  0.00000000000E+00 0.  1.
         11    1    1    2    0    0  0.95795472446E+01  0.50171885070E+00 -0.29939292902E+03  0.29954656632E+03  0.00000000000E+00 0. -1.
        -15    1    1    2    0    0 -0.46939794037E+01 -0.36770869508E+00 -0.83836487392E+02  0.83987397861E+02  0.17770000000E+01 0. -1.
         15    1    1    2    0    0 -0.17884045103E+02  0.63387039965E+01 -0.11573342197E+03  0.11729194741E+03  0.17770000000E+01 0.  1.
</event>
<event>
 6   1  0.1826851E-04  0.5001615E+03  0.7546771E-02  0.9399448E-01
        -11   -1    0    0    0    0  0.00000000000E+00  0.00000000000E+00  0.50000000000E+03  0.50000000000E+03  0.00000000000E+00 0. -1.
         11   -1    0    0    0    0 -0.00000000000E+00 -0.00000000000E+00 -0.50000000000E+03  0.50000000000E+03  0.00000000000E+00 0. -1.
        -11    1    1    2    0    0  0.84138180145E+01 -0.14688176856E+02  0.30650821910E+03  0.30697528117E+03  0.00000000000E+00 0. -1.
         11    1    1    2    0    0 -0.10879829385E+02  0.14740167817E+02 -0.49950264828E+03  0.49983851280E+03  0.00000000000E+00 0. -1.
        -15    1    1    2    0    0  0.49177598862E+01 -0.11659986849E+00  0.14643283635E+03  0.14652621352E+03  0.17770000000E+01 0. -1.
         15    1    1    2    0    0 -0.24517485155E+01  0.64608907471E-01  0.46561592829E+02  0.46659992508E+02  0.17770000000E+01 0. -1.
</event>
<event>
 6   1  0.1826851E-04  0.4542305E+03  0.7546771E-02  0.9508482E-01
        -11   -1    0    0    0    0  0.00000000000E+00  0.00000000000E+00  0.50000000000E+03  0.50000000000E+03  0.00000000000E+00 0.  1.
         11   -1    0    0    0    0 -0.00000000000E+00 -0.00000000000E+00 -0.50000000000E+03  0.50000000000E+03  0.00000000000E+00 0.  1.
        -11    1    1    2    0    0  0.17280747817E+02 -0.31314504317E+02  0.44021986832E+03  0.44167041433E+03  0.00000000000E+00 0.  1.
         11    1    1    2    0    0  0.23316861391E+02 -0.13079624215E+02 -0.46845567163E+03  0.46921793324E+03  0.00000000000E+00 0.  1.
        -15    1    1    2    0    0 -0.11306953410E+02  0.13374229799E+02 -0.18683982335E+02  0.25670335857E+02  0.17770000000E+01 0.  1.
         15    1    1    2    0    0 -0.29290655799E+02  0.31019898734E+02  0.46919785642E+02  0.63441316571E+02  0.17770000000E+01 0. -1.
</event>
<event>
 6   1  0.1826851E-04  0.5005528E+03  0.7546771E-02  0.9398574E-01
        -11   -1    0    0    0    0  0.00000000000E+00  0.00000000000E+00  0.50000000000E+03  0.50000000000E+03  0.00000000000E+00 0.  1.
         11   -1    0    0    0    0 -0.00000000000E+00 -0.00000000000E+00 -0.50000000000E+03  0.50000000000E+03  0.00000000000E+00 0.  1.
        -11    1    1    2    0    0 -0.12529093932E+02 -0.24231409876E+01  0.49928413737E+03  0.49944719404E+03  0.00000000000E+00 0.  1.
         11    1    1    2    0    0 -0.58858045887E+01  0.13277493276E+01 -0.25315530796E+03  0.25322720147E+03  0.00000000000E+00 0.  1.
        -15    1    1    2    0    0  0.12696561261E+02  0.53354760663E+01 -0.94021524782E+02  0.95041437406E+02  0.17770000000E+01 0.  1.
         15    1    1    2    0    0  0.57183372598E+01 -0.42400844062E+01 -0.15210730462E+03  0.15228416709E+03  0.17770000000E+01 0. -1.
</event>
<event>
 6   1  0.1826851E-04  0.5056280E+03  0.7546771E-02  0.9387304E-01
        -11   -1    0    0    0    0  0.00000000000E+00  0.00000000000E+00  0.50000000000E+03  0.50000000000E+03  0.00000000000E+00 0. -1.
         11   -1    0    0    0    0 -0.00000000000E+00 -0.00000000000E+00 -0.50000000000E+03  0.50000000000E+03  0.00000000000E+00 0. -1.
        -11    1    1    2    0    0 -0.12546524659E+02  0.75935627230E+01  0.49415442683E+03  0.49437200065E+03  0.00000000000E+00 0. -1.
         11    1    1    2    0    0 -0.54045312269E+01 -0.41847332057E+01 -0.47783777510E+03  0.47788666048E+03  0.00000000000E+00 0. -1.
        -15    1    1    2    0    0  0.80020134948E+01 -0.56950110862E+01 -0.21843492626E+01  0.10217361790E+02  0.17770000000E+01 0. -1.
         15    1    1    2    0    0  0.99490423912E+01  0.22861815690E+01 -0.14132302465E+02  0.17523977078E+02  0.17770000000E+01 0.  1.
</event>
<event>
 6   1  0.1826851E-04  0.5002839E+03  0.7546771E-02  0.9399175E-01
        -11   -1    0    0    0    0  0.00000000000E+00  0.00000000000E+00  0.50000000000E+03  0.50000000000E+03  0.00000000000E+00 0. -1.
         11   -1    0    0    0    0 -0.00000000000E+00 -0.00000000000E+00 -0.50000000000E+03  0.50000000000E+03  0.00000000000E+00 0.  1.
        -11    1    1    2    0    0  0.83536424692E+01 -0.73414809151E+01  0.18866299180E+03  0.18899048960E+03  0.00000000000E+00 0. -1.
         11    1    1    2    0    0 -0.70993963634E+01 -0.37992934460E+01 -0.49965126165E+03  0.49971613875E+03  0.00000000000E+00 0.  1.
        -15    1    1    2    0    0 -0.30953754976E+01  0.83242963719E+01  0.26242266594E+03  0.26257891877E+03  0.17770000000E+01 0. -1.
         15    1    1    2    0    0  0.18411293918E+01  0.28164779892E+01  0.48565603913E+02  0.48714452867E+02  0.17770000000E+01 0.  1.
</event>
<event>
 6   1  0.1826851E-04  0.5044561E+03  0.7546771E-02  0.9389894E-01
        -11   -1    0    0    0    0  0.00000000000E+00  0.00000000000E+00  0.50000000000E+03  0.50000000000E+03  0.00000000000E+00 0.  1.
         11   -1    0    0    0    0 -0.00000000000E+00 -0.00000000000E+00 -0.50000000000E+03  0.50000000000E+03  0.00000000000E+00 0. -1.
        -11    1    1    2    0    0  0.88425432243E+01 -0.17918225478E+02  0.41980016295E+03  0.42027542183E+03  0.00000000000E+00 0.  1.
         11    1    1    2    0    0  0.10173624847E+02  0.10887005615E+00 -0.49543939592E+03  0.49554385227E+03  0.00000000000E+00 0. -1.
        -15    1    1    2    0    0  0.43504795785E+00  0.12120707236E+02  0.49840966099E+02  0.51326215927E+02  0.17770000000E+01 0.  1.
         15    1    1    2    0    0 -0.19451216029E+02  0.56886481853E+01  0.25798266867E+02  0.32854509973E+02  0.17770000000E+01 0. -1.
</event>
<event>
 6   1  0.1826851E-04  0.5001602E+03  0.7546771E-02  0.9399451E-01
        -11   -1    0    0    0    0  0.00000000000E+00  0.00000000000E+00  0.50000000000E+03  0.50000000000E+03  0.00000000000E+00 0.  1.
         11   -1    0    0    0    0 -0.00000000000E+00 -0.00000000000E+00 -0.50000000000E+03  0.50000000000E+03  0.00000000000E+00 0. -1.
        -11    1    1    2    0    0  0.66020446538E+00  0.41259662837E+01  0.57325821325E+02  0.57477902348E+02  0.00000000000E+00 0.  1.
         11    1    1    2    0    0  0.30188549003E+01  0.76730489180E+01 -0.49977174921E+03  0.49983976480E+03  0.00000000000E+00 0. -1.
        -15    1    1    2    0    0 -0.28949764695E+01 -0.85632776510E+01  0.38623944359E+03  0.38634929290E+03  0.17770000000E+01 0.  1.
         15    1    1    2    0    0 -0.78408289617E+00 -0.32357375507E+01  0.56206484301E+02  0.56333039949E+02  0.17770000000E+01 0. -1.
</event>
<event>
 6   1  0.1826851E-04  0.5019714E+03  0.7546771E-02  0.9395409E-01
        -11   -1    0    0    0    0  0.00000000000E+00  0.00000000000E+00  0.50000000000E+03  0.50000000000E+03  0.00000000000E+00 0.  1.
         11   -1    0    0    0    0 -0.00000000000E+00 -0.00000000000E+00 -0.50000000000E+03  0.50000000000E+03  0.00000000000E+00 0. -1.
        -11    1    1    2    0    0 -0.14251184372E+02  0.55610538539E+01  0.49779363233E+03  0.49802863569E+03  0.00000000000E+00 0.  1.
         11    1    1    2    0    0 -0.41427226339E+01  0.15329443901E+02 -0.37238003716E+03  0.37271845416E+03  0.00000000000E+00 0. -1.
        -15    1    1    2    0    0  0.33876513206E+01 -0.24352566481E+01 -0.48845739307E+02  0.49055791033E+02  0.17770000000E+01 0. -1.
         15    1    1    2    0    0  0.15006255686E+02 -0.18455241107E+02 -0.76567855865E+02  0.80197119118E+02  0.17770000000E+01 0.  1.
</event>
<event>
 6   1  0.1826851E-04  0.5013532E+03  0.7546771E-02  0.9396787E-01
        -11   -1    0    0    0    0  0.00000000000E+00  0.00000000000E+00  0.50000000000E+03  0.50000000000E+03  0.00000000000E+00 0.  1.
         11   -1    0    0    0    0 -0.00000000000E+00 -0.00000000000E+00 -0.50000000000E+03  0.50000000000E+03  0.00000000000E+00 0.  1.
        -11    1    1    2    0    0  0.17786862482E+02  0.22223353623E+02  0.10765946129E+03  0.11135892209E+03  0.00000000000E+00 0.  1.
         11    1    1    2    0    0 -0.14990391615E+02 -0.35915032871E+02 -0.49712575545E+03  0.49864678697E+03  0.00000000000E+00 0.  1.
        -15    1    1    2    0    0  0.41142907277E+01  0.10730567748E+01  0.16261784668E+03  0.16268312951E+03  0.17770000000E+01 0. -1.
         15    1    1    2    0    0 -0.69107615948E+01  0.12618622473E+02  0.22684844748E+03  0.22731116143E+03  0.17770000000E+01 0.  1.
</event>
<event>
 6   1  0.1826851E-04  0.5012200E+03  0.7546771E-02  0.9397084E-01
        -11   -1    0    0    0    0  0.00000000000E+00  0.00000000000E+00  0.50000000000E+03  0.50000000000E+03  0.00000000000E+00 0. -1.
         11   -1    0    0    0    0 -0.00000000000E+00 -0.00000000000E+00 -0.50000000000E+03  0.50000000000E+03  0.00000000000E+00 0. -1.
        -11    1    1    2    0    0 -0.25387525802E+01  0.76813684526E+01  0.49871439595E+03  0.49878000904E+03  0.00000000000E+00 0. -1.
         11    1    1    2    0    0  0.81949404862E+01  0.31954187712E+01 -0.45884824744E+03  0.45893254617E+03  0.00000000000E+00 0. -1.
        -15    1    1    2    0    0 -0.19215088795E+00 -0.43924445622E+01 -0.83550718693E+01  0.96070518962E+01  0.17770000000E+01 0. -1.
         15    1    1    2    0    0 -0.54640370181E+01 -0.64843426616E+01 -0.31511076640E+02  0.32680392903E+02  0.17770000000E+01 0.  1.
</event>
<event>
 6   1  0.1826851E-04  0.5002925E+03  0.7546771E-02  0.9399155E-01
        -11   -1    0    0    0    0  0.00000000000E+00  0.00000000000E+00  0.50000000000E+03  0.50000000000E+03  0.00000000000E+00 0.  1.
         11   -1    0    0    0    0 -0.00000000000E+00 -0.00000000000E+00 -0.50000000000E+03  0.50000000000E+03  0.00000000000E+00 0. -1.
        -11    1    1    2    0    0 -0.18960269870E+01 -0.11748961115E+02  0.49956576173E+03  0.49970749774E+03  0.00000000000E+00 0.  1.
         11    1    1    2    0    0 -0.65788120665E+01 -0.95402916712E-01 -0.55167727144E+02  0.55558689583E+02  0.00000000000E+00 0. -1.
        -15    1    1    2    0    0  0.28128312587E+01  0.68599971067E+01 -0.11927674666E+03  0.11952017237E+03  0.17770000000E+01 0.  1.
         15    1    1    2    0    0  0.56620077948E+01  0.49843669250E+01 -0.32512128793E+03  0.32521364031E+03  0.17770000000E+01 0. -1.
</event>
<event>
 6   1  0.1826851E-04  0.4826448E+03  0.7546771E-02  0.9439503E-01
        -11   -1    0    0    0    0  0.00000000000E+00  0.00000000000E+00  0.50000000000E+03  0.50000000000E+03  0.00000000000E+00 0.  1.
         11   -1    0    0    0    0 -0.00000000000E+00 -0.00000000000E+00 -0.50000000000E+03  0.50000000000E+03  0.00000000000E+00 0. -1.
        -11    1    1    2    0    0  0.11443588551E+01 -0.24096924201E+02  0.48245261675E+03  0.48305537853E+03  0.00000000000E+00 0.  1.
         11    1    1    2    0    0 -0.68390243950E+01 -0.11728683144E+01 -0.48253176967E+03  0.48258165798E+03  0.00000000000E+00 0. -1.
        -15    1    1    2    0    0  0.17518222068E+01  0.21671243919E+02  0.91769116432E+01  0.23666117771E+02  0.17770000000E+01 0. -1.
         15    1    1    2    0    0  0.39428433331E+01  0.35985485965E+01 -0.90977587255E+01  0.10696845721E+02  0.17770000000E+01 0.  1.
</event>
<event>
 6   1  0.1826851E-04  0.5004481E+03  0.7546771E-02  0.9398808E-01
        -11   -1    0    0    0    0  0.00000000000E+00  0.00000000000E+00  0.50000000000E+03  0.50000000000E+03  0.00000000000E+00 0. -1.
         11   -1    0    0    0    0 -0.00000000000E+00 -0.00000000000E+00 -0.50000000000E+03  0.50000000000E+03  0.00000000000E+00 0.  1.
        -11    1    1    2    0    0  0.74103491733E+01 -0.11528153762E+02  0.44296049383E+03  0.44317243901E+03  0.00000000000E+00 0. -1.
         11    1    1    2    0    0 -0.57840080680E+01  0.67292426627E+01 -0.49947312353E+03  0.49955193783E+03  0.00000000000E+00 0.  1.
        -15    1    1    2    0    0  0.19187275181E+01 -0.48966657855E+00  0.18938690880E+02  0.19124670714E+02  0.17770000000E+01 0.  1.
         15    1    1    2    0    0 -0.35450686234E+01  0.52885776780E+01  0.37573938817E+02  0.38150952448E+02  0.17770000000E+01 0. -1.
</event>
<event>
 6   1  0.1826851E-04  0.5001078E+03  0.7546771E-02  0.9399568E-01
        -11   -1    0    0    0    0  0.00000000000E+00  0.00000000000E+00  0.50000000000E+03  0.50000000000E+03  0.00000000000E+00 0.  1.
         11   -1    0    0    0    0 -0.00000000000E+00 -0.00000000000E+00 -0.50000000000E+03  0.50000000000E+03  0.00000000000E+00 0.  1.
        -11    1    1    2    0    0  0.93486194211E+01  0.27101920146E+02  0.49906941138E+03  0.49989217651E+03  0.00000000000E+00 0.  1.
         11    1    1    2    0    0 -0.75704054471E+01 -0.50082359346E+01 -0.13138377447E+03  0.13169696147E+03  0.00000000000E+00 0.  1.
        -15    1    1    2    0    0 -0.20008815509E+01 -0.75433858950E+01 -0.97599818170E+02  0.97927465165E+02  0.17770000000E+01 0. -1.
         15    1    1    2    0    0  0.22266757686E+00 -0.14550298317E+02 -0.27008581874E+03  0.27048339686E+03  0.17770000000E+01 0.  1.
</event>
<event>
 6   1  0.1826851E-04  0.5004280E+03  0.7546771E-02  0.9398853E-01
        -11   -1    0    0    0    0  0.00000000000E+00  0.00000000000E+00  0.50000000000E+03  0.50000000000E+03  0.00000000000E+00 0.  1.
         11   -1    0    0    0    0 -0.00000000000E+00 -0.00000000000E+00 -0.50000000000E+03  0.50000000000E+03  0.00000000000E+00 0.  1.
        -11    1    1    2    0    0 -0.76038537550E+01 -0.35074912486E+01  0.49950185666E+03  0.49957204275E+03  0.00000000000E+00 0.  1.
         11    1    1    2    0    0 -0.71777483188E+01  0.44130372988E+00 -0.34961318840E+03  0.34968714064E+03  0.00000000000E+00 0.  1.
        -15    1    1    2    0    0  0.36600207269E+01 -0.11596317879E+00 -0.28485420004E+02  0.28774747279E+02  0.17770000000E+01 0. -1.
         15    1    1    2    0    0  0.11121581347E+02  0.31821506975E+01 -0.12140324825E+03  0.12196606934E+03  0.17770000000E+01 0.  1.
</event>
<event>
 6   1  0.1826851E-04  0.5001375E+03  0.7546771E-02  0.9399502E-01
        -11   -1    0    0    0    0  0.00000000000E+00  0.00000000000E+00  0.50000000000E+03  0.50000000000E+03  0.00000000000E+00 0. -1.
         11   -1    0    0    0    0 -0.00000000000E+00 -0.00000000000E+00 -0.50000000000E+03  0.50000000000E+03  0.00000000000E+00 0. -1.
        -11    1    1    2    0    0  0.49580517682E+01 -0.18194627646E+02  0.49950667333E+03  0.49986252455E+03  0.00000000000E+00 0. -1.
         11    1    1    2    0    0  0.40873427510E+00  0.40596403608E+01 -0.27839323116E+03  0.27842312925E+03  0.00000000000E+00 0. -1.
        -15    1    1    2    0    0 -0.55586148887E+01  0.12574936967E+02 -0.19570271405E+03  0.19619311215E+03  0.17770000000E+01 0. -1.
         15    1    1    2    0    0  0.19182884538E+00  0.15600503184E+01 -0.25410728115E+02  0.25521234054E+02  0.17770000000E+01 0.  1.
</event>
<event>
 6   1  0.1826851E-04  0.5004161E+03  0.7546771E-02  0.9398879E-01
        -11   -1    0    0    0    0  0.00000000000E+00  0.00000000000E+00  0.50000000000E+03  0.50000000000E+03  0.00000000000E+00 0. -1.
         11   -1    0    0    0    0 -0.00000000000E+00 -0.00000000000E+00 -0.50000000000E+03  0.50000000000E+03  0.00000000000E+00 0.  1.
        -11    1    1    2    0    0  0.74171536973E+01 -0.13930871364E+02  0.49933450795E+03  0.49958386100E+03  0.00000000000E+00 0. -1.
         11    1    1    2    0    0  0.48674475639E-01 -0.50999344769E+01 -0.27047820607E+02  0.27524467306E+02  0.00000000000E+00 0.  1.
        -15    1    1    2    0    0 -0.32929906678E+01  0.15805620265E+02 -0.41909700260E+03  0.41941163162E+03  0.17770000000E+01 0.  1.
         15    1    1    2    0    0 -0.41728375051E+01  0.32251855764E+01 -0.53189684736E+02  0.53480040073E+02  0.17770000000E+01 0.  1.
</event>
<event>
 6   1  0.1826851E-04  0.5004302E+03  0.7546771E-02  0.9398848E-01
        -11   -1    0    0    0    0  0.00000000000E+00  0.00000000000E+00  0.50000000000E+03  0.50000000000E+03  0.00000000000E+00 0.  1.
         11   -1    0    0    0    0 -0.00000000000E+00 -0.00000000000E+00 -0.50000000000E+03  0.50000000000E+03  0.00000000000E+00 0. -1.
        -11    1    1    2    0    0 -0.57748531446E+01  0.66394716340E+01  0.52531298003E+02  0.53263202891E+02  0.00000000000E+00 0.  1.
         11    1    1    2    0    0 -0.49779354841E+01 -0.10396910017E+02 -0.49943680720E+03  0.49956981491E+03  0.00000000000E+00 0. -1.
        -15    1    1    2    0    0  0.12130038400E+02  0.32364404572E+01  0.40454351173E+03  0.40474216853E+03  0.17770000000E+01 0.  1.
         15    1    1    2    0    0 -0.13772497712E+01  0.52099792619E+00  0.42361997473E+02  0.42424813667E+02  0.17770000000E+01 0. -1.
</event>
<event>
 6   1  0.1826851E-04  0.5525449E+03  0.7546771E-02  0.9289351E-01
        -11   -1    0    0    0    0  0.00000000000E+00  0.00000000000E+00  0.50000000000E+03  0.50000000000E+03  0.00000000000E+00 0.  1.
         11   -1    0    0    0    0 -0.00000000000E+00 -0.00000000000E+00 -0.50000000000E+03  0.50000000000E+03  0.00000000000E+00 0.  1.
        -11    1    1    2    0    0  0.25790583546E+02  0.55131850960E+02  0.40408472019E+03  0.40864304262E+03  0.00000000000E+00 0.  1.
         11    1    1    2    0    0 -0.79052694259E+01 -0.44953582352E+01 -0.44736266315E+03  0.44745508592E+03  0.00000000000E+00 0.  1.
        -15    1    1    2    0    0 -0.24784391027E+01 -0.27661335370E+02 -0.44147734172E+02  0.52186897746E+02  0.17770000000E+01 0. -1.
         15    1    1    2    0    0 -0.15406875017E+02 -0.22975157355E+02  0.87425677135E+02  0.91714973722E+02  0.17770000000E+01 0.  1.
</event>
<event>
 6   1  0.1826851E-04  0.5023514E+03  0.7546771E-02  0.9394564E-01
        -11   -1    0    0    0    0  0.00000000000E+00  0.00000000000E+00  0.50000000000E+03  0.50000000000E+03  0.00000000000E+00 0.  1.
         11   -1    0    0    0    0 -0.00000000000E+00 -0.00000000000E+00 -0.50000000000E+03  0.50000000000E+03  0.00000000000E+00 0.  1.
        -11    1    1    2    0    0  0.96853909401E+01 -0.67347997182E+01  0.49750873296E+03  0.49764857449E+03  0.00000000000E+00 0.  1.
         11    1    1    2    0    0 -0.10780072080E+01  0.72521379811E+01 -0.47480477583E+03  0.47486138057E+03  0.00000000000E+00 0.  1.
        -15    1    1    2    0    0 -0.40399221802E+01  0.16196638873E+01 -0.21502060029E+02  0.22010011286E+02  0.17770000000E+01 0.  1.
         15    1    1    2    0    0 -0.45674615519E+01 -0.21370021503E+01 -0.12018970969E+01  0.54800336541E+01  0.17770000000E+01 0. -1.
</event>
<event>
 6   1  0.1826851E-04  0.5032515E+03  0.7546771E-02  0.9392563E-01
        -11   -1    0    0    0    0  0.00000000000E+00  0.00000000000E+00  0.50000000000E+03  0.50000000000E+03  0.00000000000E+00 0.  1.
         11   -1    0    0    0    0 -0.00000000000E+00 -0.00000000000E+00 -0.50000000000E+03  0.50000000000E+03  0.00000000000E+00 0.  1.
        -11    1    1    2    0    0 -0.15299745164E+01 -0.30552877884E+02  0.23437981456E+03  0.23636775720E+03  0.00000000000E+00 0.  1.
         11    1    1    2    0    0 -0.52646225992E+01 -0.12197743305E+02 -0.49657081569E+03  0.49674850397E+03  0.00000000000E+00 0.  1.
        -15    1    1    2    0    0 -0.77826988198E+01  0.11104172341E+02  0.49677707759E+02  0.51525774341E+02  0.17770000000E+01 0.  1.
         15    1    1    2    0    0  0.14577295935E+02  0.31646448849E+02  0.21251329337E+03  0.21535796450E+03  0.17770000000E+01 0. -1.
</event>
<event>
 6   1  0.1826851E-04  0.5054568E+03  0.7546771E-02  0.9387682E-01
        -11   -1    0    0    0    0  0.00000000000E+00  0.00000000000E+00  0.50000000000E+03  0.50000000000E+03  0.00000000000E+00 0.  1.
         11   -1    0    0    0    0 -0.00000000000E+00 -0.00000000000E+00 -0.50000000000E+03  0.50000000000E+03  0.00000000000E+00 0. -1.
        -11    1    1    2    0    0 -0.24500931967E+02  0.13549816641E+02  0.49375002949E+03  0.49454320824E+03  0.00000000000E+00 0.  1.
         11    1    1    2    0    0 -0.79185841790E+01  0.54760849362E+01 -0.42793105237E+03  0.42803934056E+03  0.00000000000E+00 0. -1.
        -15    1    1    2    0    0  0.94555462920E+01 -0.84413765110E+00 -0.78552001547E+01  0.12449169552E+02  0.17770000000E+01 0.  1.
         15    1    1    2    0    0  0.22963969854E+02 -0.18181763926E+02 -0.57963776967E+02  0.64968281647E+02  0.17770000000E+01 0. -1.
</event>
<event>
 6   1  0.1826851E-04  0.5000607E+03  0.7546771E-02  0.9399674E-01
        -11   -1    0    0    0    0  0.00000000000E+00  0.00000000000E+00  0.50000000000E+03  0.50000000000E+03  0.00000000000E+00 0. -1.
         11   -1    0    0    0    0 -0.00000000000E+00 -0.00000000000E+00 -0.50000000000E+03  0.50000000000E+03  0.00000000000E+00 0.  1.
        -11    1    1    2    0    0  0.47610265082E+01  0.81059671711E+01  0.49985086027E+03  0.49993925290E+03  0.00000000000E+00 0. -1.
         11    1    1    2    0    0 -0.25369808282E+01  0.86693138198E+00 -0.15976699536E+03  0.15978948854E+03  0.00000000000E+00 0.  1.
        -15    1    1    2    0    0 -0.27901736125E+01 -0.56219377463E+01 -0.14138917541E+03  0.14153956303E+03  0.17770000000E+01 0. -1.
         15    1    1    2    0    0  0.56612793253E+00 -0.33509608068E+01 -0.19869468950E+03  0.19873169552E+03  0.17770000000E+01 0.  1.
</event>
<event>
 6   1  0.1826851E-04  0.5067354E+03  0.7546771E-02  0.9384864E-01
        -11   -1    0    0    0    0  0.00000000000E+00  0.00000000000E+00  0.50000000000E+03  0.50000000000E+03  0.00000000000E+00 0.  1.
         11   -1    0    0    0    0 -0.00000000000E+00 -0.00000000000E+00 -0.50000000000E+03  0.50000000000E+03  0.00000000000E+00 0. -1.
        -11    1    1    2    0    0 -0.11531937613E+02  0.19998922878E+02  0.43299920043E+03  0.43361417190E+03  0.00000000000E+00 0.  1.
         11    1    1    2    0    0 -0.68673650755E+01  0.78420156677E+00 -0.49321612778E+03  0.49326455820E+03  0.00000000000E+00 0. -1.
        -15    1    1    2    0    0  0.37740743216E+01 -0.13682887854E+02  0.44125181312E+01  0.14969739553E+02  0.17770000000E+01 0. -1.
         15    1    1    2    0    0  0.14625228367E+02 -0.71002365906E+01  0.55804409219E+02  0.58151530347E+02  0.17770000000E+01 0.  1.
</event>
<event>
 6   1  0.1826851E-04  0.4640542E+03  0.7546771E-02  0.9484040E-01
        -11   -1    0    0    0    0  0.00000000000E+00  0.00000000000E+00  0.50000000000E+03  0.50000000000E+03  0.00000000000E+00 0. -1.
         11   -1    0    0    0    0 -0.00000000000E+00 -0.00000000000E+00 -0.50000000000E+03  0.50000000000E+03  0.00000000000E+00 0.  1.
        -11    1    1    2    0    0 -0.33124718759E+02 -0.55644984488E+02  0.45640880837E+03  0.46098005558E+03  0.00000000000E+00 0. -1.
         11    1    1    2    0    0  0.58568321917E+01 -0.28851382592E+01 -0.46941739782E+03  0.46946279926E+03  0.00000000000E+00 0.  1.
        -15    1    1    2    0    0  0.14245668483E+02  0.50058669310E+02  0.13885743960E+02  0.53896020799E+02  0.17770000000E+01 0. -1.
         15    1    1    2    0    0  0.13022218084E+02  0.84714534373E+01 -0.87715450291E+00  0.15661124359E+02  0.17770000000E+01 0.  1.
</event>
<event>
 6   1  0.1826851E-04  0.5008742E+03  0.7546771E-02  0.9397856E-01
        -11   -1    0    0    0    0  0.00000000000E+00  0.00000000000E+00  0.50000000000E+03  0.50000000000E+03  0.00000000000E+00 0.  1.
         11   -1    0    0    0    0 -0.00000000000E+00 -0.00000000000E+00 -0.50000000000E+03  0.50000000000E+03  0.00000000000E+00 0. -1.
        -11    1    1    2    0    0 -0.20285453486E+02 -0.15083337983E+02  0.16958105548E+03  0.17145477855E+03  0.00000000000E+00 0.  1.
         11    1    1    2    0    0  0.17785360031E+02  0.12917380687E+02 -0.49864158508E+03  0.49912584398E+03  0.00000000000E+00 0. -1.
        -15    1    1    2    0    0 -0.49833980959E+01  0.45881616586E+01  0.12084019108E+03  0.12104294690E+03  0.17770000000E+01 0. -1.
         15    1    1    2    0    0  0.74834915508E+01 -0.24222043633E+01  0.20822033851E+03  0.20837643058E+03  0.17770000000E+01 0.  1.
</event>
<event>
 6   1  0.1826851E-04  0.5043129E+03  0.7546771E-02  0.9390211E-01
        -11   -1    0    0    0    0  0.00000000000E+00  0.00000000000E+00  0.50000000000E+03  0.50000000000E+03  0.00000000000E+00 0. -1.
         11   -1    0    0    0    0 -0.00000000000E+00 -0.00000000000E+00 -0.50000000000E+03  0.50000000000E+03  0.00000000000E+00 0. -1.
        -11    1    1    2    0    0 -0.78398626813E+01  0.24102998658E+02  0.49503865512E+03  0.49568708684E+03  0.00000000000E+00 0. -1.
         11    1    1    2    0    0 -0.26926772566E+01  0.66061102772E+01 -0.42182062092E+03  0.42188093989E+03  0.00000000000E+00 0. -1.
        -15    1    1    2    0    0 -0.13733240679E+01 -0.76349330196E+01 -0.49520458093E+01  0.93732976004E+01  0.17770000000E+01 0. -1.
         15    1    1    2    0    0  0.11905864006E+02 -0.23074175916E+02 -0.68265988391E+02  0.73058675678E+02  0.17770000000E+01 0.  1.
</event>
<event>
 6   1  0.1826851E-04  0.5001086E+03  0.7546771E-02  0.9399567E-01
        -11   -1    0    0    0    0  0.00000000000E+00  0.00000000000E+00  0.50000000000E+03  0.50000000000E+03  0.00000000000E+00 0. -1.
         11   -1    0    0    0    0 -0.00000000000E+00 -0.00000000000E+00 -0.50000000000E+03  0.50000000000E+03  0.00000000000E+00 0. -1.
        -11    1    1    2    0    0 -0.12120704043E+02  0.94423688332E+01  0.49965525738E+03  0.49989143424E+03  0.00000000000E+00 0. -1.
         11    1    1    2    0    0  0.10868626329E+01  0.73368873371E+00 -0.48622729467E+02  0.48640409028E+02  0.00000000000E+00 0. -1.
        -15    1    1    2    0    0  0.12876943694E+02 -0.52469634606E+01 -0.35322107275E+03  0.35349912343E+03  0.17770000000E+01 0. -1.
         15    1    1    2    0    0 -0.18431022838E+01 -0.49290941063E+01 -0.97811455171E+02  0.97969033303E+02  0.17770000000E+01 0.  1.
</event>
<event>
 6   1  0.1826851E-04  0.5044807E+03  0.7546771E-02  0.9389839E-01
        -11   -1    0    0    0    0  0.00000000000E+00  0.00000000000E+00  0.50000000000E+03  0.50000000000E+03  0.00000000000E+00 0. -1.
         11   -1    0    0    0    0 -0.00000000000E+00 -0.00000000000E+00 -0.50000000000E+03  0.50000000000E+03  0.00000000000E+00 0. -1.
        -11    1    1    2    0    0  0.17482132073E+02  0.15315533615E+02  0.42405575960E+03  0.42469221533E+03  0.00000000000E+00 0. -1.
         11    1    1    2    0    0  0.77118589015E+01 -0.13972803621E+02 -0.49526225681E+03  0.49551933870E+03  0.00000000000E+00 0. -1.
        -15    1    1    2    0    0 -0.26071079292E+02 -0.90552484258E+01  0.59706155325E+02  0.65800314682E+02  0.17770000000E+01 0. -1.
         15    1    1    2    0    0  0.87708831780E+00  0.77125184321E+01  0.11500341887E+02  0.13988131290E+02  0.17770000000E+01 0.  1.
</event>
<event>
 6   1  0.1826851E-04  0.5014153E+03  0.7546771E-02  0.9396649E-01
        -11   -1    0    0    0    0  0.00000000000E+00  0.00000000000E+00  0.50000000000E+03  0.50000000000E+03  0.00000000000E+00 0. -1.
         11   -1    0    0    0    0 -0.00000000000E+00 -0.00000000000E+00 -0.50000000000E+03  0.50000000000E+03  0.00000000000E+00 0.  1.
        -11    1    1    2    0    0  0.18834629606E+02 -0.21131643547E+01  0.55683159417E+02  0.58820259933E+02  0.00000000000E+00 0. -1.
         11    1    1    2    0    0 -0.19511507834E+02  0.10229611106E+01 -0.49820175551E+03  0.49858473160E+03  0.00000000000E+00 0.  1.
        -15    1    1    2    0    0 -0.20588321722E+01 -0.20718550677E+01  0.24685393671E+03  0.24687761173E+03  0.17770000000E+01 0.  1.
         15    1    1    2    0    0  0.27357104009E+01  0.31620583118E+01  0.19566465939E+03  0.19571739674E+03  0.17770000000E+01 0. -1.
</event>
<event>
 6   1  0.1826851E-04  0.5001490E+03  0.7546771E-02  0.9399476E-01
        -11   -1    0    0    0    0  0.00000000000E+00  0.00000000000E+00  0.50000000000E+03  0.50000000000E+03  0.00000000000E+00 0.  1.
         11   -1    0    0    0    0 -0.00000000000E+00 -0.00000000000E+00 -0.50000000000E+03  0.50000000000E+03  0.00000000000E+00 0.  1.
        -11    1    1    2    0    0 -0.10976498865E+02  0.14371630146E+01  0.49972841499E+03  0.49985101552E+03  0.00000000000E+00 0.  1.
         11    1    1    2    0    0  0.17832760470E+01  0.46685722346E+01 -0.27797770792E+03  0.27802262811E+03  0.00000000000E+00 0.  1.
        -15    1    1    2    0    0  0.84742623110E+01 -0.32269544563E+01 -0.14169676965E+03  0.14199774158E+03  0.17770000000E+01 0.  1.
         15    1    1    2    0    0  0.71896050670E+00 -0.28787807928E+01 -0.80053937417E+02  0.80128614789E+02  0.17770000000E+01 0. -1.
</event>
<event>
 6   1  0.1826851E-04  0.5016191E+03  0.7546771E-02  0.9396194E-01
        -11   -1    0    0    0    0  0.00000000000E+00  0.00000000000E+00  0.50000000000E+03  0.50000000000E+03  0.00000000000E+00 0.  1.
         11   -1    0    0    0    0 -0.00000000000E+00 -0.00000000000E+00 -0.50000000000E+03  0.50000000000E+03  0.00000000000E+00 0. -1.
        -11    1    1    2    0    0  0.16977819058E+01  0.18555552271E+02  0.66100914163E+02  0.68676938172E+02  0.00000000000E+00 0.  1.
         11    1    1    2    0    0 -0.32603980664E+01 -0.58790054331E+01 -0.49833560806E+03  0.49838094983E+03  0.00000000000E+00 0. -1.
        -15    1    1    2    0    0  0.69023702029E+00 -0.18457307371E+02  0.31008431754E+03  0.31063900325E+03  0.17770000000E+01 0.  1.
         15    1    1    2    0    0  0.87237914022E+00  0.57807605337E+01  0.12215037635E+03  0.12230310875E+03  0.17770000000E+01 0. -1.
</event>
<event>
 6   1  0.1826851E-04  0.5049836E+03  0.7546771E-02  0.9388727E-01
        -11   -1    0    0    0    0  0.00000000000E+00  0.00000000000E+00  0.50000000000E+03  0.50000000000E+03  0.00000000000E+00 0.  1.
         11   -1    0    0    0    0 -0.00000000000E+00 -0.00000000000E+00 -0.50000000000E+03  0.50000000000E+03  0.00000000000E+00 0.  1.
        -11    1    1    2    0    0  0.22197895086E+02 -0.12024021480E+02  0.38875230701E+03  0.38957114863E+03  0.00000000000E+00 0.  1.
         11    1    1    2    0    0  0.12635422880E+02 -0.98138203428E+01 -0.49475783008E+03  0.49501643953E+03  0.00000000000E+00 0.  1.
        -15    1    1    2    0    0 -0.26582726557E+02  0.24678195456E+02  0.90774594990E+02  0.97769317819E+02  0.17770000000E+01 0.  1.
         15    1    1    2    0    0 -0.82505914095E+01 -0.28403536330E+01  0.15230928084E+02  0.17643094022E+02  0.17770000000E+01 0. -1.
</event>
<event>
 6   1  0.1826851E-04  0.5197075E+03  0.7546771E-02  0.9356761E-01
        -11   -1    0    0    0    0  0.00000000000E+00  0.00000000000E+00  0.50000000000E+03  0.50000000000E+03  0.00000000000E+00 0.  1.
         11   -1    0    0    0    0 -0.00000000000E+00 -0.00000000000E+00 -0.50000000000E+03  0.50000000000E+03  0.00000000000E+00 0. -1.
        -11    1    1    2    0    0 -0.92631664804E+02 -0.38082713926E+02  0.46973389172E+03  0.48029246033E+03  0.00000000000E+00 0.  1.
         11    1    1    2    0    0  0.96733432079E+01  0.12538613608E+02 -0.36986517077E+03  0.37020404502E+03  0.00000000000E+00 0. -1.
        -15    1    1    2    0    0  0.72677686616E+02  0.37876887049E+02 -0.47593459411E+02  0.94789238904E+02  0.17770000000E+01 0.  1.
         15    1    1    2    0    0  0.10280634980E+02 -0.12332786731E+02 -0.52275261537E+02  0.54714255747E+02  0.17770000000E+01 0. -1.
</event>
<event>
 6   1  0.1826851E-04  0.5002860E+03  0.7546771E-02  0.9399170E-01
        -11   -1    0    0    0    0  0.00000000000E+00  0.00000000000E+00  0.50000000000E+03  0.50000000000E+03  0.00000000000E+00 0. -1.
         11   -1    0    0    0    0 -0.00000000000E+00 -0.00000000000E+00 -0.50000000000E+03  0.50000000000E+03  0.00000000000E+00 0.  1.
        -11    1    1    2    0    0 -0.92331171692E+01 -0.95429398965E+01  0.49953750102E+03  0.49971395126E+03  0.00000000000E+00 0. -1.
         11    1    1    2    0    0 -0.36551547079E+01  0.38431051892E+01 -0.34251085526E+03  0.34255191663E+03  0.00000000000E+00 0.  1.
        -15    1    1    2    0    0  0.37296685651E+01  0.32673360861E+01 -0.52228981615E+02  0.52493905954E+02  0.17770000000E+01 0.  1.
         15    1    1    2    0    0  0.91586033119E+01  0.24324986211E+01 -0.10479766414E+03  0.10524022617E+03  0.17770000000E+01 0. -1.
</event>
<event>
 6   1  0.1826851E-04  0.5001370E+03  0.7546771E-02  0.9399503E-01
        -11   -1    0    0    0    0  0.00000000000E+00  0.00000000000E+00  0.50000000000E+03  0.50000000000E+03  0.00000000000E+00 0.  1.
         11   -1    0    0    0    0 -0.00000000000E+00 -0.00000000000E+00 -0.50000000000E+03  0.50000000000E+03  0.00000000000E+00 0.  1.
        -11    1    1    2    0    0  0.62988342718E+01 -0.10015870957E+02  0.21867257311E+03  0.21899243643E+03  0.00000000000E+00 0.  1.
         11    1    1    2    0    0 -0.56090794573E+01  0.96788306632E+01 -0.49973779481E+03  0.49986298632E+03  0.00000000000E+00 0.  1.
        -15    1    1    2    0    0 -0.68094156610E+00  0.28751706109E+01  0.11985188125E+03  0.11990146562E+03  0.17770000000E+01 0. -1.
         15    1    1    2    0    0 -0.88132484482E-02 -0.25381303172E+01  0.16121334044E+03  0.16124311163E+03  0.17770000000E+01 0.  1.
</event>
<event>
 6   1  0.1826851E-04  0.5012929E+03  0.7546771E-02  0.9396921E-01
        -11   -1    0    0    0    0  0.00000000000E+00  0.00000000000E+00  0.50000000000E+03  0.50000000000E+03  0.00000000000E+00 0.  1.
         11   -1    0    0    0    0 -0.00000000000E+00 -0.00000000000E+00 -0.50000000000E+03  0.50000000000E+03  0.00000000000E+00 0.  1.
        -11    1    1    2    0    0 -0.49376874848E+01  0.10260407109E+02  0.49857709997E+03  0.49870710976E+03  0.00000000000E+00 0.  1.
         11    1    1    2    0    0 -0.44425752305E+01  0.83146749272E+01 -0.40013113219E+03  0.40024216825E+03  0.00000000000E+00 0.  1.
        -15    1    1    2    0    0 -0.12016982641E+00 -0.50548562744E+01 -0.37432038925E+02  0.37813771034E+02  0.17770000000E+01 0. -1.
         15    1    1    2    0    0  0.95004325417E+01 -0.13520225762E+02 -0.61013928853E+02  0.63236950956E+02  0.17770000000E+01 0.  1.
</event>
<event>
 6   1  0.1826851E-04  0.5007437E+03  0.7546771E-02  0.9398147E-01
        -11   -1    0    0    0    0  0.00000000000E+00  0.00000000000E+00  0.50000000000E+03  0.50000000000E+03  0.00000000000E+00 0.  1.
         11   -1    0    0    0    0 -0.00000000000E+00 -0.00000000000E+00 -0.50000000000E+03  0.50000000000E+03  0.00000000000E+00 0. -1.
        -11    1    1    2    0    0  0.38360125191E+01  0.15671756360E+02  0.49899548563E+03  0.49925626047E+03  0.00000000000E+00 0.  1.
         11    1    1    2    0    0  0.77552005063E+01  0.46455984463E+01 -0.31113318739E+03  0.31126449366E+03  0.00000000000E+00 0. -1.
        -15    1    1    2    0    0 -0.36241995831E+01 -0.50272016507E+01 -0.77090420863E+02  0.77359539146E+02  0.17770000000E+01 0.  1.
         15    1    1    2    0    0 -0.79670134423E+01 -0.15290153156E+02 -0.11077187738E+03  0.11211970672E+03  0.17770000000E+01 0.  1.
</event>
<event>
 6   1  0.1826851E-04  0.5117752E+03  0.7546771E-02  0.9373840E-01
        -11   -1    0    0    0    0  0.00000000000E+00  0.00000000000E+00  0.50000000000E+03  0.50000000000E+03  0.00000000000E+00 0. -1.
         11   -1    0    0    0    0 -0.00000000000E+00 -0.00000000000E+00 -0.50000000000E+03  0.50000000000E+03  0.00000000000E+00 0. -1.
        -11    1    1    2    0    0  0.15016330334E+02  0.28622709640E+02  0.45315970557E+03  0.45431098208E+03  0.00000000000E+00 0. -1.
         11    1    1    2    0    0  0.12469316234E+02 -0.14170522547E+02 -0.48785975679E+03  0.48822477390E+03  0.00000000000E+00 0. -1.
        -15    1    1    2    0    0 -0.34749087997E+01  0.89487325986E+01  0.87019692619E+00  0.98015191668E+01  0.17770000000E+01 0. -1.
         15    1    1    2    0    0 -0.24010737769E+02 -0.23400919692E+02  0.33829854289E+02  0.47662724857E+02  0.17770000000E+01 0.  1.
</event>
<event>
 6   1  0.1826851E-04  0.5025860E+03  0.7546771E-02  0.9394042E-01
        -11   -1    0    0    0    0  0.00000000000E+00  0.00000000000E+00  0.50000000000E+03  0.50000000000E+03  0.00000000000E+00 0.  1.
         11   -1    0    0    0    0 -0.00000000000E+00 -0.00000000000E+00 -0.50000000000E+03  0.50000000000E+03  0.00000000000E+00 0. -1.
        -11    1    1    2    0    0 -0.20683045834E+01 -0.11671199469E+02  0.49727277442E+03  0.49741401966E+03  0.00000000000E+00 0.  1.
         11    1    1    2    0    0  0.64466051256E+01 -0.16347686181E+01 -0.46996768852E+03  0.47001474386E+03  0.00000000000E+00 0. -1.
        -15    1    1    2    0    0 -0.66878396941E+01  0.50146876261E+01 -0.99379597038E+01  0.13107061602E+02  0.17770000000E+01 0.  1.
         15    1    1    2    0    0  0.23095391518E+01  0.82912804608E+01 -0.17367126188E+02  0.19464174881E+02  0.17770000000E+01 0. -1.
</event>
<event>
 6   1  0.1826851E-04  0.4677726E+03  0.7546771E-02  0.9474957E-01
        -11   -1    0    0    0    0  0.00000000000E+00  0.00000000000E+00  0.50000000000E+03  0.50000000000E+03  0.00000000000E+00 0.  1.
         11   -1    0    0    0    0 -0.00000000000E+00 -0.00000000000E+00 -0.50000000000E+03  0.50000000000E+03  0.00000000000E+00 0. -1.
        -11    1    1    2    0    0  0.48049459877E+02 -0.19010107557E+02  0.48143476559E+03  0.48419992596E+03  0.00000000000E+00 0.  1.
         11    1    1    2    0    0  0.52107053158E+01  0.95542131213E+01 -0.45320226823E+03  0.45333291340E+03  0.00000000000E+00 0. -1.
        -15    1    1    2    0    0 -0.19107329719E+01 -0.17164485575E+01 -0.12150448627E+01  0.33512921626E+01  0.17770000000E+01 0.  1.
         15    1    1    2    0    0 -0.51349432220E+02  0.11172342994E+02 -0.27017452497E+02  0.59115868477E+02  0.17770000000E+01 0.  1.
</event>
<event>
 6   1  0.1826851E-04  0.5002390E+03  0.7546771E-02  0.9399275E-01
        -11   -1    0    0    0    0  0.00000000000E+00  0.00000000000E+00  0.50000000000E+03  0.50000000000E+03  0.00000000000E+00 0. -1.
         11   -1    0    0    0    0 -0.00000000000E+00 -0.00000000000E+00 -0.50000000000E+03  0.50000000000E+03  0.00000000000E+00 0.  1.
        -11    1    1    2    0    0 -0.11710698066E+01 -0.90985902388E+01  0.90200541538E+02  0.90665833932E+02  0.00000000000E+00 0. -1.
         11    1    1    2    0    0  0.96199467299E+01  0.51217451381E+01 -0.49964218000E+03  0.49976102657E+03  0.00000000000E+00 0.  1.
        -15    1    1    2    0    0 -0.37919727503E+01  0.23084899539E+01  0.14374411186E+03  0.14382362674E+03  0.17770000000E+01 0. -1.
         15    1    1    2    0    0 -0.46569041730E+01  0.16683551467E+01  0.26569752659E+03  0.26574951276E+03  0.17770000000E+01 0. -1.
</event>
<event>
 6   1  0.1826851E-04  0.5007714E+03  0.7546771E-02  0.9398085E-01
        -11   -1    0    0    0    0  0.00000000000E+00  0.00000000000E+00  0.50000000000E+03  0.50000000000E+03  0.00000000000E+00 0. -1.
         11   -1    0    0    0    0 -0.00000000000E+00 -0.00000000000E+00 -0.50000000000E+03  0.50000000000E+03  0.00000000000E+00 0.  1.
        -11    1    1    2    0    0 -0.46931419740E+00 -0.14889938442E+02  0.49900630501E+03  0.49922862795E+03  0.00000000000E+00 0. -1.
         11    1    1    2    0    0 -0.31829694318E+01  0.36675014649E+01 -0.33309904673E+03  0.33313444253E+03  0.00000000000E+00 0.  1.
        -15    1    1    2    0    0  0.51089472715E+01 -0.51232209426E+01 -0.46158975649E+02  0.46756363172E+02  0.17770000000E+01 0. -1.
         15    1    1    2    0    0 -0.14566636423E+01  0.16345657920E+02 -0.11974828263E+03  0.12088056636E+03  0.17770000000E+01 0.  1.
</event>
<event>
 6   1  0.1826851E-04  0.5000314E+03  0.7546771E-02  0.9399739E-01
        -11   -1    0    0    0    0  0.00000000000E+00  0.00000000000E+00  0.50000000000E+03  0.50000000000E+03  0.00000000000E+00 0. -1.
         11   -1    0    0    0    0 -0.00000000000E+00 -0.00000000000E+00 -0.50000000000E+03  0.50000000000E+03  0.00000000000E+00 0.  1.
        -11    1    1    2    0    0 -0.16621544586E+01 -0.44487658578E+01  0.96106698513E+02  0.96223966735E+02  0.00000000000E+00 0. -1.
         11    1    1    2    0    0  0.12063443697E+02  0.11414013024E+02 -0.49969266507E+03  0.49996856490E+03  0.00000000000E+00 0.  1.
        -15    1    1    2    0    0 -0.71240857035E+01 -0.54794932991E+01  0.24635605322E+03  0.24652634774E+03  0.17770000000E+01 0. -1.
         15    1    1    2    0    0 -0.32772035349E+01 -0.14857538668E+01  0.15722991333E+03  0.15728112062E+03  0.17770000000E+01 0.  1.
</event>
<event>
 6   1  0.1826851E-04  0.4774417E+03  0.7546771E-02  0.9451750E-01
        -11   -1    0    0    0    0  0.00000000000E+00  0.00000000000E+00  0.50000000000E+03  0.50000000000E+03  0.00000000000E+00 0. -1.
         11   -1    0    0    0    0 -0.00000000000E+00 -0.00000000000E+00 -0.50000000000E+03  0.50000000000E+03  0.00000000000E+00 0.  1.
        -11    1    1    2    0    0  0.24078500070E+02  0.24193469309E+02  0.47938942679E+03  0.48060308014E+03  0.00000000000E+00 0. -1.
         11    1    1    2    0    0  0.64842842300E+01 -0.49145001053E+01 -0.47490456279E+03  0.47497425406E+03  0.00000000000E+00 0.  1.
        -15    1    1    2    0    0 -0.23349726846E+02 -0.13169241788E+02  0.85763916996E+01  0.28201966184E+02  0.17770000000E+01 0.  1.
         15    1    1    2    0    0 -0.72130574543E+01 -0.61097274151E+01 -0.13061255694E+02  0.16220699622E+02  0.17770000000E+01 0. -1.
</event>
<event>
 6   1  0.1826851E-04  0.5020040E+03  0.7546771E-02  0.9395337E-01
        -11   -1    0    0    0    0  0.00000000000E+00  0.00000000000E+00  0.50000000000E+03  0.50000000000E+03  0.00000000000E+00 0.  1.
         11   -1    0    0    0    0 -0.00000000000E+00 -0.00000000000E+00 -0.50000000000E+03  0.50000000000E+03  0.00000000000E+00 0. -1.
        -11    1    1    2    0    0 -0.13870186623E+02 -0.24211867007E+02  0.30404790673E+03  0.30532560680E+03  0.00000000000E+00 0.  1.
         11    1    1    2    0    0  0.14377241564E+02 -0.73933739204E+01 -0.49773348510E+03  0.49799597312E+03  0.00000000000E+00 0. -1.
        -15    1    1    2    0    0 -0.51348518870E+01  0.82078619326E+01  0.43450918034E+02  0.44551943935E+02  0.17770000000E+01 0.  1.
         15    1    1    2    0    0  0.46277969467E+01  0.23397378995E+02  0.15023466034E+03  0.15212647615E+03  0.17770000000E+01 0. -1.
</event>
<event>
 6   1  0.1826851E-04  0.5009316E+03  0.7546771E-02  0.9397728E-01
        -11   -1    0    0    0    0  0.00000000000E+00  0.00000000000E+00  0.50000000000E+03  0.50000000000E+03  0.00000000000E+00 0. -1.
         11   -1    0    0    0    0 -0.00000000000E+00 -0.00000000000E+00 -0.50000000000E+03  0.50000000000E+03  0.00000000000E+00 0. -1.
        -11    1    1    2    0    0  0.56723259083E+01 -0.11116192809E+02  0.28583151480E+03  0.28610382710E+03  0.00000000000E+00 0. -1.
         11    1    1    2    0    0 -0.61554975419E+01 -0.10146176081E+02 -0.49892733093E+03  0.49906844880E+03  0.00000000000E+00 0. -1.
        -15    1    1    2    0    0  0.14836696282E+01  0.15788038169E+01  0.45394677502E+01  0.53346408982E+01  0.17770000000E+01 0. -1.
         15    1    1    2    0    0 -0.10004979945E+01  0.19683565073E+02  0.20855634838E+03  0.20949308320E+03  0.17770000000E+01 0.  1.
</event>
<event>
 6   1  0.1826851E-04  0.5023298E+03  0.7546771E-02  0.9394612E-01
        -11   -1    0    0    0    0  0.00000000000E+00  0.00000000000E+00  0.50000000000E+03  0.50000000000E+03  0.00000000000E+00 0. -1.
         11   -1    0    0    0    0 -0.00000000000E+00 -0.00000000000E+00 -0.50000000000E+03  0.50000000000E+03  0.00000000000E+00 0.  1.
        -11    1    1    2    0    0  0.11357961127E+02 -0.61007568282E+01  0.49750316705E+03  0.49767019575E+03  0.00000000000E+00 0. -1.
         11    1    1    2    0    0 -0.97617175392E+01 -0.10927145974E+02 -0.46019137447E+03  0.46042458099E+03  0.00000000000E+00 0.  1.
        -15    1    1    2    0    0  0.26035905142E+01  0.37447389005E+01 -0.11967972096E+02  0.12930268291E+02  0.17770000000E+01 0. -1.
         15    1    1    2    0    0 -0.41998341024E+01  0.13283163901E+02 -0.25343820482E+02  0.28974954967E+02  0.17770000000E+01 0.  1.
</event>
<event>
 6   1  0.1826851E-04  0.5025446E+03  0.7546771E-02  0.9394134E-01
        -11   -1    0    0    0    0  0.00000000000E+00  0.00000000000E+00  0.50000000000E+03  0.50000000000E+03  0.00000000000E+00 0. -1.
         11   -1    0    0    0    0 -0.00000000000E+00 -0.00000000000E+00 -0.50000000000E+03  0.50000000000E+03  0.00000000000E+00 0.  1.
        -11    1    1    2    0    0  0.12181502244E+02  0.34710956402E+01  0.45239573764E+03  0.45257302277E+03  0.00000000000E+00 0. -1.
         11    1    1    2    0    0  0.58417525535E+01  0.34047990786E+01 -0.49740940873E+03  0.49745536345E+03  0.00000000000E+00 0.  1.
        -15    1    1    2    0    0 -0.82453219396E+00 -0.82987597598E+00  0.11088553096E+01  0.23991324624E+01  0.17770000000E+01 0. -1.
         15    1    1    2    0    0 -0.17198722604E+02 -0.60460187428E+01  0.43904815778E+02  0.47572481324E+02  0.17770000000E+01 0. -1.
</event>
<event>
 6   1  0.1826851E-04  0.5000672E+03  0.7546771E-02  0.9399659E-01
        -11   -1    0    0    0    0  0.00000000000E+00  0.00000000000E+00  0.50000000000E+03  0.50000000000E+03  0.00000000000E+00 0. -1.
         11   -1    0    0    0    0 -0.00000000000E+00 -0.00000000000E+00 -0.50000000000E+03  0.50000000000E+03  0.00000000000E+00 0. -1.
        -11    1    1    2    0    0  0.43386553409E+01 -0.63066010337E+01  0.49987415555E+03  0.49993276402E+03  0.00000000000E+00 0. -1.
         11    1    1    2    0    0  0.16893804318E+01  0.42348543837E+01 -0.12589099114E+03  0.12597352757E+03  0.00000000000E+00 0. -1.
        -15    1    1    2    0    0 -0.18564935474E+01  0.30607909710E+01 -0.11605261386E+03  0.11612141026E+03  0.17770000000E+01 0.  1.
         15    1    1    2    0    0 -0.41715422253E+01 -0.98904432099E+00 -0.25793055056E+03  0.25797229815E+03  0.17770000000E+01 0. -1.
</event>
<event>
 6   1  0.1826851E-04  0.4529982E+03  0.7546771E-02  0.9511594E-01
        -11   -1    0    0    0    0  0.00000000000E+00  0.00000000000E+00  0.50000000000E+03  0.50000000000E+03  0.00000000000E+00 0.  1.
         11   -1    0    0    0    0 -0.00000000000E+00 -0.00000000000E+00 -0.50000000000E+03  0.50000000000E+03  0.00000000000E+00 0.  1.
        -11    1    1    2    0    0  0.27614316041E+02  0.67699655654E+02  0.43636377064E+03  0.44244675855E+03  0.00000000000E+00 0.  1.
         11    1    1    2    0    0 -0.67661511899E-01  0.95537159473E+01 -0.46769629090E+03  0.46779386335E+03  0.00000000000E+00 0.  1.
        -15    1    1    2    0    0 -0.22349248366E+01 -0.51708676581E+01  0.78313024136E+01  0.98091685609E+01  0.17770000000E+01 0.  1.
         15    1    1    2    0    0 -0.25311729693E+02 -0.72082503943E+02  0.23501217849E+02  0.79950209532E+02  0.17770000000E+01 0. -1.
</event>
<event>
 6   1  0.1826851E-04  0.5001559E+03  0.7546771E-02  0.9399461E-01
        -11   -1    0    0    0    0  0.00000000000E+00  0.00000000000E+00  0.50000000000E+03  0.50000000000E+03  0.00000000000E+00 0. -1.
         11   -1    0    0    0    0 -0.00000000000E+00 -0.00000000000E+00 -0.50000000000E+03  0.50000000000E+03  0.00000000000E+00 0.  1.
        -11    1    1    2    0    0  0.73788594118E+01 -0.33908155078E+01  0.20064186164E+03  0.20080612998E+03  0.00000000000E+00 0. -1.
         11    1    1    2    0    0  0.91313067305E-02  0.98179456234E+01 -0.49974771314E+03  0.49984414464E+03  0.00000000000E+00 0.  1.
        -15    1    1    2    0    0 -0.23276702089E+01 -0.95136432986E+00  0.16238775130E+03  0.16241694075E+03  0.17770000000E+01 0.  1.
         15    1    1    2    0    0 -0.50603205096E+01 -0.54757657857E+01  0.13671810021E+03  0.13693278463E+03  0.17770000000E+01 0. -1.
</event>
<event>
 6   1  0.1826851E-04  0.5051509E+03  0.7546771E-02  0.9388357E-01
        -11   -1    0    0    0    0  0.00000000000E+00  0.00000000000E+00  0.50000000000E+03  0.50000000000E+03  0.00000000000E+00 0. -1.
         11   -1    0    0    0    0 -0.00000000000E+00 -0.00000000000E+00 -0.50000000000E+03  0.50000000000E+03  0.00000000000E+00 0.  1.
        -11    1    1    2    0    0  0.28417190747E+02 -0.10150004970E+02  0.42779571101E+03  0.42885863602E+03  0.00000000000E+00 0. -1.
         11    1    1    2    0    0  0.74481306191E+01  0.12251723643E+02 -0.49464129971E+03  0.49484906260E+03  0.00000000000E+00 0.  1.
        -15    1    1    2    0    0 -0.31493155123E+02 -0.33524034846E+01  0.60200166636E+02  0.68046125685E+02  0.17770000000E+01 0.  1.
         15    1    1    2    0    0 -0.43721662434E+01  0.12506848114E+01  0.66454220669E+01  0.82461756957E+01  0.17770000000E+01 0. -1.
</event>
<event>
 6   1  0.1826851E-04  0.5007419E+03  0.7546771E-02  0.9398151E-01
        -11   -1    0    0    0    0  0.00000000000E+00  0.00000000000E+00  0.50000000000E+03  0.50000000000E+03  0.00000000000E+00 0. -1.
         11   -1    0    0    0    0 -0.00000000000E+00 -0.00000000000E+00 -0.50000000000E+03  0.50000000000E+03  0.00000000000E+00 0.  1.
        -11    1    1    2    0    0  0.19067924983E+01 -0.13589037364E+02  0.78171806495E+02  0.79367053144E+02  0.00000000000E+00 0. -1.
         11    1    1    2    0    0  0.27190422252E+02  0.14490386640E+02 -0.49830648453E+03  0.49925809247E+03  0.00000000000E+00 0.  1.
        -15    1    1    2    0    0 -0.48500094580E+01  0.24666264412E+01  0.35561391514E+02  0.36019121771E+02  0.17770000000E+01 0. -1.
         15    1    1    2    0    0 -0.24247205293E+02 -0.33679757167E+01  0.38457328652E+03  0.38535573262E+03  0.17770000000E+01 0. -1.
</event>
<event>
 6   1  0.1826851E-04  0.5017130E+03  0.7546771E-02  0.9395985E-01
        -11   -1    0    0    0    0  0.00000000000E+00  0.00000000000E+00  0.50000000000E+03  0.50000000000E+03  0.00000000000E+00 0. -1.
         11   -1    0    0    0    0 -0.00000000000E+00 -0.00000000000E+00 -0.50000000000E+03  0.50000000000E+03  0.00000000000E+00 0.  1.
        -11    1    1    2    0    0  0.94374632355E-01 -0.67354083774E+01  0.49824143154E+03  0.49828696424E+03  0.00000000000E+00 0. -1.
         11    1    1    2    0    0 -0.63844314938E+01 -0.77901265419E+00 -0.43584900836E+03  0.43589646238E+03  0.00000000000E+00 0.  1.
        -15    1    1    2    0    0  0.37286112097E+01  0.45979757748E+01 -0.42113952898E+01  0.74791377889E+01  0.17770000000E+01 0.  1.
         15    1    1    2    0    0  0.25614456517E+01  0.29164452568E+01 -0.58181027886E+02  0.58337435594E+02  0.17770000000E+01 0. -1.
</event>
<event>
 6   1  0.1826851E-04  0.5083361E+03  0.7546771E-02  0.9381348E-01
        -11   -1    0    0    0    0  0.00000000000E+00  0.00000000000E+00  0.50000000000E+03  0.50000000000E+03  0.00000000000E+00 0.  1.
         11   -1    0    0    0    0 -0.00000000000E+00 -0.00000000000E+00 -0.50000000000E+03  0.50000000000E+03  0.00000000000E+00 0.  1.
        -11    1    1    2    0    0 -0.94477575100E+01  0.89625783654E+01  0.49149139995E+03  0.49166389349E+03  0.00000000000E+00 0.  1.
         11    1    1    2    0    0 -0.81068709191E+01 -0.14389433495E+02 -0.47844159083E+03  0.47872657435E+03  0.00000000000E+00 0.  1.
        -15    1    1    2    0    0  0.14334919928E+02  0.11133589296E+02 -0.46721821974E+01  0.18826411114E+02  0.17770000000E+01 0.  1.
         15    1    1    2    0    0  0.32197085016E+01 -0.57067341661E+01 -0.83776269259E+01  0.10783121050E+02  0.17770000000E+01 0. -1.
</event>
<event>
 6   1  0.1826851E-04  0.5011545E+03  0.7546771E-02  0.9397230E-01
        -11   -1    0    0    0    0  0.00000000000E+00  0.00000000000E+00  0.50000000000E+03  0.50000000000E+03  0.00000000000E+00 0.  1.
         11   -1    0    0    0    0 -0.00000000000E+00 -0.00000000000E+00 -0.50000000000E+03  0.50000000000E+03  0.00000000000E+00 0. -1.
        -11    1    1    2    0    0 -0.81903436946E+01 -0.43861180828E+01  0.49875898090E+03  0.49884550794E+03  0.00000000000E+00 0.  1.
         11    1    1    2    0    0 -0.44612996663E+01  0.66563106905E+01 -0.44253614556E+03  0.44260868699E+03  0.00000000000E+00 0. -1.
        -15    1    1    2    0    0  0.10149815147E+02  0.23729934485E+01 -0.32413188500E+02  0.34094315701E+02  0.17770000000E+01 0. -1.
         15    1    1    2    0    0  0.25018282138E+01 -0.46431860562E+01 -0.23809646837E+02  0.24451489375E+02  0.17770000000E+01 0.  1.
</event>
<event>
 6   1  0.1826851E-04  0.5020235E+03  0.7546771E-02  0.9395293E-01
        -11   -1    0    0    0    0  0.00000000000E+00  0.00000000000E+00  0.50000000000E+03  0.50000000000E+03  0.00000000000E+00 0. -1.
         11   -1    0    0    0    0 -0.00000000000E+00 -0.00000000000E+00 -0.50000000000E+03  0.50000000000E+03  0.00000000000E+00 0.  1.
        -11    1    1    2    0    0 -0.10862160674E+01  0.38000087033E+02  0.49652331260E+03  0.49797649185E+03  0.00000000000E+00 0. -1.
         11    1    1    2    0    0  0.33823167146E+01 -0.21335913001E+01 -0.22352156082E+03  0.22355733142E+03  0.00000000000E+00 0.  1.
        -15    1    1    2    0    0 -0.21521856052E+02 -0.20318510443E+02 -0.16629183288E+03  0.16891466356E+03  0.17770000000E+01 0. -1.
         15    1    1    2    0    0  0.19225755405E+02 -0.15547985290E+02 -0.10670991890E+03  0.10955151317E+03  0.17770000000E+01 0.  1.
</event>
<event>
 6   1  0.1826851E-04  0.5025071E+03  0.7546771E-02  0.9394217E-01
        -11   -1    0    0    0    0  0.00000000000E+00  0.00000000000E+00  0.50000000000E+03  0.50000000000E+03  0.00000000000E+00 0. -1.
         11   -1    0    0    0    0 -0.00000000000E+00 -0.00000000000E+00 -0.50000000000E+03  0.50000000000E+03  0.00000000000E+00 0. -1.
        -11    1    1    2    0    0  0.19800097260E+02 -0.75474860082E+00  0.36685309644E+03  0.36738781671E+03  0.00000000000E+00 0. -1.
         11    1    1    2    0    0  0.23407037121E+01 -0.25044670888E+02 -0.49685654342E+03  0.49749285339E+03  0.00000000000E+00 0. -1.
        -15    1    1    2    0    0 -0.65812655760E+01  0.98788250758E+01  0.24547880810E+02  0.27325087790E+02  0.17770000000E+01 0.  1.
         15    1    1    2    0    0 -0.15559535397E+02  0.15920594413E+02  0.10545556617E+03  0.10779424211E+03  0.17770000000E+01 0. -1.
</event>
<event>
 6   1  0.1826851E-04  0.5000483E+03  0.7546771E-02  0.9399702E-01
        -11   -1    0    0    0    0  0.00000000000E+00  0.00000000000E+00  0.50000000000E+03  0.50000000000E+03  0.00000000000E+00 0. -1.
         11   -1    0    0    0    0 -0.00000000000E+00 -0.00000000000E+00 -0.50000000000E+03  0.50000000000E+03  0.00000000000E+00 0. -1.
        -11    1    1    2    0    0 -0.13231367699E+02 -0.10999206979E+02  0.49965556144E+03  0.49995172939E+03  0.00000000000E+00 0. -1.
         11    1    1    2    0    0 -0.81862779764E+00  0.73980965603E+00 -0.65582533718E+02  0.65591815028E+02  0.00000000000E+00 0. -1.
        -15    1    1    2    0    0  0.12527253727E+02  0.80554126347E+01 -0.36716724854E+03  0.36747349277E+03  0.17770000000E+01 0. -1.
         15    1    1    2    0    0  0.15227417698E+01  0.22039846886E+01 -0.66905779178E+02  0.66982962814E+02  0.17770000000E+01 0.  1.
</event>
<event>
 6   1  0.1826851E-04  0.5038598E+03  0.7546771E-02  0.9391214E-01
        -11   -1    0    0    0    0  0.00000000000E+00  0.00000000000E+00  0.50000000000E+03  0.50000000000E+03  0.00000000000E+00 0. -1.
         11   -1    0    0    0    0 -0.00000000000E+00 -0.00000000000E+00 -0.50000000000E+03  0.50000000000E+03  0.00000000000E+00 0.  1.
        -11    1    1    2    0    0  0.71669036100E+01  0.14614330721E+02  0.44039817234E+03  0.44069886926E+03  0.00000000000E+00 0. -1.
         11    1    1    2    0    0  0.66601774773E+01 -0.63456554066E+01 -0.49605494677E+03  0.49614023776E+03  0.00000000000E+00 0.  1.
        -15    1    1    2    0    0  0.11568153910E+01 -0.84739429905E+01  0.41702635508E+02  0.42607669133E+02  0.17770000000E+01 0.  1.
         15    1    1    2    0    0 -0.14983896478E+02  0.20526767607E+00  0.13954138921E+02  0.20553223847E+02  0.17770000000E+01 0. -1.
</event>
<event>
 6   1  0.1826851E-04  0.5024323E+03  0.7546771E-02  0.9394384E-01
        -11   -1    0    0    0    0  0.00000000000E+00  0.00000000000E+00  0.50000000000E+03  0.50000000000E+03  0.00000000000E+00 0. -1.
         11   -1    0    0    0    0 -0.00000000000E+00 -0.00000000000E+00 -0.50000000000E+03  0.50000000000E+03  0.00000000000E+00 0. -1.
        -11    1    1    2    0    0 -0.13896441071E+02 -0.86877732947E+01  0.42396706194E+03  0.42428370001E+03  0.00000000000E+00 0. -1.
         11    1    1    2    0    0 -0.71016788496E+01  0.36606431310E+01 -0.49750354155E+03  0.49756769188E+03  0.00000000000E+00 0. -1.
        -15    1    1    2    0    0  0.18513705266E+02 -0.17693945769E+01  0.57643985367E+02  0.60595996715E+02  0.17770000000E+01 0. -1.
         15    1    1    2    0    0  0.24844146550E+01  0.67965247406E+01  0.15892494236E+02  0.17552611395E+02  0.17770000000E+01 0.  1.
</event>
<event>
 6   1  0.1826851E-04  0.4864348E+03  0.7546771E-02  0.9430685E-01
        -11   -1    0    0    0    0  0.00000000000E+00  0.00000000000E+00  0.50000000000E+03  0.50000000000E+03  0.00000000000E+00 0.  1.
         11   -1    0    0    0    0 -0.00000000000E+00 -0.00000000000E+00 -0.50000000000E+03  0.50000000000E+03  0.00000000000E+00 0. -1.
        -11    1    1    2    0    0  0.20285335155E+02  0.16153288777E+02 -0.68003854104E+01  0.26807998851E+02  0.00000000000E+00 0.  1.
         11    1    1    2    0    0 -0.24525432110E+01 -0.19236252392E+02 -0.48281069949E+03  0.48319997921E+03  0.00000000000E+00 0. -1.
        -15    1    1    2    0    0 -0.77500643939E+01  0.21475014760E+01  0.15055566767E+03  0.15078077482E+03  0.17770000000E+01 0. -1.
         15    1    1    2    0    0 -0.10082727550E+02  0.93546213817E+00  0.33905541723E+03  0.33921124711E+03  0.17770000000E+01 0.  1.
</event>
<event>
 6   1  0.1826851E-04  0.5082758E+03  0.7546771E-02  0.9381480E-01
        -11   -1    0    0    0    0  0.00000000000E+00  0.00000000000E+00  0.50000000000E+03  0.50000000000E+03  0.00000000000E+00 0.  1.
         11   -1    0    0    0    0 -0.00000000000E+00 -0.00000000000E+00 -0.50000000000E+03  0.50000000000E+03  0.00000000000E+00 0. -1.
        -11    1    1    2    0    0 -0.27407374505E+02  0.28044897377E+02  0.44782645911E+02  0.59524497654E+02  0.00000000000E+00 0.  1.
         11    1    1    2    0    0 -0.42223600391E+01 -0.62648138911E+01 -0.49166615785E+03  0.49172419810E+03  0.00000000000E+00 0. -1.
        -15    1    1    2    0    0  0.13644177827E+02 -0.54215002789E+01  0.23613132283E+03  0.23659398894E+03  0.17770000000E+01 0.  1.
         15    1    1    2    0    0  0.17985556718E+02 -0.16358583207E+02  0.21075218911E+03  0.21215731531E+03  0.17770000000E+01 0.  1.
</event>
<event>
 6   1  0.1826851E-04  0.5026005E+03  0.7546771E-02  0.9394010E-01
        -11   -1    0    0    0    0  0.00000000000E+00  0.00000000000E+00  0.50000000000E+03  0.50000000000E+03  0.00000000000E+00 0. -1.
         11   -1    0    0    0    0 -0.00000000000E+00 -0.00000000000E+00 -0.50000000000E+03  0.50000000000E+03  0.00000000000E+00 0. -1.
        -11    1    1    2    0    0 -0.30579402988E+01  0.16969642138E+02  0.29018471820E+02  0.33754873129E+02  0.00000000000E+00 0. -1.
         11    1    1    2    0    0 -0.13510653460E+02 -0.27797093271E+01 -0.49720816620E+03  0.49739946228E+03  0.00000000000E+00 0. -1.
        -15    1    1    2    0    0  0.71713222459E+01 -0.99523233250E+01  0.34149264893E+03  0.34171752019E+03  0.17770000000E+01 0. -1.
         15    1    1    2    0    0  0.93972715128E+01 -0.42376094863E+01  0.12669704545E+03  0.12712814441E+03  0.17770000000E+01 0.  1.
</event>
<event>
 6   1  0.1826851E-04  0.5003604E+03  0.7546771E-02  0.9399004E-01
        -11   -1    0    0    0    0  0.00000000000E+00  0.00000000000E+00  0.50000000000E+03  0.50000000000E+03  0.00000000000E+00 0.  1.
         11   -1    0    0    0    0 -0.00000000000E+00 -0.00000000000E+00 -0.50000000000E+03  0.50000000000E+03  0.00000000000E+00 0. -1.
        -11    1    1    2    0    0  0.24335422286E+02  0.30408970707E+02  0.49811925147E+03  0.49963957706E+03  0.00000000000E+00 0.  1.
         11    1    1    2    0    0 -0.19930699413E+02 -0.31907619349E+02 -0.46438994201E+03  0.46591130829E+03  0.00000000000E+00 0. -1.
        -15    1    1    2    0    0 -0.27098284391E+01  0.21483188778E+01 -0.13122980668E+02  0.13686810979E+02  0.17770000000E+01 0.  1.
         15    1    1    2    0    0 -0.16948944342E+01 -0.64967023554E+00 -0.20606328788E+02  0.20762303670E+02  0.17770000000E+01 0. -1.
</event>
<event>
 6   1  0.1826851E-04  0.5018310E+03  0.7546771E-02  0.9395722E-01
        -11   -1    0    0    0    0  0.00000000000E+00  0.00000000000E+00  0.50000000000E+03  0.50000000000E+03  0.00000000000E+00 0.  1.
         11   -1    0    0    0    0 -0.00000000000E+00 -0.00000000000E+00 -0.50000000000E+03  0.50000000000E+03  0.00000000000E+00 0.  1.
        -11    1    1    2    0    0  0.83714610407E+01 -0.10591353089E+02  0.43578929994E+03  0.43599836246E+03  0.00000000000E+00 0.  1.
         11    1    1    2    0    0 -0.83364696821E+01  0.53336976660E+01 -0.49807065999E+03  0.49816897474E+03  0.00000000000E+00 0.  1.
        -15    1    1    2    0    0  0.76825297504E+01  0.32408738939E+01  0.11065004832E+02  0.13968413936E+02  0.17770000000E+01 0. -1.
         15    1    1    2    0    0 -0.77175211090E+01  0.20167815294E+01  0.51216355214E+02  0.51864248864E+02  0.17770000000E+01 0.  1.
</event>
<event>
 6   1  0.1826851E-04  0.5056637E+03  0.7546771E-02  0.9387225E-01
        -11   -1    0    0    0    0  0.00000000000E+00  0.00000000000E+00  0.50000000000E+03  0.50000000000E+03  0.00000000000E+00 0. -1.
         11   -1    0    0    0    0 -0.00000000000E+00 -0.00000000000E+00 -0.50000000000E+03  0.50000000000E+03  0.00000000000E+00 0.  1.
        -11    1    1    2    0    0  0.65344182449E+01  0.78185751168E+01  0.48104568338E+03  0.48115359111E+03  0.00000000000E+00 0. -1.
         11    1    1    2    0    0 -0.29451933008E+01  0.10184279894E+02 -0.49422260366E+03  0.49433629817E+03  0.00000000000E+00 0.  1.
        -15    1    1    2    0    0 -0.63323988781E+01 -0.14214569182E+02  0.10087237626E+02  0.18629636189E+02  0.17770000000E+01 0.  1.
         15    1    1    2    0    0  0.27431739340E+01 -0.37882858280E+01  0.30896826553E+01  0.58804745265E+01  0.17770000000E+01 0. -1.
</event>
<event>
 6   1  0.1826851E-04  0.5007148E+03  0.7546771E-02  0.9398212E-01
        -11   -1    0    0    0    0  0.00000000000E+00  0.00000000000E+00  0.50000000000E+03  0.50000000000E+03  0.00000000000E+00 0. -1.
         11   -1    0    0    0    0 -0.00000000000E+00 -0.00000000000E+00 -0.50000000000E+03  0.50000000000E+03  0.00000000000E+00 0.  1.
        -11    1    1    2    0    0  0.72069195386E+01 -0.10015789953E+02  0.14001010884E+03  0.14055278836E+03  0.00000000000E+00 0. -1.
         11    1    1    2    0    0  0.73179267858E+01 -0.25703329091E+01 -0.49922496403E+03  0.49928521245E+03  0.00000000000E+00 0.  1.
        -15    1    1    2    0    0 -0.12719623431E+02  0.71190503295E+01  0.33028831239E+03  0.33061457428E+03  0.17770000000E+01 0. -1.
         15    1    1    2    0    0 -0.18052228933E+01  0.54670725328E+01  0.28926542792E+02  0.29547424908E+02  0.17770000000E+01 0.  1.
</event>
<event>
 6   1  0.1826851E-04  0.5208990E+03  0.7546771E-02  0.9354224E-01
        -11   -1    0    0    0    0  0.00000000000E+00  0.00000000000E+00  0.50000000000E+03  0.50000000000E+03  0.00000000000E+00 0.  1.
         11   -1    0    0    0    0 -0.00000000000E+00 -0.00000000000E+00 -0.50000000000E+03  0.50000000000E+03  0.00000000000E+00 0. -1.
        -11    1    1    2    0    0  0.30587001735E+02 -0.12485047606E+02  0.44946346246E+03  0.45067598691E+03  0.00000000000E+00 0.  1.
         11    1    1    2    0    0 -0.10571915593E+02  0.26238645955E+01 -0.47897712445E+03  0.47910096620E+03  0.00000000000E+00 0. -1.
        -15    1    1    2    0    0 -0.27549341237E+02  0.42533871503E+01  0.44445333042E+02  0.52493836429E+02  0.17770000000E+01 0. -1.
         15    1    1    2    0    0  0.75342550946E+01  0.56077958605E+01 -0.14931671048E+02  0.17729210460E+02  0.17770000000E+01 0.  1.
</event>
<event>
 6   1  0.1826851E-04  0.5015861E+03  0.7546771E-02  0.9396268E-01
        -11   -1    0    0    0    0  0.00000000000E+00  0.00000000000E+00  0.50000000000E+03  0.50000000000E+03  0.00000000000E+00 0.  1.
         11   -1    0    0    0    0 -0.00000000000E+00 -0.00000000000E+00 -0.50000000000E+03  0.50000000000E+03  0.00000000000E+00 0.  1.
        -11    1    1    2    0    0 -0.29461395493E+02 -0.63355097618E+01  0.49750202481E+03  0.49841386136E+03  0.00000000000E+00 0.  1.
         11    1    1    2    0    0  0.22855411742E+02  0.17425596464E+02 -0.34140612465E+03  0.34261372303E+03  0.00000000000E+00 0.  1.
        -15    1    1    2    0    0  0.10866049016E+02 -0.13643555233E+02 -0.54734087957E+02  0.57473435030E+02  0.17770000000E+01 0. -1.
         15    1    1    2    0    0 -0.42600652642E+01  0.25534685302E+01 -0.10136181220E+03  0.10149898058E+03  0.17770000000E+01 0.  1.
</event>
<event>
 6   1  0.1826851E-04  0.5002960E+03  0.7546771E-02  0.9399148E-01
        -11   -1    0    0    0    0  0.00000000000E+00  0.00000000000E+00  0.50000000000E+03  0.50000000000E+03  0.00000000000E+00 0.  1.
         11   -1    0    0    0    0 -0.00000000000E+00 -0.00000000000E+00 -0.50000000000E+03  0.50000000000E+03  0.00000000000E+00 0.  1.
        -11    1    1    2    0    0  0.37412694130E+00 -0.56795338755E+01  0.40963163900E+02  0.41356714966E+02  0.00000000000E+00 0.  1.
         11    1    1    2    0    0  0.20339053460E+02 -0.31259853442E+00 -0.49928978655E+03  0.49970397814E+03  0.00000000000E+00 0.  1.
        -15    1    1    2    0    0 -0.16839378488E+02  0.12021450369E+01  0.36351221665E+03  0.36390836649E+03  0.17770000000E+01 0.  1.
         15    1    1    2    0    0 -0.38738019140E+01  0.47899873731E+01  0.94814406000E+02  0.95030940406E+02  0.17770000000E+01 0. -1.
</event>
<event>
 6   1  0.1826851E-04  0.5294688E+03  0.7546771E-02  0.9336183E-01
        -11   -1    0    0    0    0  0.00000000000E+00  0.00000000000E+00  0.50000000000E+03  0.50000000000E+03  0.00000000000E+00 0.  1.
         11   -1    0    0    0    0 -0.00000000000E+00 -0.00000000000E+00 -0.50000000000E+03  0.50000000000E+03  0.00000000000E+00 0. -1.
        -11    1    1    2    0    0 -0.10153514193E+02  0.41864681592E+02  0.44059216313E+03  0.44269312128E+03  0.00000000000E+00 0.  1.
         11    1    1    2    0    0  0.75774267789E+01 -0.72109647805E+01 -0.47041487785E+03  0.47053116019E+03  0.00000000000E+00 0. -1.
        -15    1    1    2    0    0  0.53568823819E+01  0.12238628615E+01 -0.22510475442E+02  0.23239476388E+02  0.17770000000E+01 0. -1.
         15    1    1    2    0    0 -0.27807949678E+01 -0.35877579673E+02  0.52333190165E+02  0.63536242143E+02  0.17770000000E+01 0.  1.
</event>
<event>
 6   1  0.1826851E-04  0.4664540E+03  0.7546771E-02  0.9478168E-01
        -11   -1    0    0    0    0  0.00000000000E+00  0.00000000000E+00  0.50000000000E+03  0.50000000000E+03  0.00000000000E+00 0.  1.
         11   -1    0    0    0    0 -0.00000000000E+00 -0.00000000000E+00 -0.50000000000E+03  0.50000000000E+03  0.00000000000E+00 0. -1.
        -11    1    1    2    0    0 -0.40491676564E+02  0.19191463580E+02  0.48146263192E+03  0.48354333217E+03  0.00000000000E+00 0.  1.
         11    1    1    2    0    0  0.49404790621E+01  0.22218521354E+02 -0.45088564411E+03  0.45145978236E+03  0.00000000000E+00 0. -1.
        -15    1    1    2    0    0  0.24406538737E+02 -0.31805633562E+02 -0.13394161573E+02  0.42306485940E+02  0.17770000000E+01 0.  1.
         15    1    1    2    0    0  0.11144658765E+02 -0.96043513724E+01 -0.17182826245E+02  0.22690399534E+02  0.17770000000E+01 0. -1.
</event>
<event>
 6   1  0.1826851E-04  0.5101715E+03  0.7546771E-02  0.9377333E-01
        -11   -1    0    0    0    0  0.00000000000E+00  0.00000000000E+00  0.50000000000E+03  0.50000000000E+03  0.00000000000E+00 0.  1.
         11   -1    0    0    0    0 -0.00000000000E+00 -0.00000000000E+00 -0.50000000000E+03  0.50000000000E+03  0.00000000000E+00 0. -1.
        -11    1    1    2    0    0 -0.37669169784E+00 -0.20964814473E+02  0.48937948740E+03  0.48982848838E+03  0.00000000000E+00 0.  1.
         11    1    1    2    0    0  0.25648767717E+02 -0.10308349519E+02 -0.45116794418E+03  0.45201397679E+03  0.00000000000E+00 0. -1.
        -15    1    1    2    0    0 -0.20878704949E+01  0.15366279522E+02 -0.15108778529E+02  0.21723597014E+02  0.17770000000E+01 0. -1.
         15    1    1    2    0    0 -0.23184205524E+02  0.15906884469E+02 -0.23102764687E+02  0.36433937812E+02  0.17770000000E+01 0.  1.
</event>
<event>
 6   1  0.1826851E-04  0.5009661E+03  0.7546771E-02  0.9397651E-01
        -11   -1    0    0    0    0  0.00000000000E+00  0.00000000000E+00  0.50000000000E+03  0.50000000000E+03  0.00000000000E+00 0.  1.
         11   -1    0    0    0    0 -0.00000000000E+00 -0.00000000000E+00 -0.50000000000E+03  0.50000000000E+03  0.00000000000E+00 0.  1.
        -11    1    1    2    0    0  0.15416888969E+02 -0.16422554246E+01  0.33397477753E+03  0.33433445754E+03  0.00000000000E+00 0.  1.
         11    1    1    2    0    0 -0.57516070546E+01  0.18489678009E+02 -0.49865809803E+03  0.49903391459E+03  0.00000000000E+00 0.  1.
        -15    1    1    2    0    0 -0.41621659639E+01 -0.15871906097E+02  0.14857591120E+03  0.14948979948E+03  0.17770000000E+01 0.  1.
         15    1    1    2    0    0 -0.55031159503E+01 -0.97551648751E+00  0.16107409296E+02  0.17141828397E+02  0.17770000000E+01 0. -1.
</event>
<event>
 6   1  0.1826851E-04  0.5198295E+03  0.7546771E-02  0.9356501E-01
        -11   -1    0    0    0    0  0.00000000000E+00  0.00000000000E+00  0.50000000000E+03  0.50000000000E+03  0.00000000000E+00 0. -1.
         11   -1    0    0    0    0 -0.00000000000E+00 -0.00000000000E+00 -0.50000000000E+03  0.50000000000E+03  0.00000000000E+00 0.  1.
        -11    1    1    2    0    0  0.15746270915E-01 -0.31331953350E+02  0.44715306476E+03  0.44824943376E+03  0.00000000000E+00 0. -1.
         11    1    1    2    0    0  0.59952520522E+00  0.11560317614E+02 -0.48003097497E+03  0.48017052940E+03  0.00000000000E+00 0.  1.
        -15    1    1    2    0    0 -0.11342434068E+02 -0.18290687852E+02  0.21310303128E+02  0.30339525723E+02  0.17770000000E+01 0.  1.
         15    1    1    2    0    0  0.10727162592E+02  0.38062323588E+02  0.11567607088E+02  0.41240511113E+02  0.17770000000E+01 0. -1.
</event>
<event>
 6   1  0.1826851E-04  0.5013165E+03  0.7546771E-02  0.9396869E-01
        -11   -1    0    0    0    0  0.00000000000E+00  0.00000000000E+00  0.50000000000E+03  0.50000000000E+03  0.00000000000E+00 0.  1.
         11   -1    0    0    0    0 -0.00000000000E+00 -0.00000000000E+00 -0.50000000000E+03  0.50000000000E+03  0.00000000000E+00 0. -1.
        -11    1    1    2    0    0  0.17436987570E+01  0.86745669481E+01  0.49860499013E+03  0.49868349158E+03  0.00000000000E+00 0.  1.
         11    1    1    2    0    0  0.51101081084E+01  0.45963602040E+01 -0.44987081129E+03  0.44992331189E+03  0.00000000000E+00 0. -1.
        -15    1    1    2    0    0  0.19116911637E+00 -0.31359924580E+01 -0.76618496365E+01  0.84695137511E+01  0.17770000000E+01 0.  1.
         15    1    1    2    0    0 -0.70449759818E+01 -0.10134934694E+02 -0.41072329207E+02  0.42923682779E+02  0.17770000000E+01 0. -1.
</event>
<event>
 6   1  0.1826851E-04  0.5007447E+03  0.7546771E-02  0.9398145E-01
        -11   -1    0    0    0    0  0.00000000000E+00  0.00000000000E+00  0.50000000000E+03  0.50000000000E+03  0.00000000000E+00 0.  1.
         11   -1    0    0    0    0 -0.00000000000E+00 -0.00000000000E+00 -0.50000000000E+03  0.50000000000E+03  0.00000000000E+00 0. -1.
        -11    1    1    2    0    0  0.14370782391E+02 -0.15639500278E+01  0.49904599450E+03  0.49925531540E+03  0.00000000000E+00 0.  1.
         11    1    1    2    0    0  0.96589302676E+01 -0.49948465987E+01 -0.23722052435E+03  0.23746962037E+03  0.00000000000E+00 0. -1.
        -15    1    1    2    0    0 -0.95057845336E+01 -0.12928927608E+01 -0.13746807183E+03  0.13781386002E+03  0.17770000000E+01 0. -1.
         15    1    1    2    0    0 -0.14523928125E+02  0.78516893872E+01 -0.12435739833E+03  0.12546120421E+03  0.17770000000E+01 0.  1.
</event>
<event>
 6   1  0.1826851E-04  0.5043644E+03  0.7546771E-02  0.9390097E-01
        -11   -1    0    0    0    0  0.00000000000E+00  0.00000000000E+00  0.50000000000E+03  0.50000000000E+03  0.00000000000E+00 0. -1.
         11   -1    0    0    0    0 -0.00000000000E+00 -0.00000000000E+00 -0.50000000000E+03  0.50000000000E+03  0.00000000000E+00 0.  1.
        -11    1    1    2    0    0  0.19119212185E+02 -0.19999172997E+02  0.43660539344E+03  0.43748117762E+03  0.00000000000E+00 0. -1.
         11    1    1    2    0    0  0.60272541791E+01  0.88205842206E+01 -0.49552042707E+03  0.49563557594E+03  0.00000000000E+00 0.  1.
        -15    1    1    2    0    0 -0.10469721097E+02 -0.26182782543E+01  0.26622967355E+02  0.28782122240E+02  0.17770000000E+01 0. -1.
         15    1    1    2    0    0 -0.14676745267E+02  0.13796867030E+02  0.32292066276E+02  0.38101124194E+02  0.17770000000E+01 0.  1.
</event>
<event>
 6   1  0.1826851E-04  0.4911075E+03  0.7546771E-02  0.9419930E-01
        -11   -1    0    0    0    0  0.00000000000E+00  0.00000000000E+00  0.50000000000E+03  0.50000000000E+03  0.00000000000E+00 0. -1.
         11   -1    0    0    0    0 -0.00000000000E+00 -0.00000000000E+00 -0.50000000000E+03  0.50000000000E+03  0.00000000000E+00 0. -1.
        -11    1    1    2    0    0  0.84770701653E+01 -0.93593139739E+01  0.49245296710E+03  0.49261484172E+03  0.00000000000E+00 0. -1.
         11    1    1    2    0    0 -0.69476787179E+01 -0.58958277452E+01 -0.48963900875E+03  0.48972378941E+03  0.00000000000E+00 0. -1.
        -15    1    1    2    0    0 -0.16384779831E+00  0.25681792090E+01  0.22139213988E+01  0.38316533651E+01  0.17770000000E+01 0. -1.
         15    1    1    2    0    0 -0.13655436492E+01  0.12686962510E+02 -0.50278797491E+01  0.13829715505E+02  0.17770000000E+01 0.  1.
</event>
<event>
 6   1  0.1826851E-04  0.5001199E+03  0.7546771E-02  0.9399541E-01
        -11   -1    0    0    0    0  0.00000000000E+00  0.00000000000E+00  0.50000000000E+03  0.50000000000E+03  0.00000000000E+00 0.  1.
         11   -1    0    0    0    0 -0.00000000000E+00 -0.00000000000E+00 -0.50000000000E+03  0.50000000000E+03  0.00000000000E+00 0. -1.
        -11    1    1    2    0    0  0.18668953175E+00  0.36250586356E+01  0.14521445142E+03  0.14525981139E+03  0.00000000000E+00 0.  1.
         11    1    1    2    0    0  0.94716003499E+01 -0.28147881235E+01 -0.49978241936E+03  0.49988008657E+03  0.00000000000E+00 0. -1.
        -15    1    1    2    0    0 -0.43707737340E+01  0.26733630291E+00  0.29110215342E+03  0.29114051004E+03  0.17770000000E+01 0. -1.
         15    1    1    2    0    0 -0.52875161476E+01 -0.10776068150E+01  0.63465814525E+02  0.63719592008E+02  0.17770000000E+01 0.  1.
</event>
<event>
 6   1  0.1826851E-04  0.5054692E+03  0.7546771E-02  0.9387654E-01
        -11   -1    0    0    0    0  0.00000000000E+00  0.00000000000E+00  0.50000000000E+03  0.50000000000E+03  0.00000000000E+00 0.  1.
         11   -1    0    0    0    0 -0.00000000000E+00 -0.00000000000E+00 -0.50000000000E+03  0.50000000000E+03  0.00000000000E+00 0. -1.
        -11    1    1    2    0    0  0.16659591454E+02 -0.17457655504E+02  0.49394170761E+03  0.49453081020E+03  0.00000000000E+00 0.  1.
         11    1    1    2    0    0  0.15536443620E+01 -0.71772671749E+01 -0.43697946603E+03  0.43704116592E+03  0.00000000000E+00 0. -1.
        -15    1    1    2    0    0 -0.17224997961E+02  0.26863663949E+02 -0.40005654586E+02  0.51205147430E+02  0.17770000000E+01 0.  1.
         15    1    1    2    0    0 -0.98823785458E+00 -0.22287412702E+01 -0.16956586994E+02  0.17222876450E+02  0.17770000000E+01 0. -1.
</event>
<event>
 6   1  0.1826851E-04  0.5002231E+03  0.7546771E-02  0.9399311E-01
        -11   -1    0    0    0    0  0.00000000000E+00  0.00000000000E+00  0.50000000000E+03  0.50000000000E+03  0.00000000000E+00 0.  1.
         11   -1    0    0    0    0 -0.00000000000E+00 -0.00000000000E+00 -0.50000000000E+03  0.50000000000E+03  0.00000000000E+00 0. -1.
        -11    1    1    2    0    0 -0.49650820672E+01  0.70262930042E+01  0.93551101305E+02  0.93945885427E+02  0.00000000000E+00 0.  1.
         11    1    1    2    0    0  0.22008865627E+02  0.69093793267E+00 -0.49929153075E+03  0.49977685045E+03  0.00000000000E+00 0. -1.
        -15    1    1    2    0    0 -0.16489726153E+02 -0.45664163016E+01  0.34055048322E+03  0.34098468086E+03  0.17770000000E+01 0.  1.
         15    1    1    2    0    0 -0.55405740704E+00 -0.31508146352E+01  0.65189946223E+02  0.65292583270E+02  0.17770000000E+01 0.  1.
</event>
<event>
 6   1  0.1826851E-04  0.5100626E+03  0.7546771E-02  0.9377571E-01
        -11   -1    0    0    0    0  0.00000000000E+00  0.00000000000E+00  0.50000000000E+03  0.50000000000E+03  0.00000000000E+00 0. -1.
         11   -1    0    0    0    0 -0.00000000000E+00 -0.00000000000E+00 -0.50000000000E+03  0.50000000000E+03  0.00000000000E+00 0. -1.
        -11    1    1    2    0    0 -0.71036885271E+01  0.25555628806E+02  0.44128666589E+03  0.44208310762E+03  0.00000000000E+00 0. -1.
         11    1    1    2    0    0  0.28297646012E+01 -0.94432253290E+01 -0.48983821101E+03  0.48993739910E+03  0.00000000000E+00 0. -1.
        -15    1    1    2    0    0 -0.10177723997E+02 -0.25097902968E+02  0.41246772984E+02  0.49375548703E+02  0.17770000000E+01 0. -1.
         15    1    1    2    0    0  0.14451647922E+02  0.89854994908E+01  0.73047721387E+01  0.18603944576E+02  0.17770000000E+01 0.  1.
</event>
<event>
 6   1  0.1826851E-04  0.5000948E+03  0.7546771E-02  0.9399598E-01
        -11   -1    0    0    0    0  0.00000000000E+00  0.00000000000E+00  0.50000000000E+03  0.50000000000E+03  0.00000000000E+00 0.  1.
         11   -1    0    0    0    0 -0.00000000000E+00 -0.00000000000E+00 -0.50000000000E+03  0.50000000000E+03  0.00000000000E+00 0.  1.
        -11    1    1    2    0    0 -0.34305779243E+01 -0.12534362772E+01  0.16257224556E+03  0.16261326819E+03  0.00000000000E+00 0.  1.
         11    1    1    2    0    0  0.96509960143E+01  0.25454727746E+01 -0.49980555736E+03  0.49990520734E+03  0.00000000000E+00 0.  1.
        -15    1    1    2    0    0  0.18955920550E+01  0.47666740673E+00  0.17966014085E+03  0.17967956039E+03  0.17770000000E+01 0.  1.
         15    1    1    2    0    0 -0.81160101449E+01 -0.17687039040E+01  0.15757317095E+03  0.15780196408E+03  0.17770000000E+01 0.  1.
</event>
<event>
 6   1  0.1826851E-04  0.5010418E+03  0.7546771E-02  0.9397482E-01
        -11   -1    0    0    0    0  0.00000000000E+00  0.00000000000E+00  0.50000000000E+03  0.50000000000E+03  0.00000000000E+00 0. -1.
         11   -1    0    0    0    0 -0.00000000000E+00 -0.00000000000E+00 -0.50000000000E+03  0.50000000000E+03  0.00000000000E+00 0.  1.
        -11    1    1    2    0    0 -0.13689534272E+02  0.96329210347E+01  0.49867733883E+03  0.49895819943E+03  0.00000000000E+00 0. -1.
         11    1    1    2    0    0 -0.36855362258E+01  0.46101044314E+01 -0.33225166128E+03  0.33230408162E+03  0.00000000000E+00 0.  1.
        -15    1    1    2    0    0  0.36298954276E+01 -0.53088870104E+00 -0.81541551907E+02  0.81643373277E+02  0.17770000000E+01 0. -1.
         15    1    1    2    0    0  0.13745175070E+02 -0.13712136765E+02 -0.84884125641E+02  0.87094345667E+02  0.17770000000E+01 0.  1.
</event>
<event>
 6   1  0.1826851E-04  0.5022437E+03  0.7546771E-02  0.9394803E-01
        -11   -1    0    0    0    0  0.00000000000E+00  0.00000000000E+00  0.50000000000E+03  0.50000000000E+03  0.00000000000E+00 0. -1.
         11   -1    0    0    0    0 -0.00000000000E+00 -0.00000000000E+00 -0.50000000000E+03  0.50000000000E+03  0.00000000000E+00 0.  1.
        -11    1    1    2    0    0 -0.31363323251E+01 -0.62740615436E+01  0.48793588503E+03  0.48798629933E+03  0.00000000000E+00 0. -1.
         11    1    1    2    0    0 -0.56154050661E+01  0.43406342390E+01 -0.49770571626E+03  0.49775631977E+03  0.00000000000E+00 0.  1.
        -15    1    1    2    0    0  0.17075037256E+01 -0.36448322656E+00  0.11239199538E+01  0.27330097069E+01  0.17770000000E+01 0. -1.
         15    1    1    2    0    0  0.70442336655E+01  0.22979105312E+01  0.86459112687E+01  0.11524371194E+02  0.17770000000E+01 0.  1.
</event>
<event>
 6   1  0.1826851E-04  0.5028411E+03  0.7546771E-02  0.9393475E-01
        -11   -1    0    0    0    0  0.00000000000E+00  0.00000000000E+00  0.50000000000E+03  0.50000000000E+03  0.00000000000E+00 0. -1.
         11   -1    0    0    0    0 -0.00000000000E+00 -0.00000000000E+00 -0.50000000000E+03  0.50000000000E+03  0.00000000000E+00 0. -1.
        -11    1    1    2    0    0  0.99871529846E+01 -0.49728668697E+01  0.49703367125E+03  0.49715887097E+03  0.00000000000E+00 0. -1.
         11    1    1    2    0    0 -0.98709572072E+01 -0.44544284672E+01 -0.47838686937E+03  0.47850942991E+03  0.00000000000E+00 0. -1.
        -15    1    1    2    0    0 -0.18374088244E+01  0.79366987940E+01 -0.37240522314E+01  0.91320070607E+01  0.17770000000E+01 0. -1.
         15    1    1    2    0    0  0.17212130471E+01  0.14905965428E+01 -0.14922749649E+02  0.15199692052E+02  0.17770000000E+01 0.  1.
</event>
<event>
 6   1  0.1826851E-04  0.4834341E+03  0.7546771E-02  0.9437660E-01
        -11   -1    0    0    0    0  0.00000000000E+00  0.00000000000E+00  0.50000000000E+03  0.50000000000E+03  0.00000000000E+00 0.  1.
         11   -1    0    0    0    0 -0.00000000000E+00 -0.00000000000E+00 -0.50000000000E+03  0.50000000000E+03  0.00000000000E+00 0.  1.
        -11    1    1    2    0    0 -0.21122108126E+02  0.78019764991E+01  0.48831808171E+03  0.48883694952E+03  0.00000000000E+00 0.  1.
         11    1    1    2    0    0 -0.15791131877E+01  0.79108348519E+01 -0.47840809765E+03  0.47847610474E+03  0.00000000000E+00 0.  1.
        -15    1    1    2    0    0 -0.48524829629E+00 -0.35721585887E+01 -0.42518224768E+01  0.58507697157E+01  0.17770000000E+01 0.  1.
         15    1    1    2    0    0  0.23186469610E+02 -0.12140652762E+02 -0.56581615773E+01  0.26836176030E+02  0.17770000000E+01 0. -1.
</event>
<event>
 6   1  0.1826851E-04  0.5005642E+03  0.7546771E-02  0.9398548E-01
        -11   -1    0    0    0    0  0.00000000000E+00  0.00000000000E+00  0.50000000000E+03  0.50000000000E+03  0.00000000000E+00 0.  1.
         11   -1    0    0    0    0 -0.00000000000E+00 -0.00000000000E+00 -0.50000000000E+03  0.50000000000E+03  0.00000000000E+00 0. -1.
        -11    1    1    2    0    0 -0.12108614568E+02 -0.10694970231E+01  0.49928784277E+03  0.49943579398E+03  0.00000000000E+00 0.  1.
         11    1    1    2    0    0  0.11445152112E+01 -0.68127089997E+01 -0.40942673181E+03  0.40948500784E+03  0.00000000000E+00 0. -1.
        -15    1    1    2    0    0  0.61056003112E+01  0.53408862479E+01 -0.66549292907E+02  0.67065412371E+02  0.17770000000E+01 0. -1.
         15    1    1    2    0    0  0.48584990457E+01  0.25413197749E+01 -0.23311818050E+02  0.24013785811E+02  0.17770000000E+01 0.  1.
</event>
<event>
 6   1  0.1826851E-04  0.4844705E+03  0.7546771E-02  0.9435245E-01
        -11   -1    0    0    0    0  0.00000000000E+00  0.00000000000E+00  0.50000000000E+03  0.50000000000E+03  0.00000000000E+00 0. -1.
         11   -1    0    0    0    0 -0.00000000000E+00 -0.00000000000E+00 -0.50000000000E+03  0.50000000000E+03  0.00000000000E+00 0. -1.
        -11    1    1    2    0    0 -0.13856861580E+02  0.26454671604E+02 -0.98609187732E+01  0.31449959961E+02  0.00000000000E+00 0. -1.
         11    1    1    2    0    0  0.71556782969E+01  0.35205720127E+00 -0.47848146985E+03  0.47853510285E+03  0.00000000000E+00 0. -1.
        -15    1    1    2    0    0 -0.50553034363E+00 -0.12934373859E+02  0.40438909221E+03  0.40460011025E+03  0.17770000000E+01 0. -1.
         15    1    1    2    0    0  0.72067136263E+01 -0.13872354946E+02  0.83953296412E+02  0.85414826936E+02  0.17770000000E+01 0.  1.
</event>
<event>
 6   1  0.1826851E-04  0.5002996E+03  0.7546771E-02  0.9399139E-01
        -11   -1    0    0    0    0  0.00000000000E+00  0.00000000000E+00  0.50000000000E+03  0.50000000000E+03  0.00000000000E+00 0.  1.
         11   -1    0    0    0    0 -0.00000000000E+00 -0.00000000000E+00 -0.50000000000E+03  0.50000000000E+03  0.00000000000E+00 0.  1.
        -11    1    1    2    0    0 -0.57556056011E+01  0.88547002655E+01  0.49958873837E+03  0.49970035043E+03  0.00000000000E+00 0.  1.
         11    1    1    2    0    0 -0.58478697521E+01 -0.52376441543E+00 -0.29560312835E+03  0.29566143035E+03  0.00000000000E+00 0.  1.
        -15    1    1    2    0    0  0.38036933221E+01 -0.70689634731E+01 -0.10631053740E+03  0.10662798141E+03  0.17770000000E+01 0.  1.
         15    1    1    2    0    0  0.77997820311E+01 -0.12619723770E+01 -0.97675072625E+02  0.98010237808E+02  0.17770000000E+01 0. -1.
</event>
<event>
 6   1  0.1826851E-04  0.5001165E+03  0.7546771E-02  0.9399549E-01
        -11   -1    0    0    0    0  0.00000000000E+00  0.00000000000E+00  0.50000000000E+03  0.50000000000E+03  0.00000000000E+00 0.  1.
         11   -1    0    0    0    0 -0.00000000000E+00 -0.00000000000E+00 -0.50000000000E+03  0.50000000000E+03  0.00000000000E+00 0.  1.
        -11    1    1    2    0    0 -0.10944163291E+02  0.10874125855E+02  0.49964538222E+03  0.49988351572E+03  0.00000000000E+00 0.  1.
         11    1    1    2    0    0  0.10484416729E+02 -0.12579508269E+02 -0.36371539282E+03  0.36408385572E+03  0.00000000000E+00 0.  1.
        -15    1    1    2    0    0 -0.31531688678E+00  0.16058472083E+01 -0.11131549563E+03  0.11134170587E+03  0.17770000000E+01 0.  1.
         15    1    1    2    0    0  0.77506344938E+00  0.99535206487E-01 -0.24614493770E+02  0.24690922687E+02  0.17770000000E+01 0. -1.
</event>
<event>
 6   1  0.1826851E-04  0.5011042E+03  0.7546771E-02  0.9397342E-01
        -11   -1    0    0    0    0  0.00000000000E+00  0.00000000000E+00  0.50000000000E+03  0.50000000000E+03  0.00000000000E+00 0. -1.
         11   -1    0    0    0    0 -0.00000000000E+00 -0.00000000000E+00 -0.50000000000E+03  0.50000000000E+03  0.00000000000E+00 0.  1.
        -11    1    1    2    0    0 -0.12613006593E+02 -0.40058250047E+01  0.20838059320E+03  0.20880039797E+03  0.00000000000E+00 0. -1.
         11    1    1    2    0    0 -0.40490387641E+01  0.13918171403E+02 -0.49868517342E+03  0.49889579313E+03  0.00000000000E+00 0.  1.
        -15    1    1    2    0    0 -0.14265550676E+01 -0.37143503374E+01  0.19677119699E+03  0.19681944302E+03  0.17770000000E+01 0.  1.
         15    1    1    2    0    0  0.18088600425E+02 -0.61979960607E+01  0.93533383226E+02  0.95484365878E+02  0.17770000000E+01 0. -1.
</event>
<event>
 6   1  0.1826851E-04  0.5004704E+03  0.7546771E-02  0.9398758E-01
        -11   -1    0    0    0    0  0.00000000000E+00  0.00000000000E+00  0.50000000000E+03  0.50000000000E+03  0.00000000000E+00 0. -1.
         11   -1    0    0    0    0 -0.00000000000E+00 -0.00000000000E+00 -0.50000000000E+03  0.50000000000E+03  0.00000000000E+00 0.  1.
        -11    1    1    2    0    0  0.10980478947E+02  0.77701026898E+01  0.49934840159E+03  0.49952955026E+03  0.00000000000E+00 0. -1.
         11    1    1    2    0    0  0.45105962166E+01  0.21632127612E+01 -0.29806861840E+03  0.29811059398E+03  0.00000000000E+00 0.  1.
        -15    1    1    2    0    0 -0.17245356667E+01  0.12747715023E+01 -0.39847650636E+02  0.39944862696E+02  0.17770000000E+01 0.  1.
         15    1    1    2    0    0 -0.13766539497E+02 -0.11208086953E+02 -0.16143213255E+03  0.16241499307E+03  0.17770000000E+01 0. -1.
</event>
<event>
 6   1  0.1826851E-04  0.5014401E+03  0.7546771E-02  0.9396593E-01
        -11   -1    0    0    0    0  0.00000000000E+00  0.00000000000E+00  0.50000000000E+03  0.50000000000E+03  0.00000000000E+00 0. -1.
         11   -1    0    0    0    0 -0.00000000000E+00 -0.00000000000E+00 -0.50000000000E+03  0.50000000000E+03  0.00000000000E+00 0.  1.
        -11    1    1    2    0    0 -0.23344095014E+03 -0.31071008643E+02  0.39769755985E+03  0.46219415173E+03  0.00000000000E+00 0. -1.
         11    1    1    2    0    0  0.24235558701E+03  0.41561711461E+02 -0.43370303491E+03  0.49855985489E+03  0.00000000000E+00 0.  1.
        -15    1    1    2    0    0 -0.19845908262E+01 -0.56072555955E+01  0.93908366399E+01  0.11257240242E+02  0.17770000000E+01 0.  1.
         15    1    1    2    0    0 -0.69300460489E+01 -0.48834472233E+01  0.26614638419E+02  0.27988753138E+02  0.17770000000E+01 0. -1.
</event>
<event>
 6   1  0.1826851E-04  0.5025675E+03  0.7546771E-02  0.9394083E-01
        -11   -1    0    0    0    0  0.00000000000E+00  0.00000000000E+00  0.50000000000E+03  0.50000000000E+03  0.00000000000E+00 0.  1.
         11   -1    0    0    0    0 -0.00000000000E+00 -0.00000000000E+00 -0.50000000000E+03  0.50000000000E+03  0.00000000000E+00 0. -1.
        -11    1    1    2    0    0 -0.56014962150E+01  0.14531822191E+02  0.49718859540E+03  0.49743245774E+03  0.00000000000E+00 0.  1.
         11    1    1    2    0    0  0.58613684143E+01 -0.22741976006E+01 -0.43193610691E+03  0.43198186081E+03  0.00000000000E+00 0. -1.
        -15    1    1    2    0    0 -0.31249968743E+01 -0.11159212323E+02 -0.10560773285E+02  0.15779140867E+02  0.17770000000E+01 0.  1.
         15    1    1    2    0    0  0.28651246750E+01 -0.10984122677E+01 -0.54691715208E+02  0.54806540579E+02  0.17770000000E+01 0. -1.
</event>
<event>
 6   1  0.1826851E-04  0.4776913E+03  0.7546771E-02  0.9451159E-01
        -11   -1    0    0    0    0  0.00000000000E+00  0.00000000000E+00  0.50000000000E+03  0.50000000000E+03  0.00000000000E+00 0.  1.
         11   -1    0    0    0    0 -0.00000000000E+00 -0.00000000000E+00 -0.50000000000E+03  0.50000000000E+03  0.00000000000E+00 0.  1.
        -11    1    1    2    0    0 -0.11822273558E+02  0.17807458479E+02  0.48077628309E+03  0.48125118816E+03  0.00000000000E+00 0.  1.
         11    1    1    2    0    0  0.85354673827E+01  0.12519994990E+02 -0.47439759580E+03  0.47463952994E+03  0.00000000000E+00 0.  1.
        -15    1    1    2    0    0 -0.90148544027E+01 -0.19116414083E+02  0.73640376318E+01  0.22451985804E+02  0.17770000000E+01 0.  1.
         15    1    1    2    0    0  0.12301660578E+02 -0.11211039387E+02 -0.13742724918E+02  0.21657296098E+02  0.17770000000E+01 0. -1.
</event>
<event>
 6   1  0.1826851E-04  0.5010689E+03  0.7546771E-02  0.9397421E-01
        -11   -1    0    0    0    0  0.00000000000E+00  0.00000000000E+00  0.50000000000E+03  0.50000000000E+03  0.00000000000E+00 0.  1.
         11   -1    0    0    0    0 -0.00000000000E+00 -0.00000000000E+00 -0.50000000000E+03  0.50000000000E+03  0.00000000000E+00 0.  1.
        -11    1    1    2    0    0  0.79667661959E+01 -0.15398117271E+02  0.49862979120E+03  0.49893109750E+03  0.00000000000E+00 0.  1.
         11    1    1    2    0    0 -0.42600141101E+01 -0.68402803443E+01 -0.37783016887E+03  0.37791609341E+03  0.00000000000E+00 0.  1.
        -15    1    1    2    0    0  0.12879985066E+01  0.18342516760E+01 -0.16039994401E+02  0.16293022088E+02  0.17770000000E+01 0.  1.
         15    1    1    2    0    0 -0.49947505924E+01  0.20404145940E+02 -0.10475962793E+03  0.10685978700E+03  0.17770000000E+01 0. -1.
</event>
<event>
 6   1  0.1826851E-04  0.5003290E+03  0.7546771E-02  0.9399074E-01
        -11   -1    0    0    0    0  0.00000000000E+00  0.00000000000E+00  0.50000000000E+03  0.50000000000E+03  0.00000000000E+00 0.  1.
         11   -1    0    0    0    0 -0.00000000000E+00 -0.00000000000E+00 -0.50000000000E+03  0.50000000000E+03  0.00000000000E+00 0. -1.
        -11    1    1    2    0    0 -0.11881042744E+02 -0.31314037546E+01  0.49951991996E+03  0.49967100707E+03  0.00000000000E+00 0.  1.
         11    1    1    2    0    0  0.39899232040E+01  0.92547804465E+01 -0.18257407746E+03  0.18285202818E+03  0.00000000000E+00 0. -1.
        -15    1    1    2    0    0  0.10908891136E+02 -0.79455192765E+01 -0.19896837389E+03  0.19943346439E+03  0.17770000000E+01 0.  1.
         15    1    1    2    0    0 -0.30177715959E+01  0.18221425846E+01 -0.11797746861E+03  0.11804350036E+03  0.17770000000E+01 0. -1.
</event>
<event>
 6   1  0.1826851E-04  0.5038953E+03  0.7546771E-02  0.9391136E-01
        -11   -1    0    0    0    0  0.00000000000E+00  0.00000000000E+00  0.50000000000E+03  0.50000000000E+03  0.00000000000E+00 0. -1.
         11   -1    0    0    0    0 -0.00000000000E+00 -0.00000000000E+00 -0.50000000000E+03  0.50000000000E+03  0.00000000000E+00 0. -1.
        -11    1    1    2    0    0 -0.75173221096E+01  0.56053637050E-01  0.49604775241E+03  0.49610471268E+03  0.00000000000E+00 0. -1.
         11    1    1    2    0    0  0.34379870163E+01  0.64177724405E+01 -0.48410383009E+03  0.48415857513E+03  0.00000000000E+00 0. -1.
        -15    1    1    2    0    0 -0.25207592463E+01 -0.32339341209E+01  0.11505137295E+01  0.46145387546E+01  0.17770000000E+01 0. -1.
         15    1    1    2    0    0  0.66000943395E+01 -0.32398919566E+01 -0.13094436045E+02  0.15122173439E+02  0.17770000000E+01 0.  1.
</event>
<event>
 6   1  0.1826851E-04  0.5051434E+03  0.7546771E-02  0.9388374E-01
        -11   -1    0    0    0    0  0.00000000000E+00  0.00000000000E+00  0.50000000000E+03  0.50000000000E+03  0.00000000000E+00 0.  1.
         11   -1    0    0    0    0 -0.00000000000E+00 -0.00000000000E+00 -0.50000000000E+03  0.50000000000E+03  0.00000000000E+00 0. -1.
        -11    1    1    2    0    0  0.19710788190E+02 -0.15116128605E+02  0.49423283092E+03  0.49485664963E+03  0.00000000000E+00 0.  1.
         11    1    1    2    0    0 -0.15866185843E+02 -0.21571955500E+01 -0.47034961217E+03  0.47062208514E+03  0.00000000000E+00 0. -1.
        -15    1    1    2    0    0  0.32260927963E+01  0.68897055815E+01 -0.19650239254E+02  0.21146284531E+02  0.17770000000E+01 0. -1.
         15    1    1    2    0    0 -0.70706951426E+01  0.10383618574E+02 -0.42329794973E+01  0.13374980707E+02  0.17770000000E+01 0.  1.
</event>
<event>
 6   1  0.1826851E-04  0.4759725E+03  0.7546771E-02  0.9455239E-01
        -11   -1    0    0    0    0  0.00000000000E+00  0.00000000000E+00  0.50000000000E+03  0.50000000000E+03  0.00000000000E+00 0.  1.
         11   -1    0    0    0    0 -0.00000000000E+00 -0.00000000000E+00 -0.50000000000E+03  0.50000000000E+03  0.00000000000E+00 0.  1.
        -11    1    1    2    0    0 -0.38988018216E+01 -0.35572698959E+02  0.47974765464E+03  0.48108048152E+03  0.00000000000E+00 0.  1.
         11    1    1    2    0    0 -0.89839811895E+00 -0.74177856648E+01 -0.47182066323E+03  0.47187982465E+03  0.00000000000E+00 0.  1.
        -15    1    1    2    0    0  0.26580455266E+01  0.74048863589E+00 -0.29388558526E+01  0.44054661687E+01  0.17770000000E+01 0.  1.
         15    1    1    2    0    0  0.21391544140E+01  0.42249995988E+02 -0.49881355662E+01  0.42634227658E+02  0.17770000000E+01 0.  1.
</event>
<event>
 6   1  0.1826851E-04  0.5038149E+03  0.7546771E-02  0.9391314E-01
        -11   -1    0    0    0    0  0.00000000000E+00  0.00000000000E+00  0.50000000000E+03  0.50000000000E+03  0.00000000000E+00 0.  1.
         11   -1    0    0    0    0 -0.00000000000E+00 -0.00000000000E+00 -0.50000000000E+03  0.50000000000E+03  0.00000000000E+00 0. -1.
        -11    1    1    2    0    0 -0.71955797772E+02  0.17095894137E+02  0.49064213186E+03  0.49618505417E+03  0.00000000000E+00 0.  1.
         11    1    1    2    0    0 -0.74137936042E+01 -0.54068931096E+01 -0.14900122057E+03  0.14928349728E+03  0.00000000000E+00 0. -1.
        -15    1    1    2    0    0  0.70900620550E+01 -0.15713175480E+02 -0.12290458983E+03  0.12412038026E+03  0.17770000000E+01 0.  1.
         15    1    1    2    0    0  0.72279529321E+02  0.40241744533E+01 -0.21873632145E+03  0.23041106829E+03  0.17770000000E+01 0. -1.
</event>
<event>
 6   1  0.1826851E-04  0.5008302E+03  0.7546771E-02  0.9397954E-01
        -11   -1    0    0    0    0  0.00000000000E+00  0.00000000000E+00  0.50000000000E+03  0.50000000000E+03  0.00000000000E+00 0.  1.
         11   -1    0    0    0    0 -0.00000000000E+00 -0.00000000000E+00 -0.50000000000E+03  0.50000000000E+03  0.00000000000E+00 0. -1.
        -11    1    1    2    0    0 -0.10813145297E+02 -0.18359829186E+01  0.49904926841E+03  0.49916977798E+03  0.00000000000E+00 0.  1.
         11    1    1    2    0    0 -0.47912081057E+01 -0.61559327748E+01 -0.37481750506E+03  0.37489867069E+03  0.00000000000E+00 0. -1.
        -15    1    1    2    0    0  0.77961405553E+00 -0.16452059338E+01 -0.24217232270E+02  0.24350494214E+02  0.17770000000E+01 0. -1.
         15    1    1    2    0    0  0.14824739347E+02  0.96371216271E+01 -0.10001453108E+03  0.10158105712E+03  0.17770000000E+01 0. -1.
</event>
<event>
 6   1  0.1826851E-04  0.5006242E+03  0.7546771E-02  0.9398414E-01
        -11   -1    0    0    0    0  0.00000000000E+00  0.00000000000E+00  0.50000000000E+03  0.50000000000E+03  0.00000000000E+00 0.  1.
         11   -1    0    0    0    0 -0.00000000000E+00 -0.00000000000E+00 -0.50000000000E+03  0.50000000000E+03  0.00000000000E+00 0. -1.
        -11    1    1    2    0    0  0.96803241993E+01  0.62083918500E+01  0.49924337168E+03  0.49937580736E+03  0.00000000000E+00 0.  1.
         11    1    1    2    0    0 -0.71095026083E+01 -0.16104619515E+00 -0.40159536600E+03  0.40165832365E+03  0.00000000000E+00 0. -1.
        -15    1    1    2    0    0 -0.45806763929E+01  0.26643433862E+00 -0.11043498505E+02  0.12090085678E+02  0.17770000000E+01 0.  1.
         15    1    1    2    0    0  0.20098548019E+01 -0.63137799934E+01 -0.86604507175E+02  0.86875783313E+02  0.17770000000E+01 0. -1.
</event>
<event>
 6   1  0.1826851E-04  0.5001154E+03  0.7546771E-02  0.9399552E-01
        -11   -1    0    0    0    0  0.00000000000E+00  0.00000000000E+00  0.50000000000E+03  0.50000000000E+03  0.00000000000E+00 0.  1.
         11   -1    0    0    0    0 -0.00000000000E+00 -0.00000000000E+00 -0.50000000000E+03  0.50000000000E+03  0.00000000000E+00 0.  1.
        -11    1    1    2    0    0  0.12804215324E+02 -0.44092385754E+02  0.49777161093E+03  0.49988464976E+03  0.00000000000E+00 0.  1.
         11    1    1    2    0    0 -0.35601463735E+01  0.15128135416E+02 -0.13544777403E+03  0.13633647572E+03  0.00000000000E+00 0.  1.
        -15    1    1    2    0    0 -0.62207532159E+01  0.83670174491E+01 -0.82332754194E+02  0.83009306067E+02  0.17770000000E+01 0.  1.
         15    1    1    2    0    0 -0.30233157350E+01  0.20597232889E+02 -0.27999108271E+03  0.28076956845E+03  0.17770000000E+01 0. -1.
</event>
<event>
 6   1  0.1826851E-04  0.5045685E+03  0.7546771E-02  0.9389645E-01
        -11   -1    0    0    0    0  0.00000000000E+00  0.00000000000E+00  0.50000000000E+03  0.50000000000E+03  0.00000000000E+00 0.  1.
         11   -1    0    0    0    0 -0.00000000000E+00 -0.00000000000E+00 -0.50000000000E+03  0.50000000000E+03  0.00000000000E+00 0. -1.
        -11    1    1    2    0    0 -0.26873944384E+01 -0.10264763646E+02  0.47770870070E+03  0.47782652730E+03  0.00000000000E+00 0.  1.
         11    1    1    2    0    0 -0.63118921123E+01 -0.22688946704E+01 -0.49538608211E+03  0.49543148690E+03  0.00000000000E+00 0. -1.
        -15    1    1    2    0    0  0.83399189969E+01  0.99691277656E+01  0.19163640793E+02  0.23223708031E+02  0.17770000000E+01 0. -1.
         15    1    1    2    0    0  0.65936755373E+00  0.25645305507E+01 -0.14862593822E+01  0.35182777701E+01  0.17770000000E+01 0.  1.
</event>
<event>
 6   1  0.1826851E-04  0.5080033E+03  0.7546771E-02  0.9382078E-01
        -11   -1    0    0    0    0  0.00000000000E+00  0.00000000000E+00  0.50000000000E+03  0.50000000000E+03  0.00000000000E+00 0.  1.
         11   -1    0    0    0    0 -0.00000000000E+00 -0.00000000000E+00 -0.50000000000E+03  0.50000000000E+03  0.00000000000E+00 0.  1.
        -11    1    1    2    0    0  0.38063240599E+01 -0.19576819106E+02  0.45734938075E+03  0.45778400586E+03  0.00000000000E+00 0.  1.
         11    1    1    2    0    0 -0.21201238678E+02 -0.10722914234E+02 -0.49142273112E+03  0.49199672161E+03  0.00000000000E+00 0.  1.
        -15    1    1    2    0    0  0.10391297249E+02  0.15944340455E+02  0.10855546438E+02  0.21981848615E+02  0.17770000000E+01 0.  1.
         15    1    1    2    0    0  0.70036173691E+01  0.14355392885E+02  0.23217803927E+02  0.28237423915E+02  0.17770000000E+01 0. -1.
</event>
<event>
 6   1  0.1826851E-04  0.5014980E+03  0.7546771E-02  0.9396464E-01
        -11   -1    0    0    0    0  0.00000000000E+00  0.00000000000E+00  0.50000000000E+03  0.50000000000E+03  0.00000000000E+00 0.  1.
         11   -1    0    0    0    0 -0.00000000000E+00 -0.00000000000E+00 -0.50000000000E+03  0.50000000000E+03  0.00000000000E+00 0. -1.
        -11    1    1    2    0    0 -0.97453037288E+01 -0.18564058764E+01  0.19576949666E+02  0.21947076019E+02  0.00000000000E+00 0.  1.
         11    1    1    2    0    0 -0.46053015869E+01  0.77117737157E+01 -0.49842108980E+03  0.49850201907E+03  0.00000000000E+00 0. -1.
        -15    1    1    2    0    0 -0.24319973419E+01  0.28416276153E+01  0.20841849274E+03  0.20845962512E+03  0.17770000000E+01 0. -1.
         15    1    1    2    0    0  0.16782602658E+02 -0.86969954546E+01  0.27042564740E+03  0.27109127979E+03  0.17770000000E+01 0.  1.
</event>
<event>
 6   1  0.1826851E-04  0.5115022E+03  0.7546771E-02  0.9374434E-01
        -11   -1    0    0    0    0  0.00000000000E+00  0.00000000000E+00  0.50000000000E+03  0.50000000000E+03  0.00000000000E+00 0. -1.
         11   -1    0    0    0    0 -0.00000000000E+00 -0.00000000000E+00 -0.50000000000E+03  0.50000000000E+03  0.00000000000E+00 0. -1.
        -11    1    1    2    0    0 -0.20162792335E+02 -0.21748506757E+02  0.47234414179E+03  0.47327425878E+03  0.00000000000E+00 0. -1.
         11    1    1    2    0    0  0.17175355573E+01  0.74024349851E+01 -0.48843864362E+03  0.48849775287E+03  0.00000000000E+00 0. -1.
        -15    1    1    2    0    0  0.97542460052E+01 -0.51184916307E+01  0.12114753491E+02  0.16470253576E+02  0.17770000000E+01 0. -1.
         15    1    1    2    0    0  0.86910107721E+01  0.19464563403E+02  0.39797483377E+01  0.21757734775E+02  0.17770000000E+01 0.  1.
</event>
<event>
 6   1  0.1826851E-04  0.5023450E+03  0.7546771E-02  0.9394578E-01
        -11   -1    0    0    0    0  0.00000000000E+00  0.00000000000E+00  0.50000000000E+03  0.50000000000E+03  0.00000000000E+00 0.  1.
         11   -1    0    0    0    0 -0.00000000000E+00 -0.00000000000E+00 -0.50000000000E+03  0.50000000000E+03  0.00000000000E+00 0. -1.
        -11    1    1    2    0    0 -0.41312712032E+02 -0.29932728865E+02  0.49503314017E+03  0.49765501937E+03  0.00000000000E+00 0.  1.
         11    1    1    2    0    0 -0.48055335250E+01 -0.50834020679E+01 -0.25394859062E+03  0.25404491888E+03  0.00000000000E+00 0. -1.
        -15    1    1    2    0    0  0.45620959683E+02  0.31607674262E+02 -0.22375253210E+03  0.23053995399E+03  0.17770000000E+01 0.  1.
         15    1    1    2    0    0  0.49728587433E+00  0.34084566705E+01 -0.17332017446E+02  0.17760107766E+02  0.17770000000E+01 0. -1.
</event>
<event>
 6   1  0.1826851E-04  0.4884695E+03  0.7546771E-02  0.9425986E-01
        -11   -1    0    0    0    0  0.00000000000E+00  0.00000000000E+00  0.50000000000E+03  0.50000000000E+03  0.00000000000E+00 0.  1.
         11   -1    0    0    0    0 -0.00000000000E+00 -0.00000000000E+00 -0.50000000000E+03  0.50000000000E+03  0.00000000000E+00 0. -1.
        -11    1    1    2    0    0  0.11746886213E+02  0.11001788478E+02  0.48634869961E+03  0.48661492609E+03  0.00000000000E+00 0.  1.
         11    1    1    2    0    0 -0.88817437354E+01  0.62382349753E+01 -0.49036852828E+03  0.49048862828E+03  0.00000000000E+00 0. -1.
        -15    1    1    2    0    0 -0.32396252853E+01 -0.11632402729E+02  0.90123054446E+01  0.15171926168E+02  0.17770000000E+01 0. -1.
         15    1    1    2    0    0  0.37448280791E+00 -0.56076207250E+01 -0.49924767755E+01  0.77245194623E+01  0.17770000000E+01 0.  1.
</event>
<event>
 6   1  0.1826851E-04  0.5134242E+03  0.7546771E-02  0.9370263E-01
        -11   -1    0    0    0    0  0.00000000000E+00  0.00000000000E+00  0.50000000000E+03  0.50000000000E+03  0.00000000000E+00 0.  1.
         11   -1    0    0    0    0 -0.00000000000E+00 -0.00000000000E+00 -0.50000000000E+03  0.50000000000E+03  0.00000000000E+00 0. -1.
        -11    1    1    2    0    0  0.11307318575E+02 -0.64274947368E+02  0.48217934039E+03  0.48657583234E+03  0.00000000000E+00 0.  1.
         11    1    1    2    0    0 -0.97726922663E+01 -0.25271955017E+01 -0.36580059934E+03  0.36593984575E+03  0.00000000000E+00 0. -1.
        -15    1    1    2    0    0  0.14756237648E+02  0.20494161883E+01 -0.54164637308E+02  0.56204201977E+02  0.17770000000E+01 0.  1.
         15    1    1    2    0    0 -0.16290863957E+02  0.64752726681E+02 -0.62214103747E+02  0.91280119934E+02  0.17770000000E+01 0. -1.
</event>
<event>
 6   1  0.1826851E-04  0.5035053E+03  0.7546771E-02  0.9392000E-01
        -11   -1    0    0    0    0  0.00000000000E+00  0.00000000000E+00  0.50000000000E+03  0.50000000000E+03  0.00000000000E+00 0. -1.
         11   -1    0    0    0    0 -0.00000000000E+00 -0.00000000000E+00 -0.50000000000E+03  0.50000000000E+03  0.00000000000E+00 0.  1.
        -11    1    1    2    0    0  0.13994019523E+02  0.12414903872E+02  0.47504535267E+03  0.47541355630E+03  0.00000000000E+00 0. -1.
         11    1    1    2    0    0 -0.87029540350E+01 -0.10866982570E+01 -0.49641724117E+03  0.49649471261E+03  0.00000000000E+00 0.  1.
        -15    1    1    2    0    0 -0.75012798946E+01 -0.11236519177E+02  0.21259824969E+02  0.25252058332E+02  0.17770000000E+01 0.  1.
         15    1    1    2    0    0  0.22102144062E+01 -0.91686437537E-01  0.11206352236E+00  0.28396727553E+01  0.17770000000E+01 0. -1.
</event>
<event>
 6   1  0.1826851E-04  0.5016956E+03  0.7546771E-02  0.9396024E-01
        -11   -1    0    0    0    0  0.00000000000E+00  0.00000000000E+00  0.50000000000E+03  0.50000000000E+03  0.00000000000E+00 0.  1.
         11   -1    0    0    0    0 -0.00000000000E+00 -0.00000000000E+00 -0.50000000000E+03  0.50000000000E+03  0.00000000000E+00 0. -1.
        -11    1    1    2    0    0 -0.10265031613E+01  0.75198077272E+01  0.49824655006E+03  0.49830435064E+03  0.00000000000E+00 0.  1.
         11    1    1    2    0    0 -0.66249252259E+01  0.38497553720E+01 -0.46017509788E+03  0.46023888467E+03  0.00000000000E+00 0. -1.
        -15    1    1    2    0    0 -0.46683544463E+00 -0.65320904208E+01 -0.16338028853E+02  0.17691101051E+02  0.17770000000E+01 0. -1.
         15    1    1    2    0    0  0.81182638318E+01 -0.48374726783E+01 -0.21733423331E+02  0.23765663640E+02  0.17770000000E+01 0.  1.
</event>
<event>
 6   1  0.1826851E-04  0.5001014E+03  0.7546771E-02  0.9399583E-01
        -11   -1    0    0    0    0  0.00000000000E+00  0.00000000000E+00  0.50000000000E+03  0.50000000000E+03  0.00000000000E+00 0. -1.
         11   -1    0    0    0    0 -0.00000000000E+00 -0.00000000000E+00 -0.50000000000E+03  0.50000000000E+03  0.00000000000E+00 0.  1.
        -11    1    1    2    0    0  0.13135714145E+02  0.52400557278E+01  0.24341136479E+03  0.24382185644E+03  0.00000000000E+00 0. -1.
         11    1    1    2    0    0 -0.20146032537E+02 -0.29858491014E+01 -0.49948353389E+03  0.49989856826E+03  0.00000000000E+00 0.  1.
        -15    1    1    2    0    0  0.64831788873E+01 -0.34224945183E+01  0.22684932855E+03  0.22697471372E+03  0.17770000000E+01 0. -1.
         15    1    1    2    0    0  0.52713950537E+00  0.11682878919E+01  0.29222840552E+02  0.29304861569E+02  0.17770000000E+01 0. -1.
</event>
<event>
 6   1  0.1826851E-04  0.5006243E+03  0.7546771E-02  0.9398414E-01
        -11   -1    0    0    0    0  0.00000000000E+00  0.00000000000E+00  0.50000000000E+03  0.50000000000E+03  0.00000000000E+00 0. -1.
         11   -1    0    0    0    0 -0.00000000000E+00 -0.00000000000E+00 -0.50000000000E+03  0.50000000000E+03  0.00000000000E+00 0. -1.
        -11    1    1    2    0    0 -0.13558887173E+02 -0.79859312845E+01  0.49912775823E+03  0.49937574787E+03  0.00000000000E+00 0. -1.
         11    1    1    2    0    0  0.23447113304E+01  0.78179938919E+01 -0.20850894052E+03  0.20866862959E+03  0.00000000000E+00 0. -1.
        -15    1    1    2    0    0  0.20803562846E+00 -0.62671323763E+01 -0.22454458660E+03  0.22463915360E+03  0.17770000000E+01 0. -1.
         15    1    1    2    0    0  0.11006140214E+02  0.64350697689E+01 -0.66074231113E+02  0.67316468947E+02  0.17770000000E+01 0.  1.
</event>
<event>
 6   1  0.1826851E-04  0.5024486E+03  0.7546771E-02  0.9394347E-01
        -11   -1    0    0    0    0  0.00000000000E+00  0.00000000000E+00  0.50000000000E+03  0.50000000000E+03  0.00000000000E+00 0. -1.
         11   -1    0    0    0    0 -0.00000000000E+00 -0.00000000000E+00 -0.50000000000E+03  0.50000000000E+03  0.00000000000E+00 0.  1.
        -11    1    1    2    0    0  0.23241788643E+02 -0.18371099306E+02  0.24240836900E+03  0.24421198863E+03  0.00000000000E+00 0. -1.
         11    1    1    2    0    0  0.73178867839E+01  0.11642039292E+02 -0.49736137815E+03  0.49755143354E+03  0.00000000000E+00 0.  1.
        -15    1    1    2    0    0 -0.10762163009E+02  0.11353400300E+02  0.17548847958E+03  0.17619332577E+03  0.17770000000E+01 0. -1.
         15    1    1    2    0    0 -0.19797512419E+02 -0.46243402855E+01  0.79464529561E+02  0.82043252059E+02  0.17770000000E+01 0.  1.
</event>
<event>
 6   1  0.1826851E-04  0.5014104E+03  0.7546771E-02  0.9396659E-01
        -11   -1    0    0    0    0  0.00000000000E+00  0.00000000000E+00  0.50000000000E+03  0.50000000000E+03  0.00000000000E+00 0.  1.
         11   -1    0    0    0    0 -0.00000000000E+00 -0.00000000000E+00 -0.50000000000E+03  0.50000000000E+03  0.00000000000E+00 0. -1.
        -11    1    1    2    0    0 -0.19160468667E+01 -0.85200870644E+01  0.49851316119E+03  0.49858964590E+03  0.00000000000E+00 0.  1.
         11    1    1    2    0    0  0.10034747428E+02  0.11168029752E+02 -0.48202027270E+03  0.48225404544E+03  0.00000000000E+00 0. -1.
        -15    1    1    2    0    0 -0.34990525148E+01  0.32428408047E-01 -0.86895871746E+01  0.95347299053E+01  0.17770000000E+01 0. -1.
         15    1    1    2    0    0 -0.46196480467E+01 -0.26803710956E+01 -0.78033013185E+01  0.96215787558E+01  0.17770000000E+01 0. -1.
</event>
<event>
 6   1  0.1826851E-04  0.5005792E+03  0.7546771E-02  0.9398515E-01
        -11   -1    0    0    0    0  0.00000000000E+00  0.00000000000E+00  0.50000000000E+03  0.50000000000E+03  0.00000000000E+00 0. -1.
         11   -1    0    0    0    0 -0.00000000000E+00 -0.00000000000E+00 -0.50000000000E+03  0.50000000000E+03  0.00000000000E+00 0.  1.
        -11    1    1    2    0    0  0.56320208781E+01 -0.86583420866E+01  0.23056762312E+03  0.23079886347E+03  0.00000000000E+00 0. -1.
         11    1    1    2    0    0  0.72858762530E+01  0.80328858089E+00 -0.49936703556E+03  0.49942083003E+03  0.00000000000E+00 0.  1.
        -15    1    1    2    0    0 -0.97154930481E+01  0.95899542850E+01  0.25565453085E+03  0.25602491071E+03  0.17770000000E+01 0. -1.
         15    1    1    2    0    0 -0.32024040830E+01 -0.17349007793E+01  0.13144881580E+02  0.13755395792E+02  0.17770000000E+01 0.  1.
</event>
<event>
 6   1  0.1826851E-04  0.5063404E+03  0.7546771E-02  0.9385733E-01
        -11   -1    0    0    0    0  0.00000000000E+00  0.00000000000E+00  0.50000000000E+03  0.50000000000E+03  0.00000000000E+00 0.  1.
         11   -1    0    0    0    0 -0.00000000000E+00 -0.00000000000E+00 -0.50000000000E+03  0.50000000000E+03  0.00000000000E+00 0. -1.
        -11    1    1    2    0    0 -0.13059714918E+02  0.13271494306E+02  0.47565211028E+03  0.47601640594E+03  0.00000000000E+00 0.  1.
         11    1    1    2    0    0  0.90576115797E+01  0.39045009037E+01 -0.49356106087E+03  0.49365960566E+03  0.00000000000E+00 0. -1.
        -15    1    1    2    0    0 -0.18396493895E+01 -0.17412064827E+02  0.16340527701E+02  0.24015305244E+02  0.17770000000E+01 0.  1.
         15    1    1    2    0    0  0.58417527282E+01  0.23606961765E+00  0.15684228897E+01  0.63086831560E+01  0.17770000000E+01 0. -1.
</event>
<event>
 6   1  0.1826851E-04  0.4604854E+03  0.7546771E-02  0.9492844E-01
        -11   -1    0    0    0    0  0.00000000000E+00  0.00000000000E+00  0.50000000000E+03  0.50000000000E+03  0.00000000000E+00 0. -1.
         11   -1    0    0    0    0 -0.00000000000E+00 -0.00000000000E+00 -0.50000000000E+03  0.50000000000E+03  0.00000000000E+00 0. -1.
        -11    1    1    2    0    0 -0.30154175977E+02  0.44932609254E+02  0.44311950581E+03  0.44641136873E+03  0.00000000000E+00 0. -1.
         11    1    1    2    0    0 -0.87722362395E+01 -0.32642718409E+01 -0.47684740492E+03  0.47693925733E+03  0.00000000000E+00 0. -1.
        -15    1    1    2    0    0  0.15255985302E+02 -0.24025154339E+02  0.37198691484E+02  0.46870603854E+02  0.17770000000E+01 0.  1.
         15    1    1    2    0    0  0.23670426914E+02 -0.17643183074E+02 -0.34707923699E+01  0.29778770088E+02  0.17770000000E+01 0. -1.
</event>
<event>
 6   1  0.1826851E-04  0.5002251E+03  0.7546771E-02  0.9399306E-01
        -11   -1    0    0    0    0  0.00000000000E+00  0.00000000000E+00  0.50000000000E+03  0.50000000000E+03  0.00000000000E+00 0. -1.
         11   -1    0    0    0    0 -0.00000000000E+00 -0.00000000000E+00 -0.50000000000E+03  0.50000000000E+03  0.00000000000E+00 0.  1.
        -11    1    1    2    0    0  0.71793452508E+01 -0.28942970016E+02  0.28595613554E+03  0.28750678247E+03  0.00000000000E+00 0. -1.
         11    1    1    2    0    0 -0.90892646528E+01  0.34746157276E+02 -0.49848272979E+03  0.49977489140E+03  0.00000000000E+00 0.  1.
        -15    1    1    2    0    0 -0.72636195837E+00 -0.32549686015E+01  0.15569986307E+03  0.15574571426E+03  0.17770000000E+01 0. -1.
         15    1    1    2    0    0  0.26362813603E+01 -0.25482186591E+01  0.56826731175E+02  0.56972611866E+02  0.17770000000E+01 0. -1.
</event>
<event>
 6   1  0.1826851E-04  0.5001980E+03  0.7546771E-02  0.9399367E-01
        -11   -1    0    0    0    0  0.00000000000E+00  0.00000000000E+00  0.50000000000E+03  0.50000000000E+03  0.00000000000E+00 0.  1.
         11   -1    0    0    0    0 -0.00000000000E+00 -0.00000000000E+00 -0.50000000000E+03  0.50000000000E+03  0.00000000000E+00 0.  1.
        -11    1    1    2    0    0 -0.49928922015E+01  0.29989261882E+01  0.24770943938E+03  0.24777790234E+03  0.00000000000E+00 0.  1.
         11    1    1    2    0    0 -0.49107012853E+01 -0.72149648891E+01 -0.49972581677E+03  0.49980202346E+03  0.00000000000E+00 0.  1.
        -15    1    1    2    0    0  0.19797077142E+01  0.25960937950E+01  0.27384391231E+02  0.27635512620E+02  0.17770000000E+01 0. -1.
         15    1    1    2    0    0  0.79238857726E+01  0.16199449060E+01  0.22463198617E+03  0.22478456158E+03  0.17770000000E+01 0.  1.
</event>
<event>
 6   1  0.1826851E-04  0.4872705E+03  0.7546771E-02  0.9428752E-01
        -11   -1    0    0    0    0  0.00000000000E+00  0.00000000000E+00  0.50000000000E+03  0.50000000000E+03  0.00000000000E+00 0. -1.
         11   -1    0    0    0    0 -0.00000000000E+00 -0.00000000000E+00 -0.50000000000E+03  0.50000000000E+03  0.00000000000E+00 0.  1.
        -11    1    1    2    0    0 -0.50155430383E+01  0.13342499833E+02  0.49084003555E+03  0.49104696158E+03  0.00000000000E+00 0. -1.
         11    1    1    2    0    0  0.99064096281E+01  0.15720673438E+01 -0.48354370355E+03  0.48364772468E+03  0.00000000000E+00 0.  1.
        -15    1    1    2    0    0  0.12238102826E+01 -0.15016595338E+02 -0.10225808554E+02  0.18295374736E+02  0.17770000000E+01 0.  1.
         15    1    1    2    0    0 -0.61146768724E+01  0.10202816162E+00  0.29294765473E+01  0.70099390041E+01  0.17770000000E+01 0. -1.
</event>
<event>
 6   1  0.1826851E-04  0.5090446E+03  0.7546771E-02  0.9379796E-01
        -11   -1    0    0    0    0  0.00000000000E+00  0.00000000000E+00  0.50000000000E+03  0.50000000000E+03  0.00000000000E+00 0. -1.
         11   -1    0    0    0    0 -0.00000000000E+00 -0.00000000000E+00 -0.50000000000E+03  0.50000000000E+03  0.00000000000E+00 0. -1.
        -11    1    1    2    0    0 -0.15018300201E+02  0.76028697722E+01  0.47605876201E+03  0.47635627198E+03  0.00000000000E+00 0. -1.
         11    1    1    2    0    0  0.51947592374E-01  0.93517943409E+01 -0.49086634691E+03  0.49095542495E+03  0.00000000000E+00 0. -1.
        -15    1    1    2    0    0  0.14882665401E+01 -0.41414103327E+01 -0.39797802643E+01  0.61937546602E+01  0.17770000000E+01 0. -1.
         15    1    1    2    0    0  0.13478086069E+02 -0.12813253780E+02  0.18787365163E+02  0.26494548406E+02  0.17770000000E+01 0.  1.
</event>
<event>
 6   1  0.1826851E-04  0.5013548E+03  0.7546771E-02  0.9396783E-01
        -11   -1    0    0    0    0  0.00000000000E+00  0.00000000000E+00  0.50000000000E+03  0.50000000000E+03  0.00000000000E+00 0. -1.
         11   -1    0    0    0    0 -0.00000000000E+00 -0.00000000000E+00 -0.50000000000E+03  0.50000000000E+03  0.00000000000E+00 0. -1.
        -11    1    1    2    0    0 -0.19809982140E+02 -0.10046742254E+02  0.49815024262E+03  0.49864520117E+03  0.00000000000E+00 0. -1.
         11    1    1    2    0    0 -0.92408700223E+01 -0.43524001616E+01 -0.24406163532E+03  0.24427529327E+03  0.00000000000E+00 0. -1.
        -15    1    1    2    0    0  0.23082409735E+01  0.10264231841E+02 -0.10534953034E+03  0.10588844934E+03  0.17770000000E+01 0.  1.
         15    1    1    2    0    0  0.26742611189E+02  0.41349105750E+01 -0.14873907696E+03  0.15119105622E+03  0.17770000000E+01 0. -1.
</event>
<event>
 6   1  0.1826851E-04  0.5021330E+03  0.7546771E-02  0.9395050E-01
        -11   -1    0    0    0    0  0.00000000000E+00  0.00000000000E+00  0.50000000000E+03  0.50000000000E+03  0.00000000000E+00 0. -1.
         11   -1    0    0    0    0 -0.00000000000E+00 -0.00000000000E+00 -0.50000000000E+03  0.50000000000E+03  0.00000000000E+00 0. -1.
        -11    1    1    2    0    0  0.37556892667E+02  0.30437572176E+02  0.16160232745E+03  0.16867803125E+03  0.00000000000E+00 0. -1.
         11    1    1    2    0    0 -0.41078717722E+02 -0.34250260500E+02 -0.49498589235E+03  0.49786702544E+03  0.00000000000E+00 0. -1.
        -15    1    1    2    0    0  0.29456901100E+01  0.32562902717E+01  0.19435881489E+03  0.19441653008E+03  0.17770000000E+01 0. -1.
         15    1    1    2    0    0  0.57613494465E+00  0.55639805238E+00  0.13902475001E+03  0.13903841323E+03  0.17770000000E+01 0. -1.
</event>
<event>
 6   1  0.1826851E-04  0.5004235E+03  0.7546771E-02  0.9398863E-01
        -11   -1    0    0    0    0  0.00000000000E+00  0.00000000000E+00  0.50000000000E+03  0.50000000000E+03  0.00000000000E+00 0. -1.
         11   -1    0    0    0    0 -0.00000000000E+00 -0.00000000000E+00 -0.50000000000E+03  0.50000000000E+03  0.00000000000E+00 0. -1.
        -11    1    1    2    0    0  0.72877098738E+01 -0.66455313069E+01  0.26521783051E+03  0.26540115189E+03  0.00000000000E+00 0. -1.
         11    1    1    2    0    0  0.84506406752E+01 -0.14559513907E+01 -0.49950285683E+03  0.49957645771E+03  0.00000000000E+00 0. -1.
        -15    1    1    2    0    0 -0.57732223059E+01  0.54513268057E+01  0.10065909907E+03  0.10098742008E+03  0.17770000000E+01 0. -1.
         15    1    1    2    0    0 -0.99651282431E+01  0.26501558919E+01  0.13362592725E+03  0.13403497032E+03  0.17770000000E+01 0.  1.
</event>
<event>
 6   1  0.1826851E-04  0.5035579E+03  0.7546771E-02  0.9391884E-01
        -11   -1    0    0    0    0  0.00000000000E+00  0.00000000000E+00  0.50000000000E+03  0.50000000000E+03  0.00000000000E+00 0. -1.
         11   -1    0    0    0    0 -0.00000000000E+00 -0.00000000000E+00 -0.50000000000E+03  0.50000000000E+03  0.00000000000E+00 0.  1.
        -11    1    1    2    0    0 -0.51977226093E+01  0.82914302848E+01  0.48499924405E+03  0.48509796007E+03  0.00000000000E+00 0. -1.
         11    1    1    2    0    0 -0.71428106302E+01 -0.65130530208E+01 -0.49634801935E+03  0.49644213753E+03  0.00000000000E+00 0.  1.
        -15    1    1    2    0    0  0.85765200577E+01 -0.54459718638E+00  0.11046466093E+02  0.14107991514E+02  0.17770000000E+01 0. -1.
         15    1    1    2    0    0  0.37640131817E+01 -0.12337800777E+01  0.30230920337E+00  0.43519108868E+01  0.17770000000E+01 0.  1.
</event>
<event>
 6   1  0.1826851E-04  0.5019323E+03  0.7546771E-02  0.9395496E-01
        -11   -1    0    0    0    0  0.00000000000E+00  0.00000000000E+00  0.50000000000E+03  0.50000000000E+03  0.00000000000E+00 0.  1.
         11   -1    0    0    0    0 -0.00000000000E+00 -0.00000000000E+00 -0.50000000000E+03  0.50000000000E+03  0.00000000000E+00 0. -1.
        -11    1    1    2    0    0 -0.72471367679E+01 -0.33088216463E+01  0.46934394526E+03  0.46941155530E+03  0.00000000000E+00 0.  1.
         11    1    1    2    0    0 -0.16922080228E+01  0.95441886555E+01 -0.49797337574E+03  0.49806770429E+03  0.00000000000E+00 0. -1.
        -15    1    1    2    0    0  0.52236207272E+01 -0.45579240183E+01  0.26753192598E+02  0.27693896946E+02  0.17770000000E+01 0.  1.
         15    1    1    2    0    0  0.37157240635E+01 -0.16774429909E+01  0.18762378824E+01  0.48268434712E+01  0.17770000000E+01 0. -1.
</event>
<event>
 6   1  0.1826851E-04  0.5026504E+03  0.7546771E-02  0.9393899E-01
        -11   -1    0    0    0    0  0.00000000000E+00  0.00000000000E+00  0.50000000000E+03  0.50000000000E+03  0.00000000000E+00 0. -1.
         11   -1    0    0    0    0 -0.00000000000E+00 -0.00000000000E+00 -0.50000000000E+03  0.50000000000E+03  0.00000000000E+00 0. -1.
        -11    1    1    2    0    0 -0.10255819190E+02 -0.16148321905E+02  0.34940172535E+02  0.39834228804E+02  0.00000000000E+00 0. -1.
         11    1    1    2    0    0 -0.59791862566E+01  0.27490410722E+02 -0.49655323702E+03  0.49734956575E+03  0.00000000000E+00 0. -1.
        -15    1    1    2    0    0  0.13579999123E+02  0.59593357876E+01  0.26369906479E+03  0.26412172299E+03  0.17770000000E+01 0. -1.
         15    1    1    2    0    0  0.26550063237E+01 -0.17301424604E+02  0.19791399970E+03  0.19869448246E+03  0.17770000000E+01 0.  1.
</event>
<event>
 6   1  0.1826851E-04  0.5047762E+03  0.7546771E-02  0.9389186E-01
        -11   -1    0    0    0    0  0.00000000000E+00  0.00000000000E+00  0.50000000000E+03  0.50000000000E+03  0.00000000000E+00 0. -1.
         11   -1    0    0    0    0 -0.00000000000E+00 -0.00000000000E+00 -0.50000000000E+03  0.50000000000E+03  0.00000000000E+00 0. -1.
        -11    1    1    2    0    0  0.11902136491E+02  0.25666447018E+01  0.48302196466E+03  0.48317539969E+03  0.00000000000E+00 0. -1.
         11    1    1    2    0    0  0.50468804444E+01 -0.46532389772E+01 -0.49517624407E+03  0.49522382447E+03  0.00000000000E+00 0. -1.
        -15    1    1    2    0    0 -0.13409463934E+02  0.57188095122E+00  0.83684895194E+01  0.15916347466E+02  0.17770000000E+01 0.  1.
         15    1    1    2    0    0 -0.35395530021E+01  0.15147133241E+01  0.37857898855E+01  0.56844283764E+01  0.17770000000E+01 0. -1.
</event>
<event>
 6   1  0.1826851E-04  0.5016904E+03  0.7546771E-02  0.9396035E-01
        -11   -1    0    0    0    0  0.00000000000E+00  0.00000000000E+00  0.50000000000E+03  0.50000000000E+03  0.00000000000E+00 0. -1.
         11   -1    0    0    0    0 -0.00000000000E+00 -0.00000000000E+00 -0.50000000000E+03  0.50000000000E+03  0.00000000000E+00 0.  1.
        -11    1    1    2    0    0  0.85539071349E+01 -0.33896001910E+01  0.48175929677E+03  0.48184715289E+03  0.00000000000E+00 0. -1.
         11    1    1    2    0    0 -0.26597879607E+01  0.80612362546E+01 -0.49823728150E+03  0.49830958919E+03  0.00000000000E+00 0.  1.
        -15    1    1    2    0    0 -0.55553806268E+01  0.20619715117E+00  0.81610921519E+01  0.10033241016E+02  0.17770000000E+01 0. -1.
         15    1    1    2    0    0 -0.33873854738E+00 -0.48778332148E+01  0.83168925722E+01  0.98100169078E+01  0.17770000000E+01 0.  1.
</event>
<event>
 6   1  0.1826851E-04  0.5017794E+03  0.7546771E-02  0.9395837E-01
        -11   -1    0    0    0    0  0.00000000000E+00  0.00000000000E+00  0.50000000000E+03  0.50000000000E+03  0.00000000000E+00 0.  1.
         11   -1    0    0    0    0 -0.00000000000E+00 -0.00000000000E+00 -0.50000000000E+03  0.50000000000E+03  0.00000000000E+00 0.  1.
        -11    1    1    2    0    0 -0.28620164289E+02  0.12636573136E+02  0.28168043617E+03  0.28341253484E+03  0.00000000000E+00 0.  1.
         11    1    1    2    0    0  0.16425964485E+02 -0.31267630023E+02 -0.49696708322E+03  0.49822059251E+03  0.00000000000E+00 0.  1.
        -15    1    1    2    0    0  0.35580154550E+01  0.22504573386E+02  0.95608561715E+02  0.98301933346E+02  0.17770000000E+01 0.  1.
         15    1    1    2    0    0  0.86361843492E+01 -0.38735164994E+01  0.11967808534E+03  0.12006493930E+03  0.17770000000E+01 0.  1.
</event>
<event>
 6   1  0.1826851E-04  0.5079374E+03  0.7546771E-02  0.9382222E-01
        -11   -1    0    0    0    0  0.00000000000E+00  0.00000000000E+00  0.50000000000E+03  0.50000000000E+03  0.00000000000E+00 0.  1.
         11   -1    0    0    0    0 -0.00000000000E+00 -0.00000000000E+00 -0.50000000000E+03  0.50000000000E+03  0.00000000000E+00 0.  1.
        -11    1    1    2    0    0  0.11678814096E+01  0.13483263318E+02  0.47250194105E+03  0.47269572309E+03  0.00000000000E+00 0.  1.
         11    1    1    2    0    0 -0.13812467597E+02 -0.11481645151E+02 -0.49173467358E+03  0.49206259931E+03  0.00000000000E+00 0.  1.
        -15    1    1    2    0    0  0.15097543778E+02 -0.67562228641E+01  0.23055334667E+02  0.28430416126E+02  0.17770000000E+01 0.  1.
         15    1    1    2    0    0 -0.24529575913E+01  0.47546046974E+01 -0.38226021326E+01  0.68112614718E+01  0.17770000000E+01 0. -1.
</event>
<event>
 6   1  0.1826851E-04  0.5083292E+03  0.7546771E-02  0.9381363E-01
        -11   -1    0    0    0    0  0.00000000000E+00  0.00000000000E+00  0.50000000000E+03  0.50000000000E+03  0.00000000000E+00 0. -1.
         11   -1    0    0    0    0 -0.00000000000E+00 -0.00000000000E+00 -0.50000000000E+03  0.50000000000E+03  0.00000000000E+00 0.  1.
        -11    1    1    2    0    0  0.26467840856E+02  0.49348259866E+01  0.49093305477E+03  0.49167078760E+03  0.00000000000E+00 0. -1.
         11    1    1    2    0    0 -0.64242578738E+01  0.13149320840E+02 -0.47458626431E+03  0.47481185537E+03  0.00000000000E+00 0.  1.
        -15    1    1    2    0    0 -0.90810694092E+01 -0.16442324258E+01 -0.46373688447E+01  0.10480087819E+02  0.17770000000E+01 0.  1.
         15    1    1    2    0    0 -0.10962513573E+02 -0.16439914401E+02 -0.11709421617E+02  0.23037269217E+02  0.17770000000E+01 0. -1.
</event>
<event>
 6   1  0.1826851E-04  0.5054996E+03  0.7546771E-02  0.9387587E-01
        -11   -1    0    0    0    0  0.00000000000E+00  0.00000000000E+00  0.50000000000E+03  0.50000000000E+03  0.00000000000E+00 0. -1.
         11   -1    0    0    0    0 -0.00000000000E+00 -0.00000000000E+00 -0.50000000000E+03  0.50000000000E+03  0.00000000000E+00 0. -1.
        -11    1    1    2    0    0  0.26971682926E+02 -0.36017146110E+02  0.21315788573E+03  0.21785543543E+03  0.00000000000E+00 0. -1.
         11    1    1    2    0    0 -0.13195043812E+02 -0.10414972978E+01 -0.49432321565E+03  0.49450038972E+03  0.00000000000E+00 0. -1.
        -15    1    1    2    0    0 -0.15604464786E+01  0.12028733912E+02  0.22079467168E+03  0.22113473315E+03  0.17770000000E+01 0. -1.
         15    1    1    2    0    0 -0.12216192636E+02  0.25029909496E+02  0.60370658236E+02  0.66509441711E+02  0.17770000000E+01 0.  1.
</event>
<event>
 6   1  0.1826851E-04  0.5002194E+03  0.7546771E-02  0.9399319E-01
        -11   -1    0    0    0    0  0.00000000000E+00  0.00000000000E+00  0.50000000000E+03  0.50000000000E+03  0.00000000000E+00 0. -1.
         11   -1    0    0    0    0 -0.00000000000E+00 -0.00000000000E+00 -0.50000000000E+03  0.50000000000E+03  0.00000000000E+00 0. -1.
        -11    1    1    2    0    0  0.46075642700E+01 -0.11453586764E+02  0.49962804687E+03  0.49978055136E+03  0.00000000000E+00 0. -1.
         11    1    1    2    0    0 -0.94201936046E-02 -0.36895576996E+01 -0.14622878675E+03  0.14627532601E+03  0.00000000000E+00 0. -1.
        -15    1    1    2    0    0 -0.36579112040E+01  0.20921553035E+01 -0.38924145714E+02  0.39191890447E+02  0.17770000000E+01 0.  1.
         15    1    1    2    0    0 -0.94023287237E+00  0.13050989160E+02 -0.31447511441E+03  0.31475223218E+03  0.17770000000E+01 0. -1.
</event>
<event>
 6   1  0.1826851E-04  0.5002746E+03  0.7546771E-02  0.9399195E-01
        -11   -1    0    0    0    0  0.00000000000E+00  0.00000000000E+00  0.50000000000E+03  0.50000000000E+03  0.00000000000E+00 0.  1.
         11   -1    0    0    0    0 -0.00000000000E+00 -0.00000000000E+00 -0.50000000000E+03  0.50000000000E+03  0.00000000000E+00 0. -1.
        -11    1    1    2    0    0  0.45207077044E+00  0.50094976586E+01  0.90578807253E+02  0.90718354031E+02  0.00000000000E+00 0.  1.
         11    1    1    2    0    0 -0.33531762977E+02  0.29235553105E+01 -0.49859055874E+03  0.49972539616E+03  0.00000000000E+00 0. -1.
        -15    1    1    2    0    0  0.29411912959E+02 -0.61564390447E+01  0.38036849893E+03  0.38155774802E+03  0.17770000000E+01 0.  1.
         15    1    1    2    0    0  0.36677792474E+01 -0.17766139244E+01  0.27643252553E+02  0.27998501788E+02  0.17770000000E+01 0. -1.
</event>
<event>
 6   1  0.1826851E-04  0.5000807E+03  0.7546771E-02  0.9399629E-01
        -11   -1    0    0    0    0  0.00000000000E+00  0.00000000000E+00  0.50000000000E+03  0.50000000000E+03  0.00000000000E+00 0. -1.
         11   -1    0    0    0    0 -0.00000000000E+00 -0.00000000000E+00 -0.50000000000E+03  0.50000000000E+03  0.00000000000E+00 0. -1.
        -11    1    1    2    0    0  0.14667110522E+01 -0.74007902390E+01  0.49986233528E+03  0.49991927065E+03  0.00000000000E+00 0. -1.
         11    1    1    2    0    0  0.18593991024E+01 -0.25876727894E+00 -0.10031003775E+03  0.10032760337E+03  0.00000000000E+00 0. -1.
        -15    1    1    2    0    0 -0.40014690608E+01  0.91387070012E+01 -0.29791234569E+03  0.29808463759E+03  0.17770000000E+01 0. -1.
         15    1    1    2    0    0  0.67535890621E+00 -0.14791494832E+01 -0.10163995184E+03  0.10166848839E+03  0.17770000000E+01 0. -1.
</event>
<event>
 6   1  0.1826851E-04  0.5001863E+03  0.7546771E-02  0.9399393E-01
        -11   -1    0    0    0    0  0.00000000000E+00  0.00000000000E+00  0.50000000000E+03  0.50000000000E+03  0.00000000000E+00 0.  1.
         11   -1    0    0    0    0 -0.00000000000E+00 -0.00000000000E+00 -0.50000000000E+03  0.50000000000E+03  0.00000000000E+00 0. -1.
        -11    1    1    2    0    0 -0.29657546572E+02 -0.10306498824E+01  0.49893198781E+03  0.49981372607E+03  0.00000000000E+00 0.  1.
         11    1    1    2    0    0  0.11859740497E+02  0.49804205698E+01 -0.11689511963E+03  0.11760071015E+03  0.00000000000E+00 0. -1.
        -15    1    1    2    0    0 -0.30121327483E+00 -0.82254935371E+00 -0.29937706539E+02  0.30003188475E+02  0.17770000000E+01 0. -1.
         15    1    1    2    0    0  0.18099019351E+02 -0.31272213336E+01 -0.35209916164E+03  0.35258237530E+03  0.17770000000E+01 0. -1.
</event>
<event>
 6   1  0.1826851E-04  0.5006848E+03  0.7546771E-02  0.9398279E-01
        -11   -1    0    0    0    0  0.00000000000E+00  0.00000000000E+00  0.50000000000E+03  0.50000000000E+03  0.00000000000E+00 0. -1.
         11   -1    0    0    0    0 -0.00000000000E+00 -0.00000000000E+00 -0.50000000000E+03  0.50000000000E+03  0.00000000000E+00 0. -1.
        -11    1    1    2    0    0 -0.15764730339E+02 -0.10808353068E+02  0.49894921135E+03  0.49931519376E+03  0.00000000000E+00 0. -1.
         11    1    1    2    0    0  0.71129663086E+01 -0.38485144143E+01 -0.39121399913E+03  0.39129758300E+03  0.00000000000E+00 0. -1.
        -15    1    1    2    0    0  0.34392862389E+01  0.88141580214E+01 -0.77823620475E+02  0.78416782033E+02  0.17770000000E+01 0. -1.
         15    1    1    2    0    0  0.52124777916E+01  0.58427094608E+01 -0.29911591745E+02  0.30970441202E+02  0.17770000000E+01 0.  1.
</event>
<event>
 6   1  0.1826851E-04  0.5183188E+03  0.7546771E-02  0.9359728E-01
        -11   -1    0    0    0    0  0.00000000000E+00  0.00000000000E+00  0.50000000000E+03  0.50000000000E+03  0.00000000000E+00 0. -1.
         11   -1    0    0    0    0 -0.00000000000E+00 -0.00000000000E+00 -0.50000000000E+03  0.50000000000E+03  0.00000000000E+00 0.  1.
        -11    1    1    2    0    0  0.39815701678E+01  0.29172458400E+02  0.44956184356E+03  0.45052495649E+03  0.00000000000E+00 0. -1.
         11    1    1    2    0    0  0.81656921473E+01  0.84935065402E+01 -0.48153711041E+03  0.48168122953E+03  0.00000000000E+00 0.  1.
        -15    1    1    2    0    0  0.10661655074E+02 -0.26449879046E+02  0.22775387084E+01  0.28663773340E+02  0.17770000000E+01 0. -1.
         15    1    1    2    0    0 -0.22808917389E+02 -0.11216085894E+02  0.29697728138E+02  0.39130040644E+02  0.17770000000E+01 0.  1.
</event>
<event>
 6   1  0.1826851E-04  0.4911906E+03  0.7546771E-02  0.9419740E-01
        -11   -1    0    0    0    0  0.00000000000E+00  0.00000000000E+00  0.50000000000E+03  0.50000000000E+03  0.00000000000E+00 0.  1.
         11   -1    0    0    0    0 -0.00000000000E+00 -0.00000000000E+00 -0.50000000000E+03  0.50000000000E+03  0.00000000000E+00 0. -1.
        -11    1    1    2    0    0 -0.61656855099E+01 -0.40491355878E+01  0.48915075523E+03  0.48920637007E+03  0.00000000000E+00 0.  1.
         11    1    1    2    0    0 -0.85631204527E+01  0.12940327556E+01 -0.49322142627E+03  0.49329745275E+03  0.00000000000E+00 0. -1.
        -15    1    1    2    0    0  0.75431475090E+01 -0.20497833960E+01  0.31897342186E+01  0.86274457227E+01  0.17770000000E+01 0.  1.
         15    1    1    2    0    0  0.71856584536E+01  0.48048862281E+01  0.88093682719E+00  0.88687314634E+01  0.17770000000E+01 0. -1.
</event>
<event>
 6   1  0.1826851E-04  0.5089037E+03  0.7546771E-02  0.9380105E-01
        -11   -1    0    0    0    0  0.00000000000E+00  0.00000000000E+00  0.50000000000E+03  0.50000000000E+03  0.00000000000E+00 0. -1.
         11   -1    0    0    0    0 -0.00000000000E+00 -0.00000000000E+00 -0.50000000000E+03  0.50000000000E+03  0.00000000000E+00 0.  1.
        -11    1    1    2    0    0  0.16568606011E+02 -0.15195208373E+02  0.45743036453E+03  0.45798247943E+03  0.00000000000E+00 0. -1.
         11    1    1    2    0    0  0.68067357119E+01 -0.13450553072E+02 -0.49086489384E+03  0.49109631747E+03  0.00000000000E+00 0.  1.
        -15    1    1    2    0    0 -0.25107667280E+01  0.37403674362E+01  0.90332754463E+01  0.10249492300E+02  0.17770000000E+01 0.  1.
         15    1    1    2    0    0 -0.20864574995E+02  0.24905394008E+02  0.24401253861E+02  0.40671710801E+02  0.17770000000E+01 0. -1.
</event>
<event>
 6   1  0.1826851E-04  0.5034811E+03  0.7546771E-02  0.9392054E-01
        -11   -1    0    0    0    0  0.00000000000E+00  0.00000000000E+00  0.50000000000E+03  0.50000000000E+03  0.00000000000E+00 0. -1.
         11   -1    0    0    0    0 -0.00000000000E+00 -0.00000000000E+00 -0.50000000000E+03  0.50000000000E+03  0.00000000000E+00 0.  1.
        -11    1    1    2    0    0 -0.24044648896E+02  0.50353944303E+02  0.49337343235E+03  0.49651889047E+03  0.00000000000E+00 0. -1.
         11    1    1    2    0    0 -0.18458836094E+01  0.26049853772E+01 -0.23538654554E+03  0.23540819667E+03  0.00000000000E+00 0.  1.
        -15    1    1    2    0    0  0.51860842640E+01  0.38639352338E+01 -0.62512746777E+01  0.91685129427E+01  0.17770000000E+01 0. -1.
         15    1    1    2    0    0  0.20704448242E+02 -0.56822864915E+02 -0.25173561213E+03  0.25890439992E+03  0.17770000000E+01 0.  1.
</event>
<event>
 6   1  0.1826851E-04  0.5034106E+03  0.7546771E-02  0.9392211E-01
        -11   -1    0    0    0    0  0.00000000000E+00  0.00000000000E+00  0.50000000000E+03  0.50000000000E+03  0.00000000000E+00 0.  1.
         11   -1    0    0    0    0 -0.00000000000E+00 -0.00000000000E+00 -0.50000000000E+03  0.50000000000E+03  0.00000000000E+00 0.  1.
        -11    1    1    2    0    0 -0.67558385226E+01 -0.11052061622E+02  0.49642047786E+03  0.49658944840E+03  0.00000000000E+00 0.  1.
         11    1    1    2    0    0  0.41650267811E+00  0.10409345868E+02 -0.47763346457E+03  0.47774706115E+03  0.00000000000E+00 0.  1.
        -15    1    1    2    0    0 -0.60891827841E-01 -0.69611718000E+01 -0.97650245753E+01  0.12123326878E+02  0.17770000000E+01 0. -1.
         15    1    1    2    0    0  0.64002276723E+01  0.76038875540E+01 -0.90219887146E+01  0.13540163572E+02  0.17770000000E+01 0.  1.
</event>
<event>
 6   1  0.1826851E-04  0.5022187E+03  0.7546771E-02  0.9394859E-01
        -11   -1    0    0    0    0  0.00000000000E+00  0.00000000000E+00  0.50000000000E+03  0.50000000000E+03  0.00000000000E+00 0. -1.
         11   -1    0    0    0    0 -0.00000000000E+00 -0.00000000000E+00 -0.50000000000E+03  0.50000000000E+03  0.00000000000E+00 0. -1.
        -11    1    1    2    0    0 -0.20621280969E+02  0.41601623823E+02  0.49561101551E+03  0.49778128835E+03  0.00000000000E+00 0. -1.
         11    1    1    2    0    0 -0.18886781980E+01  0.43193389536E+01 -0.22175033699E+03  0.22180044128E+03  0.00000000000E+00 0. -1.
        -15    1    1    2    0    0  0.18272674396E+02 -0.45593411961E+02 -0.18436894862E+03  0.19080806269E+03  0.17770000000E+01 0.  1.
         15    1    1    2    0    0  0.42372847710E+01 -0.32755081592E+00 -0.89491729900E+02  0.89610207685E+02  0.17770000000E+01 0. -1.
</event>
<event>
 6   1  0.1826851E-04  0.4764746E+03  0.7546771E-02  0.9454045E-01
        -11   -1    0    0    0    0  0.00000000000E+00  0.00000000000E+00  0.50000000000E+03  0.50000000000E+03  0.00000000000E+00 0.  1.
         11   -1    0    0    0    0 -0.00000000000E+00 -0.00000000000E+00 -0.50000000000E+03  0.50000000000E+03  0.00000000000E+00 0.  1.
        -11    1    1    2    0    0  0.32948362058E+02 -0.16192081492E+02  0.48248527191E+03  0.48387995998E+03  0.00000000000E+00 0.  1.
         11    1    1    2    0    0 -0.26149539700E+00  0.68839176658E+01 -0.46971012003E+03  0.46976063433E+03  0.00000000000E+00 0.  1.
        -15    1    1    2    0    0 -0.50406300734E+01 -0.59377434918E+01 -0.12382075084E+02  0.14735612023E+02  0.17770000000E+01 0.  1.
         15    1    1    2    0    0 -0.27646236588E+02  0.15245907317E+02 -0.39307679000E+00  0.31623793665E+02  0.17770000000E+01 0. -1.
</event>
<event>
 6   1  0.1826851E-04  0.5031053E+03  0.7546771E-02  0.9392888E-01
        -11   -1    0    0    0    0  0.00000000000E+00  0.00000000000E+00  0.50000000000E+03  0.50000000000E+03  0.00000000000E+00 0.  1.
         11   -1    0    0    0    0 -0.00000000000E+00 -0.00000000000E+00 -0.50000000000E+03  0.50000000000E+03  0.00000000000E+00 0.  1.
        -11    1    1    2    0    0  0.59685235507E+00 -0.10039748025E+02  0.47206182504E+03  0.47216895222E+03  0.00000000000E+00 0.  1.
         11    1    1    2    0    0  0.32355072210E+01 -0.70802266705E+01 -0.49683373869E+03  0.49689471925E+03  0.00000000000E+00 0.  1.
        -15    1    1    2    0    0  0.90583817072E+00  0.40219531307E+01  0.59222653600E+01  0.74315278221E+01  0.17770000000E+01 0. -1.
         15    1    1    2    0    0 -0.47381977468E+01  0.13098021565E+02  0.18849648290E+02  0.23504800711E+02  0.17770000000E+01 0.  1.
</event>
<event>
 6   1  0.1826851E-04  0.5107795E+03  0.7546771E-02  0.9376008E-01
        -11   -1    0    0    0    0  0.00000000000E+00  0.00000000000E+00  0.50000000000E+03  0.50000000000E+03  0.00000000000E+00 0. -1.
         11   -1    0    0    0    0 -0.00000000000E+00 -0.00000000000E+00 -0.50000000000E+03  0.50000000000E+03  0.00000000000E+00 0. -1.
        -11    1    1    2    0    0 -0.20721456865E+02 -0.15118706659E+02  0.48854756501E+03  0.48922047928E+03  0.00000000000E+00 0. -1.
         11    1    1    2    0    0 -0.12069804744E+02  0.37168873561E+01 -0.45560630737E+03  0.45578131023E+03  0.00000000000E+00 0. -1.
        -15    1    1    2    0    0 -0.29461953435E+01  0.31335564128E+01 -0.11657207607E+02  0.12551791146E+02  0.17770000000E+01 0.  1.
         15    1    1    2    0    0  0.35737456953E+02  0.82682628903E+01 -0.21284050035E+02  0.42446419349E+02  0.17770000000E+01 0. -1.
</event>
<event>
 6   1  0.1826851E-04  0.5024667E+03  0.7546771E-02  0.9394307E-01
        -11   -1    0    0    0    0  0.00000000000E+00  0.00000000000E+00  0.50000000000E+03  0.50000000000E+03  0.00000000000E+00 0.  1.
         11   -1    0    0    0    0 -0.00000000000E+00 -0.00000000000E+00 -0.50000000000E+03  0.50000000000E+03  0.00000000000E+00 0.  1.
        -11    1    1    2    0    0 -0.11966123923E+02  0.41540151488E+02  0.49565172675E+03  0.49753332204E+03  0.00000000000E+00 0.  1.
         11    1    1    2    0    0  0.20602719406E+01 -0.71600161912E+00 -0.14451912970E+03  0.14453558810E+03  0.00000000000E+00 0.  1.
        -15    1    1    2    0    0  0.22675453714E+02 -0.40906037842E+02 -0.32903559821E+03  0.33234780390E+03  0.17770000000E+01 0.  1.
         15    1    1    2    0    0 -0.12769601732E+02  0.81887973761E-01 -0.22096998836E+02  0.25583285962E+02  0.17770000000E+01 0. -1.
</event>
<event>
 6   1  0.1826851E-04  0.5108885E+03  0.7546771E-02  0.9375770E-01
        -11   -1    0    0    0    0  0.00000000000E+00  0.00000000000E+00  0.50000000000E+03  0.50000000000E+03  0.00000000000E+00 0.  1.
         11   -1    0    0    0    0 -0.00000000000E+00 -0.00000000000E+00 -0.50000000000E+03  0.50000000000E+03  0.00000000000E+00 0. -1.
        -11    1    1    2    0    0 -0.55806911718E+02 -0.19105329605E+02  0.22553734554E+03  0.23312339919E+03  0.00000000000E+00 0.  1.
         11    1    1    2    0    0 -0.29181344862E+01  0.72190346172E+01 -0.48904956175E+03  0.48911154538E+03  0.00000000000E+00 0. -1.
        -15    1    1    2    0    0  0.14626915131E+02  0.29934604774E+02  0.16475686425E+03  0.16810118755E+03  0.17770000000E+01 0.  1.
         15    1    1    2    0    0  0.44098131073E+02 -0.18048309786E+02  0.98755351961E+02  0.10966386789E+03  0.17770000000E+01 0. -1.
</event>
<event>
 6   1  0.1826851E-04  0.5004506E+03  0.7546771E-02  0.9398802E-01
        -11   -1    0    0    0    0  0.00000000000E+00  0.00000000000E+00  0.50000000000E+03  0.50000000000E+03  0.00000000000E+00 0. -1.
         11   -1    0    0    0    0 -0.00000000000E+00 -0.00000000000E+00 -0.50000000000E+03  0.50000000000E+03  0.00000000000E+00 0.  1.
        -11    1    1    2    0    0  0.15312663644E+02  0.47315947213E+02  0.49706770213E+03  0.49954937397E+03  0.00000000000E+00 0. -1.
         11    1    1    2    0    0 -0.18896068525E+02 -0.47502596270E+02 -0.44764411672E+03  0.45055389610E+03  0.00000000000E+00 0.  1.
        -15    1    1    2    0    0  0.96997271126E+00  0.22652913669E+01 -0.19561121290E+02  0.19795645662E+02  0.17770000000E+01 0.  1.
         15    1    1    2    0    0  0.26134321701E+01 -0.20786423095E+01 -0.29862464125E+02  0.30101084269E+02  0.17770000000E+01 0. -1.
</event>
<event>
 6   1  0.1826851E-04  0.5004992E+03  0.7546771E-02  0.9398693E-01
        -11   -1    0    0    0    0  0.00000000000E+00  0.00000000000E+00  0.50000000000E+03  0.50000000000E+03  0.00000000000E+00 0.  1.
         11   -1    0    0    0    0 -0.00000000000E+00 -0.00000000000E+00 -0.50000000000E+03  0.50000000000E+03  0.00000000000E+00 0. -1.
        -11    1    1    2    0    0  0.26587671990E+01  0.13974012099E+02  0.23233345627E+03  0.23276850509E+03  0.00000000000E+00 0.  1.
         11    1    1    2    0    0  0.30303936022E+01 -0.18885764146E+02 -0.49913440871E+03  0.49950076409E+03  0.00000000000E+00 0. -1.
        -15    1    1    2    0    0 -0.11799726331E+02  0.66948267739E+01  0.22450688677E+03  0.22492344072E+03  0.17770000000E+01 0. -1.
         15    1    1    2    0    0  0.61105655293E+01 -0.17830747268E+01  0.42294065664E+02  0.42807290103E+02  0.17770000000E+01 0.  1.
</event>
<event>
 6   1  0.1826851E-04  0.5021437E+03  0.7546771E-02  0.9395026E-01
        -11   -1    0    0    0    0  0.00000000000E+00  0.00000000000E+00  0.50000000000E+03  0.50000000000E+03  0.00000000000E+00 0.  1.
         11   -1    0    0    0    0 -0.00000000000E+00 -0.00000000000E+00 -0.50000000000E+03  0.50000000000E+03  0.00000000000E+00 0.  1.
        -11    1    1    2    0    0 -0.28989963399E+01 -0.69293234974E+01  0.68602292282E+01  0.10172632352E+02  0.00000000000E+00 0.  1.
         11    1    1    2    0    0 -0.12468747975E+02  0.45779136048E+02 -0.49559021057E+03  0.49785626016E+03  0.00000000000E+00 0.  1.
        -15    1    1    2    0    0  0.10637560430E+02 -0.44327316612E+02  0.46118313320E+03  0.46343403929E+03  0.17770000000E+01 0.  1.
         15    1    1    2    0    0  0.47301838839E+01  0.54775040617E+01  0.27546848132E+02  0.28537068198E+02  0.17770000000E+01 0. -1.
</event>
<event>
 6   1  0.1826851E-04  0.5038614E+03  0.7546771E-02  0.9391211E-01
        -11   -1    0    0    0    0  0.00000000000E+00  0.00000000000E+00  0.50000000000E+03  0.50000000000E+03  0.00000000000E+00 0.  1.
         11   -1    0    0    0    0 -0.00000000000E+00 -0.00000000000E+00 -0.50000000000E+03  0.50000000000E+03  0.00000000000E+00 0. -1.
        -11    1    1    2    0    0 -0.17880878614E+01  0.27956073646E+02  0.49534708214E+03  0.49613856038E+03  0.00000000000E+00 0.  1.
         11    1    1    2    0    0  0.11042390550E+02  0.63945578695E+01 -0.38885399781E+03  0.38906330638E+03  0.00000000000E+00 0. -1.
        -15    1    1    2    0    0 -0.91181181909E+01 -0.20555260568E+01 -0.36050294506E+02  0.37284671511E+02  0.17770000000E+01 0. -1.
         15    1    1    2    0    0 -0.13618449756E+00 -0.32295105459E+02 -0.70442789825E+02  0.77513461735E+02  0.17770000000E+01 0.  1.
</event>
<event>
 6   1  0.1826851E-04  0.5033105E+03  0.7546771E-02  0.9392433E-01
        -11   -1    0    0    0    0  0.00000000000E+00  0.00000000000E+00  0.50000000000E+03  0.50000000000E+03  0.00000000000E+00 0.  1.
         11   -1    0    0    0    0 -0.00000000000E+00 -0.00000000000E+00 -0.50000000000E+03  0.50000000000E+03  0.00000000000E+00 0. -1.
        -11    1    1    2    0    0  0.66166798595E+01 -0.13225695062E+02  0.46092194473E+03  0.46115912503E+03  0.00000000000E+00 0.  1.
         11    1    1    2    0    0 -0.75237555271E+01 -0.79580941483E+01 -0.49656875456E+03  0.49668950680E+03  0.00000000000E+00 0. -1.
        -15    1    1    2    0    0 -0.90472579323E+00  0.96831040964E+01  0.10722610061E+02  0.14584688177E+02  0.17770000000E+01 0. -1.
         15    1    1    2    0    0  0.18118014608E+01  0.11500685114E+02  0.24924199767E+02  0.27566679990E+02  0.17770000000E+01 0.  1.
</event>
<event>
 6   1  0.1826851E-04  0.5113417E+03  0.7546771E-02  0.9374783E-01
        -11   -1    0    0    0    0  0.00000000000E+00  0.00000000000E+00  0.50000000000E+03  0.50000000000E+03  0.00000000000E+00 0.  1.
         11   -1    0    0    0    0 -0.00000000000E+00 -0.00000000000E+00 -0.50000000000E+03  0.50000000000E+03  0.00000000000E+00 0. -1.
        -11    1    1    2    0    0 -0.26423151346E+02 -0.17817228708E+01  0.46152794805E+03  0.46228714485E+03  0.00000000000E+00 0.  1.
         11    1    1    2    0    0 -0.12871046260E+02  0.14774479174E+01 -0.48848657042E+03  0.48865834298E+03  0.00000000000E+00 0. -1.
        -15    1    1    2    0    0  0.88642961730E+01 -0.12684158801E+01  0.11960252798E+02  0.15046262044E+02  0.17770000000E+01 0. -1.
         15    1    1    2    0    0  0.30429901433E+02  0.15726908336E+01  0.14998369571E+02  0.34008250123E+02  0.17770000000E+01 0.  1.
</event>
<event>
 6   1  0.1826851E-04  0.5002577E+03  0.7546771E-02  0.9399233E-01
        -11   -1    0    0    0    0  0.00000000000E+00  0.00000000000E+00  0.50000000000E+03  0.50000000000E+03  0.00000000000E+00 0. -1.
         11   -1    0    0    0    0 -0.00000000000E+00 -0.00000000000E+00 -0.50000000000E+03  0.50000000000E+03  0.00000000000E+00 0. -1.
        -11    1    1    2    0    0 -0.10531005120E+01  0.79975164598E+01  0.49967717196E+03  0.49974227904E+03  0.00000000000E+00 0. -1.
         11    1    1    2    0    0 -0.58689478414E+01 -0.21357721667E+01 -0.38130555520E+03  0.38135669982E+03  0.00000000000E+00 0. -1.
        -15    1    1    2    0    0  0.62988954031E+01 -0.63780897731E+01 -0.10330093322E+03  0.10370437139E+03  0.17770000000E+01 0. -1.
         15    1    1    2    0    0  0.62315295032E+00  0.51634548004E+00 -0.15070683536E+02  0.15196649746E+02  0.17770000000E+01 0. -1.
</event>
<event>
 6   1  0.1826851E-04  0.5021056E+03  0.7546771E-02  0.9395111E-01
        -11   -1    0    0    0    0  0.00000000000E+00  0.00000000000E+00  0.50000000000E+03  0.50000000000E+03  0.00000000000E+00 0. -1.
         11   -1    0    0    0    0 -0.00000000000E+00 -0.00000000000E+00 -0.50000000000E+03  0.50000000000E+03  0.00000000000E+00 0. -1.
        -11    1    1    2    0    0  0.19037577312E+02 -0.13393534343E+02  0.34873955472E+03  0.34951551201E+03  0.00000000000E+00 0. -1.
         11    1    1    2    0    0 -0.47204991063E+01 -0.57069527786E+01 -0.49783934245E+03  0.49789442989E+03  0.00000000000E+00 0. -1.
        -15    1    1    2    0    0 -0.14349549275E+02  0.50535757407E+01  0.10885282406E+03  0.10992517103E+03  0.17770000000E+01 0. -1.
         15    1    1    2    0    0  0.32471068833E-01  0.14046911381E+02  0.40246963679E+02  0.42664887063E+02  0.17770000000E+01 0.  1.
</event>
<event>
 6   1  0.1826851E-04  0.5035462E+03  0.7546771E-02  0.9391910E-01
        -11   -1    0    0    0    0  0.00000000000E+00  0.00000000000E+00  0.50000000000E+03  0.50000000000E+03  0.00000000000E+00 0.  1.
         11   -1    0    0    0    0 -0.00000000000E+00 -0.00000000000E+00 -0.50000000000E+03  0.50000000000E+03  0.00000000000E+00 0. -1.
        -11    1    1    2    0    0 -0.17466740053E+02 -0.40957255149E+01  0.49612955341E+03  0.49645382035E+03  0.00000000000E+00 0.  1.
         11    1    1    2    0    0  0.14582092664E+02 -0.32746333592E+01 -0.49033540221E+03  0.49056311247E+03  0.00000000000E+00 0. -1.
        -15    1    1    2    0    0  0.11081776715E+01  0.45942045725E+01 -0.73592340170E+01  0.89247312410E+01  0.17770000000E+01 0.  1.
         15    1    1    2    0    0  0.17764697173E+01  0.27761543016E+01  0.15650828220E+01  0.40583359400E+01  0.17770000000E+01 0. -1.
</event>
<event>
 6   1  0.1826851E-04  0.5005115E+03  0.7546771E-02  0.9398666E-01
        -11   -1    0    0    0    0  0.00000000000E+00  0.00000000000E+00  0.50000000000E+03  0.50000000000E+03  0.00000000000E+00 0.  1.
         11   -1    0    0    0    0 -0.00000000000E+00 -0.00000000000E+00 -0.50000000000E+03  0.50000000000E+03  0.00000000000E+00 0. -1.
        -11    1    1    2    0    0 -0.52622793040E+01  0.81820610369E+01  0.49939373183E+03  0.49948847544E+03  0.00000000000E+00 0.  1.
         11    1    1    2    0    0  0.91627078435E+00 -0.14760767894E+02 -0.40623644879E+03  0.40650556225E+03  0.00000000000E+00 0. -1.
        -15    1    1    2    0    0  0.37272344145E+01  0.71763240718E+01 -0.41873134935E+02  0.42683826701E+02  0.17770000000E+01 0.  1.
         15    1    1    2    0    0  0.61877410510E+00 -0.59761721460E+00 -0.51284148103E+02  0.51322135609E+02  0.17770000000E+01 0. -1.
</event>
<event>
 6   1  0.1826851E-04  0.5216219E+03  0.7546771E-02  0.9352688E-01
        -11   -1    0    0    0    0  0.00000000000E+00  0.00000000000E+00  0.50000000000E+03  0.50000000000E+03  0.00000000000E+00 0.  1.
         11   -1    0    0    0    0 -0.00000000000E+00 -0.00000000000E+00 -0.50000000000E+03  0.50000000000E+03  0.00000000000E+00 0. -1.
        -11    1    1    2    0    0  0.46942515700E+02 -0.22158827408E+02  0.47555338551E+03  0.47837813065E+03  0.00000000000E+00 0.  1.
         11    1    1    2    0    0  0.11790693205E+02  0.15677642210E+02 -0.42877947922E+03  0.42922797056E+03  0.00000000000E+00 0. -1.
        -15    1    1    2    0    0 -0.41231552841E+02  0.22546523562E+00  0.80966257438E+00  0.41278384982E+02  0.17770000000E+01 0. -1.
         15    1    1    2    0    0 -0.17501656064E+02  0.62557199623E+01 -0.47583568862E+02  0.51115513809E+02  0.17770000000E+01 0.  1.
</event>
<event>
 6   1  0.1826851E-04  0.5018075E+03  0.7546771E-02  0.9395774E-01
        -11   -1    0    0    0    0  0.00000000000E+00  0.00000000000E+00  0.50000000000E+03  0.50000000000E+03  0.00000000000E+00 0.  1.
         11   -1    0    0    0    0 -0.00000000000E+00 -0.00000000000E+00 -0.50000000000E+03  0.50000000000E+03  0.00000000000E+00 0.  1.
        -11    1    1    2    0    0  0.74927730331E+01  0.65776521762E+01  0.43373552124E+03  0.43385010031E+03  0.00000000000E+00 0.  1.
         11    1    1    2    0    0  0.16614295098E+01  0.10500286946E+02 -0.49807903647E+03  0.49819247580E+03  0.00000000000E+00 0.  1.
        -15    1    1    2    0    0 -0.44988961130E+01 -0.15807398677E+02  0.52623032489E+02  0.55158455350E+02  0.17770000000E+01 0.  1.
         15    1    1    2    0    0 -0.46553064299E+01 -0.12705404448E+01  0.11720482740E+02  0.12798968538E+02  0.17770000000E+01 0. -1.
</event>
<event>
 6   1  0.1826851E-04  0.4786772E+03  0.7546771E-02  0.9448827E-01
        -11   -1    0    0    0    0  0.00000000000E+00  0.00000000000E+00  0.50000000000E+03  0.50000000000E+03  0.00000000000E+00 0.  1.
         11   -1    0    0    0    0 -0.00000000000E+00 -0.00000000000E+00 -0.50000000000E+03  0.50000000000E+03  0.00000000000E+00 0. -1.
        -11    1    1    2    0    0 -0.10635208691E+02  0.18601656745E+02  0.47533663095E+03  0.47581933758E+03  0.00000000000E+00 0.  1.
         11    1    1    2    0    0  0.44646671517E+01  0.17251189506E+02 -0.48191937340E+03  0.48224871098E+03  0.00000000000E+00 0. -1.
        -15    1    1    2    0    0  0.11635943658E+02 -0.17897704653E+02 -0.13820615969E+01  0.21466039223E+02  0.17770000000E+01 0. -1.
         15    1    1    2    0    0 -0.54654021192E+01 -0.17955141598E+02  0.79648040449E+01  0.20465912210E+02  0.17770000000E+01 0.  1.
</event>
<event>
 6   1  0.1826851E-04  0.5072523E+03  0.7546771E-02  0.9383727E-01
        -11   -1    0    0    0    0  0.00000000000E+00  0.00000000000E+00  0.50000000000E+03  0.50000000000E+03  0.00000000000E+00 0.  1.
         11   -1    0    0    0    0 -0.00000000000E+00 -0.00000000000E+00 -0.50000000000E+03  0.50000000000E+03  0.00000000000E+00 0.  1.
        -11    1    1    2    0    0  0.24279749188E+02  0.21173568666E+02  0.30664003301E+03  0.30832764403E+03  0.00000000000E+00 0.  1.
         11    1    1    2    0    0  0.18291074735E+02  0.46140412543E+01 -0.49238644347E+03  0.49274766616E+03  0.00000000000E+00 0.  1.
        -15    1    1    2    0    0 -0.46663716440E+02 -0.13168116522E+02  0.17545689665E+03  0.18204170411E+03  0.17770000000E+01 0.  1.
         15    1    1    2    0    0  0.40928925170E+01 -0.12619493398E+02  0.10289513814E+02  0.16882985705E+02  0.17770000000E+01 0. -1.
</event>
<event>
 6   1  0.1826851E-04  0.5015153E+03  0.7546771E-02  0.9396425E-01
        -11   -1    0    0    0    0  0.00000000000E+00  0.00000000000E+00  0.50000000000E+03  0.50000000000E+03  0.00000000000E+00 0. -1.
         11   -1    0    0    0    0 -0.00000000000E+00 -0.00000000000E+00 -0.50000000000E+03  0.50000000000E+03  0.00000000000E+00 0. -1.
        -11    1    1    2    0    0 -0.11248655907E+02 -0.69964164046E+01  0.49830862270E+03  0.49848466934E+03  0.00000000000E+00 0. -1.
         11    1    1    2    0    0 -0.64037474124E+01  0.17315050020E+01 -0.42423025385E+03  0.42428211649E+03  0.00000000000E+00 0. -1.
        -15    1    1    2    0    0  0.14644665445E+01  0.19298843892E+01 -0.29564206017E+02  0.29716478971E+02  0.17770000000E+01 0. -1.
         15    1    1    2    0    0  0.16187936775E+02  0.33350270134E+01 -0.44514162835E+02  0.47516735200E+02  0.17770000000E+01 0.  1.
</event>
<event>
 6   1  0.1826851E-04  0.5047836E+03  0.7546771E-02  0.9389169E-01
        -11   -1    0    0    0    0  0.00000000000E+00  0.00000000000E+00  0.50000000000E+03  0.50000000000E+03  0.00000000000E+00 0. -1.
         11   -1    0    0    0    0 -0.00000000000E+00 -0.00000000000E+00 -0.50000000000E+03  0.50000000000E+03  0.00000000000E+00 0. -1.
        -11    1    1    2    0    0  0.99935272696E+01  0.39806938624E+01  0.47894362005E+03  0.47906440871E+03  0.00000000000E+00 0. -1.
         11    1    1    2    0    0  0.90400502446E+01 -0.29862812009E+01 -0.49512489764E+03  0.49521642203E+03  0.00000000000E+00 0. -1.
        -15    1    1    2    0    0 -0.28253087880E+01 -0.12377101896E+01  0.40655065599E+01  0.54037365636E+01  0.17770000000E+01 0. -1.
         15    1    1    2    0    0 -0.16208268726E+02  0.24329752808E+00  0.12115771036E+02  0.20315432695E+02  0.17770000000E+01 0.  1.
</event>
<event>
 6   1  0.1826851E-04  0.5000895E+03  0.7546771E-02  0.9399609E-01
        -11   -1    0    0    0    0  0.00000000000E+00  0.00000000000E+00  0.50000000000E+03  0.50000000000E+03  0.00000000000E+00 0.  1.
         11   -1    0    0    0    0 -0.00000000000E+00 -0.00000000000E+00 -0.50000000000E+03  0.50000000000E+03  0.00000000000E+00 0.  1.
        -11    1    1    2    0    0 -0.89531187341E+01  0.16239977055E+01  0.22246645720E+03  0.22265246525E+03  0.00000000000E+00 0.  1.
         11    1    1    2    0    0  0.72708718268E+01  0.10415405202E+01 -0.49985654020E+03  0.49991050315E+03  0.00000000000E+00 0.  1.
        -15    1    1    2    0    0  0.14041437260E+01 -0.56290956299E+00  0.12212977745E+03  0.12215207226E+03  0.17770000000E+01 0.  1.
         15    1    1    2    0    0  0.27810318132E+00 -0.21026286627E+01  0.15526030555E+03  0.15528495934E+03  0.17770000000E+01 0.  1.
</event>
<event>
 6   1  0.1826851E-04  0.5001648E+03  0.7546771E-02  0.9399441E-01
        -11   -1    0    0    0    0  0.00000000000E+00  0.00000000000E+00  0.50000000000E+03  0.50000000000E+03  0.00000000000E+00 0.  1.
         11   -1    0    0    0    0 -0.00000000000E+00 -0.00000000000E+00 -0.50000000000E+03  0.50000000000E+03  0.00000000000E+00 0.  1.
        -11    1    1    2    0    0 -0.51080654111E+01 -0.18857609879E+02  0.31396842735E+03  0.31457570655E+03  0.00000000000E+00 0.  1.
         11    1    1    2    0    0  0.31299292829E+01  0.19012470905E+02 -0.49946366891E+03  0.49983519991E+03  0.00000000000E+00 0.  1.
        -15    1    1    2    0    0 -0.95439292163E+00  0.25925420848E+00  0.10513135980E+03  0.10515102767E+03  0.17770000000E+01 0.  1.
         15    1    1    2    0    0  0.29325290498E+01 -0.41411523451E+00  0.80363881767E+02  0.80438065863E+02  0.17770000000E+01 0. -1.
</event>
<event>
 6   1  0.1826851E-04  0.5033610E+03  0.7546771E-02  0.9392321E-01
        -11   -1    0    0    0    0  0.00000000000E+00  0.00000000000E+00  0.50000000000E+03  0.50000000000E+03  0.00000000000E+00 0. -1.
         11   -1    0    0    0    0 -0.00000000000E+00 -0.00000000000E+00 -0.50000000000E+03  0.50000000000E+03  0.00000000000E+00 0. -1.
        -11    1    1    2    0    0  0.10386778798E+02 -0.35485721557E+01  0.42521140093E+03  0.42535304515E+03  0.00000000000E+00 0. -1.
         11    1    1    2    0    0  0.67959798918E+01  0.46441190374E+01 -0.49657081945E+03  0.49663903583E+03  0.00000000000E+00 0. -1.
        -15    1    1    2    0    0 -0.20085155499E+02 -0.82497973169E+01  0.62160301569E+02  0.65867544720E+02  0.17770000000E+01 0. -1.
         15    1    1    2    0    0  0.29023968087E+01  0.71542504352E+01  0.91991169527E+01  0.12140374304E+02  0.17770000000E+01 0.  1.
</event>
<event>
 6   1  0.1826851E-04  0.5021583E+03  0.7546771E-02  0.9394993E-01
        -11   -1    0    0    0    0  0.00000000000E+00  0.00000000000E+00  0.50000000000E+03  0.50000000000E+03  0.00000000000E+00 0. -1.
         11   -1    0    0    0    0 -0.00000000000E+00 -0.00000000000E+00 -0.50000000000E+03  0.50000000000E+03  0.00000000000E+00 0.  1.
        -11    1    1    2    0    0  0.78716651121E+01 -0.16715303557E+01  0.49247778068E+03  0.49254352253E+03  0.00000000000E+00 0. -1.
         11    1    1    2    0    0 -0.59842583025E+01 -0.39001462307E+01 -0.49779040695E+03  0.49784165328E+03  0.00000000000E+00 0.  1.
        -15    1    1    2    0    0  0.65700662885E+00  0.16066325689E+01  0.28677947402E+00  0.25005794105E+01  0.17770000000E+01 0. -1.
         15    1    1    2    0    0 -0.25444134385E+01  0.39650440175E+01  0.50258467975E+01  0.71142447835E+01  0.17770000000E+01 0.  1.
</event>
<event>
 6   1  0.1826851E-04  0.5111702E+03  0.7546771E-02  0.9375157E-01
        -11   -1    0    0    0    0  0.00000000000E+00  0.00000000000E+00  0.50000000000E+03  0.50000000000E+03  0.00000000000E+00 0. -1.
         11   -1    0    0    0    0 -0.00000000000E+00 -0.00000000000E+00 -0.50000000000E+03  0.50000000000E+03  0.00000000000E+00 0. -1.
        -11    1    1    2    0    0 -0.81784457304E+01  0.17518086771E+02  0.48844730876E+03  0.48882976973E+03  0.00000000000E+00 0. -1.
         11    1    1    2    0    0  0.10830129370E+02 -0.44451621046E+01 -0.45928046983E+03  0.45942964765E+03  0.00000000000E+00 0. -1.
        -15    1    1    2    0    0  0.71536091340E+01 -0.90941839958E+01  0.72543137618E+01  0.13771750192E+02  0.17770000000E+01 0. -1.
         15    1    1    2    0    0 -0.98052927741E+01 -0.39787406704E+01 -0.36421152692E+02  0.37968832430E+02  0.17770000000E+01 0.  1.
</event>
<event>
 6   1  0.1826851E-04  0.5001945E+03  0.7546771E-02  0.9399375E-01
        -11   -1    0    0    0    0  0.00000000000E+00  0.00000000000E+00  0.50000000000E+03  0.50000000000E+03  0.00000000000E+00 0. -1.
         11   -1    0    0    0    0 -0.00000000000E+00 -0.00000000000E+00 -0.50000000000E+03  0.50000000000E+03  0.00000000000E+00 0.  1.
        -11    1    1    2    0    0  0.76052515105E+01  0.10897411603E+02  0.49962884462E+03  0.49980553799E+03  0.00000000000E+00 0. -1.
         11    1    1    2    0    0 -0.53295183930E+01 -0.69259168555E+01 -0.40735771853E+03  0.40745144856E+03  0.00000000000E+00 0.  1.
        -15    1    1    2    0    0 -0.11056644874E+01  0.20666429208E+01 -0.28631735644E+02  0.28782416888E+02  0.17770000000E+01 0. -1.
         15    1    1    2    0    0 -0.11700686301E+01 -0.60381376679E+01 -0.63639390449E+02  0.63960596564E+02  0.17770000000E+01 0.  1.
</event>
<event>
 6   1  0.1826851E-04  0.4318644E+03  0.7546771E-02  0.9566671E-01
        -11   -1    0    0    0    0  0.00000000000E+00  0.00000000000E+00  0.50000000000E+03  0.50000000000E+03  0.00000000000E+00 0. -1.
         11   -1    0    0    0    0 -0.00000000000E+00 -0.00000000000E+00 -0.50000000000E+03  0.50000000000E+03  0.00000000000E+00 0. -1.
        -11    1    1    2    0    0 -0.48013638536E+02  0.88768203299E+02  0.43995869676E+03  0.45138537666E+03  0.00000000000E+00 0. -1.
         11    1    1    2    0    0  0.91591777988E+01  0.52436752441E+01 -0.41844607146E+03  0.41857914591E+03  0.00000000000E+00 0. -1.
        -15    1    1    2    0    0  0.46088030924E+02 -0.89897657695E+02  0.60198223075E+01  0.10121803912E+03  0.17770000000E+01 0. -1.
         15    1    1    2    0    0 -0.72335701876E+01 -0.41142208489E+01 -0.27532447605E+02  0.28817438314E+02  0.17770000000E+01 0.  1.
</event>
<event>
 6   1  0.1826851E-04  0.5130088E+03  0.7546771E-02  0.9371163E-01
        -11   -1    0    0    0    0  0.00000000000E+00  0.00000000000E+00  0.50000000000E+03  0.50000000000E+03  0.00000000000E+00 0.  1.
         11   -1    0    0    0    0 -0.00000000000E+00 -0.00000000000E+00 -0.50000000000E+03  0.50000000000E+03  0.00000000000E+00 0. -1.
        -11    1    1    2    0    0  0.55942007631E+02  0.10866795968E+02  0.43221979393E+03  0.43596048644E+03  0.00000000000E+00 0.  1.
         11    1    1    2    0    0 -0.12337398395E+02 -0.11793222639E+02 -0.48669201595E+03  0.48699118050E+03  0.00000000000E+00 0. -1.
        -15    1    1    2    0    0 -0.40960388420E+02 -0.10683528620E+02  0.44142582608E+02  0.61185100568E+02  0.17770000000E+01 0. -1.
         15    1    1    2    0    0 -0.26442208158E+01  0.11609955291E+02  0.10329639409E+02  0.15863232486E+02  0.17770000000E+01 0.  1.
</event>
<event>
 6   1  0.1826851E-04  0.5012829E+03  0.7546771E-02  0.9396944E-01
        -11   -1    0    0    0    0  0.00000000000E+00  0.00000000000E+00  0.50000000000E+03  0.50000000000E+03  0.00000000000E+00 0.  1.
         11   -1    0    0    0    0 -0.00000000000E+00 -0.00000000000E+00 -0.50000000000E+03  0.50000000000E+03  0.00000000000E+00 0. -1.
        -11    1    1    2    0    0  0.57154030360E+02 -0.20261476461E+02  0.34023052008E+03  0.34559212579E+03  0.00000000000E+00 0.  1.
         11    1    1    2    0    0 -0.50098812982E+02  0.31629872120E+02 -0.49518520384E+03  0.49871708009E+03  0.00000000000E+00 0. -1.
        -15    1    1    2    0    0 -0.41281861599E+00 -0.62618547038E+01  0.72267131516E+02  0.72560852187E+02  0.17770000000E+01 0. -1.
         15    1    1    2    0    0 -0.66423987621E+01 -0.51065409554E+01  0.82687552240E+02  0.83129941936E+02  0.17770000000E+01 0.  1.
</event>
<event>
 6   1  0.1826851E-04  0.5009670E+03  0.7546771E-02  0.9397649E-01
        -11   -1    0    0    0    0  0.00000000000E+00  0.00000000000E+00  0.50000000000E+03  0.50000000000E+03  0.00000000000E+00 0.  1.
         11   -1    0    0    0    0 -0.00000000000E+00 -0.00000000000E+00 -0.50000000000E+03  0.50000000000E+03  0.00000000000E+00 0. -1.
        -11    1    1    2    0    0 -0.39899194303E+01 -0.93842084655E+01  0.49892877584E+03  0.49903297104E+03  0.00000000000E+00 0.  1.
         11    1    1    2    0    0 -0.59265689653E+01  0.29057408081E+01 -0.45155519802E+03  0.45160343711E+03  0.00000000000E+00 0. -1.
        -15    1    1    2    0    0  0.19397708069E+01 -0.64838313046E-01 -0.17761591583E+02  0.17955466559E+02  0.17770000000E+01 0. -1.
         15    1    1    2    0    0  0.79767175887E+01  0.65433059705E+01 -0.29611986239E+02  0.31408125295E+02  0.17770000000E+01 0.  1.
</event>
<event>
 6   1  0.1826851E-04  0.5009901E+03  0.7546771E-02  0.9397597E-01
        -11   -1    0    0    0    0  0.00000000000E+00  0.00000000000E+00  0.50000000000E+03  0.50000000000E+03  0.00000000000E+00 0. -1.
         11   -1    0    0    0    0 -0.00000000000E+00 -0.00000000000E+00 -0.50000000000E+03  0.50000000000E+03  0.00000000000E+00 0. -1.
        -11    1    1    2    0    0  0.87295287630E+01  0.18066193537E+00  0.49258802954E+03  0.49266540792E+03  0.00000000000E+00 0. -1.
         11    1    1    2    0    0 -0.68606661964E+01 -0.13829499433E-01 -0.49896273897E+03  0.49900990352E+03  0.00000000000E+00 0. -1.
        -15    1    1    2    0    0 -0.24293075625E+01  0.92164435690E+00  0.43185141978E+01  0.53439926488E+01  0.17770000000E+01 0. -1.
         15    1    1    2    0    0  0.56044499588E+00 -0.10884767928E+01  0.20561952268E+01  0.29806959142E+01  0.17770000000E+01 0.  1.
</event>
<event>
 6   1  0.1826851E-04  0.5000650E+03  0.7546771E-02  0.9399664E-01
        -11   -1    0    0    0    0  0.00000000000E+00  0.00000000000E+00  0.50000000000E+03  0.50000000000E+03  0.00000000000E+00 0. -1.
         11   -1    0    0    0    0 -0.00000000000E+00 -0.00000000000E+00 -0.50000000000E+03  0.50000000000E+03  0.00000000000E+00 0.  1.
        -11    1    1    2    0    0  0.33493682511E+01 -0.87765004513E+01  0.49984672380E+03  0.49993498830E+03  0.00000000000E+00 0. -1.
         11    1    1    2    0    0 -0.14648515630E+01  0.48634633259E+01 -0.33601251156E+03  0.33605089941E+03  0.00000000000E+00 0.  1.
        -15    1    1    2    0    0 -0.21111139529E+01  0.24753255240E+01 -0.43408704156E+02  0.43566700174E+02  0.17770000000E+01 0. -1.
         15    1    1    2    0    0  0.22659726492E+00  0.14377116013E+01 -0.12042550808E+03  0.12044741212E+03  0.17770000000E+01 0.  1.
</event>
<event>
 6   1  0.1826851E-04  0.5055934E+03  0.7546771E-02  0.9387380E-01
        -11   -1    0    0    0    0  0.00000000000E+00  0.00000000000E+00  0.50000000000E+03  0.50000000000E+03  0.00000000000E+00 0. -1.
         11   -1    0    0    0    0 -0.00000000000E+00 -0.00000000000E+00 -0.50000000000E+03  0.50000000000E+03  0.00000000000E+00 0. -1.
        -11    1    1    2    0    0 -0.25191034123E-01 -0.11779419676E+02  0.48404935144E+03  0.48419265793E+03  0.00000000000E+00 0. -1.
         11    1    1    2    0    0 -0.92100344201E+01  0.49322979472E+01 -0.49429618084E+03  0.49440658035E+03  0.00000000000E+00 0. -1.
        -15    1    1    2    0    0  0.40561246532E+01  0.10810363882E+02  0.84156446013E+01  0.14397809470E+02  0.17770000000E+01 0.  1.
         15    1    1    2    0    0  0.51791008011E+01 -0.39632421537E+01  0.18311848044E+01  0.70029522535E+01  0.17770000000E+01 0.  1.
</event>
<event>
 6   1  0.1826851E-04  0.5002169E+03  0.7546771E-02  0.9399325E-01
        -11   -1    0    0    0    0  0.00000000000E+00  0.00000000000E+00  0.50000000000E+03  0.50000000000E+03  0.00000000000E+00 0. -1.
         11   -1    0    0    0    0 -0.00000000000E+00 -0.00000000000E+00 -0.50000000000E+03  0.50000000000E+03  0.00000000000E+00 0. -1.
        -11    1    1    2    0    0  0.85756669637E+00 -0.91054808078E+01  0.49969940895E+03  0.49978309746E+03  0.00000000000E+00 0. -1.
         11    1    1    2    0    0  0.49457616611E+01 -0.85326013282E+00 -0.26637018183E+03  0.26641745885E+03  0.00000000000E+00 0. -1.
        -15    1    1    2    0    0 -0.11905129445E+01 -0.13023405699E+01 -0.35322684892E+02  0.35411342943E+02  0.17770000000E+01 0. -1.
         15    1    1    2    0    0 -0.46128154129E+01  0.11261081510E+02 -0.19800654223E+03  0.19838810075E+03  0.17770000000E+01 0. -1.
</event>
<event>
 6   1  0.1826851E-04  0.5015833E+03  0.7546771E-02  0.9396274E-01
        -11   -1    0    0    0    0  0.00000000000E+00  0.00000000000E+00  0.50000000000E+03  0.50000000000E+03  0.00000000000E+00 0.  1.
         11   -1    0    0    0    0 -0.00000000000E+00 -0.00000000000E+00 -0.50000000000E+03  0.50000000000E+03  0.00000000000E+00 0. -1.
        -11    1    1    2    0    0 -0.74211565543E+01 -0.15065035812E+00  0.47265180195E+03  0.47271008255E+03  0.00000000000E+00 0.  1.
         11    1    1    2    0    0  0.14919987055E+00 -0.74376433021E+01 -0.49836121758E+03  0.49841673727E+03  0.00000000000E+00 0. -1.
        -15    1    1    2    0    0  0.74091330870E+01  0.29562220326E+01  0.16388505960E+02  0.18313256357E+02  0.17770000000E+01 0. -1.
         15    1    1    2    0    0 -0.13717640324E+00  0.46320716276E+01  0.93209096749E+01  0.10559923821E+02  0.17770000000E+01 0.  1.
</event>
<event>
 6   1  0.1826851E-04  0.5027969E+03  0.7546771E-02  0.9393573E-01
        -11   -1    0    0    0    0  0.00000000000E+00  0.00000000000E+00  0.50000000000E+03  0.50000000000E+03  0.00000000000E+00 0.  1.
         11   -1    0    0    0    0 -0.00000000000E+00 -0.00000000000E+00 -0.50000000000E+03  0.50000000000E+03  0.00000000000E+00 0.  1.
        -11    1    1    2    0    0 -0.58179466773E+01 -0.61532990841E+01  0.46882765525E+03  0.46890412871E+03  0.00000000000E+00 0.  1.
         11    1    1    2    0    0 -0.52259675141E+01 -0.46546476488E+01 -0.49715380513E+03  0.49720305956E+03  0.00000000000E+00 0.  1.
        -15    1    1    2    0    0  0.69526477265E+01  0.64868643751E+01  0.77356612114E+01  0.12386157726E+02  0.17770000000E+01 0.  1.
         15    1    1    2    0    0  0.40912664648E+01  0.43210823578E+01  0.20590488669E+02  0.21506654009E+02  0.17770000000E+01 0.  1.
</event>
<event>
 6   1  0.1826851E-04  0.5061886E+03  0.7546771E-02  0.9386068E-01
        -11   -1    0    0    0    0  0.00000000000E+00  0.00000000000E+00  0.50000000000E+03  0.50000000000E+03  0.00000000000E+00 0.  1.
         11   -1    0    0    0    0 -0.00000000000E+00 -0.00000000000E+00 -0.50000000000E+03  0.50000000000E+03  0.00000000000E+00 0.  1.
        -11    1    1    2    0    0 -0.38796997415E+02 -0.26240309823E+01  0.39067017453E+03  0.39260065947E+03  0.00000000000E+00 0.  1.
         11    1    1    2    0    0  0.20893515541E+02  0.29907514275E+02 -0.49246184910E+03  0.49381137210E+03  0.00000000000E+00 0.  1.
        -15    1    1    2    0    0  0.14224117290E+02 -0.35466952078E+02  0.94302936218E+02  0.10176655497E+03  0.17770000000E+01 0.  1.
         15    1    1    2    0    0  0.36793645836E+01  0.81834687857E+01  0.74887383503E+01  0.11821413460E+02  0.17770000000E+01 0. -1.
</event>
<event>
 6   1  0.1826851E-04  0.4905405E+03  0.7546771E-02  0.9421228E-01
        -11   -1    0    0    0    0  0.00000000000E+00  0.00000000000E+00  0.50000000000E+03  0.50000000000E+03  0.00000000000E+00 0.  1.
         11   -1    0    0    0    0 -0.00000000000E+00 -0.00000000000E+00 -0.50000000000E+03  0.50000000000E+03  0.00000000000E+00 0.  1.
        -11    1    1    2    0    0  0.10963726598E+02 -0.28700018839E+00  0.48898558344E+03  0.48910856308E+03  0.00000000000E+00 0.  1.
         11    1    1    2    0    0 -0.81664355351E+01  0.76278626120E+01 -0.49188130548E+03  0.49200822517E+03  0.00000000000E+00 0.  1.
        -15    1    1    2    0    0 -0.23699685619E+01 -0.53900529553E+01  0.97490553707E+01  0.11526978419E+02  0.17770000000E+01 0.  1.
         15    1    1    2    0    0 -0.42732250098E+00 -0.19508094683E+01 -0.68533333281E+01  0.73562333302E+01  0.17770000000E+01 0. -1.
</event>
<event>
 6   1  0.1826851E-04  0.5002806E+03  0.7546771E-02  0.9399182E-01
        -11   -1    0    0    0    0  0.00000000000E+00  0.00000000000E+00  0.50000000000E+03  0.50000000000E+03  0.00000000000E+00 0.  1.
         11   -1    0    0    0    0 -0.00000000000E+00 -0.00000000000E+00 -0.50000000000E+03  0.50000000000E+03  0.00000000000E+00 0. -1.
        -11    1    1    2    0    0  0.52672091061E+01  0.11269264335E+02  0.24735463536E+03  0.24766722723E+03  0.00000000000E+00 0.  1.
         11    1    1    2    0    0  0.49814396764E+01 -0.61278547461E+01 -0.49965698905E+03  0.49971939331E+03  0.00000000000E+00 0. -1.
        -15    1    1    2    0    0 -0.17157040630E+01 -0.19122013143E+01  0.79309782727E+02  0.79371276413E+02  0.17770000000E+01 0.  1.
         15    1    1    2    0    0 -0.85329447195E+01 -0.32292082748E+01  0.17299257096E+03  0.17324210305E+03  0.17770000000E+01 0.  1.
</event>
<event>
 6   1  0.1826851E-04  0.5063686E+03  0.7546771E-02  0.9385671E-01
        -11   -1    0    0    0    0  0.00000000000E+00  0.00000000000E+00  0.50000000000E+03  0.50000000000E+03  0.00000000000E+00 0.  1.
         11   -1    0    0    0    0 -0.00000000000E+00 -0.00000000000E+00 -0.50000000000E+03  0.50000000000E+03  0.00000000000E+00 0.  1.
        -11    1    1    2    0    0  0.20661426515E+02  0.21259274509E+01  0.49319423915E+03  0.49363141274E+03  0.00000000000E+00 0.  1.
         11    1    1    2    0    0  0.54363115812E+01  0.33251428762E+01 -0.46993158344E+03  0.46997478994E+03  0.00000000000E+00 0.  1.
        -15    1    1    2    0    0 -0.16984814413E+02 -0.44194664910E+01 -0.19574967666E+02  0.26350572913E+02  0.17770000000E+01 0.  1.
         15    1    1    2    0    0 -0.91129236828E+01 -0.10316038361E+01 -0.36876880367E+01  0.10043224411E+02  0.17770000000E+01 0. -1.
</event>
<event>
 6   1  0.1826851E-04  0.5005337E+03  0.7546771E-02  0.9398616E-01
        -11   -1    0    0    0    0  0.00000000000E+00  0.00000000000E+00  0.50000000000E+03  0.50000000000E+03  0.00000000000E+00 0. -1.
         11   -1    0    0    0    0 -0.00000000000E+00 -0.00000000000E+00 -0.50000000000E+03  0.50000000000E+03  0.00000000000E+00 0. -1.
        -11    1    1    2    0    0 -0.98244492295E+01  0.42061363364E+01  0.62154678951E+02  0.63066754324E+02  0.00000000000E+00 0. -1.
         11    1    1    2    0    0  0.46442866333E+01 -0.51832203180E+01 -0.49941780631E+03  0.49946629559E+03  0.00000000000E+00 0. -1.
        -15    1    1    2    0    0  0.48173125739E+01  0.59960246370E+01  0.28906273140E+03  0.28917050200E+03  0.17770000000E+01 0. -1.
         15    1    1    2    0    0  0.36285002227E+00 -0.50189406555E+01  0.14820039595E+03  0.14829644809E+03  0.17770000000E+01 0.  1.
</event>
<event>
 6   1  0.1826851E-04  0.5094058E+03  0.7546771E-02  0.9379006E-01
        -11   -1    0    0    0    0  0.00000000000E+00  0.00000000000E+00  0.50000000000E+03  0.50000000000E+03  0.00000000000E+00 0.  1.
         11   -1    0    0    0    0 -0.00000000000E+00 -0.00000000000E+00 -0.50000000000E+03  0.50000000000E+03  0.00000000000E+00 0.  1.
        -11    1    1    2    0    0  0.18193972515E+01  0.14991325999E+02  0.49036175762E+03  0.49059423498E+03  0.00000000000E+00 0.  1.
         11    1    1    2    0    0 -0.11915061282E+02 -0.64315041939E+00 -0.47983763758E+03  0.47998597976E+03  0.00000000000E+00 0.  1.
        -15    1    1    2    0    0  0.41286278092E+01 -0.17481668065E+02 -0.16354682783E+01  0.18124204021E+02  0.17770000000E+01 0. -1.
         15    1    1    2    0    0  0.59670362214E+01  0.31334924855E+01 -0.88886517623E+01  0.11295581241E+02  0.17770000000E+01 0.  1.
</event>
<event>
 6   1  0.1826851E-04  0.5009209E+03  0.7546771E-02  0.9397752E-01
        -11   -1    0    0    0    0  0.00000000000E+00  0.00000000000E+00  0.50000000000E+03  0.50000000000E+03  0.00000000000E+00 0. -1.
         11   -1    0    0    0    0 -0.00000000000E+00 -0.00000000000E+00 -0.50000000000E+03  0.50000000000E+03  0.00000000000E+00 0.  1.
        -11    1    1    2    0    0 -0.29805909147E+02 -0.48523777883E+00  0.49818805044E+03  0.49907911325E+03  0.00000000000E+00 0. -1.
         11    1    1    2    0    0  0.10176928408E+02  0.95880589254E+00 -0.31020490590E+03  0.31037327982E+03  0.00000000000E+00 0.  1.
        -15    1    1    2    0    0 -0.29308747087E+01  0.33107337797E+00 -0.86514746794E+02  0.86583247675E+02  0.17770000000E+01 0.  1.
         15    1    1    2    0    0  0.22559855447E+02 -0.80464149167E+00 -0.10146839774E+03  0.10396435926E+03  0.17770000000E+01 0. -1.
</event>
<event>
 6   1  0.1826851E-04  0.4757880E+03  0.7546771E-02  0.9455678E-01
        -11   -1    0    0    0    0  0.00000000000E+00  0.00000000000E+00  0.50000000000E+03  0.50000000000E+03  0.00000000000E+00 0. -1.
         11   -1    0    0    0    0 -0.00000000000E+00 -0.00000000000E+00 -0.50000000000E+03  0.50000000000E+03  0.00000000000E+00 0.  1.
        -11    1    1    2    0    0 -0.38952779061E+02 -0.97912174353E+01  0.46729098911E+03  0.46901391817E+03  0.00000000000E+00 0. -1.
         11    1    1    2    0    0  0.46782987753E+01 -0.16936372561E+02 -0.48337071223E+03  0.48368995507E+03  0.00000000000E+00 0.  1.
        -15    1    1    2    0    0  0.21111592080E+02  0.14527301564E+02  0.13674222134E+02  0.29101269575E+02  0.17770000000E+01 0.  1.
         15    1    1    2    0    0  0.13162888206E+02  0.12200288432E+02  0.24055009872E+01  0.18194857178E+02  0.17770000000E+01 0. -1.
</event>
<event>
 6   1  0.1826851E-04  0.5020350E+03  0.7546771E-02  0.9395268E-01
        -11   -1    0    0    0    0  0.00000000000E+00  0.00000000000E+00  0.50000000000E+03  0.50000000000E+03  0.00000000000E+00 0. -1.
         11   -1    0    0    0    0 -0.00000000000E+00 -0.00000000000E+00 -0.50000000000E+03  0.50000000000E+03  0.00000000000E+00 0. -1.
        -11    1    1    2    0    0 -0.16611222974E+02 -0.17427319592E+01  0.35071520023E+03  0.35111269062E+03  0.00000000000E+00 0. -1.
         11    1    1    2    0    0 -0.23838962670E+01 -0.16142980851E+02 -0.49769751784E+03  0.49796495665E+03  0.00000000000E+00 0. -1.
        -15    1    1    2    0    0  0.17214585172E+02  0.64980452669E+01  0.12149912161E+03  0.12289735886E+03  0.17770000000E+01 0.  1.
         15    1    1    2    0    0  0.17805340695E+01  0.11387667544E+02  0.25483195998E+02  0.28024993861E+02  0.17770000000E+01 0. -1.
</event>
<event>
 6   1  0.1826851E-04  0.5021031E+03  0.7546771E-02  0.9395116E-01
        -11   -1    0    0    0    0  0.00000000000E+00  0.00000000000E+00  0.50000000000E+03  0.50000000000E+03  0.00000000000E+00 0. -1.
         11   -1    0    0    0    0 -0.00000000000E+00 -0.00000000000E+00 -0.50000000000E+03  0.50000000000E+03  0.00000000000E+00 0. -1.
        -11    1    1    2    0    0  0.81607648491E+01  0.48380252771E+01  0.44754751371E+03  0.44764805550E+03  0.00000000000E+00 0. -1.
         11    1    1    2    0    0  0.36223979307E+01  0.65683056664E+01 -0.49784042299E+03  0.49789692826E+03  0.00000000000E+00 0. -1.
        -15    1    1    2    0    0 -0.14258227577E+02 -0.10015451725E+02  0.41412715201E+02  0.44964175031E+02  0.17770000000E+01 0.  1.
         15    1    1    2    0    0  0.24750647970E+01 -0.13908792185E+01  0.88801940865E+01  0.94908412042E+01  0.17770000000E+01 0. -1.
</event>
<event>
 6   1  0.1826851E-04  0.5028487E+03  0.7546771E-02  0.9393458E-01
        -11   -1    0    0    0    0  0.00000000000E+00  0.00000000000E+00  0.50000000000E+03  0.50000000000E+03  0.00000000000E+00 0.  1.
         11   -1    0    0    0    0 -0.00000000000E+00 -0.00000000000E+00 -0.50000000000E+03  0.50000000000E+03  0.00000000000E+00 0. -1.
        -11    1    1    2    0    0 -0.80824987355E+01 -0.62710855050E+00  0.49708521217E+03  0.49715131319E+03  0.00000000000E+00 0.  1.
         11    1    1    2    0    0  0.20783580207E+01  0.66025419743E+01 -0.49012598667E+03  0.49017486262E+03  0.00000000000E+00 0. -1.
        -15    1    1    2    0    0  0.50248830728E+01 -0.39473401081E+01 -0.19702568719E+01  0.69188572008E+01  0.17770000000E+01 0.  1.
         15    1    1    2    0    0  0.97925764207E+00 -0.20280933158E+01 -0.49889686277E+01  0.57549669847E+01  0.17770000000E+01 0. -1.
</event>
<event>
 6   1  0.1826851E-04  0.5039886E+03  0.7546771E-02  0.9390929E-01
        -11   -1    0    0    0    0  0.00000000000E+00  0.00000000000E+00  0.50000000000E+03  0.50000000000E+03  0.00000000000E+00 0.  1.
         11   -1    0    0    0    0 -0.00000000000E+00 -0.00000000000E+00 -0.50000000000E+03  0.50000000000E+03  0.00000000000E+00 0. -1.
        -11    1    1    2    0    0  0.14373633961E+02 -0.12573697268E+02  0.49564367816E+03  0.49601144635E+03  0.00000000000E+00 0.  1.
         11    1    1    2    0    0 -0.12068362249E+02 -0.20249126881E+01 -0.46741051655E+03  0.46757067553E+03  0.00000000000E+00 0. -1.
        -15    1    1    2    0    0 -0.78364701699E+01  0.29104788317E+01 -0.53760931881E+01  0.10096596393E+02  0.17770000000E+01 0.  1.
         15    1    1    2    0    0  0.55311984580E+01  0.11688131124E+02 -0.22857068424E+02  0.26321281723E+02  0.17770000000E+01 0. -1.
</event>
<event>
 6   1  0.1826851E-04  0.4811630E+03  0.7546771E-02  0.9442974E-01
        -11   -1    0    0    0    0  0.00000000000E+00  0.00000000000E+00  0.50000000000E+03  0.50000000000E+03  0.00000000000E+00 0.  1.
         11   -1    0    0    0    0 -0.00000000000E+00 -0.00000000000E+00 -0.50000000000E+03  0.50000000000E+03  0.00000000000E+00 0. -1.
        -11    1    1    2    0    0 -0.90700442406E+02  0.54073310987E+02  0.48662512659E+03  0.49795030579E+03  0.00000000000E+00 0.  1.
         11    1    1    2    0    0  0.32085328877E+01 -0.10435046870E+00 -0.40167202156E+02  0.40295281379E+02  0.00000000000E+00 0. -1.
        -15    1    1    2    0    0  0.56512270124E+02 -0.19348516023E+02 -0.14657365297E+03  0.15828769763E+03  0.17770000000E+01 0.  1.
         15    1    1    2    0    0  0.30979639395E+02 -0.34620444495E+02 -0.29988427146E+03  0.30346671520E+03  0.17770000000E+01 0. -1.
</event>
<event>
 6   1  0.1826851E-04  0.5009401E+03  0.7546771E-02  0.9397709E-01
        -11   -1    0    0    0    0  0.00000000000E+00  0.00000000000E+00  0.50000000000E+03  0.50000000000E+03  0.00000000000E+00 0. -1.
         11   -1    0    0    0    0 -0.00000000000E+00 -0.00000000000E+00 -0.50000000000E+03  0.50000000000E+03  0.00000000000E+00 0. -1.
        -11    1    1    2    0    0  0.90925158833E+01  0.10524922944E+02  0.41252126967E+03  0.41275567323E+03  0.00000000000E+00 0. -1.
         11    1    1    2    0    0  0.40622741465E+01 -0.11493698882E+02 -0.49891096874E+03  0.49905987808E+03  0.00000000000E+00 0. -1.
        -15    1    1    2    0    0 -0.39101247934E+01 -0.44442953142E+01  0.43716336622E+02  0.44151066277E+02  0.17770000000E+01 0.  1.
         15    1    1    2    0    0 -0.92446652364E+01  0.54130712516E+01  0.42673362442E+02  0.44033382414E+02  0.17770000000E+01 0. -1.
</event>
<event>
 6   1  0.1826851E-04  0.5002558E+03  0.7546771E-02  0.9399238E-01
        -11   -1    0    0    0    0  0.00000000000E+00  0.00000000000E+00  0.50000000000E+03  0.50000000000E+03  0.00000000000E+00 0.  1.
         11   -1    0    0    0    0 -0.00000000000E+00 -0.00000000000E+00 -0.50000000000E+03  0.50000000000E+03  0.00000000000E+00 0. -1.
        -11    1    1    2    0    0  0.18630756786E+02 -0.26653508716E+02  0.49868502244E+03  0.49974420079E+03  0.00000000000E+00 0.  1.
         11    1    1    2    0    0 -0.18240047355E+02  0.26742434839E+02 -0.37600375190E+03  0.37739459269E+03  0.00000000000E+00 0. -1.
        -15    1    1    2    0    0  0.62332619933E+00  0.13955234703E+00 -0.10995734448E+02  0.11156698233E+02  0.17770000000E+01 0. -1.
         15    1    1    2    0    0 -0.10140356301E+01 -0.22847847025E+00 -0.11168553609E+03  0.11170450829E+03  0.17770000000E+01 0.  1.
</event>
<event>
 6   1  0.1826851E-04  0.5024735E+03  0.7546771E-02  0.9394292E-01
        -11   -1    0    0    0    0  0.00000000000E+00  0.00000000000E+00  0.50000000000E+03  0.50000000000E+03  0.00000000000E+00 0. -1.
         11   -1    0    0    0    0 -0.00000000000E+00 -0.00000000000E+00 -0.50000000000E+03  0.50000000000E+03  0.00000000000E+00 0. -1.
        -11    1    1    2    0    0 -0.53197484745E+01 -0.10019248158E+02  0.46107023637E+03  0.46120976564E+03  0.00000000000E+00 0. -1.
         11    1    1    2    0    0  0.55892897785E+01 -0.38327279093E+01 -0.49748035002E+03  0.49752651047E+03  0.00000000000E+00 0. -1.
        -15    1    1    2    0    0  0.51041679513E+01  0.11299832125E+02  0.29045035682E+02  0.31630848286E+02  0.17770000000E+01 0.  1.
         15    1    1    2    0    0 -0.53737092553E+01  0.25521439421E+01  0.73650779711E+01  0.96328756030E+01  0.17770000000E+01 0. -1.
</event>
<event>
 6   1  0.1826851E-04  0.5013466E+03  0.7546771E-02  0.9396802E-01
        -11   -1    0    0    0    0  0.00000000000E+00  0.00000000000E+00  0.50000000000E+03  0.50000000000E+03  0.00000000000E+00 0. -1.
         11   -1    0    0    0    0 -0.00000000000E+00 -0.00000000000E+00 -0.50000000000E+03  0.50000000000E+03  0.00000000000E+00 0. -1.
        -11    1    1    2    0    0  0.55238075110E+01 -0.54808998580E+01  0.49859268960E+03  0.49865340953E+03  0.00000000000E+00 0. -1.
         11    1    1    2    0    0  0.94376514055E+00  0.84748340065E+01 -0.46129493252E+03  0.46137374034E+03  0.00000000000E+00 0. -1.
        -15    1    1    2    0    0  0.29875367350E+01 -0.15250462795E+01 -0.17567313157E+02  0.17972739426E+02  0.17770000000E+01 0.  1.
         15    1    1    2    0    0 -0.94551093866E+01 -0.14688878690E+01 -0.19730443920E+02  0.22000110712E+02  0.17770000000E+01 0. -1.
</event>
<event>
 6   1  0.1826851E-04  0.5000796E+03  0.7546771E-02  0.9399632E-01
        -11   -1    0    0    0    0  0.00000000000E+00  0.00000000000E+00  0.50000000000E+03  0.50000000000E+03  0.00000000000E+00 0.  1.
         11   -1    0    0    0    0 -0.00000000000E+00 -0.00000000000E+00 -0.50000000000E+03  0.50000000000E+03  0.00000000000E+00 0. -1.
        -11    1    1    2    0    0  0.66620966672E+01  0.32212889094E+01  0.14502616147E+03  0.14521483307E+03  0.00000000000E+00 0.  1.
         11    1    1    2    0    0 -0.10538941274E+02 -0.27486019422E+01 -0.49980171763E+03  0.49992037470E+03  0.00000000000E+00 0. -1.
        -15    1    1    2    0    0  0.48170480778E+01  0.12718898829E+01  0.24261284416E+03  0.24267049993E+03  0.17770000000E+01 0.  1.
         15    1    1    2    0    0 -0.94020347125E+00 -0.17445768501E+01  0.11216271201E+03  0.11219429230E+03  0.17770000000E+01 0.  1.
</event>
<event>
 6   1  0.1826851E-04  0.5023265E+03  0.7546771E-02  0.9394619E-01
        -11   -1    0    0    0    0  0.00000000000E+00  0.00000000000E+00  0.50000000000E+03  0.50000000000E+03  0.00000000000E+00 0.  1.
         11   -1    0    0    0    0 -0.00000000000E+00 -0.00000000000E+00 -0.50000000000E+03  0.50000000000E+03  0.00000000000E+00 0.  1.
        -11    1    1    2    0    0  0.78497419231E+00  0.16890912786E+02  0.49738618663E+03  0.49767352528E+03  0.00000000000E+00 0.  1.
         11    1    1    2    0    0 -0.90015083473E+01 -0.32986058338E+01 -0.44752498271E+03  0.44762765565E+03  0.00000000000E+00 0.  1.
        -15    1    1    2    0    0 -0.11075460702E+01 -0.71715661042E+01 -0.35741540972E+02  0.36514017839E+02  0.17770000000E+01 0. -1.
         15    1    1    2    0    0  0.93240802252E+01 -0.64207408485E+01 -0.14119662940E+02  0.18184801226E+02  0.17770000000E+01 0.  1.
</event>
<event>
 6   1  0.1826851E-04  0.5091117E+03  0.7546771E-02  0.9379649E-01
        -11   -1    0    0    0    0  0.00000000000E+00  0.00000000000E+00  0.50000000000E+03  0.50000000000E+03  0.00000000000E+00 0.  1.
         11   -1    0    0    0    0 -0.00000000000E+00 -0.00000000000E+00 -0.50000000000E+03  0.50000000000E+03  0.00000000000E+00 0. -1.
        -11    1    1    2    0    0 -0.53482465016E+01  0.28840649264E+02  0.49001113467E+03  0.49088827536E+03  0.00000000000E+00 0.  1.
         11    1    1    2    0    0 -0.10435360331E+02 -0.38676970180E+01 -0.46984336347E+03  0.46997515043E+03  0.00000000000E+00 0. -1.
        -15    1    1    2    0    0  0.14187770588E+02 -0.14205412289E+02 -0.57033221599E+01  0.20946889631E+02  0.17770000000E+01 0.  1.
         15    1    1    2    0    0  0.15958362446E+01 -0.10767539957E+02 -0.14464449042E+02  0.18189684580E+02  0.17770000000E+01 0. -1.
</event>
<event>
 6   1  0.1826851E-04  0.5001706E+03  0.7546771E-02  0.9399428E-01
        -11   -1    0    0    0    0  0.00000000000E+00  0.00000000000E+00  0.50000000000E+03  0.50000000000E+03  0.00000000000E+00 0.  1.
         11   -1    0    0    0    0 -0.00000000000E+00 -0.00000000000E+00 -0.50000000000E+03  0.50000000000E+03  0.00000000000E+00 0. -1.
        -11    1    1    2    0    0  0.23404243558E+02 -0.87189641526E+01  0.49920505529E+03  0.49982943708E+03  0.00000000000E+00 0.  1.
         11    1    1    2    0    0 -0.19175148018E+02  0.11377237990E+02 -0.31705462487E+03  0.31783763622E+03  0.00000000000E+00 0. -1.
        -15    1    1    2    0    0  0.24864004798E+00  0.64225960473E+00 -0.74369231879E+02  0.74393646897E+02  0.17770000000E+01 0. -1.
         15    1    1    2    0    0 -0.44777355879E+01 -0.33005334419E+01 -0.10778119854E+03  0.10793927980E+03  0.17770000000E+01 0.  1.
</event>
<event>
 6   1  0.1826851E-04  0.5011086E+03  0.7546771E-02  0.9397332E-01
        -11   -1    0    0    0    0  0.00000000000E+00  0.00000000000E+00  0.50000000000E+03  0.50000000000E+03  0.00000000000E+00 0.  1.
         11   -1    0    0    0    0 -0.00000000000E+00 -0.00000000000E+00 -0.50000000000E+03  0.50000000000E+03  0.00000000000E+00 0.  1.
        -11    1    1    2    0    0 -0.14815254995E+02 -0.11825398870E+01  0.49866994017E+03  0.49889137035E+03  0.00000000000E+00 0.  1.
         11    1    1    2    0    0  0.81697161238E+00  0.56384258322E+01 -0.38603327001E+03  0.38607530981E+03  0.00000000000E+00 0.  1.
        -15    1    1    2    0    0  0.11616459110E+02  0.34004364724E+01 -0.91081346537E+02  0.91899262817E+02  0.17770000000E+01 0. -1.
         15    1    1    2    0    0  0.23818242725E+01 -0.78563224176E+01 -0.21555323621E+02  0.23134057020E+02  0.17770000000E+01 0.  1.
</event>
<event>
 6   1  0.1826851E-04  0.5049074E+03  0.7546771E-02  0.9388896E-01
        -11   -1    0    0    0    0  0.00000000000E+00  0.00000000000E+00  0.50000000000E+03  0.50000000000E+03  0.00000000000E+00 0. -1.
         11   -1    0    0    0    0 -0.00000000000E+00 -0.00000000000E+00 -0.50000000000E+03  0.50000000000E+03  0.00000000000E+00 0.  1.
        -11    1    1    2    0    0  0.44120920040E+02 -0.32671113854E+02  0.23625080411E+03  0.24254587135E+03  0.00000000000E+00 0. -1.
         11    1    1    2    0    0 -0.25616808506E+02 -0.52063390241E+01 -0.49440205679E+03  0.49509263841E+03  0.00000000000E+00 0.  1.
        -15    1    1    2    0    0 -0.10210959237E+02  0.24892298678E+02  0.21121400412E+03  0.21292816508E+03  0.17770000000E+01 0. -1.
         15    1    1    2    0    0 -0.82931522964E+01  0.12985154201E+02  0.46937248563E+02  0.49433325159E+02  0.17770000000E+01 0.  1.
</event>
<event>
 6   1  0.1826851E-04  0.5045138E+03  0.7546771E-02  0.9389766E-01
        -11   -1    0    0    0    0  0.00000000000E+00  0.00000000000E+00  0.50000000000E+03  0.50000000000E+03  0.00000000000E+00 0.  1.
         11   -1    0    0    0    0 -0.00000000000E+00 -0.00000000000E+00 -0.50000000000E+03  0.50000000000E+03  0.00000000000E+00 0.  1.
        -11    1    1    2    0    0 -0.28621622272E+02 -0.15899272572E+02  0.32412924347E+03  0.32577868347E+03  0.00000000000E+00 0.  1.
         11    1    1    2    0    0  0.38416606737E+01 -0.54768981973E+01 -0.49544101823E+03  0.49548618277E+03  0.00000000000E+00 0.  1.
        -15    1    1    2    0    0  0.32089547379E+02  0.19871828300E+02  0.16341068106E+03  0.16772250005E+03  0.17770000000E+01 0. -1.
         15    1    1    2    0    0 -0.73095857809E+01  0.15043424694E+01  0.79010936987E+01  0.11012633708E+02  0.17770000000E+01 0.  1.
</event>
<event>
 6   1  0.1826851E-04  0.5026453E+03  0.7546771E-02  0.9393910E-01
        -11   -1    0    0    0    0  0.00000000000E+00  0.00000000000E+00  0.50000000000E+03  0.50000000000E+03  0.00000000000E+00 0.  1.
         11   -1    0    0    0    0 -0.00000000000E+00 -0.00000000000E+00 -0.50000000000E+03  0.50000000000E+03  0.00000000000E+00 0. -1.
        -11    1    1    2    0    0  0.13402872665E+02  0.14307779604E+02  0.46170891937E+03  0.46212495689E+03  0.00000000000E+00 0.  1.
         11    1    1    2    0    0  0.92209908133E+00 -0.74785017889E+01 -0.49729760934E+03  0.49735469286E+03  0.00000000000E+00 0. -1.
        -15    1    1    2    0    0 -0.12633995141E+02 -0.31406646876E+01  0.32676052451E+02  0.35218798115E+02  0.17770000000E+01 0.  1.
         15    1    1    2    0    0 -0.16909766049E+01 -0.36886131273E+01  0.29126375251E+01  0.53015521344E+01  0.17770000000E+01 0. -1.
</event>
<event>
 6   1  0.1826851E-04  0.5002632E+03  0.7546771E-02  0.9399221E-01
        -11   -1    0    0    0    0  0.00000000000E+00  0.00000000000E+00  0.50000000000E+03  0.50000000000E+03  0.00000000000E+00 0.  1.
         11   -1    0    0    0    0 -0.00000000000E+00 -0.00000000000E+00 -0.50000000000E+03  0.50000000000E+03  0.00000000000E+00 0. -1.
        -11    1    1    2    0    0 -0.15174982442E+02  0.18022614141E+02  0.49918109599E+03  0.49973679203E+03  0.00000000000E+00 0.  1.
         11    1    1    2    0    0  0.12581550871E+02 -0.44022690203E+01 -0.19355217154E+03  0.19401061441E+03  0.00000000000E+00 0. -1.
        -15    1    1    2    0    0 -0.23984269059E+01 -0.13802029496E+02 -0.20680415059E+03  0.20728570356E+03  0.17770000000E+01 0. -1.
         15    1    1    2    0    0  0.49918584768E+01  0.18168437462E+00 -0.98824773858E+02  0.98966890006E+02  0.17770000000E+01 0.  1.
</event>
<event>
 6   1  0.1826851E-04  0.5011364E+03  0.7546771E-02  0.9397271E-01
        -11   -1    0    0    0    0  0.00000000000E+00  0.00000000000E+00  0.50000000000E+03  0.50000000000E+03  0.00000000000E+00 0.  1.
         11   -1    0    0    0    0 -0.00000000000E+00 -0.00000000000E+00 -0.50000000000E+03  0.50000000000E+03  0.00000000000E+00 0. -1.
        -11    1    1    2    0    0  0.79661166786E+01  0.54568087162E+01  0.49877015378E+03  0.49886361069E+03  0.00000000000E+00 0.  1.
         11    1    1    2    0    0  0.35728748711E+01 -0.54444843769E+01 -0.44950653342E+03  0.44955370250E+03  0.00000000000E+00 0. -1.
        -15    1    1    2    0    0 -0.19003749283E+01 -0.56031387531E+00 -0.28407545393E+02  0.28531942464E+02  0.17770000000E+01 0.  1.
         15    1    1    2    0    0 -0.96386166214E+01  0.54798953601E+00 -0.20856074965E+02  0.23050744345E+02  0.17770000000E+01 0. -1.
</event>
<event>
 6   1  0.1826851E-04  0.5004584E+03  0.7546771E-02  0.9398785E-01
        -11   -1    0    0    0    0  0.00000000000E+00  0.00000000000E+00  0.50000000000E+03  0.50000000000E+03  0.00000000000E+00 0.  1.
         11   -1    0    0    0    0 -0.00000000000E+00 -0.00000000000E+00 -0.50000000000E+03  0.50000000000E+03  0.00000000000E+00 0. -1.
        -11    1    1    2    0    0 -0.62773987610E+01  0.52510179342E+01  0.49947459035E+03  0.49954163523E+03  0.00000000000E+00 0.  1.
         11    1    1    2    0    0  0.61622942222E+01  0.19553875217E+01 -0.38984965276E+03  0.38990325617E+03  0.00000000000E+00 0. -1.
        -15    1    1    2    0    0  0.21163386135E+01 -0.31555435745E+01 -0.10435853532E+02  0.11247271328E+02  0.17770000000E+01 0. -1.
         15    1    1    2    0    0 -0.20012340748E+01 -0.40508618814E+01 -0.99189084054E+02  0.99307837276E+02  0.17770000000E+01 0.  1.
</event>
<event>
 6   1  0.1826851E-04  0.4878045E+03  0.7546771E-02  0.9427519E-01
        -11   -1    0    0    0    0  0.00000000000E+00  0.00000000000E+00  0.50000000000E+03  0.50000000000E+03  0.00000000000E+00 0.  1.
         11   -1    0    0    0    0 -0.00000000000E+00 -0.00000000000E+00 -0.50000000000E+03  0.50000000000E+03  0.00000000000E+00 0. -1.
        -11    1    1    2    0    0  0.59055758406E+01  0.86168695494E+01  0.48792557743E+03  0.48803739137E+03  0.00000000000E+00 0.  1.
         11    1    1    2    0    0  0.91666199402E+01 -0.83893144108E+00 -0.48763221114E+03  0.48771908315E+03  0.00000000000E+00 0. -1.
        -15    1    1    2    0    0 -0.10673163002E+02 -0.74195937665E+01  0.75003806305E+01  0.15112253926E+02  0.17770000000E+01 0.  1.
         15    1    1    2    0    0 -0.43990327787E+01 -0.35834434182E+00 -0.77937469196E+01  0.91312715491E+01  0.17770000000E+01 0. -1.
</event>
<event>
 6   1  0.1826851E-04  0.5006475E+03  0.7546771E-02  0.9398362E-01
        -11   -1    0    0    0    0  0.00000000000E+00  0.00000000000E+00  0.50000000000E+03  0.50000000000E+03  0.00000000000E+00 0.  1.
         11   -1    0    0    0    0 -0.00000000000E+00 -0.00000000000E+00 -0.50000000000E+03  0.50000000000E+03  0.00000000000E+00 0.  1.
        -11    1    1    2    0    0  0.32587104488E+01 -0.85866153037E+01  0.49926800183E+03  0.49935246751E+03  0.00000000000E+00 0.  1.
         11    1    1    2    0    0 -0.56603032822E+01  0.31164120670E+01 -0.42676104068E+03  0.42680995408E+03  0.00000000000E+00 0.  1.
        -15    1    1    2    0    0  0.28378870529E+01 -0.32303900704E+01 -0.17092830796E+02  0.17714728802E+02  0.17770000000E+01 0. -1.
         15    1    1    2    0    0 -0.43629421951E+00  0.87005933070E+01 -0.55414130352E+02  0.56122849609E+02  0.17770000000E+01 0.  1.
</event>
<event>
 6   1  0.1826851E-04  0.5012328E+03  0.7546771E-02  0.9397055E-01
        -11   -1    0    0    0    0  0.00000000000E+00  0.00000000000E+00  0.50000000000E+03  0.50000000000E+03  0.00000000000E+00 0. -1.
         11   -1    0    0    0    0 -0.00000000000E+00 -0.00000000000E+00 -0.50000000000E+03  0.50000000000E+03  0.00000000000E+00 0.  1.
        -11    1    1    2    0    0  0.15030325487E+01  0.20659568842E+02  0.25073976774E+03  0.25159393478E+03  0.00000000000E+00 0. -1.
         11    1    1    2    0    0 -0.10802488653E+02 -0.23528583394E+02 -0.49809481829E+03  0.49876721625E+03  0.00000000000E+00 0.  1.
        -15    1    1    2    0    0  0.19013371114E+01  0.14853999722E+02  0.64754065640E+02  0.66486864390E+02  0.17770000000E+01 0.  1.
         15    1    1    2    0    0  0.73981189927E+01 -0.11984985170E+02  0.18260098492E+03  0.18315198458E+03  0.17770000000E+01 0. -1.
</event>
<event>
 6   1  0.1826851E-04  0.5000710E+03  0.7546771E-02  0.9399651E-01
        -11   -1    0    0    0    0  0.00000000000E+00  0.00000000000E+00  0.50000000000E+03  0.50000000000E+03  0.00000000000E+00 0.  1.
         11   -1    0    0    0    0 -0.00000000000E+00 -0.00000000000E+00 -0.50000000000E+03  0.50000000000E+03  0.00000000000E+00 0. -1.
        -11    1    1    2    0    0 -0.82295887779E+01 -0.24161600810E+01  0.49985543753E+03  0.49992901735E+03  0.00000000000E+00 0.  1.
         11    1    1    2    0    0  0.30437490286E+01 -0.40147757381E+01 -0.19601775380E+03  0.19608248937E+03  0.00000000000E+00 0. -1.
        -15    1    1    2    0    0  0.90110965846E+00  0.17602166629E+01 -0.55575401651E+02  0.55638955408E+02  0.17770000000E+01 0. -1.
         15    1    1    2    0    0  0.42847300908E+01  0.46707191562E+01 -0.24826228208E+03  0.24834953788E+03  0.17770000000E+01 0. -1.
</event>
<event>
 6   1  0.1826851E-04  0.5008844E+03  0.7546771E-02  0.9397833E-01
        -11   -1    0    0    0    0  0.00000000000E+00  0.00000000000E+00  0.50000000000E+03  0.50000000000E+03  0.00000000000E+00 0.  1.
         11   -1    0    0    0    0 -0.00000000000E+00 -0.00000000000E+00 -0.50000000000E+03  0.50000000000E+03  0.00000000000E+00 0. -1.
        -11    1    1    2    0    0  0.10880269827E+02  0.14891495844E+01  0.49899478191E+03  0.49911560807E+03  0.00000000000E+00 0.  1.
         11    1    1    2    0    0 -0.57267537202E+01 -0.97331498720E+01 -0.46093009168E+03  0.46106841068E+03  0.00000000000E+00 0. -1.
        -15    1    1    2    0    0 -0.89675755751E+00  0.57137167184E+01 -0.15337956443E+02  0.16488219119E+02  0.17770000000E+01 0. -1.
         15    1    1    2    0    0 -0.42567585491E+01  0.25302835691E+01 -0.22726733791E+02  0.23327762132E+02  0.17770000000E+01 0.  1.
</event>
<event>
 6   1  0.1826851E-04  0.5061627E+03  0.7546771E-02  0.9386125E-01
        -11   -1    0    0    0    0  0.00000000000E+00  0.00000000000E+00  0.50000000000E+03  0.50000000000E+03  0.00000000000E+00 0.  1.
         11   -1    0    0    0    0 -0.00000000000E+00 -0.00000000000E+00 -0.50000000000E+03  0.50000000000E+03  0.00000000000E+00 0.  1.
        -11    1    1    2    0    0 -0.23005913577E+02  0.37144340401E+02  0.35293728007E+03  0.35563140714E+03  0.00000000000E+00 0.  1.
         11    1    1    2    0    0  0.47245430018E+01 -0.60552791106E+01 -0.49377757395E+03  0.49383730140E+03  0.00000000000E+00 0.  1.
        -15    1    1    2    0    0  0.16881072386E+02 -0.35573692829E+02  0.13999456465E+03  0.14543759516E+03  0.17770000000E+01 0.  1.
         15    1    1    2    0    0  0.14002981897E+01  0.44846315395E+01  0.84572923514E+00  0.50936963007E+01  0.17770000000E+01 0. -1.
</event>
<event>
 6   1  0.1826851E-04  0.5000701E+03  0.7546771E-02  0.9399653E-01
        -11   -1    0    0    0    0  0.00000000000E+00  0.00000000000E+00  0.50000000000E+03  0.50000000000E+03  0.00000000000E+00 0.  1.
         11   -1    0    0    0    0 -0.00000000000E+00 -0.00000000000E+00 -0.50000000000E+03  0.50000000000E+03  0.00000000000E+00 0. -1.
        -11    1    1    2    0    0  0.75676922676E+01  0.14137410203E+02  0.49967266857E+03  0.49992990713E+03  0.00000000000E+00 0.  1.
         11    1    1    2    0    0 -0.77333176765E+01 -0.61663161041E+01 -0.18315089006E+03  0.18341776409E+03  0.00000000000E+00 0. -1.
        -15    1    1    2    0    0 -0.34762205253E-01 -0.59491520782E+01 -0.24732051918E+03  0.24739844494E+03  0.17770000000E+01 0. -1.
         15    1    1    2    0    0  0.20038761410E+00 -0.20219420202E+01 -0.69201259328E+02  0.69253883836E+02  0.17770000000E+01 0. -1.
</event>
<event>
 6   1  0.1826851E-04  0.5012031E+03  0.7546771E-02  0.9397122E-01
        -11   -1    0    0    0    0  0.00000000000E+00  0.00000000000E+00  0.50000000000E+03  0.50000000000E+03  0.00000000000E+00 0.  1.
         11   -1    0    0    0    0 -0.00000000000E+00 -0.00000000000E+00 -0.50000000000E+03  0.50000000000E+03  0.00000000000E+00 0. -1.
        -11    1    1    2    0    0  0.56180154314E+01  0.13760955888E+02  0.49857541075E+03  0.49879691880E+03  0.00000000000E+00 0.  1.
         11    1    1    2    0    0 -0.28744308758E+01  0.89142006154E+01 -0.34802409506E+03  0.34815010566E+03  0.00000000000E+00 0. -1.
        -15    1    1    2    0    0  0.20339337113E+01 -0.19798253973E+02 -0.88573697288E+02  0.90799588805E+02  0.17770000000E+01 0. -1.
         15    1    1    2    0    0 -0.47775182668E+01 -0.28769025307E+01 -0.61977618398E+02  0.62253386737E+02  0.17770000000E+01 0.  1.
</event>
<event>
 6   1  0.1826851E-04  0.5006853E+03  0.7546771E-02  0.9398278E-01
        -11   -1    0    0    0    0  0.00000000000E+00  0.00000000000E+00  0.50000000000E+03  0.50000000000E+03  0.00000000000E+00 0.  1.
         11   -1    0    0    0    0 -0.00000000000E+00 -0.00000000000E+00 -0.50000000000E+03  0.50000000000E+03  0.00000000000E+00 0.  1.
        -11    1    1    2    0    0 -0.10428318049E+02 -0.26875909132E+01  0.39876888324E+03  0.39891427049E+03  0.00000000000E+00 0.  1.
         11    1    1    2    0    0  0.69596673204E+01  0.18315927083E+01 -0.49926278916E+03  0.49931465465E+03  0.00000000000E+00 0.  1.
        -15    1    1    2    0    0  0.77451367913E+01 -0.40814967863E+01  0.67610721586E+02  0.68198336947E+02  0.17770000000E+01 0.  1.
         15    1    1    2    0    0 -0.42764860625E+01  0.49374949912E+01  0.32883184336E+02  0.33572737912E+02  0.17770000000E+01 0. -1.
</event>
<event>
 6   1  0.1826851E-04  0.5003648E+03  0.7546771E-02  0.9398994E-01
        -11   -1    0    0    0    0  0.00000000000E+00  0.00000000000E+00  0.50000000000E+03  0.50000000000E+03  0.00000000000E+00 0. -1.
         11   -1    0    0    0    0 -0.00000000000E+00 -0.00000000000E+00 -0.50000000000E+03  0.50000000000E+03  0.00000000000E+00 0. -1.
        -11    1    1    2    0    0 -0.15011510714E+01 -0.65827871345E+01  0.49958955897E+03  0.49963518088E+03  0.00000000000E+00 0. -1.
         11    1    1    2    0    0 -0.53260322575E+01  0.36216423167E+01 -0.43765722138E+03  0.43770461083E+03  0.00000000000E+00 0. -1.
        -15    1    1    2    0    0  0.57549974688E+00  0.23115839943E+01 -0.21265828941E+02  0.21472490076E+02  0.17770000000E+01 0. -1.
         15    1    1    2    0    0  0.62516835820E+01  0.64956082353E+00 -0.40666508653E+02  0.41187718217E+02  0.17770000000E+01 0.  1.
</event>
<event>
 6   1  0.1826851E-04  0.5006577E+03  0.7546771E-02  0.9398339E-01
        -11   -1    0    0    0    0  0.00000000000E+00  0.00000000000E+00  0.50000000000E+03  0.50000000000E+03  0.00000000000E+00 0. -1.
         11   -1    0    0    0    0 -0.00000000000E+00 -0.00000000000E+00 -0.50000000000E+03  0.50000000000E+03  0.00000000000E+00 0.  1.
        -11    1    1    2    0    0 -0.73146468298E+01  0.60571576372E+01  0.42399391372E+02  0.43449989708E+02  0.00000000000E+00 0. -1.
         11    1    1    2    0    0 -0.78168530275E+01 -0.60236139262E+00 -0.49928077088E+03  0.49934232166E+03  0.00000000000E+00 0.  1.
        -15    1    1    2    0    0  0.69108713200E+01 -0.39206851129E+01  0.28193990660E+03  0.28205744198E+03  0.17770000000E+01 0. -1.
         15    1    1    2    0    0  0.82206285372E+01 -0.15341111316E+01  0.17494147290E+03  0.17515024665E+03  0.17770000000E+01 0.  1.
</event>
<event>
 6   1  0.1826851E-04  0.5019175E+03  0.7546771E-02  0.9395529E-01
        -11   -1    0    0    0    0  0.00000000000E+00  0.00000000000E+00  0.50000000000E+03  0.50000000000E+03  0.00000000000E+00 0. -1.
         11   -1    0    0    0    0 -0.00000000000E+00 -0.00000000000E+00 -0.50000000000E+03  0.50000000000E+03  0.00000000000E+00 0. -1.
        -11    1    1    2    0    0  0.17232909197E+00  0.29301740997E+02  0.49721985174E+03  0.49808252598E+03  0.00000000000E+00 0. -1.
         11    1    1    2    0    0 -0.77578464722E+01 -0.14979967920E+02 -0.18641469529E+03  0.18717644681E+03  0.00000000000E+00 0. -1.
        -15    1    1    2    0    0 -0.57563225496E+01 -0.16749015879E+02 -0.42360215770E+02  0.45947909542E+02  0.17770000000E+01 0.  1.
         15    1    1    2    0    0  0.13341839930E+02  0.24272428025E+01 -0.26844494068E+03  0.26879311767E+03  0.17770000000E+01 0. -1.
</event>
<event>
 6   1  0.1826851E-04  0.4863347E+03  0.7546771E-02  0.9430917E-01
        -11   -1    0    0    0    0  0.00000000000E+00  0.00000000000E+00  0.50000000000E+03  0.50000000000E+03  0.00000000000E+00 0. -1.
         11   -1    0    0    0    0 -0.00000000000E+00 -0.00000000000E+00 -0.50000000000E+03  0.50000000000E+03  0.00000000000E+00 0.  1.
        -11    1    1    2    0    0  0.55952355233E+01  0.48330606282E+01  0.48703256601E+03  0.48708868339E+03  0.00000000000E+00 0. -1.
         11    1    1    2    0    0 -0.27928434254E+01  0.15339924634E+02 -0.48554483827E+03  0.48579512476E+03  0.00000000000E+00 0.  1.
        -15    1    1    2    0    0 -0.51921101689E+00 -0.19817471265E+02  0.45450399443E+01  0.20416093272E+02  0.17770000000E+01 0. -1.
         15    1    1    2    0    0 -0.22831810810E+01 -0.35551399765E+00 -0.60327676822E+01  0.67000985783E+01  0.17770000000E+01 0.  1.
</event>
<event>
 6   1  0.1826851E-04  0.5003423E+03  0.7546771E-02  0.9399044E-01
        -11   -1    0    0    0    0  0.00000000000E+00  0.00000000000E+00  0.50000000000E+03  0.50000000000E+03  0.00000000000E+00 0. -1.
         11   -1    0    0    0    0 -0.00000000000E+00 -0.00000000000E+00 -0.50000000000E+03  0.50000000000E+03  0.00000000000E+00 0.  1.
        -11    1    1    2    0    0 -0.14758576565E+02 -0.21516294626E+01  0.49943506268E+03  0.49965770976E+03  0.00000000000E+00 0. -1.
         11    1    1    2    0    0  0.54971369088E+01  0.30773112559E+01 -0.35316722432E+03  0.35322340903E+03  0.00000000000E+00 0.  1.
        -15    1    1    2    0    0 -0.20724755124E+01  0.25445030615E+01 -0.41584944015E+02  0.41752065198E+02  0.17770000000E+01 0.  1.
         15    1    1    2    0    0  0.11333915169E+02 -0.34701848548E+01 -0.10468289435E+03  0.10536681600E+03  0.17770000000E+01 0. -1.
</event>
<event>
 6   1  0.1826851E-04  0.5013923E+03  0.7546771E-02  0.9396700E-01
        -11   -1    0    0    0    0  0.00000000000E+00  0.00000000000E+00  0.50000000000E+03  0.50000000000E+03  0.00000000000E+00 0. -1.
         11   -1    0    0    0    0 -0.00000000000E+00 -0.00000000000E+00 -0.50000000000E+03  0.50000000000E+03  0.00000000000E+00 0.  1.
        -11    1    1    2    0    0 -0.65771026809E+01 -0.94763359564E+01  0.49847424577E+03  0.49860769440E+03  0.00000000000E+00 0. -1.
         11    1    1    2    0    0  0.33645580492E+01 -0.11683899265E+02 -0.40202530585E+03  0.40220912508E+03  0.00000000000E+00 0.  1.
        -15    1    1    2    0    0 -0.86455055837E+00  0.20372172814E+01 -0.22263727622E+02  0.22443907827E+02  0.17770000000E+01 0.  1.
         15    1    1    2    0    0  0.40770951901E+01  0.19123017940E+02 -0.74185212299E+02  0.76739272691E+02  0.17770000000E+01 0. -1.
</event>
<event>
 6   1  0.1826851E-04  0.5109132E+03  0.7546771E-02  0.9375716E-01
        -11   -1    0    0    0    0  0.00000000000E+00  0.00000000000E+00  0.50000000000E+03  0.50000000000E+03  0.00000000000E+00 0.  1.
         11   -1    0    0    0    0 -0.00000000000E+00 -0.00000000000E+00 -0.50000000000E+03  0.50000000000E+03  0.00000000000E+00 0. -1.
        -11    1    1    2    0    0 -0.27590366886E+00 -0.18206455205E+02  0.47615412072E+03  0.47650214881E+03  0.00000000000E+00 0.  1.
         11    1    1    2    0    0 -0.10204924900E+02  0.36495607626E+01 -0.48896666194E+03  0.48908675741E+03  0.00000000000E+00 0. -1.
        -15    1    1    2    0    0  0.76899800647E+01  0.19546062782E+02  0.17020887274E+02  0.27093406878E+02  0.17770000000E+01 0.  1.
         15    1    1    2    0    0  0.27908485041E+01 -0.49891683400E+01 -0.42083460543E+01  0.73176869030E+01  0.17770000000E+01 0. -1.
</event>
<event>
 6   1  0.1826851E-04  0.4493182E+03  0.7546771E-02  0.9520951E-01
        -11   -1    0    0    0    0  0.00000000000E+00  0.00000000000E+00  0.50000000000E+03  0.50000000000E+03  0.00000000000E+00 0. -1.
         11   -1    0    0    0    0 -0.00000000000E+00 -0.00000000000E+00 -0.50000000000E+03  0.50000000000E+03  0.00000000000E+00 0. -1.
        -11    1    1    2    0    0  0.17100202317E+02 -0.44250499032E+02  0.43240664048E+03  0.43500117967E+03  0.00000000000E+00 0. -1.
         11    1    1    2    0    0 -0.12005669725E+02 -0.11380257457E+02 -0.46569116949E+03  0.46598488356E+03  0.00000000000E+00 0. -1.
        -15    1    1    2    0    0  0.20399597001E+02 -0.37299544954E+01 -0.80295894453E+01  0.22308925433E+02  0.17770000000E+01 0. -1.
         15    1    1    2    0    0 -0.25494129592E+02  0.59360710985E+02  0.41314118457E+02  0.76705011343E+02  0.17770000000E+01 0.  1.
</event>
<event>
 6   1  0.1826851E-04  0.5002002E+03  0.7546771E-02  0.9399362E-01
        -11   -1    0    0    0    0  0.00000000000E+00  0.00000000000E+00  0.50000000000E+03  0.50000000000E+03  0.00000000000E+00 0. -1.
         11   -1    0    0    0    0 -0.00000000000E+00 -0.00000000000E+00 -0.50000000000E+03  0.50000000000E+03  0.00000000000E+00 0.  1.
        -11    1    1    2    0    0 -0.13202629123E+02 -0.28480154840E+01  0.49961725113E+03  0.49979977815E+03  0.00000000000E+00 0. -1.
         11    1    1    2    0    0  0.54023365128E+01 -0.35877175075E+01 -0.20152756014E+03  0.20163187856E+03  0.00000000000E+00 0.  1.
        -15    1    1    2    0    0 -0.58706111453E+00  0.12941389178E+01 -0.82989301380E+01  0.86051964955E+01  0.17770000000E+01 0.  1.
         15    1    1    2    0    0  0.83873537251E+01  0.51415940737E+01 -0.28979076086E+03  0.28996314679E+03  0.17770000000E+01 0.  1.
</event>
<event>
 6   1  0.1826851E-04  0.5093522E+03  0.7546771E-02  0.9379123E-01
        -11   -1    0    0    0    0  0.00000000000E+00  0.00000000000E+00  0.50000000000E+03  0.50000000000E+03  0.00000000000E+00 0.  1.
         11   -1    0    0    0    0 -0.00000000000E+00 -0.00000000000E+00 -0.50000000000E+03  0.50000000000E+03  0.00000000000E+00 0. -1.
        -11    1    1    2    0    0 -0.26278959636E+02 -0.15980595502E+02  0.37517098891E+03  0.37642958713E+03  0.00000000000E+00 0.  1.
         11    1    1    2    0    0 -0.39528566468E+02  0.12525629221E+02 -0.48889253286E+03  0.49064784483E+03  0.00000000000E+00 0. -1.
        -15    1    1    2    0    0  0.31919690367E+02 -0.66941018417E+01  0.44925464697E+02  0.55543971229E+02  0.17770000000E+01 0. -1.
         15    1    1    2    0    0  0.33887835737E+02  0.10149068123E+02  0.68796079253E+02  0.77378596810E+02  0.17770000000E+01 0.  1.
</event>
<event>
 6   1  0.1826851E-04  0.5005400E+03  0.7546771E-02  0.9398602E-01
        -11   -1    0    0    0    0  0.00000000000E+00  0.00000000000E+00  0.50000000000E+03  0.50000000000E+03  0.00000000000E+00 0.  1.
         11   -1    0    0    0    0 -0.00000000000E+00 -0.00000000000E+00 -0.50000000000E+03  0.50000000000E+03  0.00000000000E+00 0.  1.
        -11    1    1    2    0    0  0.13213797451E+02  0.10136636423E+02  0.49918225914E+03  0.49945999207E+03  0.00000000000E+00 0.  1.
         11    1    1    2    0    0 -0.27992312690E+00 -0.45377255642E+01 -0.31745192019E+03  0.31748447355E+03  0.00000000000E+00 0.  1.
        -15    1    1    2    0    0 -0.78237216922E+01  0.42292873455E+01 -0.11777138625E+03  0.11812008568E+03  0.17770000000E+01 0.  1.
         15    1    1    2    0    0 -0.51101526315E+01 -0.98281982043E+01 -0.63958952695E+02  0.64935448706E+02  0.17770000000E+01 0. -1.
</event>
<event>
 6   1  0.1826851E-04  0.5021021E+03  0.7546771E-02  0.9395118E-01
        -11   -1    0    0    0    0  0.00000000000E+00  0.00000000000E+00  0.50000000000E+03  0.50000000000E+03  0.00000000000E+00 0.  1.
         11   -1    0    0    0    0 -0.00000000000E+00 -0.00000000000E+00 -0.50000000000E+03  0.50000000000E+03  0.00000000000E+00 0. -1.
        -11    1    1    2    0    0  0.18415228133E+02 -0.31838491983E+02  0.13046076848E+03  0.13554638435E+03  0.00000000000E+00 0.  1.
         11    1    1    2    0    0 -0.20774833603E+02  0.23934616008E+02 -0.49688819242E+03  0.49789791656E+03  0.00000000000E+00 0. -1.
        -15    1    1    2    0    0 -0.63274467429E+00  0.30495237171E+01  0.16859199980E+03  0.16863012805E+03  0.17770000000E+01 0. -1.
         15    1    1    2    0    0  0.29923501448E+01  0.48543522581E+01  0.19783542413E+03  0.19792557103E+03  0.17770000000E+01 0.  1.
</event>
<event>
 6   1  0.1826851E-04  0.5003265E+03  0.7546771E-02  0.9399079E-01
        -11   -1    0    0    0    0  0.00000000000E+00  0.00000000000E+00  0.50000000000E+03  0.50000000000E+03  0.00000000000E+00 0.  1.
         11   -1    0    0    0    0 -0.00000000000E+00 -0.00000000000E+00 -0.50000000000E+03  0.50000000000E+03  0.00000000000E+00 0. -1.
        -11    1    1    2    0    0  0.81575863344E+01 -0.32753908986E+01  0.65488656670E+02  0.66076005878E+02  0.00000000000E+00 0.  1.
         11    1    1    2    0    0 -0.70619215488E+00  0.16012321568E+02 -0.49941633300E+03  0.49967346019E+03  0.00000000000E+00 0. -1.
        -15    1    1    2    0    0 -0.30630662118E+01 -0.80017056032E+00  0.13196914934E+03  0.13201907724E+03  0.17770000000E+01 0. -1.
         15    1    1    2    0    0 -0.43883279678E+01 -0.11936760109E+02  0.30195852699E+03  0.30223145669E+03  0.17770000000E+01 0.  1.
</event>
<event>
 6   1  0.1826851E-04  0.5043635E+03  0.7546771E-02  0.9390099E-01
        -11   -1    0    0    0    0  0.00000000000E+00  0.00000000000E+00  0.50000000000E+03  0.50000000000E+03  0.00000000000E+00 0. -1.
         11   -1    0    0    0    0 -0.00000000000E+00 -0.00000000000E+00 -0.50000000000E+03  0.50000000000E+03  0.00000000000E+00 0.  1.
        -11    1    1    2    0    0  0.14329213672E+02  0.40710358863E+02  0.33807356200E+03  0.34081724283E+03  0.00000000000E+00 0. -1.
         11    1    1    2    0    0  0.14993549779E+02 -0.16320900603E+02 -0.49514077286E+03  0.49563652335E+03  0.00000000000E+00 0.  1.
        -15    1    1    2    0    0  0.11770688780E+01  0.33708591783E+01  0.20175407122E+02  0.20565820292E+02  0.17770000000E+01 0.  1.
         15    1    1    2    0    0 -0.30499832329E+02 -0.27760317438E+02  0.13689180373E+03  0.14298041353E+03  0.17770000000E+01 0. -1.
</event>
<event>
 6   1  0.1826851E-04  0.5050830E+03  0.7546771E-02  0.9388507E-01
        -11   -1    0    0    0    0  0.00000000000E+00  0.00000000000E+00  0.50000000000E+03  0.50000000000E+03  0.00000000000E+00 0.  1.
         11   -1    0    0    0    0 -0.00000000000E+00 -0.00000000000E+00 -0.50000000000E+03  0.50000000000E+03  0.00000000000E+00 0.  1.
        -11    1    1    2    0    0  0.19627874547E+02  0.44585427397E+01  0.29995119403E+02  0.36122558750E+02  0.00000000000E+00 0.  1.
         11    1    1    2    0    0  0.21568787996E+02 -0.49338054386E+02 -0.49197906781E+03  0.49491702273E+03  0.00000000000E+00 0.  1.
        -15    1    1    2    0    0 -0.16399483068E+02  0.22619280999E+02  0.37091633623E+03  0.37197131761E+03  0.17770000000E+01 0.  1.
         15    1    1    2    0    0 -0.24797179475E+02  0.22260230648E+02  0.91067612176E+02  0.96989100907E+02  0.17770000000E+01 0. -1.
</event>
<event>
 6   1  0.1826851E-04  0.5021036E+03  0.7546771E-02  0.9395115E-01
        -11   -1    0    0    0    0  0.00000000000E+00  0.00000000000E+00  0.50000000000E+03  0.50000000000E+03  0.00000000000E+00 0. -1.
         11   -1    0    0    0    0 -0.00000000000E+00 -0.00000000000E+00 -0.50000000000E+03  0.50000000000E+03  0.00000000000E+00 0.  1.
        -11    1    1    2    0    0 -0.17692534409E+01 -0.12335761103E+03  0.48236972910E+03  0.49789636071E+03  0.00000000000E+00 0. -1.
         11    1    1    2    0    0  0.26349378659E+01  0.12263631398E+03 -0.37396368767E+03  0.39356759025E+03  0.00000000000E+00 0.  1.
        -15    1    1    2    0    0  0.53559940748E-01 -0.95563283624E+00 -0.22498843382E+02  0.22589196208E+02  0.17770000000E+01 0.  1.
         15    1    1    2    0    0 -0.91924436582E+00  0.16769298827E+01 -0.85907198054E+02  0.85946852825E+02  0.17770000000E+01 0. -1.
</event>
<event>
 6   1  0.1826851E-04  0.5020354E+03  0.7546771E-02  0.9395267E-01
        -11   -1    0    0    0    0  0.00000000000E+00  0.00000000000E+00  0.50000000000E+03  0.50000000000E+03  0.00000000000E+00 0. -1.
         11   -1    0    0    0    0 -0.00000000000E+00 -0.00000000000E+00 -0.50000000000E+03  0.50000000000E+03  0.00000000000E+00 0. -1.
        -11    1    1    2    0    0  0.61549838855E+01 -0.43326989262E+01  0.45776065123E+03  0.45782253104E+03  0.00000000000E+00 0. -1.
         11    1    1    2    0    0 -0.35346946970E+01  0.14458863325E+02 -0.49774206209E+03  0.49796457019E+03  0.00000000000E+00 0. -1.
        -15    1    1    2    0    0 -0.46419019558E+01  0.18030410953E+01  0.55097133871E+01  0.76362871585E+01  0.17770000000E+01 0.  1.
         15    1    1    2    0    0  0.20216127674E+01 -0.11929205494E+02  0.34471697467E+02  0.36576611614E+02  0.17770000000E+01 0. -1.
</event>
<event>
 6   1  0.1826851E-04  0.5002556E+03  0.7546771E-02  0.9399238E-01
        -11   -1    0    0    0    0  0.00000000000E+00  0.00000000000E+00  0.50000000000E+03  0.50000000000E+03  0.00000000000E+00 0. -1.
         11   -1    0    0    0    0 -0.00000000000E+00 -0.00000000000E+00 -0.50000000000E+03  0.50000000000E+03  0.00000000000E+00 0.  1.
        -11    1    1    2    0    0 -0.83255278644E+00 -0.65239506395E+01  0.10135159999E+03  0.10156476701E+03  0.00000000000E+00 0. -1.
         11    1    1    2    0    0 -0.31263845622E+01 -0.62327519467E+01 -0.49969572901E+03  0.49974437773E+03  0.00000000000E+00 0.  1.
        -15    1    1    2    0    0  0.59434652352E+01  0.12396390047E+02  0.34634770423E+03  0.34662499220E+03  0.17770000000E+01 0. -1.
         15    1    1    2    0    0 -0.19845278865E+01  0.36031253943E+00  0.51996424791E+02  0.52065863059E+02  0.17770000000E+01 0. -1.
</event>
<event>
 6   1  0.1826851E-04  0.4858981E+03  0.7546771E-02  0.9431929E-01
        -11   -1    0    0    0    0  0.00000000000E+00  0.00000000000E+00  0.50000000000E+03  0.50000000000E+03  0.00000000000E+00 0. -1.
         11   -1    0    0    0    0 -0.00000000000E+00 -0.00000000000E+00 -0.50000000000E+03  0.50000000000E+03  0.00000000000E+00 0.  1.
        -11    1    1    2    0    0  0.12624651507E+02 -0.13558832874E+02  0.49003635403E+03  0.49038643134E+03  0.00000000000E+00 0. -1.
         11    1    1    2    0    0  0.64544820793E+01 -0.27280331463E+01 -0.48171813310E+03  0.48176909642E+03  0.00000000000E+00 0.  1.
        -15    1    1    2    0    0 -0.17733486460E+02  0.14708722611E+02 -0.51748622552E+01  0.23680371434E+02  0.17770000000E+01 0.  1.
         15    1    1    2    0    0 -0.13456471257E+01  0.15781434091E+01 -0.31433586708E+01  0.41641008081E+01  0.17770000000E+01 0. -1.
</event>
<event>
 6   1  0.1826851E-04  0.5009538E+03  0.7546771E-02  0.9397678E-01
        -11   -1    0    0    0    0  0.00000000000E+00  0.00000000000E+00  0.50000000000E+03  0.50000000000E+03  0.00000000000E+00 0.  1.
         11   -1    0    0    0    0 -0.00000000000E+00 -0.00000000000E+00 -0.50000000000E+03  0.50000000000E+03  0.00000000000E+00 0.  1.
        -11    1    1    2    0    0 -0.14427053575E+02 -0.17733714778E+02  0.49852233441E+03  0.49904623274E+03  0.00000000000E+00 0.  1.
         11    1    1    2    0    0 -0.11095090223E+01 -0.20154101653E+01 -0.16981944520E+03  0.16983502835E+03  0.00000000000E+00 0.  1.
        -15    1    1    2    0    0  0.20290197674E+02  0.18035343743E+02 -0.15751800191E+03  0.15985006850E+03  0.17770000000E+01 0.  1.
         15    1    1    2    0    0 -0.47536350765E+01  0.17137811998E+01 -0.17118488730E+03  0.17126867040E+03  0.17770000000E+01 0.  1.
</event>
<event>
 6   1  0.1826851E-04  0.5005582E+03  0.7546771E-02  0.9398562E-01
        -11   -1    0    0    0    0  0.00000000000E+00  0.00000000000E+00  0.50000000000E+03  0.50000000000E+03  0.00000000000E+00 0. -1.
         11   -1    0    0    0    0 -0.00000000000E+00 -0.00000000000E+00 -0.50000000000E+03  0.50000000000E+03  0.00000000000E+00 0.  1.
        -11    1    1    2    0    0 -0.70376437913E+01 -0.56083016492E+01  0.28068361435E+03  0.28082783488E+03  0.00000000000E+00 0. -1.
         11    1    1    2    0    0  0.56139332558E+00  0.13372827870E+02 -0.49926241315E+03  0.49944179328E+03  0.00000000000E+00 0.  1.
        -15    1    1    2    0    0 -0.31719080717E+01  0.81862702040E+00  0.89263948404E+01  0.96731279771E+01  0.17770000000E+01 0.  1.
         15    1    1    2    0    0  0.96481585374E+01 -0.85831532408E+01  0.20965240397E+03  0.21005724387E+03  0.17770000000E+01 0. -1.
</event>
<event>
 6   1  0.1826851E-04  0.5108492E+03  0.7546771E-02  0.9375856E-01
        -11   -1    0    0    0    0  0.00000000000E+00  0.00000000000E+00  0.50000000000E+03  0.50000000000E+03  0.00000000000E+00 0. -1.
         11   -1    0    0    0    0 -0.00000000000E+00 -0.00000000000E+00 -0.50000000000E+03  0.50000000000E+03  0.00000000000E+00 0.  1.
        -11    1    1    2    0    0  0.60134157514E+01 -0.17299313051E+02  0.48880776295E+03  0.48915075031E+03  0.00000000000E+00 0. -1.
         11    1    1    2    0    0 -0.52289701082E+01 -0.55212276725E+01 -0.47016433148E+03  0.47022582307E+03  0.00000000000E+00 0.  1.
        -15    1    1    2    0    0 -0.21049635910E+01  0.10277389668E+02 -0.24420235646E+02  0.26637590884E+02  0.17770000000E+01 0.  1.
         15    1    1    2    0    0  0.13205179477E+01  0.12543151056E+02  0.57768041694E+01  0.13985835745E+02  0.17770000000E+01 0. -1.
</event>
<event>
 6   1  0.1826851E-04  0.4827807E+03  0.7546771E-02  0.9439185E-01
        -11   -1    0    0    0    0  0.00000000000E+00  0.00000000000E+00  0.50000000000E+03  0.50000000000E+03  0.00000000000E+00 0.  1.
         11   -1    0    0    0    0 -0.00000000000E+00 -0.00000000000E+00 -0.50000000000E+03  0.50000000000E+03  0.00000000000E+00 0.  1.
        -11    1    1    2    0    0 -0.22557170546E+02 -0.30639804126E+01  0.48181937677E+03  0.48235684482E+03  0.00000000000E+00 0.  1.
         11    1    1    2    0    0 -0.55124166848E+01  0.34955429659E+01 -0.48357011287E+03  0.48361416400E+03  0.00000000000E+00 0.  1.
        -15    1    1    2    0    0  0.28394029997E+02  0.33877387234E+01  0.44806670524E+01  0.28998824448E+02  0.17770000000E+01 0.  1.
         15    1    1    2    0    0 -0.32444276633E+00 -0.38193012767E+01 -0.27299309524E+01  0.50301667324E+01  0.17770000000E+01 0. -1.
</event>
<event>
 6   1  0.1826851E-04  0.5006852E+03  0.7546771E-02  0.9398278E-01
        -11   -1    0    0    0    0  0.00000000000E+00  0.00000000000E+00  0.50000000000E+03  0.50000000000E+03  0.00000000000E+00 0. -1.
         11   -1    0    0    0    0 -0.00000000000E+00 -0.00000000000E+00 -0.50000000000E+03  0.50000000000E+03  0.00000000000E+00 0.  1.
        -11    1    1    2    0    0  0.91182268046E+01 -0.11498624346E+01  0.49923018790E+03  0.49931477522E+03  0.00000000000E+00 0. -1.
         11    1    1    2    0    0  0.27932561841E+01  0.82241666155E+01 -0.40834833547E+03  0.40844069616E+03  0.00000000000E+00 0.  1.
        -15    1    1    2    0    0 -0.57301348264E+00 -0.20073956495E+01 -0.27262285248E+02  0.27399779337E+02  0.17770000000E+01 0.  1.
         15    1    1    2    0    0 -0.11338469506E+02 -0.50669085314E+01 -0.63619567175E+02  0.64844749281E+02  0.17770000000E+01 0. -1.
</event>
<event>
 6   1  0.1826851E-04  0.5005925E+03  0.7546771E-02  0.9398485E-01
        -11   -1    0    0    0    0  0.00000000000E+00  0.00000000000E+00  0.50000000000E+03  0.50000000000E+03  0.00000000000E+00 0. -1.
         11   -1    0    0    0    0 -0.00000000000E+00 -0.00000000000E+00 -0.50000000000E+03  0.50000000000E+03  0.00000000000E+00 0.  1.
        -11    1    1    2    0    0  0.17641794422E+02 -0.20404031659E+02  0.49867858406E+03  0.49940753660E+03  0.00000000000E+00 0. -1.
         11    1    1    2    0    0 -0.53279770580E+01  0.21040226845E+02 -0.35803162530E+03  0.35868889472E+03  0.00000000000E+00 0.  1.
        -15    1    1    2    0    0 -0.95303613365E+01  0.40131862982E+01 -0.12076339150E+03  0.12121834806E+03  0.17770000000E+01 0.  1.
         15    1    1    2    0    0 -0.27834560271E+01 -0.46493814841E+01 -0.19883567265E+02  0.20685220613E+02  0.17770000000E+01 0.  1.
</event>
<event>
 6   1  0.1826851E-04  0.5036913E+03  0.7546771E-02  0.9391588E-01
        -11   -1    0    0    0    0  0.00000000000E+00  0.00000000000E+00  0.50000000000E+03  0.50000000000E+03  0.00000000000E+00 0. -1.
         11   -1    0    0    0    0 -0.00000000000E+00 -0.00000000000E+00 -0.50000000000E+03  0.50000000000E+03  0.00000000000E+00 0.  1.
        -11    1    1    2    0    0 -0.68335711167E+01  0.31632883291E+01  0.48496758483E+03  0.48502604304E+03  0.00000000000E+00 0. -1.
         11    1    1    2    0    0  0.70125852166E+01  0.76357653619E+01 -0.49620045566E+03  0.49630874812E+03  0.00000000000E+00 0.  1.
        -15    1    1    2    0    0 -0.21990229639E+01 -0.32043799084E+01 -0.63549240297E+00  0.43203393602E+01  0.17770000000E+01 0. -1.
         15    1    1    2    0    0  0.20200088640E+01 -0.75946737826E+01  0.11868363228E+02  0.14344869479E+02  0.17770000000E+01 0.  1.
</event>
<event>
 6   1  0.1826851E-04  0.5022547E+03  0.7546771E-02  0.9394779E-01
        -11   -1    0    0    0    0  0.00000000000E+00  0.00000000000E+00  0.50000000000E+03  0.50000000000E+03  0.00000000000E+00 0.  1.
         11   -1    0    0    0    0 -0.00000000000E+00 -0.00000000000E+00 -0.50000000000E+03  0.50000000000E+03  0.00000000000E+00 0. -1.
        -11    1    1    2    0    0 -0.85951945640E+01  0.17134569360E+01  0.46262417547E+03  0.46270718714E+03  0.00000000000E+00 0.  1.
         11    1    1    2    0    0 -0.51073788785E+00 -0.76802365066E+01 -0.49768582382E+03  0.49774534264E+03  0.00000000000E+00 0. -1.
        -15    1    1    2    0    0  0.28039098934E+01 -0.46987800622E+01  0.12042580506E+02  0.13346232390E+02  0.17770000000E+01 0. -1.
         15    1    1    2    0    0  0.63020225584E+01  0.10665559633E+02  0.23019067840E+02  0.26201237830E+02  0.17770000000E+01 0.  1.
</event>
<event>
 6   1  0.1826851E-04  0.5001399E+03  0.7546771E-02  0.9399497E-01
        -11   -1    0    0    0    0  0.00000000000E+00  0.00000000000E+00  0.50000000000E+03  0.50000000000E+03  0.00000000000E+00 0.  1.
         11   -1    0    0    0    0 -0.00000000000E+00 -0.00000000000E+00 -0.50000000000E+03  0.50000000000E+03  0.00000000000E+00 0.  1.
        -11    1    1    2    0    0 -0.41190023271E+01  0.73308144901E+01  0.49978932992E+03  0.49986006174E+03  0.00000000000E+00 0.  1.
         11    1    1    2    0    0  0.36794687943E+01 -0.26465604536E+01 -0.23638093569E+03  0.23642438438E+03  0.00000000000E+00 0.  1.
        -15    1    1    2    0    0  0.28117069199E+01 -0.63890620031E+01 -0.95085879440E+02  0.95358313780E+02  0.17770000000E+01 0. -1.
         15    1    1    2    0    0 -0.23721733871E+01  0.17048079666E+01 -0.16832251479E+03  0.16835724009E+03  0.17770000000E+01 0.  1.
</event>
<event>
 6   1  0.1826851E-04  0.5001322E+03  0.7546771E-02  0.9399514E-01
        -11   -1    0    0    0    0  0.00000000000E+00  0.00000000000E+00  0.50000000000E+03  0.50000000000E+03  0.00000000000E+00 0.  1.
         11   -1    0    0    0    0 -0.00000000000E+00 -0.00000000000E+00 -0.50000000000E+03  0.50000000000E+03  0.00000000000E+00 0.  1.
        -11    1    1    2    0    0  0.26295765975E+02  0.11679714431E+02  0.49903900288E+03  0.49986779195E+03  0.00000000000E+00 0.  1.
         11    1    1    2    0    0 -0.10324450493E+01 -0.10466428468E+01 -0.92973952687E+02  0.92985575668E+02  0.00000000000E+00 0.  1.
        -15    1    1    2    0    0 -0.19728980303E+01 -0.90546626048E+00 -0.99372642827E+02  0.99412232986E+02  0.17770000000E+01 0.  1.
         15    1    1    2    0    0 -0.23290422896E+02 -0.97276053233E+01 -0.30669240737E+03  0.30773439939E+03  0.17770000000E+01 0. -1.
</event>
<event>
 6   1  0.1826851E-04  0.5006889E+03  0.7546771E-02  0.9398269E-01
        -11   -1    0    0    0    0  0.00000000000E+00  0.00000000000E+00  0.50000000000E+03  0.50000000000E+03  0.00000000000E+00 0. -1.
         11   -1    0    0    0    0 -0.00000000000E+00 -0.00000000000E+00 -0.50000000000E+03  0.50000000000E+03  0.00000000000E+00 0.  1.
        -11    1    1    2    0    0  0.22268834792E+02 -0.60466087993E+01  0.49877758375E+03  0.49931106590E+03  0.00000000000E+00 0. -1.
         11    1    1    2    0    0  0.42947621323E+01  0.27778564221E+01 -0.25369782094E+03  0.25374937599E+03  0.00000000000E+00 0.  1.
        -15    1    1    2    0    0 -0.22769176999E+02  0.46984910045E+01 -0.15428749003E+03  0.15603941344E+03  0.17770000000E+01 0. -1.
         15    1    1    2    0    0 -0.37944199259E+01 -0.14297386274E+01 -0.90792272775E+02  0.90900144663E+02  0.17770000000E+01 0.  1.
</event>
<event>
 6   1  0.1826851E-04  0.5043832E+03  0.7546771E-02  0.9390055E-01
        -11   -1    0    0    0    0  0.00000000000E+00  0.00000000000E+00  0.50000000000E+03  0.50000000000E+03  0.00000000000E+00 0. -1.
         11   -1    0    0    0    0 -0.00000000000E+00 -0.00000000000E+00 -0.50000000000E+03  0.50000000000E+03  0.00000000000E+00 0. -1.
        -11    1    1    2    0    0 -0.25109325997E+02 -0.10570104008E+02  0.38351519609E+02  0.47043005931E+02  0.00000000000E+00 0. -1.
         11    1    1    2    0    0  0.17089714067E+02 -0.21081472540E+01 -0.49531758461E+03  0.49561679979E+03  0.00000000000E+00 0. -1.
        -15    1    1    2    0    0  0.97106326006E+01  0.10599499643E+02  0.41430895955E+03  0.41456207915E+03  0.17770000000E+01 0. -1.
         15    1    1    2    0    0 -0.16910206715E+01  0.20787516191E+01  0.42657105449E+02  0.42778115124E+02  0.17770000000E+01 0.  1.
</event>
<event>
 6   1  0.1826851E-04  0.5028050E+03  0.7546771E-02  0.9393555E-01
        -11   -1    0    0    0    0  0.00000000000E+00  0.00000000000E+00  0.50000000000E+03  0.50000000000E+03  0.00000000000E+00 0.  1.
         11   -1    0    0    0    0 -0.00000000000E+00 -0.00000000000E+00 -0.50000000000E+03  0.50000000000E+03  0.00000000000E+00 0. -1.
        -11    1    1    2    0    0  0.50350322728E+01  0.17403021304E+02  0.49686486881E+03  0.49719504680E+03  0.00000000000E+00 0.  1.
         11    1    1    2    0    0  0.18290054610E+01  0.77039217260E+01 -0.36890571959E+03  0.36899068500E+03  0.00000000000E+00 0. -1.
        -15    1    1    2    0    0 -0.64928552894E+01 -0.14401009755E+02 -0.11804458194E+03  0.11911014779E+03  0.17770000000E+01 0.  1.
         15    1    1    2    0    0 -0.37118244441E+00 -0.10705933275E+02 -0.99145672902E+01  0.14704120417E+02  0.17770000000E+01 0. -1.
</event>
<event>
 6   1  0.1826851E-04  0.5000821E+03  0.7546771E-02  0.9399626E-01
        -11   -1    0    0    0    0  0.00000000000E+00  0.00000000000E+00  0.50000000000E+03  0.50000000000E+03  0.00000000000E+00 0.  1.
         11   -1    0    0    0    0 -0.00000000000E+00 -0.00000000000E+00 -0.50000000000E+03  0.50000000000E+03  0.00000000000E+00 0. -1.
        -11    1    1    2    0    0 -0.36000129510E+01  0.83215361268E+01  0.49983568565E+03  0.49991791397E+03  0.00000000000E+00 0.  1.
         11    1    1    2    0    0  0.24730351768E+01 -0.62958913084E+01 -0.43462113644E+03  0.43467377008E+03  0.00000000000E+00 0. -1.
        -15    1    1    2    0    0  0.17299243643E+01 -0.15248204454E+01 -0.30217576218E+02  0.30357492604E+02  0.17770000000E+01 0.  1.
         15    1    1    2    0    0 -0.60294659009E+00 -0.50082437300E+00 -0.34996972992E+02  0.35050823346E+02  0.17770000000E+01 0. -1.
</event>
<event>
 6   1  0.1826851E-04  0.5007856E+03  0.7546771E-02  0.9398054E-01
        -11   -1    0    0    0    0  0.00000000000E+00  0.00000000000E+00  0.50000000000E+03  0.50000000000E+03  0.00000000000E+00 0.  1.
         11   -1    0    0    0    0 -0.00000000000E+00 -0.00000000000E+00 -0.50000000000E+03  0.50000000000E+03  0.00000000000E+00 0.  1.
        -11    1    1    2    0    0 -0.12300222087E+02  0.15720780386E+02  0.46595695609E+03  0.46638430862E+03  0.00000000000E+00 0.  1.
         11    1    1    2    0    0  0.48979010264E+01 -0.15028535843E+02 -0.49896406527E+03  0.49921436754E+03  0.00000000000E+00 0.  1.
        -15    1    1    2    0    0  0.39990272681E+01 -0.11492420041E+01  0.88780926922E+01  0.99644987393E+01  0.17770000000E+01 0.  1.
         15    1    1    2    0    0  0.34032937926E+01  0.45699746137E+00  0.24129016491E+02  0.24436825104E+02  0.17770000000E+01 0.  1.
</event>
<event>
 6   1  0.1826851E-04  0.5072040E+03  0.7546771E-02  0.9383833E-01
        -11   -1    0    0    0    0  0.00000000000E+00  0.00000000000E+00  0.50000000000E+03  0.50000000000E+03  0.00000000000E+00 0. -1.
         11   -1    0    0    0    0 -0.00000000000E+00 -0.00000000000E+00 -0.50000000000E+03  0.50000000000E+03  0.00000000000E+00 0.  1.
        -11    1    1    2    0    0 -0.24576909796E+02 -0.77860653779E+01  0.43414506623E+03  0.43490985945E+03  0.00000000000E+00 0. -1.
         11    1    1    2    0    0  0.41854823493E+00 -0.17007425732E+02 -0.49250228218E+03  0.49279602846E+03  0.00000000000E+00 0.  1.
        -15    1    1    2    0    0  0.20337379106E+02  0.24395992717E+02  0.59872325274E+02  0.67798425588E+02  0.17770000000E+01 0. -1.
         15    1    1    2    0    0  0.38209824544E+01  0.39749839244E+00 -0.15151093258E+01  0.44956865058E+01  0.17770000000E+01 0.  1.
</event>
<event>
 6   1  0.1826851E-04  0.5069798E+03  0.7546771E-02  0.9384326E-01
        -11   -1    0    0    0    0  0.00000000000E+00  0.00000000000E+00  0.50000000000E+03  0.50000000000E+03  0.00000000000E+00 0.  1.
         11   -1    0    0    0    0 -0.00000000000E+00 -0.00000000000E+00 -0.50000000000E+03  0.50000000000E+03  0.00000000000E+00 0. -1.
        -11    1    1    2    0    0  0.10332399202E+02 -0.21938565276E+02  0.45512462204E+03  0.45577020603E+03  0.00000000000E+00 0.  1.
         11    1    1    2    0    0 -0.40323779588E+01 -0.84106744530E+01 -0.49293193571E+03  0.49302017480E+03  0.00000000000E+00 0. -1.
        -15    1    1    2    0    0 -0.77416939861E+01  0.22771216024E+02  0.35585488435E+02  0.42987751990E+02  0.17770000000E+01 0.  1.
         15    1    1    2    0    0  0.14416727425E+01  0.75780237055E+01  0.22218252346E+01  0.82218671815E+01  0.17770000000E+01 0.  1.
</event>
<event>
 6   1  0.1826851E-04  0.5011968E+03  0.7546771E-02  0.9397136E-01
        -11   -1    0    0    0    0  0.00000000000E+00  0.00000000000E+00  0.50000000000E+03  0.50000000000E+03  0.00000000000E+00 0.  1.
         11   -1    0    0    0    0 -0.00000000000E+00 -0.00000000000E+00 -0.50000000000E+03  0.50000000000E+03  0.00000000000E+00 0.  1.
        -11    1    1    2    0    0  0.26460809492E+02 -0.11831194370E+02  0.49796029417E+03  0.49880317378E+03  0.00000000000E+00 0.  1.
         11    1    1    2    0    0  0.29461859766E+01 -0.12371448104E+02 -0.51624611093E+02  0.53167971661E+02  0.00000000000E+00 0.  1.
        -15    1    1    2    0    0 -0.26521991018E+02  0.21841992805E+02 -0.37546001660E+03  0.37703298324E+03  0.17770000000E+01 0.  1.
         15    1    1    2    0    0 -0.28850044511E+01  0.23606496685E+01 -0.70875666472E+02  0.70995871319E+02  0.17770000000E+01 0. -1.
</event>
<event>
 6   1  0.1826851E-04  0.5006289E+03  0.7546771E-02  0.9398404E-01
        -11   -1    0    0    0    0  0.00000000000E+00  0.00000000000E+00  0.50000000000E+03  0.50000000000E+03  0.00000000000E+00 0.  1.
         11   -1    0    0    0    0 -0.00000000000E+00 -0.00000000000E+00 -0.50000000000E+03  0.50000000000E+03  0.00000000000E+00 0.  1.
        -11    1    1    2    0    0 -0.11429924191E+02 -0.41540744807E+00  0.27531535118E+03  0.27555282312E+03  0.00000000000E+00 0.  1.
         11    1    1    2    0    0 -0.77699379669E+01 -0.83608557334E+01 -0.49924063408E+03  0.49937109104E+03  0.00000000000E+00 0.  1.
        -15    1    1    2    0    0  0.16337248907E+02  0.41325229297E+01  0.16063921058E+03  0.16153048367E+03  0.17770000000E+01 0. -1.
         15    1    1    2    0    0  0.28626132516E+01  0.46437402518E+01  0.63286072314E+02  0.63545602178E+02  0.17770000000E+01 0.  1.
</event>
<event>
 6   1  0.1826851E-04  0.5000351E+03  0.7546771E-02  0.9399731E-01
        -11   -1    0    0    0    0  0.00000000000E+00  0.00000000000E+00  0.50000000000E+03  0.50000000000E+03  0.00000000000E+00 0. -1.
         11   -1    0    0    0    0 -0.00000000000E+00 -0.00000000000E+00 -0.50000000000E+03  0.50000000000E+03  0.00000000000E+00 0. -1.
        -11    1    1    2    0    0  0.35806921447E+01 -0.53347884960E+01  0.23072082971E+03  0.23081027401E+03  0.00000000000E+00 0. -1.
         11    1    1    2    0    0 -0.15188927819E+01  0.95557077512E+01 -0.49987124296E+03  0.49996487689E+03  0.00000000000E+00 0. -1.
        -15    1    1    2    0    0 -0.17283156049E+01 -0.10753539154E+01  0.11596851367E+03  0.11599998859E+03  0.17770000000E+01 0. -1.
         15    1    1    2    0    0 -0.33348375790E+00 -0.31455653397E+01  0.15318189958E+03  0.15322486051E+03  0.17770000000E+01 0. -1.
</event>
<event>
 6   1  0.1826851E-04  0.5006612E+03  0.7546771E-02  0.9398331E-01
        -11   -1    0    0    0    0  0.00000000000E+00  0.00000000000E+00  0.50000000000E+03  0.50000000000E+03  0.00000000000E+00 0.  1.
         11   -1    0    0    0    0 -0.00000000000E+00 -0.00000000000E+00 -0.50000000000E+03  0.50000000000E+03  0.00000000000E+00 0. -1.
        -11    1    1    2    0    0 -0.97087820309E+01 -0.10481197883E+01  0.43430380927E+03  0.43441357915E+03  0.00000000000E+00 0.  1.
         11    1    1    2    0    0  0.80398988859E+01  0.71148857432E+00 -0.49927357492E+03  0.49933881163E+03  0.00000000000E+00 0. -1.
        -15    1    1    2    0    0 -0.21383181630E+01 -0.14947676513E+01  0.39519534450E+01  0.50579046975E+01  0.17770000000E+01 0.  1.
         15    1    1    2    0    0  0.38072013079E+01  0.18313988653E+01  0.61017812205E+02  0.61189704517E+02  0.17770000000E+01 0. -1.
</event>
<event>
 6   1  0.1826851E-04  0.5001628E+03  0.7546771E-02  0.9399446E-01
        -11   -1    0    0    0    0  0.00000000000E+00  0.00000000000E+00  0.50000000000E+03  0.50000000000E+03  0.00000000000E+00 0. -1.
         11   -1    0    0    0    0 -0.00000000000E+00 -0.00000000000E+00 -0.50000000000E+03  0.50000000000E+03  0.00000000000E+00 0.  1.
        -11    1    1    2    0    0  0.77059741119E+01  0.97208049001E+01  0.49968329696E+03  0.49983724685E+03  0.00000000000E+00 0. -1.
         11    1    1    2    0    0  0.35488008317E+01  0.25686433039E+00 -0.10902588931E+03  0.10908393331E+03  0.00000000000E+00 0.  1.
        -15    1    1    2    0    0 -0.11693806674E+02 -0.74471082984E+01 -0.25284986582E+03  0.25323589183E+03  0.17770000000E+01 0.  1.
         15    1    1    2    0    0  0.43903173006E+00 -0.25305609321E+01 -0.13780754183E+03  0.13784292800E+03  0.17770000000E+01 0. -1.
</event>
<event>
 6   1  0.1826851E-04  0.5011439E+03  0.7546771E-02  0.9397254E-01
        -11   -1    0    0    0    0  0.00000000000E+00  0.00000000000E+00  0.50000000000E+03  0.50000000000E+03  0.00000000000E+00 0. -1.
         11   -1    0    0    0    0 -0.00000000000E+00 -0.00000000000E+00 -0.50000000000E+03  0.50000000000E+03  0.00000000000E+00 0.  1.
        -11    1    1    2    0    0 -0.91407750526E+01 -0.20859873271E+02  0.18115257507E+03  0.18257859550E+03  0.00000000000E+00 0. -1.
         11    1    1    2    0    0  0.15462567198E+02 -0.28157481979E+01 -0.49860844846E+03  0.49885609578E+03  0.00000000000E+00 0.  1.
        -15    1    1    2    0    0 -0.36368789619E+01  0.14833902983E+02  0.24781971239E+03  0.24829627292E+03  0.17770000000E+01 0. -1.
         15    1    1    2    0    0 -0.26849131836E+01  0.88417184851E+01  0.69636160996E+02  0.70269035796E+02  0.17770000000E+01 0.  1.
</event>
<event>
 6   1  0.1826851E-04  0.5025950E+03  0.7546771E-02  0.9394022E-01
        -11   -1    0    0    0    0  0.00000000000E+00  0.00000000000E+00  0.50000000000E+03  0.50000000000E+03  0.00000000000E+00 0. -1.
         11   -1    0    0    0    0 -0.00000000000E+00 -0.00000000000E+00 -0.50000000000E+03  0.50000000000E+03  0.00000000000E+00 0. -1.
        -11    1    1    2    0    0 -0.82076724663E+01 -0.41817627212E+01  0.45262771358E+03  0.45272143768E+03  0.00000000000E+00 0. -1.
         11    1    1    2    0    0 -0.72870013470E+01 -0.48743944349E+01 -0.49732774307E+03  0.49740501017E+03  0.00000000000E+00 0. -1.
        -15    1    1    2    0    0  0.25647499350E+01 -0.12754187304E+01  0.17232685808E+01  0.37857652818E+01  0.17770000000E+01 0.  1.
         15    1    1    2    0    0  0.12929923878E+02  0.10331575886E+02  0.42976760909E+02  0.46087786875E+02  0.17770000000E+01 0. -1.
</event>
<event>
 6   1  0.1826851E-04  0.5146854E+03  0.7546771E-02  0.9367537E-01
        -11   -1    0    0    0    0  0.00000000000E+00  0.00000000000E+00  0.50000000000E+03  0.50000000000E+03  0.00000000000E+00 0.  1.
         11   -1    0    0    0    0 -0.00000000000E+00 -0.00000000000E+00 -0.50000000000E+03  0.50000000000E+03  0.00000000000E+00 0.  1.
        -11    1    1    2    0    0 -0.80912347689E+01 -0.20502216695E+02  0.48481380855E+03  0.48531457626E+03  0.00000000000E+00 0.  1.
         11    1    1    2    0    0  0.10859782811E+01 -0.13103202065E+02 -0.46274947284E+03  0.46293622441E+03  0.00000000000E+00 0.  1.
        -15    1    1    2    0    0 -0.14039214969E+01  0.34645750528E+02 -0.86455525382E+01  0.35779915216E+02  0.17770000000E+01 0.  1.
         15    1    1    2    0    0  0.84091779846E+01 -0.10403317675E+01 -0.13418783167E+02  0.15969284118E+02  0.17770000000E+01 0. -1.
</event>
<event>
 6   1  0.1826851E-04  0.4763020E+03  0.7546771E-02  0.9454455E-01
        -11   -1    0    0    0    0  0.00000000000E+00  0.00000000000E+00  0.50000000000E+03  0.50000000000E+03  0.00000000000E+00 0. -1.
         11   -1    0    0    0    0 -0.00000000000E+00 -0.00000000000E+00 -0.50000000000E+03  0.50000000000E+03  0.00000000000E+00 0. -1.
        -11    1    1    2    0    0 -0.79422257705E+01  0.26498197668E+02  0.46700005212E+03  0.46781864232E+03  0.00000000000E+00 0. -1.
         11    1    1    2    0    0 -0.24687377289E+01  0.11217792623E+02 -0.48563486825E+03  0.48577068540E+03  0.00000000000E+00 0. -1.
        -15    1    1    2    0    0  0.83286063111E+01 -0.10502187983E+02  0.37851662630E+00  0.13526368299E+02  0.17770000000E+01 0. -1.
         15    1    1    2    0    0  0.20823571883E+01 -0.27213802308E+02  0.18256299504E+02  0.32884303978E+02  0.17770000000E+01 0.  1.
</event>
<event>
 6   1  0.1826851E-04  0.5027668E+03  0.7546771E-02  0.9393640E-01
        -11   -1    0    0    0    0  0.00000000000E+00  0.00000000000E+00  0.50000000000E+03  0.50000000000E+03  0.00000000000E+00 0.  1.
         11   -1    0    0    0    0 -0.00000000000E+00 -0.00000000000E+00 -0.50000000000E+03  0.50000000000E+03  0.00000000000E+00 0.  1.
        -11    1    1    2    0    0 -0.51953295792E+01  0.20157951168E+02  0.48235583795E+03  0.48280481444E+03  0.00000000000E+00 0.  1.
         11    1    1    2    0    0  0.76938854407E+01 -0.88814837536E+01 -0.49709435585E+03  0.49723322017E+03  0.00000000000E+00 0.  1.
        -15    1    1    2    0    0 -0.32554025223E+01 -0.93987642430E+01  0.13812146382E+02  0.17113372887E+02  0.17770000000E+01 0.  1.
         15    1    1    2    0    0  0.75684666084E+00 -0.18777031715E+01  0.92637151806E+00  0.28485925047E+01  0.17770000000E+01 0.  1.
</event>
<event>
 6   1  0.1826851E-04  0.5063813E+03  0.7546771E-02  0.9385643E-01
        -11   -1    0    0    0    0  0.00000000000E+00  0.00000000000E+00  0.50000000000E+03  0.50000000000E+03  0.00000000000E+00 0.  1.
         11   -1    0    0    0    0 -0.00000000000E+00 -0.00000000000E+00 -0.50000000000E+03  0.50000000000E+03  0.00000000000E+00 0.  1.
        -11    1    1    2    0    0  0.10365307312E+02 -0.10179448598E+02  0.49340484132E+03  0.49361867692E+03  0.00000000000E+00 0.  1.
         11    1    1    2    0    0 -0.15909650523E+02  0.38516716256E+00 -0.47852886985E+03  0.47879342583E+03  0.00000000000E+00 0.  1.
        -15    1    1    2    0    0 -0.51445203587E+01  0.66940434811E+01  0.36173358174E+00  0.86350962955E+01  0.17770000000E+01 0. -1.
         15    1    1    2    0    0  0.10688863570E+02  0.31002379542E+01 -0.15237705051E+02  0.18952800954E+02  0.17770000000E+01 0.  1.
</event>
<event>
 6   1  0.1826851E-04  0.5024612E+03  0.7546771E-02  0.9394319E-01
        -11   -1    0    0    0    0  0.00000000000E+00  0.00000000000E+00  0.50000000000E+03  0.50000000000E+03  0.00000000000E+00 0. -1.
         11   -1    0    0    0    0 -0.00000000000E+00 -0.00000000000E+00 -0.50000000000E+03  0.50000000000E+03  0.00000000000E+00 0. -1.
        -11    1    1    2    0    0  0.65348649769E+01 -0.17428022597E+01  0.47657192284E+03  0.47661991090E+03  0.00000000000E+00 0. -1.
         11    1    1    2    0    0  0.47073250643E+00 -0.84890551322E+01 -0.49746611684E+03  0.49753876537E+03  0.00000000000E+00 0. -1.
        -15    1    1    2    0    0 -0.49399872727E+00 -0.12563917804E+00  0.37598823859E+00  0.18865089719E+01  0.17770000000E+01 0.  1.
         15    1    1    2    0    0 -0.65115987560E+01  0.10357496570E+02  0.20518205758E+02  0.23954814758E+02  0.17770000000E+01 0.  1.
</event>
<event>
 6   1  0.1826851E-04  0.5006079E+03  0.7546771E-02  0.9398451E-01
        -11   -1    0    0    0    0  0.00000000000E+00  0.00000000000E+00  0.50000000000E+03  0.50000000000E+03  0.00000000000E+00 0.  1.
         11   -1    0    0    0    0 -0.00000000000E+00 -0.00000000000E+00 -0.50000000000E+03  0.50000000000E+03  0.00000000000E+00 0. -1.
        -11    1    1    2    0    0 -0.68395547881E+01 -0.65050691115E+01  0.37308543555E+03  0.37320481998E+03  0.00000000000E+00 0.  1.
         11    1    1    2    0    0  0.66066719175E+01  0.79455466403E+01 -0.49928517408E+03  0.49939209533E+03  0.00000000000E+00 0. -1.
        -15    1    1    2    0    0 -0.63637618024E+01  0.86088526873E+00  0.22834859972E+02  0.23787121445E+02  0.17770000000E+01 0.  1.
         15    1    1    2    0    0  0.65966446730E+01 -0.23013627975E+01  0.10336487855E+03  0.10361596324E+03  0.17770000000E+01 0. -1.
</event>
<event>
 6   1  0.1826851E-04  0.5040715E+03  0.7546771E-02  0.9390745E-01
        -11   -1    0    0    0    0  0.00000000000E+00  0.00000000000E+00  0.50000000000E+03  0.50000000000E+03  0.00000000000E+00 0. -1.
         11   -1    0    0    0    0 -0.00000000000E+00 -0.00000000000E+00 -0.50000000000E+03  0.50000000000E+03  0.00000000000E+00 0.  1.
        -11    1    1    2    0    0  0.16358145512E+02 -0.61052082760E+01  0.47359163083E+03  0.47391338373E+03  0.00000000000E+00 0. -1.
         11    1    1    2    0    0 -0.52691198209E+01 -0.47027999413E+01 -0.49587820125E+03  0.49592849326E+03  0.00000000000E+00 0.  1.
        -15    1    1    2    0    0 -0.35139505780E+01 -0.13413682246E+01  0.73664579806E+00  0.42246293814E+01  0.17770000000E+01 0.  1.
         15    1    1    2    0    0 -0.75750751126E+01  0.12149376442E+02  0.21549924630E+02  0.25933493622E+02  0.17770000000E+01 0. -1.
</event>
<event>
 6   1  0.1826851E-04  0.5036009E+03  0.7546771E-02  0.9391788E-01
        -11   -1    0    0    0    0  0.00000000000E+00  0.00000000000E+00  0.50000000000E+03  0.50000000000E+03  0.00000000000E+00 0. -1.
         11   -1    0    0    0    0 -0.00000000000E+00 -0.00000000000E+00 -0.50000000000E+03  0.50000000000E+03  0.00000000000E+00 0.  1.
        -11    1    1    2    0    0 -0.14046902217E+03 -0.15690386952E+03  0.38487879567E+03  0.43872777187E+03  0.00000000000E+00 0. -1.
         11    1    1    2    0    0  0.13356653938E+03  0.16991997565E+03 -0.44687717644E+03  0.49639906264E+03  0.00000000000E+00 0.  1.
        -15    1    1    2    0    0 -0.11871305140E+01 -0.11896118828E+01  0.25586628115E+02  0.25703262878E+02  0.17770000000E+01 0.  1.
         15    1    1    2    0    0  0.80896133078E+01 -0.11826494250E+02  0.36411752658E+02  0.39169902608E+02  0.17770000000E+01 0. -1.
</event>
<event>
 6   1  0.1826851E-04  0.5001456E+03  0.7546771E-02  0.9399484E-01
        -11   -1    0    0    0    0  0.00000000000E+00  0.00000000000E+00  0.50000000000E+03  0.50000000000E+03  0.00000000000E+00 0.  1.
         11   -1    0    0    0    0 -0.00000000000E+00 -0.00000000000E+00 -0.50000000000E+03  0.50000000000E+03  0.00000000000E+00 0.  1.
        -11    1    1    2    0    0 -0.19281908988E+02  0.19662446912E+02  0.39882893211E+03  0.39977858987E+03  0.00000000000E+00 0.  1.
         11    1    1    2    0    0  0.20169910944E+02 -0.23315029629E+02 -0.49890277776E+03  0.49985437636E+03  0.00000000000E+00 0.  1.
        -15    1    1    2    0    0  0.22445599813E+00  0.39502017500E+01  0.88148970629E+02  0.88255613002E+02  0.17770000000E+01 0.  1.
         15    1    1    2    0    0 -0.11124579533E+01 -0.29761903319E+00  0.11924875015E+02  0.12111420764E+02  0.17770000000E+01 0.  1.
</event>
<event>
 6   1  0.1826851E-04  0.5008824E+03  0.7546771E-02  0.9397837E-01
        -11   -1    0    0    0    0  0.00000000000E+00  0.00000000000E+00  0.50000000000E+03  0.50000000000E+03  0.00000000000E+00 0. -1.
         11   -1    0    0    0    0 -0.00000000000E+00 -0.00000000000E+00 -0.50000000000E+03  0.50000000000E+03  0.00000000000E+00 0.  1.
        -11    1    1    2    0    0  0.78522693917E+01  0.26508422142E+02  0.49835131341E+03  0.49911760754E+03  0.00000000000E+00 0. -1.
         11    1    1    2    0    0  0.40542340291E+01 -0.32700552879E+01 -0.30913232634E+03  0.30917620424E+03  0.00000000000E+00 0.  1.
        -15    1    1    2    0    0 -0.15051808263E+01 -0.91632267692E+01 -0.28498680237E+02  0.30026035343E+02  0.17770000000E+01 0. -1.
         15    1    1    2    0    0 -0.10401322595E+02 -0.14075140085E+02 -0.16072030683E+03  0.16168015288E+03  0.17770000000E+01 0.  1.
</event>
<event>
 6   1  0.1826851E-04  0.5065415E+03  0.7546771E-02  0.9385290E-01
        -11   -1    0    0    0    0  0.00000000000E+00  0.00000000000E+00  0.50000000000E+03  0.50000000000E+03  0.00000000000E+00 0. -1.
         11   -1    0    0    0    0 -0.00000000000E+00 -0.00000000000E+00 -0.50000000000E+03  0.50000000000E+03  0.00000000000E+00 0.  1.
        -11    1    1    2    0    0  0.16790651168E+02 -0.17254394841E+02  0.45762829769E+03  0.45826116893E+03  0.00000000000E+00 0. -1.
         11    1    1    2    0    0 -0.81066869712E+01 -0.27453827958E+01 -0.49338430111E+03  0.49345853330E+03  0.00000000000E+00 0.  1.
        -15    1    1    2    0    0  0.55468721681E+01  0.13965020039E+02  0.98300198602E+01  0.18043741159E+02  0.17770000000E+01 0. -1.
         15    1    1    2    0    0 -0.14230836365E+02  0.60347575975E+01  0.25925983564E+02  0.30236556611E+02  0.17770000000E+01 0.  1.
</event>
<event>
 6   1  0.1826851E-04  0.5017131E+03  0.7546771E-02  0.9395985E-01
        -11   -1    0    0    0    0  0.00000000000E+00  0.00000000000E+00  0.50000000000E+03  0.50000000000E+03  0.00000000000E+00 0.  1.
         11   -1    0    0    0    0 -0.00000000000E+00 -0.00000000000E+00 -0.50000000000E+03  0.50000000000E+03  0.00000000000E+00 0. -1.
        -11    1    1    2    0    0  0.14841129926E+02  0.17771569047E+02  0.49774872733E+03  0.49828694882E+03  0.00000000000E+00 0.  1.
         11    1    1    2    0    0 -0.41331649278E-01 -0.13571303989E+02 -0.46244578526E+03  0.46264488142E+03  0.00000000000E+00 0. -1.
        -15    1    1    2    0    0 -0.10752844067E+02 -0.52031925180E+01 -0.23426614497E+02  0.26356419782E+02  0.17770000000E+01 0.  1.
         15    1    1    2    0    0 -0.40469542098E+01  0.10029274603E+01 -0.11876327577E+02  0.12711749981E+02  0.17770000000E+01 0. -1.
</event>
<event>
 6   1  0.1826851E-04  0.5017155E+03  0.7546771E-02  0.9395979E-01
        -11   -1    0    0    0    0  0.00000000000E+00  0.00000000000E+00  0.50000000000E+03  0.50000000000E+03  0.00000000000E+00 0.  1.
         11   -1    0    0    0    0 -0.00000000000E+00 -0.00000000000E+00 -0.50000000000E+03  0.50000000000E+03  0.00000000000E+00 0.  1.
        -11    1    1    2    0    0 -0.25459222455E+02  0.36721639570E+01  0.34286027687E+03  0.34382383026E+03  0.00000000000E+00 0.  1.
         11    1    1    2    0    0  0.11866313624E+02  0.17867827409E+02 -0.49782265234E+03  0.49828451896E+03  0.00000000000E+00 0.  1.
        -15    1    1    2    0    0  0.10990617015E+02 -0.22266488972E+02  0.14938059499E+03  0.15144078078E+03  0.17770000000E+01 0. -1.
         15    1    1    2    0    0  0.26022918167E+01  0.72649760575E+00  0.55817804754E+01  0.64508699991E+01  0.17770000000E+01 0.  1.
</event>
<event>
 6   1  0.1826851E-04  0.5013002E+03  0.7546771E-02  0.9396905E-01
        -11   -1    0    0    0    0  0.00000000000E+00  0.00000000000E+00  0.50000000000E+03  0.50000000000E+03  0.00000000000E+00 0. -1.
         11   -1    0    0    0    0 -0.00000000000E+00 -0.00000000000E+00 -0.50000000000E+03  0.50000000000E+03  0.00000000000E+00 0. -1.
        -11    1    1    2    0    0  0.24158661046E+02  0.21646515613E+01  0.49810957996E+03  0.49869978973E+03  0.00000000000E+00 0. -1.
         11    1    1    2    0    0  0.28859547169E+01  0.10418324246E+02 -0.19943587060E+03  0.19972865767E+03  0.00000000000E+00 0. -1.
        -15    1    1    2    0    0 -0.27630643995E+02  0.10560760072E+01 -0.18402053370E+03  0.18609482082E+03  0.17770000000E+01 0.  1.
         15    1    1    2    0    0  0.58602823144E+00 -0.13639051814E+02 -0.11465317566E+03  0.11547673178E+03  0.17770000000E+01 0. -1.
</event>
<event>
 6   1  0.1826851E-04  0.5015183E+03  0.7546771E-02  0.9396419E-01
        -11   -1    0    0    0    0  0.00000000000E+00  0.00000000000E+00  0.50000000000E+03  0.50000000000E+03  0.00000000000E+00 0.  1.
         11   -1    0    0    0    0 -0.00000000000E+00 -0.00000000000E+00 -0.50000000000E+03  0.50000000000E+03  0.00000000000E+00 0. -1.
        -11    1    1    2    0    0 -0.72168007088E+01 -0.34011885283E+02  0.49726763846E+03  0.49848168955E+03  0.00000000000E+00 0.  1.
         11    1    1    2    0    0 -0.50227345616E+01  0.42060318174E+01 -0.32726163797E+03  0.32732720366E+03  0.00000000000E+00 0. -1.
        -15    1    1    2    0    0  0.72669468825E+01  0.30405278103E+02 -0.12455717268E+03  0.12843261443E+03  0.17770000000E+01 0.  1.
         15    1    1    2    0    0  0.49725883879E+01 -0.59942463723E+00 -0.45448827811E+02  0.45758492365E+02  0.17770000000E+01 0. -1.
</event>
<event>
 6   1  0.1826851E-04  0.5001544E+03  0.7546771E-02  0.9399464E-01
        -11   -1    0    0    0    0  0.00000000000E+00  0.00000000000E+00  0.50000000000E+03  0.50000000000E+03  0.00000000000E+00 0.  1.
         11   -1    0    0    0    0 -0.00000000000E+00 -0.00000000000E+00 -0.50000000000E+03  0.50000000000E+03  0.00000000000E+00 0.  1.
        -11    1    1    2    0    0 -0.42252280271E+01 -0.73503017115E+00  0.24026486123E+02  0.24406246263E+02  0.00000000000E+00 0.  1.
         11    1    1    2    0    0  0.12580107360E+02  0.30677564462E+01 -0.49967787316E+03  0.49984562332E+03  0.00000000000E+00 0.  1.
        -15    1    1    2    0    0 -0.49144490577E+01 -0.14639668789E+01  0.22568117444E+03  0.22574641798E+03  0.17770000000E+01 0.  1.
         15    1    1    2    0    0 -0.34404302748E+01 -0.86875939618E+00  0.24997021260E+03  0.25000171243E+03  0.17770000000E+01 0.  1.
</event>
<event>
 6   1  0.1826851E-04  0.5021192E+03  0.7546771E-02  0.9395080E-01
        -11   -1    0    0    0    0  0.00000000000E+00  0.00000000000E+00  0.50000000000E+03  0.50000000000E+03  0.00000000000E+00 0.  1.
         11   -1    0    0    0    0 -0.00000000000E+00 -0.00000000000E+00 -0.50000000000E+03  0.50000000000E+03  0.00000000000E+00 0. -1.
        -11    1    1    2    0    0  0.19857575351E+02 -0.17121907960E+02  0.83838972981E+02  0.87843362991E+02  0.00000000000E+00 0.  1.
         11    1    1    2    0    0 -0.15465762811E+02 -0.14423918820E+01 -0.49763848098E+03  0.49788083721E+03  0.00000000000E+00 0. -1.
        -15    1    1    2    0    0 -0.31537179757E+01  0.53728392591E+01  0.14221755868E+03  0.14236504159E+03  0.17770000000E+01 0. -1.
         15    1    1    2    0    0 -0.12380945645E+01  0.13191460583E+02  0.27158194931E+03  0.27191075821E+03  0.17770000000E+01 0.  1.
</event>
<event>
 6   1  0.1826851E-04  0.5001622E+03  0.7546771E-02  0.9399447E-01
        -11   -1    0    0    0    0  0.00000000000E+00  0.00000000000E+00  0.50000000000E+03  0.50000000000E+03  0.00000000000E+00 0. -1.
         11   -1    0    0    0    0 -0.00000000000E+00 -0.00000000000E+00 -0.50000000000E+03  0.50000000000E+03  0.00000000000E+00 0. -1.
        -11    1    1    2    0    0 -0.12725905993E+01  0.99712513462E+01  0.22256684030E+03  0.22279372465E+03  0.00000000000E+00 0. -1.
         11    1    1    2    0    0  0.44114857242E+01 -0.14406473718E+02 -0.49961064104E+03  0.49983777401E+03  0.00000000000E+00 0. -1.
        -15    1    1    2    0    0 -0.36278216976E+01  0.47168531983E+01  0.27031078846E+03  0.27038211827E+03  0.17770000000E+01 0. -1.
         15    1    1    2    0    0  0.48892657270E+00 -0.28163082649E+00  0.67330122709E+01  0.69863830668E+01  0.17770000000E+01 0. -1.
</event>
<event>
 6   1  0.1826851E-04  0.4872293E+03  0.7546771E-02  0.9428847E-01
        -11   -1    0    0    0    0  0.00000000000E+00  0.00000000000E+00  0.50000000000E+03  0.50000000000E+03  0.00000000000E+00 0. -1.
         11   -1    0    0    0    0 -0.00000000000E+00 -0.00000000000E+00 -0.50000000000E+03  0.50000000000E+03  0.00000000000E+00 0. -1.
        -11    1    1    2    0    0 -0.80344936076E+01 -0.15322703036E+02  0.48912484249E+03  0.48943074062E+03  0.00000000000E+00 0. -1.
         11    1    1    2    0    0 -0.88849454551E+01  0.65224983886E+01 -0.48509755722E+03  0.48522275839E+03  0.00000000000E+00 0. -1.
        -15    1    1    2    0    0  0.12317386616E+02 -0.23808037628E+01 -0.33541342316E+01  0.13107028078E+02  0.17770000000E+01 0. -1.
         15    1    1    2    0    0  0.46020524467E+01  0.11181008410E+02 -0.67315104214E+00  0.12239472910E+02  0.17770000000E+01 0.  1.
</event>
<event>
 6   1  0.1826851E-04  0.5002337E+03  0.7546771E-02  0.9399287E-01
        -11   -1    0    0    0    0  0.00000000000E+00  0.00000000000E+00  0.50000000000E+03  0.50000000000E+03  0.00000000000E+00 0. -1.
         11   -1    0    0    0    0 -0.00000000000E+00 -0.00000000000E+00 -0.50000000000E+03  0.50000000000E+03  0.00000000000E+00 0. -1.
        -11    1    1    2    0    0  0.11351947445E+02  0.11533982213E+02  0.49950418399E+03  0.49976627465E+03  0.00000000000E+00 0. -1.
         11    1    1    2    0    0  0.39559963739E+01 -0.26886716030E+01 -0.77984779319E+02  0.78131329617E+02  0.00000000000E+00 0. -1.
        -15    1    1    2    0    0 -0.14839450288E+02 -0.53980133739E+01 -0.23238830587E+03  0.23293095601E+03  0.17770000000E+01 0. -1.
         15    1    1    2    0    0 -0.46849353051E+00 -0.34472972362E+01 -0.18913109880E+03  0.18917143973E+03  0.17770000000E+01 0.  1.
</event>
<event>
 6   1  0.1826851E-04  0.5002742E+03  0.7546771E-02  0.9399196E-01
        -11   -1    0    0    0    0  0.00000000000E+00  0.00000000000E+00  0.50000000000E+03  0.50000000000E+03  0.00000000000E+00 0.  1.
         11   -1    0    0    0    0 -0.00000000000E+00 -0.00000000000E+00 -0.50000000000E+03  0.50000000000E+03  0.00000000000E+00 0. -1.
        -11    1    1    2    0    0  0.23077285784E+01 -0.14327522306E+02  0.49951501807E+03  0.49972578159E+03  0.00000000000E+00 0.  1.
         11    1    1    2    0    0  0.52714398263E+01 -0.16831444677E+01 -0.23592766010E+03  0.23599254618E+03  0.00000000000E+00 0. -1.
        -15    1    1    2    0    0 -0.23240333892E-01  0.52599441528E+01 -0.57212491360E+02  0.57481253025E+02  0.17770000000E+01 0. -1.
         15    1    1    2    0    0 -0.75559280707E+01  0.10750722621E+02 -0.20637486661E+03  0.20680041920E+03  0.17770000000E+01 0.  1.
</event>
<event>
 6   1  0.1826851E-04  0.5002403E+03  0.7546771E-02  0.9399272E-01
        -11   -1    0    0    0    0  0.00000000000E+00  0.00000000000E+00  0.50000000000E+03  0.50000000000E+03  0.00000000000E+00 0. -1.
         11   -1    0    0    0    0 -0.00000000000E+00 -0.00000000000E+00 -0.50000000000E+03  0.50000000000E+03  0.00000000000E+00 0. -1.
        -11    1    1    2    0    0  0.25142657881E+01 -0.26248383801E+02  0.49906357055E+03  0.49975968889E+03  0.00000000000E+00 0. -1.
         11    1    1    2    0    0  0.25468350220E+01 -0.12060069110E+01 -0.10681419567E+03  0.10685136040E+03  0.00000000000E+00 0. -1.
        -15    1    1    2    0    0  0.25858853021E+01  0.49693945643E+01 -0.60027886644E+02  0.60314895250E+02  0.17770000000E+01 0.  1.
         15    1    1    2    0    0 -0.76469861122E+01  0.22484996147E+02 -0.33222148824E+03  0.33307405546E+03  0.17770000000E+01 0. -1.
</event>
<event>
 6   1  0.1826851E-04  0.5001554E+03  0.7546771E-02  0.9399462E-01
        -11   -1    0    0    0    0  0.00000000000E+00  0.00000000000E+00  0.50000000000E+03  0.50000000000E+03  0.00000000000E+00 0. -1.
         11   -1    0    0    0    0 -0.00000000000E+00 -0.00000000000E+00 -0.50000000000E+03  0.50000000000E+03  0.00000000000E+00 0. -1.
        -11    1    1    2    0    0 -0.35972860789E+01 -0.13967463350E+01  0.46220151528E+02  0.46380963495E+02  0.00000000000E+00 0. -1.
         11    1    1    2    0    0 -0.10827502335E+02 -0.16188748424E+01 -0.49972464779E+03  0.49984455501E+03  0.00000000000E+00 0. -1.
        -15    1    1    2    0    0  0.11980161865E+02  0.33570455697E+01  0.35129023301E+03  0.35151497773E+03  0.17770000000E+01 0. -1.
         15    1    1    2    0    0  0.24446265490E+01 -0.34142439229E+00  0.10221426325E+03  0.10225950377E+03  0.17770000000E+01 0. -1.
</event>
<event>
 6   1  0.1826851E-04  0.5021309E+03  0.7546771E-02  0.9395054E-01
        -11   -1    0    0    0    0  0.00000000000E+00  0.00000000000E+00  0.50000000000E+03  0.50000000000E+03  0.00000000000E+00 0.  1.
         11   -1    0    0    0    0 -0.00000000000E+00 -0.00000000000E+00 -0.50000000000E+03  0.50000000000E+03  0.00000000000E+00 0. -1.
        -11    1    1    2    0    0  0.81316293079E+01  0.16455244690E+02  0.42389807278E+03  0.42429526816E+03  0.00000000000E+00 0.  1.
         11    1    1    2    0    0 -0.16579452676E+02 -0.88701465497E-01 -0.49759292608E+03  0.49786906532E+03  0.00000000000E+00 0. -1.
        -15    1    1    2    0    0 -0.46042796726E+01 -0.78267062633E+01  0.24082724906E+02  0.25799071498E+02  0.17770000000E+01 0.  1.
         15    1    1    2    0    0  0.13052103041E+02 -0.85398369608E+01  0.49612128392E+02  0.52036595024E+02  0.17770000000E+01 0. -1.
</event>
<event>
 6   1  0.1826851E-04  0.5073094E+03  0.7546771E-02  0.9383601E-01
        -11   -1    0    0    0    0  0.00000000000E+00  0.00000000000E+00  0.50000000000E+03  0.50000000000E+03  0.00000000000E+00 0. -1.
         11   -1    0    0    0    0 -0.00000000000E+00 -0.00000000000E+00 -0.50000000000E+03  0.50000000000E+03  0.00000000000E+00 0.  1.
        -11    1    1    2    0    0  0.15970842574E+02 -0.23259060603E+02  0.19761667934E+02  0.34446701325E+02  0.00000000000E+00 0. -1.
         11    1    1    2    0    0 -0.24765509874E+02  0.47285059404E+02 -0.48979061579E+03  0.49269062771E+03  0.00000000000E+00 0.  1.
        -15    1    1    2    0    0  0.24747392353E+01 -0.36826300597E+02  0.36171759756E+03  0.36360016345E+03  0.17770000000E+01 0. -1.
         15    1    1    2    0    0  0.63199280651E+01  0.12800301796E+02  0.10831135029E+03  0.10926250751E+03  0.17770000000E+01 0.  1.
</event>
<event>
 6   1  0.1826851E-04  0.5000654E+03  0.7546771E-02  0.9399663E-01
        -11   -1    0    0    0    0  0.00000000000E+00  0.00000000000E+00  0.50000000000E+03  0.50000000000E+03  0.00000000000E+00 0. -1.
         11   -1    0    0    0    0 -0.00000000000E+00 -0.00000000000E+00 -0.50000000000E+03  0.50000000000E+03  0.00000000000E+00 0. -1.
        -11    1    1    2    0    0 -0.25071092263E+01 -0.26501612177E+01  0.43741120576E+02  0.43892990105E+02  0.00000000000E+00 0. -1.
         11    1    1    2    0    0  0.53173659771E+01  0.81452862174E+01 -0.49983996557E+03  0.49993460697E+03  0.00000000000E+00 0. -1.
        -15    1    1    2    0    0 -0.88788728161E+00 -0.22232421518E+00  0.69497838515E+02  0.69526578077E+02  0.17770000000E+01 0. -1.
         15    1    1    2    0    0 -0.19223694692E+01 -0.52728007845E+01  0.38660100648E+03  0.38664582485E+03  0.17770000000E+01 0. -1.
</event>
<event>
 6   1  0.1826851E-04  0.5040607E+03  0.7546771E-02  0.9390769E-01
        -11   -1    0    0    0    0  0.00000000000E+00  0.00000000000E+00  0.50000000000E+03  0.50000000000E+03  0.00000000000E+00 0.  1.
         11   -1    0    0    0    0 -0.00000000000E+00 -0.00000000000E+00 -0.50000000000E+03  0.50000000000E+03  0.00000000000E+00 0. -1.
        -11    1    1    2    0    0 -0.23770534386E+01  0.20763767838E+02  0.46084957935E+03  0.46132322641E+03  0.00000000000E+00 0.  1.
         11    1    1    2    0    0 -0.84846582142E+01 -0.68729755040E+01 -0.49581908737E+03  0.49593930538E+03  0.00000000000E+00 0. -1.
        -15    1    1    2    0    0  0.10863423572E+02 -0.15817848056E+02  0.35175054551E+02  0.40108109910E+02  0.17770000000E+01 0. -1.
         15    1    1    2    0    0 -0.17119195056E-02  0.19270557220E+01 -0.20554653119E+00  0.26293582987E+01  0.17770000000E+01 0.  1.
</event>
<event>
 6   1  0.1826851E-04  0.4273338E+03  0.7546771E-02  0.9578916E-01
        -11   -1    0    0    0    0  0.00000000000E+00  0.00000000000E+00  0.50000000000E+03  0.50000000000E+03  0.00000000000E+00 0.  1.
         11   -1    0    0    0    0 -0.00000000000E+00 -0.00000000000E+00 -0.50000000000E+03  0.50000000000E+03  0.00000000000E+00 0.  1.
        -11    1    1    2    0    0 -0.97720295123E+02 -0.34715150323E+02  0.41799985732E+03  0.43067189189E+03  0.00000000000E+00 0.  1.
         11    1    1    2    0    0 -0.18862706965E+02  0.20883083939E+02 -0.43120521862E+03  0.43212248897E+03  0.00000000000E+00 0.  1.
        -15    1    1    2    0    0  0.64539219013E+02  0.23143306327E+02  0.38408626085E+02  0.78608547279E+02  0.17770000000E+01 0.  1.
         15    1    1    2    0    0  0.52043783075E+02 -0.93112399431E+01 -0.25203264781E+02  0.58597071861E+02  0.17770000000E+01 0. -1.
</event>
<event>
 6   1  0.1826851E-04  0.4840964E+03  0.7546771E-02  0.9436116E-01
        -11   -1    0    0    0    0  0.00000000000E+00  0.00000000000E+00  0.50000000000E+03  0.50000000000E+03  0.00000000000E+00 0.  1.
         11   -1    0    0    0    0 -0.00000000000E+00 -0.00000000000E+00 -0.50000000000E+03  0.50000000000E+03  0.00000000000E+00 0.  1.
        -11    1    1    2    0    0 -0.16594129065E+01  0.13924708937E+02  0.48179763568E+03  0.48200167315E+03  0.00000000000E+00 0.  1.
         11    1    1    2    0    0  0.97641544995E+01  0.56780415519E+01 -0.48630282269E+03  0.48643397726E+03  0.00000000000E+00 0.  1.
        -15    1    1    2    0    0 -0.13716601472E+02 -0.21036891954E+02  0.38766697794E+01  0.25473167777E+02  0.17770000000E+01 0.  1.
         15    1    1    2    0    0  0.56118598793E+01  0.14341414649E+01  0.62851723477E+00  0.60911818197E+01  0.17770000000E+01 0. -1.
</event>
<event>
 6   1  0.1826851E-04  0.5047792E+03  0.7546771E-02  0.9389179E-01
        -11   -1    0    0    0    0  0.00000000000E+00  0.00000000000E+00  0.50000000000E+03  0.50000000000E+03  0.00000000000E+00 0. -1.
         11   -1    0    0    0    0 -0.00000000000E+00 -0.00000000000E+00 -0.50000000000E+03  0.50000000000E+03  0.00000000000E+00 0. -1.
        -11    1    1    2    0    0  0.24379352566E+02 -0.74332479217E+01  0.33941723544E+02  0.42445807842E+02  0.00000000000E+00 0. -1.
         11    1    1    2    0    0 -0.54740092583E+01 -0.19849354151E+02 -0.49479259564E+03  0.49522083391E+03  0.00000000000E+00 0. -1.
        -15    1    1    2    0    0 -0.16500263649E+02  0.25908581484E+02  0.44841764544E+03  0.44947197440E+03  0.17770000000E+01 0. -1.
         15    1    1    2    0    0 -0.24050796581E+01  0.13740205890E+01  0.12433226650E+02  0.12861383855E+02  0.17770000000E+01 0.  1.
</event>
<event>
 6   1  0.1826851E-04  0.5005402E+03  0.7546771E-02  0.9398602E-01
        -11   -1    0    0    0    0  0.00000000000E+00  0.00000000000E+00  0.50000000000E+03  0.50000000000E+03  0.00000000000E+00 0. -1.
         11   -1    0    0    0    0 -0.00000000000E+00 -0.00000000000E+00 -0.50000000000E+03  0.50000000000E+03  0.00000000000E+00 0. -1.
        -11    1    1    2    0    0 -0.24848529336E+02  0.24465684641E+02  0.27345368146E+03  0.27566816109E+03  0.00000000000E+00 0. -1.
         11    1    1    2    0    0  0.28272120003E+02 -0.21328959391E+02 -0.49820264049E+03  0.49945981648E+03  0.00000000000E+00 0. -1.
        -15    1    1    2    0    0 -0.41262047729E+01 -0.12661966799E+01  0.15953009083E+03  0.15959835973E+03  0.17770000000E+01 0.  1.
         15    1    1    2    0    0  0.70261410637E+00 -0.18705285699E+01  0.65218868209E+02  0.65273662707E+02  0.17770000000E+01 0. -1.
</event>
<event>
 6   1  0.1826851E-04  0.5002829E+03  0.7546771E-02  0.9399177E-01
        -11   -1    0    0    0    0  0.00000000000E+00  0.00000000000E+00  0.50000000000E+03  0.50000000000E+03  0.00000000000E+00 0.  1.
         11   -1    0    0    0    0 -0.00000000000E+00 -0.00000000000E+00 -0.50000000000E+03  0.50000000000E+03  0.00000000000E+00 0.  1.
        -11    1    1    2    0    0 -0.12000882253E+02 -0.44687425406E+01  0.35104331430E+03  0.35127681300E+03  0.00000000000E+00 0.  1.
         11    1    1    2    0    0  0.32827570087E+01  0.64029581846E+01 -0.49966524710E+03  0.49971705347E+03  0.00000000000E+00 0.  1.
        -15    1    1    2    0    0  0.19928428439E+01 -0.17293579355E+01  0.71541365921E+02  0.71612058121E+02  0.17770000000E+01 0.  1.
         15    1    1    2    0    0  0.67252824001E+01 -0.20485770849E+00  0.77080566878E+02  0.77394075414E+02  0.17770000000E+01 0.  1.
</event>
<event>
 6   1  0.1826851E-04  0.5016976E+03  0.7546771E-02  0.9396019E-01
        -11   -1    0    0    0    0  0.00000000000E+00  0.00000000000E+00  0.50000000000E+03  0.50000000000E+03  0.00000000000E+00 0. -1.
         11   -1    0    0    0    0 -0.00000000000E+00 -0.00000000000E+00 -0.50000000000E+03  0.50000000000E+03  0.00000000000E+00 0. -1.
        -11    1    1    2    0    0  0.21171524561E+02 -0.86964856540E+01  0.49777645887E+03  0.49830238342E+03  0.00000000000E+00 0. -1.
         11    1    1    2    0    0 -0.65713491328E+01 -0.10071929883E+02 -0.35351660087E+03  0.35372109563E+03  0.00000000000E+00 0. -1.
        -15    1    1    2    0    0 -0.14972857263E+02  0.16157783777E+02 -0.65027478179E+02  0.68680354386E+02  0.17770000000E+01 0.  1.
         15    1    1    2    0    0  0.37268183542E+00  0.26106317604E+01 -0.79232379822E+02  0.79296166561E+02  0.17770000000E+01 0. -1.
</event>
<event>
 6   1  0.1826851E-04  0.5004214E+03  0.7546771E-02  0.9398867E-01
        -11   -1    0    0    0    0  0.00000000000E+00  0.00000000000E+00  0.50000000000E+03  0.50000000000E+03  0.00000000000E+00 0.  1.
         11   -1    0    0    0    0 -0.00000000000E+00 -0.00000000000E+00 -0.50000000000E+03  0.50000000000E+03  0.00000000000E+00 0.  1.
        -11    1    1    2    0    0 -0.10420333762E+00  0.14386106463E+02  0.77857335440E+02  0.79175347169E+02  0.00000000000E+00 0.  1.
         11    1    1    2    0    0  0.20446521601E+02 -0.32432422364E+02 -0.49810525048E+03  0.49957858523E+03  0.00000000000E+00 0.  1.
        -15    1    1    2    0    0 -0.67945257739E+01  0.69642820300E+01  0.22160495637E+03  0.22182556485E+03  0.17770000000E+01 0.  1.
         15    1    1    2    0    0 -0.13547792490E+02  0.11082033870E+02  0.19864295868E+03  0.19942050275E+03  0.17770000000E+01 0. -1.
</event>
<event>
 6   1  0.1826851E-04  0.5004826E+03  0.7546771E-02  0.9398731E-01
        -11   -1    0    0    0    0  0.00000000000E+00  0.00000000000E+00  0.50000000000E+03  0.50000000000E+03  0.00000000000E+00 0.  1.
         11   -1    0    0    0    0 -0.00000000000E+00 -0.00000000000E+00 -0.50000000000E+03  0.50000000000E+03  0.00000000000E+00 0.  1.
        -11    1    1    2    0    0 -0.48553311145E+01  0.90971265810E+01  0.26472396517E+03  0.26492472457E+03  0.00000000000E+00 0.  1.
         11    1    1    2    0    0 -0.48034197718E+01 -0.48550683868E+01 -0.49947075495E+03  0.49951744672E+03  0.00000000000E+00 0.  1.
        -15    1    1    2    0    0  0.54517074186E+01  0.21098589171E+01  0.27812088032E+02  0.28475297859E+02  0.17770000000E+01 0.  1.
         15    1    1    2    0    0  0.42070434677E+01 -0.63519171113E+01  0.20693470174E+03  0.20708253084E+03  0.17770000000E+01 0. -1.
</event>
<event>
 6   1  0.1826851E-04  0.4803427E+03  0.7546771E-02  0.9444901E-01
        -11   -1    0    0    0    0  0.00000000000E+00  0.00000000000E+00  0.50000000000E+03  0.50000000000E+03  0.00000000000E+00 0. -1.
         11   -1    0    0    0    0 -0.00000000000E+00 -0.00000000000E+00 -0.50000000000E+03  0.50000000000E+03  0.00000000000E+00 0. -1.
        -11    1    1    2    0    0 -0.12028682848E+02  0.17905936280E+02  0.47185400485E+03  0.47234681502E+03  0.00000000000E+00 0. -1.
         11    1    1    2    0    0  0.45605110216E+01  0.78424376779E+01 -0.48877747396E+03  0.48886165849E+03  0.00000000000E+00 0. -1.
        -15    1    1    2    0    0 -0.43410595024E+00 -0.13864366576E+02  0.19685331675E+02  0.24147031302E+02  0.17770000000E+01 0. -1.
         15    1    1    2    0    0  0.79022777769E+01 -0.11884007382E+02 -0.27618625729E+01  0.14644495191E+02  0.17770000000E+01 0.  1.
</event>
<event>
 6   1  0.1826851E-04  0.5021995E+03  0.7546771E-02  0.9394902E-01
        -11   -1    0    0    0    0  0.00000000000E+00  0.00000000000E+00  0.50000000000E+03  0.50000000000E+03  0.00000000000E+00 0.  1.
         11   -1    0    0    0    0 -0.00000000000E+00 -0.00000000000E+00 -0.50000000000E+03  0.50000000000E+03  0.00000000000E+00 0. -1.
        -11    1    1    2    0    0 -0.61712078988E+01 -0.58805994116E+01  0.48479172201E+03  0.48486666104E+03  0.00000000000E+00 0.  1.
         11    1    1    2    0    0 -0.32683351380E+01  0.96070442413E+01 -0.49769708305E+03  0.49780052610E+03  0.00000000000E+00 0. -1.
        -15    1    1    2    0    0  0.21154128025E+01 -0.19431512370E+01  0.18995583494E+01  0.38751592196E+01  0.17770000000E+01 0. -1.
         15    1    1    2    0    0  0.73241302343E+01 -0.17832935927E+01  0.11005802687E+02  0.13457653640E+02  0.17770000000E+01 0.  1.
</event>
<event>
 6   1  0.1826851E-04  0.5000395E+03  0.7546771E-02  0.9399721E-01
        -11   -1    0    0    0    0  0.00000000000E+00  0.00000000000E+00  0.50000000000E+03  0.50000000000E+03  0.00000000000E+00 0.  1.
         11   -1    0    0    0    0 -0.00000000000E+00 -0.00000000000E+00 -0.50000000000E+03  0.50000000000E+03  0.00000000000E+00 0. -1.
        -11    1    1    2    0    0  0.24341315438E+01 -0.83229327798E+00  0.33950519328E+02  0.34047840917E+02  0.00000000000E+00 0.  1.
         11    1    1    2    0    0 -0.10725973203E+02  0.58467650658E+01 -0.49981124254E+03  0.49996050778E+03  0.00000000000E+00 0. -1.
        -15    1    1    2    0    0  0.55103869007E+01 -0.18233432280E+01  0.32342349034E+03  0.32348044883E+03  0.17770000000E+01 0.  1.
         15    1    1    2    0    0  0.27814547590E+01 -0.31911285599E+01  0.14243723288E+03  0.14251120247E+03  0.17770000000E+01 0. -1.
</event>
<event>
 6   1  0.1826851E-04  0.4850133E+03  0.7546771E-02  0.9433982E-01
        -11   -1    0    0    0    0  0.00000000000E+00  0.00000000000E+00  0.50000000000E+03  0.50000000000E+03  0.00000000000E+00 0. -1.
         11   -1    0    0    0    0 -0.00000000000E+00 -0.00000000000E+00 -0.50000000000E+03  0.50000000000E+03  0.00000000000E+00 0. -1.
        -11    1    1    2    0    0  0.86843925950E+01 -0.38856424320E+01  0.48181835864E+03  0.48191228207E+03  0.00000000000E+00 0. -1.
         11    1    1    2    0    0  0.14902425220E+02 -0.44207110091E+01 -0.48821025325E+03  0.48845765051E+03  0.00000000000E+00 0. -1.
        -15    1    1    2    0    0 -0.74831821557E+01  0.23447918038E+01 -0.45034535063E+01  0.92160124925E+01  0.17770000000E+01 0.  1.
         15    1    1    2    0    0 -0.16103635660E+02  0.59615616373E+01  0.10895348124E+02  0.20414054922E+02  0.17770000000E+01 0. -1.
</event>
<event>
 6   1  0.1826851E-04  0.4909187E+03  0.7546771E-02  0.9420362E-01
        -11   -1    0    0    0    0  0.00000000000E+00  0.00000000000E+00  0.50000000000E+03  0.50000000000E+03  0.00000000000E+00 0. -1.
         11   -1    0    0    0    0 -0.00000000000E+00 -0.00000000000E+00 -0.50000000000E+03  0.50000000000E+03  0.00000000000E+00 0. -1.
        -11    1    1    2    0    0 -0.16312654680E+02  0.27467277169E+01  0.49088827513E+03  0.49116692262E+03  0.00000000000E+00 0. -1.
         11    1    1    2    0    0  0.53550604697E+01  0.42935358750E+01 -0.49070885416E+03  0.49075685494E+03  0.00000000000E+00 0. -1.
        -15    1    1    2    0    0  0.13021958018E+02 -0.76567035736E+01  0.43562940333E+00  0.15216569989E+02  0.17770000000E+01 0. -1.
         15    1    1    2    0    0 -0.20643638078E+01  0.61643998166E+00 -0.61505037755E+00  0.28596524525E+01  0.17770000000E+01 0.  1.
</event>
<event>
 6   1  0.1826851E-04  0.5000803E+03  0.7546771E-02  0.9399630E-01
        -11   -1    0    0    0    0  0.00000000000E+00  0.00000000000E+00  0.50000000000E+03  0.50000000000E+03  0.00000000000E+00 0. -1.
         11   -1    0    0    0    0 -0.00000000000E+00 -0.00000000000E+00 -0.50000000000E+03  0.50000000000E+03  0.00000000000E+00 0. -1.
        -11    1    1    2    0    0 -0.99418892888E+01  0.13873726233E+02  0.34554771619E+03  0.34596899515E+03  0.00000000000E+00 0. -1.
         11    1    1    2    0    0  0.98499957190E+01 -0.18485404902E+02 -0.49948072869E+03  0.49991972450E+03  0.00000000000E+00 0. -1.
        -15    1    1    2    0    0  0.74322641230E+00  0.50869078727E+01  0.10814424344E+03  0.10828095001E+03  0.17770000000E+01 0. -1.
         15    1    1    2    0    0 -0.65133284243E+00 -0.47522920319E+00  0.45788769068E+02  0.45830330340E+02  0.17770000000E+01 0.  1.
</event>
<event>
 6   1  0.1826851E-04  0.5114822E+03  0.7546771E-02  0.9374478E-01
        -11   -1    0    0    0    0  0.00000000000E+00  0.00000000000E+00  0.50000000000E+03  0.50000000000E+03  0.00000000000E+00 0.  1.
         11   -1    0    0    0    0 -0.00000000000E+00 -0.00000000000E+00 -0.50000000000E+03  0.50000000000E+03  0.00000000000E+00 0.  1.
        -11    1    1    2    0    0  0.88865081834E+02  0.10881873141E+02 -0.21855063999E+03  0.23617747600E+03  0.00000000000E+00 0.  1.
         11    1    1    2    0    0 -0.87199181454E+02 -0.55601793404E+00 -0.26112965024E+03  0.27530474140E+03  0.00000000000E+00 0.  1.
        -15    1    1    2    0    0  0.93771218977E+01  0.99364835159E+01  0.73400306009E+01  0.15610826306E+02  0.17770000000E+01 0. -1.
         15    1    1    2    0    0 -0.11043022277E+02 -0.20262338722E+02  0.47234025963E+03  0.47290695629E+03  0.17770000000E+01 0.  1.
</event>
<event>
 6   1  0.1826851E-04  0.5010557E+03  0.7546771E-02  0.9397451E-01
        -11   -1    0    0    0    0  0.00000000000E+00  0.00000000000E+00  0.50000000000E+03  0.50000000000E+03  0.00000000000E+00 0. -1.
         11   -1    0    0    0    0 -0.00000000000E+00 -0.00000000000E+00 -0.50000000000E+03  0.50000000000E+03  0.00000000000E+00 0.  1.
        -11    1    1    2    0    0  0.66468080346E+01  0.21072788255E+01  0.49889559416E+03  0.49894432009E+03  0.00000000000E+00 0. -1.
         11    1    1    2    0    0  0.76692303726E+01 -0.38998650646E+01 -0.38561092842E+03  0.38570690188E+03  0.00000000000E+00 0.  1.
        -15    1    1    2    0    0 -0.84214167317E+01 -0.53105377106E+01 -0.83647420681E+02  0.84256577109E+02  0.17770000000E+01 0. -1.
         15    1    1    2    0    0 -0.58946216755E+01  0.71031239497E+01 -0.29637245060E+02  0.31092200924E+02  0.17770000000E+01 0.  1.
</event>
<event>
 6   1  0.1826851E-04  0.5030323E+03  0.7546771E-02  0.9393050E-01
        -11   -1    0    0    0    0  0.00000000000E+00  0.00000000000E+00  0.50000000000E+03  0.50000000000E+03  0.00000000000E+00 0. -1.
         11   -1    0    0    0    0 -0.00000000000E+00 -0.00000000000E+00 -0.50000000000E+03  0.50000000000E+03  0.00000000000E+00 0. -1.
        -11    1    1    2    0    0 -0.10528123842E+02  0.71545791233E+01  0.49680463013E+03  0.49696767492E+03  0.00000000000E+00 0. -1.
         11    1    1    2    0    0  0.99809237429E+01  0.38288458023E+01 -0.48690927579E+03  0.48702661298E+03  0.00000000000E+00 0. -1.
        -15    1    1    2    0    0  0.10244260595E+01 -0.10394009865E+02 -0.78037451378E+01  0.13158307528E+02  0.17770000000E+01 0.  1.
         15    1    1    2    0    0 -0.47722596026E+00 -0.58941506033E+00 -0.20916092001E+01  0.28474045684E+01  0.17770000000E+01 0. -1.
</event>
<event>
 6   1  0.1826851E-04  0.4619826E+03  0.7546771E-02  0.9489141E-01
        -11   -1    0    0    0    0  0.00000000000E+00  0.00000000000E+00  0.50000000000E+03  0.50000000000E+03  0.00000000000E+00 0. -1.
         11   -1    0    0    0    0 -0.00000000000E+00 -0.00000000000E+00 -0.50000000000E+03  0.50000000000E+03  0.00000000000E+00 0. -1.
        -11    1    1    2    0    0  0.25978986840E+02  0.42052510181E+02  0.45774624246E+03  0.46040736729E+03  0.00000000000E+00 0. -1.
         11    1    1    2    0    0 -0.39406571691E+01  0.12145572501E+02 -0.46526377280E+03  0.46543895624E+03  0.00000000000E+00 0. -1.
        -15    1    1    2    0    0 -0.16875012580E+01 -0.44271559659E+02  0.19541896563E+02  0.48454742857E+02  0.17770000000E+01 0.  1.
         15    1    1    2    0    0 -0.20350828412E+02 -0.99265230225E+01 -0.12024366226E+02  0.25698933607E+02  0.17770000000E+01 0. -1.
</event>
<event>
 6   1  0.1826851E-04  0.5018277E+03  0.7546771E-02  0.9395729E-01
        -11   -1    0    0    0    0  0.00000000000E+00  0.00000000000E+00  0.50000000000E+03  0.50000000000E+03  0.00000000000E+00 0.  1.
         11   -1    0    0    0    0 -0.00000000000E+00 -0.00000000000E+00 -0.50000000000E+03  0.50000000000E+03  0.00000000000E+00 0.  1.
        -11    1    1    2    0    0 -0.82739413524E+01 -0.16195234742E+02  0.42266299059E+03  0.42305407143E+03  0.00000000000E+00 0.  1.
         11    1    1    2    0    0  0.30414211196E+01  0.90949830064E+01 -0.49807996270E+03  0.49817227764E+03  0.00000000000E+00 0.  1.
        -15    1    1    2    0    0  0.28057832982E+01 -0.28668004710E+01  0.60061788843E+02  0.60221816419E+02  0.17770000000E+01 0.  1.
         15    1    1    2    0    0  0.24267369347E+01  0.99670522072E+01  0.15355183269E+02  0.18551834520E+02  0.17770000000E+01 0. -1.
</event>
<event>
 6   1  0.1826851E-04  0.5003946E+03  0.7546771E-02  0.9398927E-01
        -11   -1    0    0    0    0  0.00000000000E+00  0.00000000000E+00  0.50000000000E+03  0.50000000000E+03  0.00000000000E+00 0. -1.
         11   -1    0    0    0    0 -0.00000000000E+00 -0.00000000000E+00 -0.50000000000E+03  0.50000000000E+03  0.00000000000E+00 0.  1.
        -11    1    1    2    0    0  0.87959222125E+01 -0.12963145942E+01  0.10088567728E+03  0.10127669307E+03  0.00000000000E+00 0. -1.
         11    1    1    2    0    0  0.87708404368E+01  0.48020284276E+01 -0.49950533307E+03  0.49960540919E+03  0.00000000000E+00 0.  1.
        -15    1    1    2    0    0 -0.46933981785E+00  0.10317044990E+01  0.34264857157E+02  0.34329620724E+02  0.17770000000E+01 0. -1.
         15    1    1    2    0    0 -0.17097422831E+02 -0.45374183324E+01  0.36435479864E+03  0.36478827702E+03  0.17770000000E+01 0.  1.
</event>
<event>
 6   1  0.1826851E-04  0.5067904E+03  0.7546771E-02  0.9384743E-01
        -11   -1    0    0    0    0  0.00000000000E+00  0.00000000000E+00  0.50000000000E+03  0.50000000000E+03  0.00000000000E+00 0.  1.
         11   -1    0    0    0    0 -0.00000000000E+00 -0.00000000000E+00 -0.50000000000E+03  0.50000000000E+03  0.00000000000E+00 0. -1.
        -11    1    1    2    0    0 -0.30330814626E+02 -0.11032601002E+02  0.32539409377E+02  0.45831100394E+02  0.00000000000E+00 0.  1.
         11    1    1    2    0    0  0.40036942142E+02  0.33688324527E+01 -0.49157033722E+03  0.49320959257E+03  0.00000000000E+00 0. -1.
        -15    1    1    2    0    0  0.10197300660E+02  0.14082342083E+02  0.11846609962E+03  0.11974836862E+03  0.17770000000E+01 0. -1.
         15    1    1    2    0    0 -0.19903428176E+02 -0.64185735330E+01  0.34056482822E+03  0.34121093841E+03  0.17770000000E+01 0.  1.
</event>
<event>
 6   1  0.1826851E-04  0.5002713E+03  0.7546771E-02  0.9399203E-01
        -11   -1    0    0    0    0  0.00000000000E+00  0.00000000000E+00  0.50000000000E+03  0.50000000000E+03  0.00000000000E+00 0.  1.
         11   -1    0    0    0    0 -0.00000000000E+00 -0.00000000000E+00 -0.50000000000E+03  0.50000000000E+03  0.00000000000E+00 0. -1.
        -11    1    1    2    0    0  0.61702785821E+01  0.13948835989E+01  0.11325275869E+03  0.11342929688E+03  0.00000000000E+00 0.  1.
         11    1    1    2    0    0 -0.26029787586E+01  0.94034032950E+01 -0.49963341949E+03  0.49972867975E+03  0.00000000000E+00 0. -1.
        -15    1    1    2    0    0 -0.21441260118E+01 -0.89927422589E+01  0.37424351718E+03  0.37436190320E+03  0.17770000000E+01 0.  1.
         15    1    1    2    0    0 -0.14231738116E+01 -0.18055446350E+01  0.12137143622E+02  0.12480120168E+02  0.17770000000E+01 0. -1.
</event>
<event>
 6   1  0.1826851E-04  0.5035130E+03  0.7546771E-02  0.9391983E-01
        -11   -1    0    0    0    0  0.00000000000E+00  0.00000000000E+00  0.50000000000E+03  0.50000000000E+03  0.00000000000E+00 0. -1.
         11   -1    0    0    0    0 -0.00000000000E+00 -0.00000000000E+00 -0.50000000000E+03  0.50000000000E+03  0.00000000000E+00 0.  1.
        -11    1    1    2    0    0 -0.14149629745E+02  0.10707353769E+02  0.49616979242E+03  0.49648698106E+03  0.00000000000E+00 0. -1.
         11    1    1    2    0    0  0.11916457147E+02  0.11303912342E+01 -0.44369974787E+03  0.44386117875E+03  0.00000000000E+00 0.  1.
        -15    1    1    2    0    0 -0.73696203272E+01 -0.17141426508E+01 -0.31861990449E+01  0.83999513182E+01  0.17770000000E+01 0. -1.
         15    1    1    2    0    0  0.96027929247E+01 -0.10123602353E+02 -0.49283845507E+02  0.51251888877E+02  0.17770000000E+01 0.  1.
</event>
<event>
 6   1  0.1826851E-04  0.5005630E+03  0.7546771E-02  0.9398551E-01
        -11   -1    0    0    0    0  0.00000000000E+00  0.00000000000E+00  0.50000000000E+03  0.50000000000E+03  0.00000000000E+00 0.  1.
         11   -1    0    0    0    0 -0.00000000000E+00 -0.00000000000E+00 -0.50000000000E+03  0.50000000000E+03  0.00000000000E+00 0.  1.
        -11    1    1    2    0    0 -0.10001645229E+02 -0.31702792025E+01  0.43999501917E+03  0.44012009778E+03  0.00000000000E+00 0.  1.
         11    1    1    2    0    0  0.62667611672E+01 -0.66533258287E+01 -0.49935332011E+03  0.49943696033E+03  0.00000000000E+00 0.  1.
        -15    1    1    2    0    0  0.28175338995E+01  0.48556235479E+01  0.36015705221E+02  0.36493894405E+02  0.17770000000E+01 0.  1.
         15    1    1    2    0    0  0.91735016220E+00  0.49679814833E+01  0.23342595719E+02  0.23949047481E+02  0.17770000000E+01 0.  1.
</event>
<event>
 6   1  0.1826851E-04  0.5000993E+03  0.7546771E-02  0.9399588E-01
        -11   -1    0    0    0    0  0.00000000000E+00  0.00000000000E+00  0.50000000000E+03  0.50000000000E+03  0.00000000000E+00 0. -1.
         11   -1    0    0    0    0 -0.00000000000E+00 -0.00000000000E+00 -0.50000000000E+03  0.50000000000E+03  0.00000000000E+00 0. -1.
        -11    1    1    2    0    0 -0.11089700892E+02 -0.72413654468E+01  0.49972522926E+03  0.49990071374E+03  0.00000000000E+00 0. -1.
         11    1    1    2    0    0 -0.73073854710E+00 -0.13017888150E+01 -0.10748257597E+02  0.10851436509E+02  0.00000000000E+00 0. -1.
        -15    1    1    2    0    0  0.19605214647E+01  0.42364586996E+01 -0.10894035940E+03  0.10905480669E+03  0.17770000000E+01 0.  1.
         15    1    1    2    0    0  0.98599179749E+01  0.43066955622E+01 -0.38003661226E+03  0.38019304307E+03  0.17770000000E+01 0. -1.
</event>
<event>
 6   1  0.1826851E-04  0.5018495E+03  0.7546771E-02  0.9395681E-01
        -11   -1    0    0    0    0  0.00000000000E+00  0.00000000000E+00  0.50000000000E+03  0.50000000000E+03  0.00000000000E+00 0. -1.
         11   -1    0    0    0    0 -0.00000000000E+00 -0.00000000000E+00 -0.50000000000E+03  0.50000000000E+03  0.00000000000E+00 0. -1.
        -11    1    1    2    0    0  0.45914884248E+01  0.39292797575E+02  0.49657722000E+03  0.49815052055E+03  0.00000000000E+00 0. -1.
         11    1    1    2    0    0 -0.19733760623E+02 -0.21432230386E+02 -0.91542236388E+02  0.96066346087E+02  0.00000000000E+00 0. -1.
        -15    1    1    2    0    0  0.35605578262E+01 -0.91002607542E+01 -0.17870396417E+03  0.17897976662E+03  0.17770000000E+01 0.  1.
         15    1    1    2    0    0  0.11581714372E+02 -0.87603064353E+01 -0.22633101944E+03  0.22680336674E+03  0.17770000000E+01 0. -1.
</event>
<event>
 6   1  0.1826851E-04  0.5065887E+03  0.7546771E-02  0.9385187E-01
        -11   -1    0    0    0    0  0.00000000000E+00  0.00000000000E+00  0.50000000000E+03  0.50000000000E+03  0.00000000000E+00 0. -1.
         11   -1    0    0    0    0 -0.00000000000E+00 -0.00000000000E+00 -0.50000000000E+03  0.50000000000E+03  0.00000000000E+00 0.  1.
        -11    1    1    2    0    0  0.91752967988E+01 -0.22147474586E+02  0.49282862526E+03  0.49341134014E+03  0.00000000000E+00 0. -1.
         11    1    1    2    0    0 -0.70167013503E+01 -0.27644109679E+01 -0.44595373311E+03  0.44601749757E+03  0.00000000000E+00 0.  1.
        -15    1    1    2    0    0 -0.10515760925E+02  0.24548380800E+02 -0.44088905538E+02  0.51577064169E+02  0.17770000000E+01 0.  1.
         15    1    1    2    0    0  0.83571654767E+01  0.36350475361E+00 -0.27859866152E+01  0.89940981166E+01  0.17770000000E+01 0. -1.
</event>
<event>
 6   1  0.1826851E-04  0.4889142E+03  0.7546771E-02  0.9424962E-01
        -11   -1    0    0    0    0  0.00000000000E+00  0.00000000000E+00  0.50000000000E+03  0.50000000000E+03  0.00000000000E+00 0.  1.
         11   -1    0    0    0    0 -0.00000000000E+00 -0.00000000000E+00 -0.50000000000E+03  0.50000000000E+03  0.00000000000E+00 0. -1.
        -11    1    1    2    0    0 -0.74223217635E+00 -0.12791537914E+02  0.48669546345E+03  0.48686409654E+03  0.00000000000E+00 0.  1.
         11    1    1    2    0    0 -0.84273018756E+00 -0.78178988137E+01 -0.49112987783E+03  0.49119282022E+03  0.00000000000E+00 0. -1.
        -15    1    1    2    0    0  0.22037293307E+01  0.17996055346E+02  0.32108013771E+01  0.18498146001E+02  0.17770000000E+01 0.  1.
         15    1    1    2    0    0 -0.61876696680E+00  0.26133813817E+01  0.12236130051E+01  0.34449372406E+01  0.17770000000E+01 0. -1.
</event>
<event>
 6   1  0.1826851E-04  0.5030822E+03  0.7546771E-02  0.9392939E-01
        -11   -1    0    0    0    0  0.00000000000E+00  0.00000000000E+00  0.50000000000E+03  0.50000000000E+03  0.00000000000E+00 0.  1.
         11   -1    0    0    0    0 -0.00000000000E+00 -0.00000000000E+00 -0.50000000000E+03  0.50000000000E+03  0.00000000000E+00 0. -1.
        -11    1    1    2    0    0  0.62037700691E+01  0.28883278493E+01  0.49687068861E+03  0.49691781050E+03  0.00000000000E+00 0.  1.
         11    1    1    2    0    0 -0.22762354295E+01  0.77033821213E+01 -0.47219618541E+03  0.47226450307E+03  0.00000000000E+00 0. -1.
        -15    1    1    2    0    0  0.10861050784E+01 -0.12600839549E+02 -0.17421810255E+02  0.21601805089E+02  0.17770000000E+01 0.  1.
         15    1    1    2    0    0 -0.50136397180E+01  0.20091295780E+01 -0.72526929372E+01  0.92158813319E+01  0.17770000000E+01 0. -1.
</event>
<event>
 6   1  0.1826851E-04  0.5044368E+03  0.7546771E-02  0.9389936E-01
        -11   -1    0    0    0    0  0.00000000000E+00  0.00000000000E+00  0.50000000000E+03  0.50000000000E+03  0.00000000000E+00 0. -1.
         11   -1    0    0    0    0 -0.00000000000E+00 -0.00000000000E+00 -0.50000000000E+03  0.50000000000E+03  0.00000000000E+00 0. -1.
        -11    1    1    2    0    0 -0.98086223185E+01 -0.49790389652E+01  0.49544105641E+03  0.49556315468E+03  0.00000000000E+00 0. -1.
         11    1    1    2    0    0  0.35831673647E+01 -0.67781872874E+01 -0.48411331139E+03  0.48417401952E+03  0.00000000000E+00 0. -1.
        -15    1    1    2    0    0  0.66564239315E+01  0.38202514284E+01 -0.86250379348E+01  0.11681237473E+02  0.17770000000E+01 0. -1.
         15    1    1    2    0    0 -0.43096897769E+00  0.79369748243E+01 -0.27027070800E+01  0.85815883251E+01  0.17770000000E+01 0.  1.
</event>
<event>
 6   1  0.1826851E-04  0.5074572E+03  0.7546771E-02  0.9383276E-01
        -11   -1    0    0    0    0  0.00000000000E+00  0.00000000000E+00  0.50000000000E+03  0.50000000000E+03  0.00000000000E+00 0.  1.
         11   -1    0    0    0    0 -0.00000000000E+00 -0.00000000000E+00 -0.50000000000E+03  0.50000000000E+03  0.00000000000E+00 0.  1.
        -11    1    1    2    0    0 -0.11539883732E+02  0.16863042646E+02  0.49211872285E+03  0.49254275804E+03  0.00000000000E+00 0.  1.
         11    1    1    2    0    0 -0.11557125030E+02  0.10978436556E+01 -0.46152618507E+03  0.46167216930E+03  0.00000000000E+00 0.  1.
        -15    1    1    2    0    0  0.13636300423E+02 -0.16739947353E+02 -0.11883126670E+02  0.24709126959E+02  0.17770000000E+01 0.  1.
         15    1    1    2    0    0  0.94607083379E+01 -0.12209389479E+01 -0.18709411108E+02  0.21075945701E+02  0.17770000000E+01 0. -1.
</event>
<event>
 6   1  0.1826851E-04  0.5007500E+03  0.7546771E-02  0.9398133E-01
        -11   -1    0    0    0    0  0.00000000000E+00  0.00000000000E+00  0.50000000000E+03  0.50000000000E+03  0.00000000000E+00 0.  1.
         11   -1    0    0    0    0 -0.00000000000E+00 -0.00000000000E+00 -0.50000000000E+03  0.50000000000E+03  0.00000000000E+00 0. -1.
        -11    1    1    2    0    0  0.12953739957E+02 -0.20670455756E+00  0.26261122010E+03  0.26293058975E+03  0.00000000000E+00 0.  1.
         11    1    1    2    0    0  0.29477125859E+01 -0.10180692094E+02 -0.49913744485E+03  0.49924996180E+03  0.00000000000E+00 0. -1.
        -15    1    1    2    0    0 -0.13425589420E+02  0.25059914951E+00  0.10541749411E+03  0.10628412415E+03  0.17770000000E+01 0. -1.
         15    1    1    2    0    0 -0.24758631231E+01  0.10136797502E+02  0.13110873064E+03  0.13153532431E+03  0.17770000000E+01 0.  1.
</event>
<event>
 6   1  0.1826851E-04  0.5002292E+03  0.7546771E-02  0.9399297E-01
        -11   -1    0    0    0    0  0.00000000000E+00  0.00000000000E+00  0.50000000000E+03  0.50000000000E+03  0.00000000000E+00 0.  1.
         11   -1    0    0    0    0 -0.00000000000E+00 -0.00000000000E+00 -0.50000000000E+03  0.50000000000E+03  0.00000000000E+00 0.  1.
        -11    1    1    2    0    0  0.53573309967E+01 -0.25543701163E+01  0.45908330501E+02  0.46290394376E+02  0.00000000000E+00 0.  1.
         11    1    1    2    0    0  0.25175228579E+01  0.83575527286E+01 -0.49969455042E+03  0.49977077778E+03  0.00000000000E+00 0.  1.
        -15    1    1    2    0    0 -0.54457670339E+00 -0.15901977435E+00  0.13661507176E+03  0.13662780615E+03  0.17770000000E+01 0.  1.
         15    1    1    2    0    0 -0.73302771512E+01 -0.56441628379E+01  0.31717114816E+03  0.31731102169E+03  0.17770000000E+01 0.  1.
</event>
<event>
 6   1  0.1826851E-04  0.4729955E+03  0.7546771E-02  0.9462348E-01
        -11   -1    0    0    0    0  0.00000000000E+00  0.00000000000E+00  0.50000000000E+03  0.50000000000E+03  0.00000000000E+00 0.  1.
         11   -1    0    0    0    0 -0.00000000000E+00 -0.00000000000E+00 -0.50000000000E+03  0.50000000000E+03  0.00000000000E+00 0.  1.
        -11    1    1    2    0    0  0.69910734020E+01 -0.34294481288E+02  0.48270156019E+03  0.48396878284E+03  0.00000000000E+00 0.  1.
         11    1    1    2    0    0 -0.95578303385E+01 -0.12039037054E+02 -0.46310722622E+03  0.46336227027E+03  0.00000000000E+00 0.  1.
        -15    1    1    2    0    0  0.55824644595E+01  0.13389154427E+02 -0.93209753255E+00  0.14644449478E+02  0.17770000000E+01 0. -1.
         15    1    1    2    0    0 -0.30157075230E+01  0.32944363916E+02 -0.18662236441E+02  0.38024497415E+02  0.17770000000E+01 0.  1.
</event>
<event>
 6   1  0.1826851E-04  0.5006758E+03  0.7546771E-02  0.9398299E-01
        -11   -1    0    0    0    0  0.00000000000E+00  0.00000000000E+00  0.50000000000E+03  0.50000000000E+03  0.00000000000E+00 0. -1.
         11   -1    0    0    0    0 -0.00000000000E+00 -0.00000000000E+00 -0.50000000000E+03  0.50000000000E+03  0.00000000000E+00 0. -1.
        -11    1    1    2    0    0 -0.58887758009E+01 -0.91440098434E+01  0.34408943535E+03  0.34426128176E+03  0.00000000000E+00 0. -1.
         11    1    1    2    0    0 -0.58303601094E+01  0.35199872991E+01 -0.49927770846E+03  0.49932415682E+03  0.00000000000E+00 0. -1.
        -15    1    1    2    0    0  0.90971357123E+01  0.29699612030E+01  0.14617994432E+03  0.14650362589E+03  0.17770000000E+01 0. -1.
         15    1    1    2    0    0  0.26220001979E+01  0.26540613412E+01  0.90083287909E+01  0.99109355384E+01  0.17770000000E+01 0.  1.
</event>
<event>
 6   1  0.1826851E-04  0.5140567E+03  0.7546771E-02  0.9368895E-01
        -11   -1    0    0    0    0  0.00000000000E+00  0.00000000000E+00  0.50000000000E+03  0.50000000000E+03  0.00000000000E+00 0.  1.
         11   -1    0    0    0    0 -0.00000000000E+00 -0.00000000000E+00 -0.50000000000E+03  0.50000000000E+03  0.00000000000E+00 0. -1.
        -11    1    1    2    0    0 -0.46828880241E+02 -0.24574700173E+02  0.34926597537E+03  0.35324719598E+03  0.00000000000E+00 0.  1.
         11    1    1    2    0    0  0.56908532122E+02 -0.51071093273E+02 -0.47988960579E+03  0.48594327996E+03  0.00000000000E+00 0. -1.
        -15    1    1    2    0    0  0.18624870690E+02  0.82092708237E+01  0.26360874129E+02  0.33351631887E+02  0.17770000000E+01 0. -1.
         15    1    1    2    0    0 -0.28704522571E+02  0.67436522622E+02  0.10426275629E+03  0.12745789217E+03  0.17770000000E+01 0.  1.
</event>
<event>
 6   1  0.1826851E-04  0.5031530E+03  0.7546771E-02  0.9392782E-01
        -11   -1    0    0    0    0  0.00000000000E+00  0.00000000000E+00  0.50000000000E+03  0.50000000000E+03  0.00000000000E+00 0.  1.
         11   -1    0    0    0    0 -0.00000000000E+00 -0.00000000000E+00 -0.50000000000E+03  0.50000000000E+03  0.00000000000E+00 0. -1.
        -11    1    1    2    0    0 -0.64852542933E+01 -0.61685562477E+01  0.49676632651E+03  0.49684695104E+03  0.00000000000E+00 0.  1.
         11    1    1    2    0    0  0.76565137697E+01  0.39540971743E+01 -0.49124739361E+03  0.49132296793E+03  0.00000000000E+00 0. -1.
        -15    1    1    2    0    0 -0.24470107548E+01 -0.22250592680E+01 -0.57593200975E+01  0.68750452628E+01  0.17770000000E+01 0. -1.
         15    1    1    2    0    0  0.12757512784E+01  0.44395183414E+01  0.24038719808E+00  0.49550357651E+01  0.17770000000E+01 0.  1.
</event>
<event>
 6   1  0.1826851E-04  0.5002089E+03  0.7546771E-02  0.9399343E-01
        -11   -1    0    0    0    0  0.00000000000E+00  0.00000000000E+00  0.50000000000E+03  0.50000000000E+03  0.00000000000E+00 0.  1.
         11   -1    0    0    0    0 -0.00000000000E+00 -0.00000000000E+00 -0.50000000000E+03  0.50000000000E+03  0.00000000000E+00 0.  1.
        -11    1    1    2    0    0  0.54126805070E+01 -0.27014794769E+01  0.38877939083E+03  0.38882645208E+03  0.00000000000E+00 0.  1.
         11    1    1    2    0    0  0.10911497202E+01  0.68673759424E+01 -0.49974277408E+03  0.49979114809E+03  0.00000000000E+00 0.  1.
        -15    1    1    2    0    0 -0.24728388575E+01 -0.25725995140E+01  0.76278774264E+02  0.76382866747E+02  0.17770000000E+01 0. -1.
         15    1    1    2    0    0 -0.40309913696E+01 -0.15932969515E+01  0.34684608984E+02  0.34999533082E+02  0.17770000000E+01 0.  1.
</event>
<event>
 6   1  0.1826851E-04  0.5001136E+03  0.7546771E-02  0.9399555E-01
        -11   -1    0    0    0    0  0.00000000000E+00  0.00000000000E+00  0.50000000000E+03  0.50000000000E+03  0.00000000000E+00 0. -1.
         11   -1    0    0    0    0 -0.00000000000E+00 -0.00000000000E+00 -0.50000000000E+03  0.50000000000E+03  0.00000000000E+00 0.  1.
        -11    1    1    2    0    0 -0.69518620291E+01  0.17148021053E+02  0.34182040671E+03  0.34232086331E+03  0.00000000000E+00 0. -1.
         11    1    1    2    0    0  0.82011604845E+01 -0.16939906891E+02 -0.49953193729E+03  0.49988636294E+03  0.00000000000E+00 0.  1.
        -15    1    1    2    0    0 -0.21801225473E+01  0.39950888289E+00  0.10746931870E+03  0.10750685900E+03  0.17770000000E+01 0. -1.
         15    1    1    2    0    0  0.93082409186E+00 -0.60762304503E+00  0.50242211877E+02  0.50285914753E+02  0.17770000000E+01 0.  1.
</event>
<event>
 6   1  0.1826851E-04  0.5004890E+03  0.7546771E-02  0.9398716E-01
        -11   -1    0    0    0    0  0.00000000000E+00  0.00000000000E+00  0.50000000000E+03  0.50000000000E+03  0.00000000000E+00 0.  1.
         11   -1    0    0    0    0 -0.00000000000E+00 -0.00000000000E+00 -0.50000000000E+03  0.50000000000E+03  0.00000000000E+00 0. -1.
        -11    1    1    2    0    0  0.11501765498E+02 -0.11605656097E+02  0.49924371379E+03  0.49951102853E+03  0.00000000000E+00 0.  1.
         11    1    1    2    0    0 -0.10103010822E+02 -0.76396199584E+01 -0.29203643652E+03  0.29231099000E+03  0.00000000000E+00 0. -1.
        -15    1    1    2    0    0 -0.12318178415E+00  0.14345561702E+02 -0.16474890864E+03  0.16538189424E+03  0.17770000000E+01 0.  1.
         15    1    1    2    0    0 -0.12755728920E+01  0.48997143531E+01 -0.42458368624E+02  0.42796087229E+02  0.17770000000E+01 0.  1.
</event>
<event>
 6   1  0.1826851E-04  0.5014070E+03  0.7546771E-02  0.9396667E-01
        -11   -1    0    0    0    0  0.00000000000E+00  0.00000000000E+00  0.50000000000E+03  0.50000000000E+03  0.00000000000E+00 0. -1.
         11   -1    0    0    0    0 -0.00000000000E+00 -0.00000000000E+00 -0.50000000000E+03  0.50000000000E+03  0.00000000000E+00 0.  1.
        -11    1    1    2    0    0  0.26115514354E+02  0.27535154867E+02  0.49714667576E+03  0.49859304253E+03  0.00000000000E+00 0. -1.
         11    1    1    2    0    0 -0.56221402949E+01 -0.32324467450E+02 -0.17934355972E+03  0.18232002652E+03  0.00000000000E+00 0.  1.
        -15    1    1    2    0    0 -0.17899945012E+02  0.48858400177E+01 -0.13764305259E+03  0.13889941368E+03  0.17770000000E+01 0.  1.
         15    1    1    2    0    0 -0.25934290475E+01 -0.96527433776E-01 -0.18016006345E+03  0.18018751727E+03  0.17770000000E+01 0. -1.
</event>
<event>
 6   1  0.1826851E-04  0.5042867E+03  0.7546771E-02  0.9390269E-01
        -11   -1    0    0    0    0  0.00000000000E+00  0.00000000000E+00  0.50000000000E+03  0.50000000000E+03  0.00000000000E+00 0. -1.
         11   -1    0    0    0    0 -0.00000000000E+00 -0.00000000000E+00 -0.50000000000E+03  0.50000000000E+03  0.00000000000E+00 0.  1.
        -11    1    1    2    0    0  0.21462080321E+02  0.31818183741E+01  0.25936431181E+02  0.33814838788E+02  0.00000000000E+00 0. -1.
         11    1    1    2    0    0 -0.56994691616E+01 -0.14516136130E+02 -0.49546789125E+03  0.49571325725E+03  0.00000000000E+00 0.  1.
        -15    1    1    2    0    0 -0.90425818362E+01  0.16075150512E+02  0.40068683745E+03  0.40111504358E+03  0.17770000000E+01 0. -1.
         15    1    1    2    0    0 -0.67200293232E+01 -0.47408327559E+01  0.68844622618E+02  0.69356860379E+02  0.17770000000E+01 0.  1.
</event>
<event>
 6   1  0.1826851E-04  0.5035494E+03  0.7546771E-02  0.9391902E-01
        -11   -1    0    0    0    0  0.00000000000E+00  0.00000000000E+00  0.50000000000E+03  0.50000000000E+03  0.00000000000E+00 0.  1.
         11   -1    0    0    0    0 -0.00000000000E+00 -0.00000000000E+00 -0.50000000000E+03  0.50000000000E+03  0.00000000000E+00 0. -1.
        -11    1    1    2    0    0  0.14426779936E+02 -0.72919601182E+00  0.44644455864E+03  0.44667819249E+03  0.00000000000E+00 0.  1.
         11    1    1    2    0    0  0.58177555154E+01  0.85884128639E+01 -0.49634218845E+03  0.49645057675E+03  0.00000000000E+00 0. -1.
        -15    1    1    2    0    0 -0.46012935037E+01 -0.66632827115E+01  0.31758849281E+02  0.32823063157E+02  0.17770000000E+01 0.  1.
         15    1    1    2    0    0 -0.15643241948E+02 -0.11959341406E+01  0.18138780531E+02  0.24048167607E+02  0.17770000000E+01 0. -1.
</event>
<event>
 6   1  0.1826851E-04  0.5003786E+03  0.7546771E-02  0.9398963E-01
        -11   -1    0    0    0    0  0.00000000000E+00  0.00000000000E+00  0.50000000000E+03  0.50000000000E+03  0.00000000000E+00 0.  1.
         11   -1    0    0    0    0 -0.00000000000E+00 -0.00000000000E+00 -0.50000000000E+03  0.50000000000E+03  0.00000000000E+00 0. -1.
        -11    1    1    2    0    0  0.27266814540E+01  0.87298000779E+01  0.32154270165E+03  0.32167274237E+03  0.00000000000E+00 0.  1.
         11    1    1    2    0    0  0.70388856882E+01 -0.19775026386E+01 -0.49956788987E+03  0.49962138967E+03  0.00000000000E+00 0. -1.
        -15    1    1    2    0    0 -0.30787240728E+01 -0.77538361048E+01  0.10567783128E+03  0.10602151795E+03  0.17770000000E+01 0.  1.
         15    1    1    2    0    0 -0.66868430694E+01  0.10015386655E+01  0.72347356941E+02  0.72684350003E+02  0.17770000000E+01 0. -1.
</event>
<event>
 6   1  0.1826851E-04  0.5035861E+03  0.7546771E-02  0.9391821E-01
        -11   -1    0    0    0    0  0.00000000000E+00  0.00000000000E+00  0.50000000000E+03  0.50000000000E+03  0.00000000000E+00 0. -1.
         11   -1    0    0    0    0 -0.00000000000E+00 -0.00000000000E+00 -0.50000000000E+03  0.50000000000E+03  0.00000000000E+00 0.  1.
        -11    1    1    2    0    0 -0.12890989408E+02 -0.84270127888E+01  0.43638130987E+03  0.43665299697E+03  0.00000000000E+00 0. -1.
         11    1    1    2    0    0 -0.79319724022E+01  0.70925146289E+00 -0.49634997478E+03  0.49641385627E+03  0.00000000000E+00 0.  1.
        -15    1    1    2    0    0  0.19071566034E+01 -0.29802190935E+01  0.10307304625E+01  0.40913428653E+01  0.17770000000E+01 0. -1.
         15    1    1    2    0    0  0.18915805207E+02  0.10697980419E+02  0.58937934449E+02  0.62841803903E+02  0.17770000000E+01 0.  1.
</event>
<event>
 6   1  0.1826851E-04  0.5010390E+03  0.7546771E-02  0.9397488E-01
        -11   -1    0    0    0    0  0.00000000000E+00  0.00000000000E+00  0.50000000000E+03  0.50000000000E+03  0.00000000000E+00 0.  1.
         11   -1    0    0    0    0 -0.00000000000E+00 -0.00000000000E+00 -0.50000000000E+03  0.50000000000E+03  0.00000000000E+00 0. -1.
        -11    1    1    2    0    0  0.88742308524E+01 -0.77304172380E+00  0.49888151701E+03  0.49896103814E+03  0.00000000000E+00 0.  1.
         11    1    1    2    0    0 -0.40506924367E+01 -0.49837769893E+01 -0.47585439592E+03  0.47589773298E+03  0.00000000000E+00 0. -1.
        -15    1    1    2    0    0 -0.93614959205E+00  0.29991818132E+01 -0.16369807677E+02  0.16763048649E+02  0.17770000000E+01 0. -1.
         15    1    1    2    0    0 -0.38873888237E+01  0.27576368999E+01 -0.66573134152E+01  0.83781802348E+01  0.17770000000E+01 0.  1.
</event>
<event>
 6   1  0.1826851E-04  0.5020992E+03  0.7546771E-02  0.9395125E-01
        -11   -1    0    0    0    0  0.00000000000E+00  0.00000000000E+00  0.50000000000E+03  0.50000000000E+03  0.00000000000E+00 0.  1.
         11   -1    0    0    0    0 -0.00000000000E+00 -0.00000000000E+00 -0.50000000000E+03  0.50000000000E+03  0.00000000000E+00 0.  1.
        -11    1    1    2    0    0  0.14429496985E+01 -0.25746029727E+02  0.49723264107E+03  0.49790083299E+03  0.00000000000E+00 0.  1.
         11    1    1    2    0    0 -0.28330232245E+01 -0.44243979516E+01 -0.38819824749E+03  0.38823379640E+03  0.00000000000E+00 0.  1.
        -15    1    1    2    0    0 -0.14049589274E+01  0.34996458614E+01 -0.32146834295E+02  0.32416016333E+02  0.17770000000E+01 0. -1.
         15    1    1    2    0    0  0.27950324534E+01  0.26670781817E+02 -0.76887559286E+02  0.81449354271E+02  0.17770000000E+01 0.  1.
</event>
<event>
 6   1  0.1826851E-04  0.5023358E+03  0.7546771E-02  0.9394598E-01
        -11   -1    0    0    0    0  0.00000000000E+00  0.00000000000E+00  0.50000000000E+03  0.50000000000E+03  0.00000000000E+00 0.  1.
         11   -1    0    0    0    0 -0.00000000000E+00 -0.00000000000E+00 -0.50000000000E+03  0.50000000000E+03  0.00000000000E+00 0. -1.
        -11    1    1    2    0    0  0.36869016008E+02  0.10699422481E+01  0.15563062522E+03  0.15994174134E+03  0.00000000000E+00 0.  1.
         11    1    1    2    0    0 -0.36202342586E+02 -0.33757496679E+02 -0.49519644103E+03  0.49766423761E+03  0.00000000000E+00 0. -1.
        -15    1    1    2    0    0  0.10839675647E+02  0.10979517014E+02  0.20534623812E+03  0.20593271620E+03  0.17770000000E+01 0. -1.
         15    1    1    2    0    0 -0.11506349068E+02  0.21708037417E+02  0.13421957769E+03  0.13646130485E+03  0.17770000000E+01 0.  1.
</event>
<event>
 6   1  0.1826851E-04  0.5002449E+03  0.7546771E-02  0.9399262E-01
        -11   -1    0    0    0    0  0.00000000000E+00  0.00000000000E+00  0.50000000000E+03  0.50000000000E+03  0.00000000000E+00 0.  1.
         11   -1    0    0    0    0 -0.00000000000E+00 -0.00000000000E+00 -0.50000000000E+03  0.50000000000E+03  0.00000000000E+00 0. -1.
        -11    1    1    2    0    0 -0.17792528414E+02  0.26340440531E+02  0.49874323035E+03  0.49975514274E+03  0.00000000000E+00 0.  1.
         11    1    1    2    0    0  0.12900143562E+02 -0.21750425393E+02 -0.23415344105E+03  0.23551502853E+03  0.00000000000E+00 0. -1.
        -15    1    1    2    0    0  0.26332877973E+01 -0.46326040602E+01 -0.15317104684E+03  0.15327401132E+03  0.17770000000E+01 0. -1.
         15    1    1    2    0    0  0.22590970545E+01  0.42588921462E-01 -0.11141874247E+03  0.11145581741E+03  0.17770000000E+01 0.  1.
</event>
<event>
 6   1  0.1826851E-04  0.5010659E+03  0.7546771E-02  0.9397428E-01
        -11   -1    0    0    0    0  0.00000000000E+00  0.00000000000E+00  0.50000000000E+03  0.50000000000E+03  0.00000000000E+00 0. -1.
         11   -1    0    0    0    0 -0.00000000000E+00 -0.00000000000E+00 -0.50000000000E+03  0.50000000000E+03  0.00000000000E+00 0.  1.
        -11    1    1    2    0    0  0.12472914040E+02 -0.94391070693E+01  0.55162530895E+02  0.57337379969E+02  0.00000000000E+00 0. -1.
         11    1    1    2    0    0 -0.96046114899E+01  0.15022884744E+02 -0.49861537528E+03  0.49893409193E+03  0.00000000000E+00 0.  1.
        -15    1    1    2    0    0  0.38979836945E+01  0.78018462974E+00  0.59454583619E+02  0.59613825639E+02  0.17770000000E+01 0.  1.
         15    1    1    2    0    0 -0.67662862450E+01 -0.63639623048E+01  0.38399826077E+03  0.38411470246E+03  0.17770000000E+01 0. -1.
</event>
<event>
 6   1  0.1826851E-04  0.5002393E+03  0.7546771E-02  0.9399274E-01
        -11   -1    0    0    0    0  0.00000000000E+00  0.00000000000E+00  0.50000000000E+03  0.50000000000E+03  0.00000000000E+00 0. -1.
         11   -1    0    0    0    0 -0.00000000000E+00 -0.00000000000E+00 -0.50000000000E+03  0.50000000000E+03  0.00000000000E+00 0.  1.
        -11    1    1    2    0    0 -0.22875272431E+02 -0.83864616838E+01  0.49916648198E+03  0.49976073031E+03  0.00000000000E+00 0. -1.
         11    1    1    2    0    0  0.30020419333E+01  0.16730614892E+01 -0.15820397105E+03  0.15824129627E+03  0.00000000000E+00 0.  1.
        -15    1    1    2    0    0  0.21806709865E+02  0.40223191492E+01 -0.26068329046E+03  0.26163074609E+03  0.17770000000E+01 0. -1.
         15    1    1    2    0    0 -0.19334793671E+01  0.26910810454E+01 -0.80279220469E+02  0.80367227324E+02  0.17770000000E+01 0. -1.
</event>
<event>
 6   1  0.1826851E-04  0.5022640E+03  0.7546771E-02  0.9394758E-01
        -11   -1    0    0    0    0  0.00000000000E+00  0.00000000000E+00  0.50000000000E+03  0.50000000000E+03  0.00000000000E+00 0. -1.
         11   -1    0    0    0    0 -0.00000000000E+00 -0.00000000000E+00 -0.50000000000E+03  0.50000000000E+03  0.00000000000E+00 0. -1.
        -11    1    1    2    0    0  0.22949691199E+02  0.35366641895E+00  0.37960917788E+03  0.38030243404E+03  0.00000000000E+00 0. -1.
         11    1    1    2    0    0  0.13221346273E+01  0.87946549339E+01 -0.49765651445E+03  0.49773597456E+03  0.00000000000E+00 0. -1.
        -15    1    1    2    0    0 -0.17836911051E+02 -0.70709639478E+01  0.50468281937E+02  0.54021839452E+02  0.17770000000E+01 0.  1.
         15    1    1    2    0    0 -0.64349147744E+01 -0.20773574051E+01  0.67579054625E+02  0.67939751949E+02  0.17770000000E+01 0. -1.
</event>
<event>
 6   1  0.1826851E-04  0.5027597E+03  0.7546771E-02  0.9393656E-01
        -11   -1    0    0    0    0  0.00000000000E+00  0.00000000000E+00  0.50000000000E+03  0.50000000000E+03  0.00000000000E+00 0. -1.
         11   -1    0    0    0    0 -0.00000000000E+00 -0.00000000000E+00 -0.50000000000E+03  0.50000000000E+03  0.00000000000E+00 0. -1.
        -11    1    1    2    0    0 -0.29326918583E+02 -0.14886169079E+02  0.19297731571E+03  0.19575982878E+03  0.00000000000E+00 0. -1.
         11    1    1    2    0    0 -0.87310726490E+01  0.40581101124E+01 -0.49714710272E+03  0.49724032583E+03  0.00000000000E+00 0. -1.
        -15    1    1    2    0    0  0.68203825759E+01  0.33412598024E+01  0.10078156516E+03  0.10108295227E+03  0.17770000000E+01 0.  1.
         15    1    1    2    0    0  0.31237608656E+02  0.74867991644E+01  0.20338822185E+03  0.20591689312E+03  0.17770000000E+01 0. -1.
</event>
<event>
 6   1  0.1826851E-04  0.5000949E+03  0.7546771E-02  0.9399598E-01
        -11   -1    0    0    0    0  0.00000000000E+00  0.00000000000E+00  0.50000000000E+03  0.50000000000E+03  0.00000000000E+00 0. -1.
         11   -1    0    0    0    0 -0.00000000000E+00 -0.00000000000E+00 -0.50000000000E+03  0.50000000000E+03  0.00000000000E+00 0.  1.
        -11    1    1    2    0    0  0.43437906971E+01  0.93578428533E+01  0.49979868005E+03  0.49990514933E+03  0.00000000000E+00 0. -1.
         11    1    1    2    0    0 -0.10951123474E+01 -0.84853599337E+01 -0.24869970388E+03  0.24884682702E+03  0.00000000000E+00 0.  1.
        -15    1    1    2    0    0 -0.41894082041E+01  0.10979583192E+01 -0.21027168800E+03  0.21032379123E+03  0.17770000000E+01 0. -1.
         15    1    1    2    0    0  0.94072985438E+00 -0.19704412388E+01 -0.40827288166E+02  0.40924232422E+02  0.17770000000E+01 0. -1.
</event>
<event>
 6   1  0.1826851E-04  0.5008934E+03  0.7546771E-02  0.9397813E-01
        -11   -1    0    0    0    0  0.00000000000E+00  0.00000000000E+00  0.50000000000E+03  0.50000000000E+03  0.00000000000E+00 0. -1.
         11   -1    0    0    0    0 -0.00000000000E+00 -0.00000000000E+00 -0.50000000000E+03  0.50000000000E+03  0.00000000000E+00 0.  1.
        -11    1    1    2    0    0  0.56982268485E+01 -0.41908689839E+01  0.49905645698E+03  0.49910658223E+03  0.00000000000E+00 0. -1.
         11    1    1    2    0    0 -0.49392914975E+01 -0.40540881386E+01 -0.46626748415E+03  0.46631126837E+03  0.00000000000E+00 0.  1.
        -15    1    1    2    0    0 -0.31279349486E+01  0.60825194128E+01 -0.24886291767E+02  0.25870181027E+02  0.17770000000E+01 0. -1.
         15    1    1    2    0    0  0.23689995976E+01  0.21624377097E+01 -0.79026810612E+01  0.87119683710E+01  0.17770000000E+01 0.  1.
</event>
<event>
 6   1  0.1826851E-04  0.4909269E+03  0.7546771E-02  0.9420343E-01
        -11   -1    0    0    0    0  0.00000000000E+00  0.00000000000E+00  0.50000000000E+03  0.50000000000E+03  0.00000000000E+00 0.  1.
         11   -1    0    0    0    0 -0.00000000000E+00 -0.00000000000E+00 -0.50000000000E+03  0.50000000000E+03  0.00000000000E+00 0.  1.
        -11    1    1    2    0    0 -0.14634473951E+00  0.96680831098E+01  0.48802022526E+03  0.48811600415E+03  0.00000000000E+00 0.  1.
         11    1    1    2    0    0 -0.24902246764E+01  0.61755787680E+01 -0.49384156625E+03  0.49388645613E+03  0.00000000000E+00 0.  1.
        -15    1    1    2    0    0  0.22622000142E+01 -0.43711110619E+01  0.30476058863E+01  0.60555587239E+01  0.17770000000E+01 0. -1.
         15    1    1    2    0    0  0.37436940168E+00 -0.11472550816E+02  0.27737351079E+01  0.11941980997E+02  0.17770000000E+01 0.  1.
</event>
<event>
 6   1  0.1826851E-04  0.5001402E+03  0.7546771E-02  0.9399496E-01
        -11   -1    0    0    0    0  0.00000000000E+00  0.00000000000E+00  0.50000000000E+03  0.50000000000E+03  0.00000000000E+00 0.  1.
         11   -1    0    0    0    0 -0.00000000000E+00 -0.00000000000E+00 -0.50000000000E+03  0.50000000000E+03  0.00000000000E+00 0.  1.
        -11    1    1    2    0    0  0.48149900689E+01 -0.17525368079E+01  0.46914999273E+02  0.47193989780E+02  0.00000000000E+00 0.  1.
         11    1    1    2    0    0 -0.67221954807E+01 -0.20380306741E+01 -0.49981042251E+03  0.49985978027E+03  0.00000000000E+00 0.  1.
        -15    1    1    2    0    0 -0.70769680132E+00  0.29428978459E+01  0.23806700084E+03  0.23809287285E+03  0.17770000000E+01 0.  1.
         15    1    1    2    0    0  0.26149022132E+01  0.84766963616E+00  0.21482842240E+03  0.21485335710E+03  0.17770000000E+01 0. -1.
</event>
<event>
 6   1  0.1826851E-04  0.5001832E+03  0.7546771E-02  0.9399400E-01
        -11   -1    0    0    0    0  0.00000000000E+00  0.00000000000E+00  0.50000000000E+03  0.50000000000E+03  0.00000000000E+00 0. -1.
         11   -1    0    0    0    0 -0.00000000000E+00 -0.00000000000E+00 -0.50000000000E+03  0.50000000000E+03  0.00000000000E+00 0. -1.
        -11    1    1    2    0    0 -0.43672536193E+00  0.25824180377E+01  0.15205528306E+02  0.15429442732E+02  0.00000000000E+00 0. -1.
         11    1    1    2    0    0 -0.26633131526E+01  0.94844760438E+01 -0.49971967326E+03  0.49981676680E+03  0.00000000000E+00 0. -1.
        -15    1    1    2    0    0  0.13090812082E+01 -0.27512185498E+01  0.46595084155E+02  0.46728390658E+02  0.17770000000E+01 0. -1.
         15    1    1    2    0    0  0.17909573064E+01 -0.93156755317E+01  0.43791906080E+03  0.43802539981E+03  0.17770000000E+01 0. -1.
</event>
<event>
 6   1  0.1826851E-04  0.5148440E+03  0.7546771E-02  0.9367194E-01
        -11   -1    0    0    0    0  0.00000000000E+00  0.00000000000E+00  0.50000000000E+03  0.50000000000E+03  0.00000000000E+00 0. -1.
         11   -1    0    0    0    0 -0.00000000000E+00 -0.00000000000E+00 -0.50000000000E+03  0.50000000000E+03  0.00000000000E+00 0.  1.
        -11    1    1    2    0    0  0.73936173955E+02 -0.41131160645E+02  0.47772168150E+03  0.48515599055E+03  0.00000000000E+00 0. -1.
         11    1    1    2    0    0 -0.48659998098E+01 -0.32590573188E+01 -0.36857913861E+03  0.36862566491E+03  0.00000000000E+00 0.  1.
        -15    1    1    2    0    0 -0.21009881784E+02  0.98016936283E+01 -0.73483423599E+02  0.77074377088E+02  0.17770000000E+01 0. -1.
         15    1    1    2    0    0 -0.48060292361E+02  0.34588524335E+02 -0.35659119285E+02  0.69143967450E+02  0.17770000000E+01 0.  1.
</event>
<event>
 6   1  0.1826851E-04  0.5069228E+03  0.7546771E-02  0.9384451E-01
        -11   -1    0    0    0    0  0.00000000000E+00  0.00000000000E+00  0.50000000000E+03  0.50000000000E+03  0.00000000000E+00 0. -1.
         11   -1    0    0    0    0 -0.00000000000E+00 -0.00000000000E+00 -0.50000000000E+03  0.50000000000E+03  0.00000000000E+00 0. -1.
        -11    1    1    2    0    0  0.18284463373E+02  0.95477631205E+02  0.48339922167E+03  0.49307718176E+03  0.00000000000E+00 0. -1.
         11    1    1    2    0    0  0.16747694726E+01 -0.42967830220E+01 -0.28995186361E+03  0.28998853496E+03  0.00000000000E+00 0. -1.
        -15    1    1    2    0    0 -0.25760598450E+01 -0.10994465624E+01 -0.24076000768E+02  0.24303423814E+02  0.17770000000E+01 0.  1.
         15    1    1    2    0    0 -0.17383173000E+02 -0.90081401620E+02 -0.16937135729E+03  0.19263085947E+03  0.17770000000E+01 0. -1.
</event>
<event>
 6   1  0.1826851E-04  0.5005458E+03  0.7546771E-02  0.9398589E-01
        -11   -1    0    0    0    0  0.00000000000E+00  0.00000000000E+00  0.50000000000E+03  0.50000000000E+03  0.00000000000E+00 0.  1.
         11   -1    0    0    0    0 -0.00000000000E+00 -0.00000000000E+00 -0.50000000000E+03  0.50000000000E+03  0.00000000000E+00 0. -1.
        -11    1    1    2    0    0  0.96165081233E+01 -0.19684330039E+02  0.49897348942E+03  0.49945419532E+03  0.00000000000E+00 0.  1.
         11    1    1    2    0    0  0.65959729811E+01 -0.49366728366E+00 -0.20087812935E+03  0.20098699814E+03  0.00000000000E+00 0. -1.
        -15    1    1    2    0    0 -0.11335910075E+02  0.48604395170E+01 -0.93771847059E+02  0.94596214297E+02  0.17770000000E+01 0.  1.
         15    1    1    2    0    0 -0.48765710296E+01  0.15317557806E+02 -0.20432351301E+03  0.20496259224E+03  0.17770000000E+01 0. -1.
</event>
<event>
 6   1  0.1826851E-04  0.5006726E+03  0.7546771E-02  0.9398306E-01
        -11   -1    0    0    0    0  0.00000000000E+00  0.00000000000E+00  0.50000000000E+03  0.50000000000E+03  0.00000000000E+00 0. -1.
         11   -1    0    0    0    0 -0.00000000000E+00 -0.00000000000E+00 -0.50000000000E+03  0.50000000000E+03  0.00000000000E+00 0. -1.
        -11    1    1    2    0    0 -0.12089850000E+01  0.82946437041E+01  0.43941069494E+03  0.43949063879E+03  0.00000000000E+00 0. -1.
         11    1    1    2    0    0  0.70824101630E+01 -0.91172956803E+00 -0.49927636000E+03  0.49932742308E+03  0.00000000000E+00 0. -1.
        -15    1    1    2    0    0  0.11097712161E+01 -0.41166205678E+01  0.25743585114E+02  0.26154694809E+02  0.17770000000E+01 0.  1.
         15    1    1    2    0    0 -0.69831963792E+01 -0.32662935683E+01  0.34122079953E+02  0.35027243321E+02  0.17770000000E+01 0. -1.
</event>
<event>
 6   1  0.1826851E-04  0.5027962E+03  0.7546771E-02  0.9393575E-01
        -11   -1    0    0    0    0  0.00000000000E+00  0.00000000000E+00  0.50000000000E+03  0.50000000000E+03  0.00000000000E+00 0.  1.
         11   -1    0    0    0    0 -0.00000000000E+00 -0.00000000000E+00 -0.50000000000E+03  0.50000000000E+03  0.00000000000E+00 0. -1.
        -11    1    1    2    0    0  0.11477600429E+02  0.13097101399E+02  0.47204263291E+03  0.47236375461E+03  0.00000000000E+00 0.  1.
         11    1    1    2    0    0 -0.78433302627E+01 -0.61205386901E+01 -0.49710421580E+03  0.49720376124E+03  0.00000000000E+00 0. -1.
        -15    1    1    2    0    0  0.35917661725E+01  0.25073464467E+01  0.41267549256E+01  0.62749825225E+01  0.17770000000E+01 0. -1.
         15    1    1    2    0    0 -0.72260363392E+01 -0.94839091556E+01  0.20934827964E+02  0.24157501628E+02  0.17770000000E+01 0.  1.
</event>
<event>
 6   1  0.1826851E-04  0.5087804E+03  0.7546771E-02  0.9380374E-01
        -11   -1    0    0    0    0  0.00000000000E+00  0.00000000000E+00  0.50000000000E+03  0.50000000000E+03  0.00000000000E+00 0.  1.
         11   -1    0    0    0    0 -0.00000000000E+00 -0.00000000000E+00 -0.50000000000E+03  0.50000000000E+03  0.00000000000E+00 0.  1.
        -11    1    1    2    0    0 -0.10407695304E+02  0.28419065219E+02  0.49028640011E+03  0.49121962249E+03  0.00000000000E+00 0.  1.
         11    1    1    2    0    0 -0.50898691035E+01  0.17223302750E+02 -0.41067884367E+03  0.41107135823E+03  0.00000000000E+00 0.  1.
        -15    1    1    2    0    0 -0.23036189113E+01 -0.14985030995E+02 -0.47336143013E+02  0.49736565808E+02  0.17770000000E+01 0. -1.
         15    1    1    2    0    0  0.17801183319E+02 -0.30657336974E+02 -0.32271413428E+02  0.47972453466E+02  0.17770000000E+01 0.  1.
</event>
<event>
 6   1  0.1826851E-04  0.5055223E+03  0.7546771E-02  0.9387537E-01
        -11   -1    0    0    0    0  0.00000000000E+00  0.00000000000E+00  0.50000000000E+03  0.50000000000E+03  0.00000000000E+00 0. -1.
         11   -1    0    0    0    0 -0.00000000000E+00 -0.00000000000E+00 -0.50000000000E+03  0.50000000000E+03  0.00000000000E+00 0. -1.
        -11    1    1    2    0    0  0.14986698005E+02  0.26590271651E+02  0.49353472187E+03  0.49447766922E+03  0.00000000000E+00 0. -1.
         11    1    1    2    0    0  0.10808139268E+02  0.10625709265E+01 -0.42270375221E+03  0.42284324171E+03  0.00000000000E+00 0. -1.
        -15    1    1    2    0    0  0.29997271369E+01 -0.41463838038E+01 -0.97903869561E+01  0.11189292529E+02  0.17770000000E+01 0. -1.
         15    1    1    2    0    0 -0.28794564409E+02 -0.23506458773E+02 -0.61040582705E+02  0.71489796542E+02  0.17770000000E+01 0. -1.
</event>
<event>
 6   1  0.1826851E-04  0.5000639E+03  0.7546771E-02  0.9399667E-01
        -11   -1    0    0    0    0  0.00000000000E+00  0.00000000000E+00  0.50000000000E+03  0.50000000000E+03  0.00000000000E+00 0.  1.
         11   -1    0    0    0    0 -0.00000000000E+00 -0.00000000000E+00 -0.50000000000E+03  0.50000000000E+03  0.00000000000E+00 0.  1.
        -11    1    1    2    0    0  0.56304400170E+01 -0.99777907385E+01  0.49980476552E+03  0.49993605771E+03  0.00000000000E+00 0.  1.
         11    1    1    2    0    0  0.67527074037E+00 -0.10447903871E+01 -0.21884186660E+02  0.21919516493E+02  0.00000000000E+00 0.  1.
        -15    1    1    2    0    0 -0.67953824911E+01  0.95400167045E+01 -0.34626688500E+03  0.34646948281E+03  0.17770000000E+01 0.  1.
         15    1    1    2    0    0  0.48967173378E+00  0.14825644212E+01 -0.13165369385E+03  0.13167494298E+03  0.17770000000E+01 0. -1.
</event>
<event>
 6   1  0.1826851E-04  0.4241457E+03  0.7546771E-02  0.9587631E-01
        -11   -1    0    0    0    0  0.00000000000E+00  0.00000000000E+00  0.50000000000E+03  0.50000000000E+03  0.00000000000E+00 0. -1.
         11   -1    0    0    0    0 -0.00000000000E+00 -0.00000000000E+00 -0.50000000000E+03  0.50000000000E+03  0.00000000000E+00 0. -1.
        -11    1    1    2    0    0 -0.43422455643E+02 -0.62973215393E+02  0.38711385463E+03  0.39459887476E+03  0.00000000000E+00 0. -1.
         11    1    1    2    0    0  0.93438251127E+00 -0.37560575092E+02 -0.46247497656E+03  0.46399867868E+03  0.00000000000E+00 0. -1.
        -15    1    1    2    0    0  0.50750237781E+02  0.88878998041E+02  0.75180018309E+02  0.12700494404E+03  0.17770000000E+01 0. -1.
         15    1    1    2    0    0 -0.82621646488E+01  0.11654792444E+02  0.18110361291E+00  0.14397502530E+02  0.17770000000E+01 0.  1.
</event>
<event>
 6   1  0.1826851E-04  0.5031637E+03  0.7546771E-02  0.9392758E-01
        -11   -1    0    0    0    0  0.00000000000E+00  0.00000000000E+00  0.50000000000E+03  0.50000000000E+03  0.00000000000E+00 0. -1.
         11   -1    0    0    0    0 -0.00000000000E+00 -0.00000000000E+00 -0.50000000000E+03  0.50000000000E+03  0.00000000000E+00 0. -1.
        -11    1    1    2    0    0  0.14113242253E+02  0.11781020001E+01  0.44220470701E+03  0.44243143472E+03  0.00000000000E+00 0. -1.
         11    1    1    2    0    0  0.85189008006E+01  0.85650831518E+01 -0.49668936700E+03  0.49683625030E+03  0.00000000000E+00 0. -1.
        -15    1    1    2    0    0 -0.16382466605E+02 -0.10652354014E+02  0.45975458568E+02  0.49987582235E+02  0.17770000000E+01 0.  1.
         15    1    1    2    0    0 -0.62496764492E+01  0.90916886249E+00  0.85092014298E+01  0.10744732743E+02  0.17770000000E+01 0. -1.
</event>
<event>
 6   1  0.1826851E-04  0.5011921E+03  0.7546771E-02  0.9397146E-01
        -11   -1    0    0    0    0  0.00000000000E+00  0.00000000000E+00  0.50000000000E+03  0.50000000000E+03  0.00000000000E+00 0. -1.
         11   -1    0    0    0    0 -0.00000000000E+00 -0.00000000000E+00 -0.50000000000E+03  0.50000000000E+03  0.00000000000E+00 0.  1.
        -11    1    1    2    0    0 -0.29508689031E+01 -0.10955100933E+02  0.48255771257E+03  0.48269106873E+03  0.00000000000E+00 0. -1.
         11    1    1    2    0    0 -0.28599138777E+01  0.10263550635E+02 -0.49869412030E+03  0.49880792416E+03  0.00000000000E+00 0.  1.
        -15    1    1    2    0    0  0.24199834132E+01 -0.23867712454E+01  0.47863474632E+01  0.61335020777E+01  0.17770000000E+01 0.  1.
         15    1    1    2    0    0  0.33907993676E+01  0.30783215439E+01  0.11350060264E+02  0.12367505038E+02  0.17770000000E+01 0. -1.
</event>
<event>
 6   1  0.1826851E-04  0.5002666E+03  0.7546771E-02  0.9399213E-01
        -11   -1    0    0    0    0  0.00000000000E+00  0.00000000000E+00  0.50000000000E+03  0.50000000000E+03  0.00000000000E+00 0. -1.
         11   -1    0    0    0    0 -0.00000000000E+00 -0.00000000000E+00 -0.50000000000E+03  0.50000000000E+03  0.00000000000E+00 0.  1.
        -11    1    1    2    0    0 -0.29290856232E+01 -0.10653673066E+00  0.10922429873E+02  0.11308862321E+02  0.00000000000E+00 0. -1.
         11    1    1    2    0    0 -0.11710877980E+02 -0.14237164303E+02 -0.49939329281E+03  0.49973343135E+03  0.00000000000E+00 0.  1.
        -15    1    1    2    0    0  0.12056825353E+02  0.13216835586E+02  0.44316262654E+03  0.44352713905E+03  0.17770000000E+01 0. -1.
         15    1    1    2    0    0  0.25831382502E+01  0.11268654483E+01  0.45308236396E+02  0.45430567278E+02  0.17770000000E+01 0. -1.
</event>
<event>
 6   1  0.1826851E-04  0.5006914E+03  0.7546771E-02  0.9398264E-01
        -11   -1    0    0    0    0  0.00000000000E+00  0.00000000000E+00  0.50000000000E+03  0.50000000000E+03  0.00000000000E+00 0. -1.
         11   -1    0    0    0    0 -0.00000000000E+00 -0.00000000000E+00 -0.50000000000E+03  0.50000000000E+03  0.00000000000E+00 0. -1.
        -11    1    1    2    0    0 -0.21372776778E+01 -0.84379070922E+01  0.43660124578E+03  0.43668800539E+03  0.00000000000E+00 0. -1.
         11    1    1    2    0    0  0.64574102598E+01  0.21127894511E+01 -0.49926241651E+03  0.49930864459E+03  0.00000000000E+00 0. -1.
        -15    1    1    2    0    0 -0.54811081033E+01 -0.53243292415E+00  0.24628784808E+02  0.25299422937E+02  0.17770000000E+01 0.  1.
         15    1    1    2    0    0  0.11609755214E+01  0.68575505653E+01  0.38032385919E+02  0.38703927083E+02  0.17770000000E+01 0. -1.
</event>
<event>
 6   1  0.1826851E-04  0.5120139E+03  0.7546771E-02  0.9373322E-01
        -11   -1    0    0    0    0  0.00000000000E+00  0.00000000000E+00  0.50000000000E+03  0.50000000000E+03  0.00000000000E+00 0.  1.
         11   -1    0    0    0    0 -0.00000000000E+00 -0.00000000000E+00 -0.50000000000E+03  0.50000000000E+03  0.00000000000E+00 0.  1.
        -11    1    1    2    0    0 -0.15530119451E+02  0.24471419891E+02  0.48712465090E+03  0.48798612738E+03  0.00000000000E+00 0.  1.
         11    1    1    2    0    0 -0.94421844884E+00 -0.81043550261E+01 -0.43287496869E+03  0.43295185718E+03  0.00000000000E+00 0.  1.
        -15    1    1    2    0    0  0.19014220215E+02 -0.19902001817E+02 -0.31672012800E+01  0.27763629800E+02  0.17770000000E+01 0. -1.
         15    1    1    2    0    0 -0.25398823150E+01  0.35349369526E+01 -0.51082480931E+02  0.51298385633E+02  0.17770000000E+01 0.  1.
</event>
<event>
 6   1  0.1826851E-04  0.5001029E+03  0.7546771E-02  0.9399580E-01
        -11   -1    0    0    0    0  0.00000000000E+00  0.00000000000E+00  0.50000000000E+03  0.50000000000E+03  0.00000000000E+00 0.  1.
         11   -1    0    0    0    0 -0.00000000000E+00 -0.00000000000E+00 -0.50000000000E+03  0.50000000000E+03  0.00000000000E+00 0.  1.
        -11    1    1    2    0    0  0.37614215246E+01 -0.70900853370E+01  0.19532200855E+03  0.19548684003E+03  0.00000000000E+00 0.  1.
         11    1    1    2    0    0 -0.11159240597E+02  0.25292307890E+01 -0.49976617759E+03  0.49989714734E+03  0.00000000000E+00 0.  1.
        -15    1    1    2    0    0  0.65586847224E+01  0.21768276511E+01  0.21702076323E+03  0.21713803058E+03  0.17770000000E+01 0.  1.
         15    1    1    2    0    0  0.83913435000E+00  0.23840268970E+01  0.87423405807E+02  0.87477982045E+02  0.17770000000E+01 0.  1.
</event>
<event>
 6   1  0.1826851E-04  0.5001104E+03  0.7546771E-02  0.9399563E-01
        -11   -1    0    0    0    0  0.00000000000E+00  0.00000000000E+00  0.50000000000E+03  0.50000000000E+03  0.00000000000E+00 0. -1.
         11   -1    0    0    0    0 -0.00000000000E+00 -0.00000000000E+00 -0.50000000000E+03  0.50000000000E+03  0.00000000000E+00 0. -1.
        -11    1    1    2    0    0 -0.71387111192E+00  0.99984707764E+01  0.49978905503E+03  0.49988956637E+03  0.00000000000E+00 0. -1.
         11    1    1    2    0    0 -0.24289960419E+01 -0.11880842234E+02 -0.32071297415E+03  0.32094215401E+03  0.00000000000E+00 0. -1.
        -15    1    1    2    0    0  0.22636582881E+01  0.19916633250E+01 -0.86271812869E+02  0.86342772114E+02  0.17770000000E+01 0.  1.
         15    1    1    2    0    0  0.87920886567E+00 -0.10929186736E+00 -0.92804268021E+02  0.92825507512E+02  0.17770000000E+01 0. -1.
</event>
<event>
 6   1  0.1826851E-04  0.5042009E+03  0.7546771E-02  0.9390459E-01
        -11   -1    0    0    0    0  0.00000000000E+00  0.00000000000E+00  0.50000000000E+03  0.50000000000E+03  0.00000000000E+00 0. -1.
         11   -1    0    0    0    0 -0.00000000000E+00 -0.00000000000E+00 -0.50000000000E+03  0.50000000000E+03  0.00000000000E+00 0. -1.
        -11    1    1    2    0    0  0.84357622631E+01 -0.44489357059E+01  0.49570736981E+03  0.49579910407E+03  0.00000000000E+00 0. -1.
         11    1    1    2    0    0  0.91655077744E+01 -0.60133212591E+01 -0.45925514919E+03  0.45938595823E+03  0.00000000000E+00 0. -1.
        -15    1    1    2    0    0 -0.10981731861E+01 -0.23889950956E+01 -0.12814233444E+02  0.13201348025E+02  0.17770000000E+01 0.  1.
         15    1    1    2    0    0 -0.16503096851E+02  0.12851252061E+02 -0.23637987180E+02  0.31613589675E+02  0.17770000000E+01 0. -1.
</event>
<event>
 6   1  0.1826851E-04  0.5000798E+03  0.7546771E-02  0.9399631E-01
        -11   -1    0    0    0    0  0.00000000000E+00  0.00000000000E+00  0.50000000000E+03  0.50000000000E+03  0.00000000000E+00 0. -1.
         11   -1    0    0    0    0 -0.00000000000E+00 -0.00000000000E+00 -0.50000000000E+03  0.50000000000E+03  0.00000000000E+00 0. -1.
        -11    1    1    2    0    0  0.14298708705E+02 -0.40505281767E+01  0.49969921243E+03  0.49992015638E+03  0.00000000000E+00 0. -1.
         11    1    1    2    0    0  0.53695379243E+00 -0.14948700470E+00 -0.12102119002E+02  0.12114947382E+02  0.00000000000E+00 0. -1.
        -15    1    1    2    0    0  0.12533378231E+01  0.90230236293E+00 -0.75938216325E+02  0.75974702585E+02  0.17770000000E+01 0. -1.
         15    1    1    2    0    0 -0.16089000320E+02  0.32977128185E+01 -0.41165887710E+03  0.41199019366E+03  0.17770000000E+01 0. -1.
</event>
<event>
 6   1  0.1826851E-04  0.5036671E+03  0.7546771E-02  0.9391642E-01
        -11   -1    0    0    0    0  0.00000000000E+00  0.00000000000E+00  0.50000000000E+03  0.50000000000E+03  0.00000000000E+00 0. -1.
         11   -1    0    0    0    0 -0.00000000000E+00 -0.00000000000E+00 -0.50000000000E+03  0.50000000000E+03  0.00000000000E+00 0.  1.
        -11    1    1    2    0    0  0.10573692616E+02 -0.29150575091E+01  0.49323743934E+03  0.49335937420E+03  0.00000000000E+00 0. -1.
         11    1    1    2    0    0 -0.79642530490E+01  0.72037966094E+01 -0.49621671962E+03  0.49633290929E+03  0.00000000000E+00 0.  1.
        -15    1    1    2    0    0 -0.88720192666E+00 -0.74690114870E+00 -0.25326919566E+01  0.33041256228E+01  0.17770000000E+01 0. -1.
         15    1    1    2    0    0 -0.17222376403E+01 -0.35418379516E+01  0.55119722298E+01  0.70035908952E+01  0.17770000000E+01 0.  1.
</event>
<event>
 6   1  0.1826851E-04  0.5001250E+03  0.7546771E-02  0.9399530E-01
        -11   -1    0    0    0    0  0.00000000000E+00  0.00000000000E+00  0.50000000000E+03  0.50000000000E+03  0.00000000000E+00 0. -1.
         11   -1    0    0    0    0 -0.00000000000E+00 -0.00000000000E+00 -0.50000000000E+03  0.50000000000E+03  0.00000000000E+00 0. -1.
        -11    1    1    2    0    0 -0.45571513330E+01  0.93499067046E+00  0.32494034384E+02  0.32825357673E+02  0.00000000000E+00 0. -1.
         11    1    1    2    0    0  0.15100987063E+02  0.13502376469E+01 -0.49964505712E+03  0.49987503044E+03  0.00000000000E+00 0. -1.
        -15    1    1    2    0    0 -0.41722429358E+01 -0.85385101491E+00  0.25176263964E+03  0.25180492672E+03  0.17770000000E+01 0. -1.
         15    1    1    2    0    0 -0.63715927945E+01 -0.14313773025E+01  0.21538838310E+03  0.21549468517E+03  0.17770000000E+01 0. -1.
</event>
<event>
 6   1  0.1826851E-04  0.5006052E+03  0.7546771E-02  0.9398457E-01
        -11   -1    0    0    0    0  0.00000000000E+00  0.00000000000E+00  0.50000000000E+03  0.50000000000E+03  0.00000000000E+00 0.  1.
         11   -1    0    0    0    0 -0.00000000000E+00 -0.00000000000E+00 -0.50000000000E+03  0.50000000000E+03  0.00000000000E+00 0.  1.
        -11    1    1    2    0    0  0.92800584206E+01  0.10907882773E+02  0.49918940587E+03  0.49939479806E+03  0.00000000000E+00 0.  1.
         11    1    1    2    0    0 -0.55047843743E+01  0.48354409797E+01 -0.38241280093E+03  0.38248298584E+03  0.00000000000E+00 0.  1.
        -15    1    1    2    0    0 -0.52918875754E+01 -0.11219829460E+02 -0.75526289383E+02  0.76558910417E+02  0.17770000000E+01 0.  1.
         15    1    1    2    0    0  0.15166135291E+01 -0.45234942932E+01 -0.41250315557E+02  0.41563305689E+02  0.17770000000E+01 0. -1.
</event>
<event>
 6   1  0.1826851E-04  0.5000636E+03  0.7546771E-02  0.9399668E-01
        -11   -1    0    0    0    0  0.00000000000E+00  0.00000000000E+00  0.50000000000E+03  0.50000000000E+03  0.00000000000E+00 0. -1.
         11   -1    0    0    0    0 -0.00000000000E+00 -0.00000000000E+00 -0.50000000000E+03  0.50000000000E+03  0.00000000000E+00 0.  1.
        -11    1    1    2    0    0 -0.56951155664E+00  0.13897355197E+02  0.49974292282E+03  0.49993644569E+03  0.00000000000E+00 0. -1.
         11    1    1    2    0    0  0.19754476126E+01 -0.47751634539E+00 -0.58982522023E+02  0.59017525526E+02  0.00000000000E+00 0.  1.
        -15    1    1    2    0    0 -0.11641468209E+01 -0.26241848382E+01 -0.41999862676E+02  0.42135350689E+02  0.17770000000E+01 0. -1.
         15    1    1    2    0    0 -0.24178923500E+00 -0.10795654013E+02 -0.39876053812E+03  0.39891067809E+03  0.17770000000E+01 0.  1.
</event>
<event>
 6   1  0.1826851E-04  0.5029078E+03  0.7546771E-02  0.9393327E-01
        -11   -1    0    0    0    0  0.00000000000E+00  0.00000000000E+00  0.50000000000E+03  0.50000000000E+03  0.00000000000E+00 0.  1.
         11   -1    0    0    0    0 -0.00000000000E+00 -0.00000000000E+00 -0.50000000000E+03  0.50000000000E+03  0.00000000000E+00 0.  1.
        -11    1    1    2    0    0  0.10313615305E+02 -0.19345703525E+02  0.49660852134E+03  0.49709219505E+03  0.00000000000E+00 0.  1.
         11    1    1    2    0    0 -0.71966642644E+01  0.15085355135E+01 -0.26648478053E+03  0.26658620727E+03  0.00000000000E+00 0.  1.
        -15    1    1    2    0    0  0.18637927449E+02  0.19497617010E+02 -0.76272265702E+02  0.80920613276E+02  0.17770000000E+01 0. -1.
         15    1    1    2    0    0 -0.21754878489E+02 -0.16604489985E+01 -0.15385147512E+03  0.15540098440E+03  0.17770000000E+01 0.  1.
</event>
<event>
 6   1  0.1826851E-04  0.5015766E+03  0.7546771E-02  0.9396289E-01
        -11   -1    0    0    0    0  0.00000000000E+00  0.00000000000E+00  0.50000000000E+03  0.50000000000E+03  0.00000000000E+00 0. -1.
         11   -1    0    0    0    0 -0.00000000000E+00 -0.00000000000E+00 -0.50000000000E+03  0.50000000000E+03  0.00000000000E+00 0.  1.
        -11    1    1    2    0    0 -0.95529509858E+02 -0.62277340607E+02  0.39261407733E+03  0.40884002755E+03  0.00000000000E+00 0. -1.
         11    1    1    2    0    0  0.99930685258E+02  0.58024360551E+02 -0.48484320772E+03  0.49842341873E+03  0.00000000000E+00 0.  1.
        -15    1    1    2    0    0 -0.19313151641E+01  0.57105931338E+01  0.56490223936E+02  0.56838754222E+02  0.17770000000E+01 0. -1.
         15    1    1    2    0    0 -0.24698602357E+01 -0.14576130784E+01  0.35738906448E+02  0.35897799494E+02  0.17770000000E+01 0.  1.
</event>
<event>
 6   1  0.1826851E-04  0.5184502E+03  0.7546771E-02  0.9359447E-01
        -11   -1    0    0    0    0  0.00000000000E+00  0.00000000000E+00  0.50000000000E+03  0.50000000000E+03  0.00000000000E+00 0. -1.
         11   -1    0    0    0    0 -0.00000000000E+00 -0.00000000000E+00 -0.50000000000E+03  0.50000000000E+03  0.00000000000E+00 0. -1.
        -11    1    1    2    0    0  0.54000582434E+02  0.28877751726E+01  0.47850375263E+03  0.48154983483E+03  0.00000000000E+00 0. -1.
         11    1    1    2    0    0  0.20485339587E+02  0.11884303665E+02 -0.41971029995E+03  0.42037795101E+03  0.00000000000E+00 0. -1.
        -15    1    1    2    0    0 -0.50384207910E+02 -0.83248650480E+01 -0.27556159036E+02  0.58054900005E+02  0.17770000000E+01 0. -1.
         15    1    1    2    0    0 -0.24101714112E+02 -0.64472137898E+01 -0.31237293647E+02  0.40017314155E+02  0.17770000000E+01 0.  1.
</event>
<event>
 6   1  0.1826851E-04  0.5008691E+03  0.7546771E-02  0.9397867E-01
        -11   -1    0    0    0    0  0.00000000000E+00  0.00000000000E+00  0.50000000000E+03  0.50000000000E+03  0.00000000000E+00 0. -1.
         11   -1    0    0    0    0 -0.00000000000E+00 -0.00000000000E+00 -0.50000000000E+03  0.50000000000E+03  0.00000000000E+00 0. -1.
        -11    1    1    2    0    0  0.20693723763E+02  0.29272969667E+02  0.49784187731E+03  0.49913091645E+03  0.00000000000E+00 0. -1.
         11    1    1    2    0    0 -0.17300513165E+02 -0.29548305339E+02 -0.21304234472E+03  0.21577639062E+03  0.00000000000E+00 0. -1.
        -15    1    1    2    0    0 -0.71168417556E+01 -0.73497654890E+00 -0.11276146375E+03  0.11300219052E+03  0.17770000000E+01 0. -1.
         15    1    1    2    0    0  0.37236311571E+01  0.10103122208E+01 -0.17203806884E+03  0.17209050241E+03  0.17770000000E+01 0.  1.
</event>
<event>
 6   1  0.1826851E-04  0.5003237E+03  0.7546771E-02  0.9399086E-01
        -11   -1    0    0    0    0  0.00000000000E+00  0.00000000000E+00  0.50000000000E+03  0.50000000000E+03  0.00000000000E+00 0.  1.
         11   -1    0    0    0    0 -0.00000000000E+00 -0.00000000000E+00 -0.50000000000E+03  0.50000000000E+03  0.00000000000E+00 0. -1.
        -11    1    1    2    0    0 -0.13429767104E+02 -0.41524206361E+01  0.22113253048E+03  0.22157887372E+03  0.00000000000E+00 0.  1.
         11    1    1    2    0    0  0.23608389220E+02 -0.25828983085E+01 -0.49911159155E+03  0.49967630345E+03  0.00000000000E+00 0. -1.
        -15    1    1    2    0    0  0.15442729453E+01 -0.35588324469E+01  0.94045730944E+02  0.94142484061E+02  0.17770000000E+01 0.  1.
         15    1    1    2    0    0 -0.11722895062E+02  0.10294151391E+02  0.18393333012E+03  0.18460233878E+03  0.17770000000E+01 0. -1.
</event>
<event>
 6   1  0.1826851E-04  0.5001228E+03  0.7546771E-02  0.9399535E-01
        -11   -1    0    0    0    0  0.00000000000E+00  0.00000000000E+00  0.50000000000E+03  0.50000000000E+03  0.00000000000E+00 0.  1.
         11   -1    0    0    0    0 -0.00000000000E+00 -0.00000000000E+00 -0.50000000000E+03  0.50000000000E+03  0.00000000000E+00 0.  1.
        -11    1    1    2    0    0 -0.13121747619E+01 -0.20349808101E+00  0.12034078757E+02  0.12107116320E+02  0.00000000000E+00 0.  1.
         11    1    1    2    0    0  0.11759554212E+02  0.32581822766E+01 -0.49972819039E+03  0.49987715205E+03  0.00000000000E+00 0.  1.
        -15    1    1    2    0    0 -0.30228666391E+01 -0.45272763729E+01  0.65446473208E+02  0.65696518465E+02  0.17770000000E+01 0. -1.
         15    1    1    2    0    0 -0.74245128110E+01  0.14725921773E+01  0.42224763843E+03  0.42231921316E+03  0.17770000000E+01 0.  1.
</event>
<event>
 6   1  0.1826851E-04  0.5060108E+03  0.7546771E-02  0.9386460E-01
        -11   -1    0    0    0    0  0.00000000000E+00  0.00000000000E+00  0.50000000000E+03  0.50000000000E+03  0.00000000000E+00 0.  1.
         11   -1    0    0    0    0 -0.00000000000E+00 -0.00000000000E+00 -0.50000000000E+03  0.50000000000E+03  0.00000000000E+00 0.  1.
        -11    1    1    2    0    0 -0.14636834320E+02 -0.25553662308E+00  0.47690779511E+03  0.47713242109E+03  0.00000000000E+00 0.  1.
         11    1    1    2    0    0 -0.61591133530E+01  0.33869208059E+01 -0.49393920022E+03  0.49398920983E+03  0.00000000000E+00 0.  1.
        -15    1    1    2    0    0  0.15696222023E+02 -0.14544355056E+01  0.69492920841E+01  0.17318693885E+02  0.17770000000E+01 0.  1.
         15    1    1    2    0    0  0.50997256504E+01 -0.16769486772E+01  0.10082113028E+02  0.11559675198E+02  0.17770000000E+01 0. -1.
</event>
<event>
 6   1  0.1826851E-04  0.5008236E+03  0.7546771E-02  0.9397969E-01
        -11   -1    0    0    0    0  0.00000000000E+00  0.00000000000E+00  0.50000000000E+03  0.50000000000E+03  0.00000000000E+00 0. -1.
         11   -1    0    0    0    0 -0.00000000000E+00 -0.00000000000E+00 -0.50000000000E+03  0.50000000000E+03  0.00000000000E+00 0. -1.
        -11    1    1    2    0    0  0.12232306739E+02  0.91374229693E+01  0.49894282228E+03  0.49917638338E+03  0.00000000000E+00 0. -1.
         11    1    1    2    0    0  0.80023517293E+01 -0.47315360445E+01 -0.34476175151E+03  0.34488706901E+03  0.00000000000E+00 0. -1.
        -15    1    1    2    0    0 -0.11039361196E+02 -0.23476943954E+01 -0.48778002025E+02  0.50098207304E+02  0.17770000000E+01 0. -1.
         15    1    1    2    0    0 -0.91952972719E+01 -0.20581925294E+01 -0.10540306874E+03  0.10583834030E+03  0.17770000000E+01 0.  1.
</event>
<event>
 6   1  0.1826851E-04  0.5037382E+03  0.7546771E-02  0.9391484E-01
        -11   -1    0    0    0    0  0.00000000000E+00  0.00000000000E+00  0.50000000000E+03  0.50000000000E+03  0.00000000000E+00 0.  1.
         11   -1    0    0    0    0 -0.00000000000E+00 -0.00000000000E+00 -0.50000000000E+03  0.50000000000E+03  0.00000000000E+00 0.  1.
        -11    1    1    2    0    0  0.15709840124E+02 -0.24020181863E+02  0.40025428238E+03  0.40128201900E+03  0.00000000000E+00 0.  1.
         11    1    1    2    0    0 -0.72441455545E+01 -0.54729877539E+01 -0.49617873879E+03  0.49626179792E+03  0.00000000000E+00 0.  1.
        -15    1    1    2    0    0 -0.61671231866E+01  0.13605326242E+02  0.72234458008E+02  0.73784232484E+02  0.17770000000E+01 0.  1.
         15    1    1    2    0    0 -0.22985713824E+01  0.15887843375E+02  0.23689998407E+02  0.28671950597E+02  0.17770000000E+01 0. -1.
</event>
<event>
 6   1  0.1826851E-04  0.5014948E+03  0.7546771E-02  0.9396471E-01
        -11   -1    0    0    0    0  0.00000000000E+00  0.00000000000E+00  0.50000000000E+03  0.50000000000E+03  0.00000000000E+00 0.  1.
         11   -1    0    0    0    0 -0.00000000000E+00 -0.00000000000E+00 -0.50000000000E+03  0.50000000000E+03  0.00000000000E+00 0.  1.
        -11    1    1    2    0    0  0.20664616913E+02 -0.38558310306E+02  0.49658203045E+03  0.49850524837E+03  0.00000000000E+00 0.  1.
         11    1    1    2    0    0  0.98101786019E+00 -0.58896075277E-01 -0.68463182199E+02  0.68470235735E+02  0.00000000000E+00 0.  1.
        -15    1    1    2    0    0 -0.36847411160E+01  0.44733185451E+02 -0.26285825678E+03  0.26666881348E+03  0.17770000000E+01 0. -1.
         15    1    1    2    0    0 -0.17960893658E+02 -0.61159790695E+01 -0.16526059148E+03  0.16635570241E+03  0.17770000000E+01 0.  1.
</event>
<event>
 6   1  0.1826851E-04  0.5017751E+03  0.7546771E-02  0.9395846E-01
        -11   -1    0    0    0    0  0.00000000000E+00  0.00000000000E+00  0.50000000000E+03  0.50000000000E+03  0.00000000000E+00 0.  1.
         11   -1    0    0    0    0 -0.00000000000E+00 -0.00000000000E+00 -0.50000000000E+03  0.50000000000E+03  0.00000000000E+00 0.  1.
        -11    1    1    2    0    0 -0.83544372859E+01  0.40217957639E+01  0.47878814748E+03  0.47887791934E+03  0.00000000000E+00 0.  1.
         11    1    1    2    0    0  0.68922570676E+01  0.51397828292E+01 -0.49815066304E+03  0.49822485252E+03  0.00000000000E+00 0.  1.
        -15    1    1    2    0    0 -0.10356606155E+01 -0.39702919083E+01  0.14432610939E+02  0.15109394371E+02  0.17770000000E+01 0.  1.
         15    1    1    2    0    0  0.24978408337E+01 -0.51912866848E+01  0.49299046254E+01  0.77878337739E+01  0.17770000000E+01 0. -1.
</event>
<event>
 6   1  0.1826851E-04  0.5001782E+03  0.7546771E-02  0.9399411E-01
        -11   -1    0    0    0    0  0.00000000000E+00  0.00000000000E+00  0.50000000000E+03  0.50000000000E+03  0.00000000000E+00 0.  1.
         11   -1    0    0    0    0 -0.00000000000E+00 -0.00000000000E+00 -0.50000000000E+03  0.50000000000E+03  0.00000000000E+00 0. -1.
        -11    1    1    2    0    0 -0.16112331142E+01  0.10883723601E+01  0.64545761438E+01  0.67410814962E+01  0.00000000000E+00 0.  1.
         11    1    1    2    0    0  0.18367246989E+01 -0.70357687716E+01 -0.49976887124E+03  0.49982176850E+03  0.00000000000E+00 0. -1.
        -15    1    1    2    0    0  0.33565601249E+01 -0.31298211445E-01  0.15672615070E+03  0.15677216435E+03  0.17770000000E+01 0. -1.
         15    1    1    2    0    0 -0.35820517095E+01  0.59786946230E+01  0.33658814440E+03  0.33666498565E+03  0.17770000000E+01 0.  1.
</event>
<event>
 6   1  0.1826851E-04  0.5028822E+03  0.7546771E-02  0.9393383E-01
        -11   -1    0    0    0    0  0.00000000000E+00  0.00000000000E+00  0.50000000000E+03  0.50000000000E+03  0.00000000000E+00 0. -1.
         11   -1    0    0    0    0 -0.00000000000E+00 -0.00000000000E+00 -0.50000000000E+03  0.50000000000E+03  0.00000000000E+00 0.  1.
        -11    1    1    2    0    0  0.12062429503E+01 -0.10514512235E+02  0.49700509074E+03  0.49711776292E+03  0.00000000000E+00 0. -1.
         11    1    1    2    0    0 -0.72594297338E+01 -0.81244400383E+00 -0.47613177875E+03  0.47618780971E+03  0.00000000000E+00 0.  1.
        -15    1    1    2    0    0  0.80965269814E-01  0.21193223554E+01  0.29653094939E+00  0.27827580249E+01  0.17770000000E+01 0.  1.
         15    1    1    2    0    0  0.59722215138E+01  0.92076338837E+01 -0.21169842944E+02  0.23911669344E+02  0.17770000000E+01 0. -1.
</event>
<event>
 6   1  0.1826851E-04  0.5002974E+03  0.7546771E-02  0.9399145E-01
        -11   -1    0    0    0    0  0.00000000000E+00  0.00000000000E+00  0.50000000000E+03  0.50000000000E+03  0.00000000000E+00 0.  1.
         11   -1    0    0    0    0 -0.00000000000E+00 -0.00000000000E+00 -0.50000000000E+03  0.50000000000E+03  0.00000000000E+00 0. -1.
        -11    1    1    2    0    0 -0.89011017662E+01  0.35111076348E+01  0.49961101621E+03  0.49970263658E+03  0.00000000000E+00 0.  1.
         11    1    1    2    0    0 -0.30622897079E+01 -0.54808714960E+01 -0.35722144367E+03  0.35727661187E+03  0.00000000000E+00 0. -1.
        -15    1    1    2    0    0  0.59456368650E+01 -0.12102734320E+01 -0.74450903500E+02  0.74718873924E+02  0.17770000000E+01 0. -1.
         15    1    1    2    0    0  0.60177546091E+01  0.31800372931E+01 -0.67938669038E+02  0.68301877627E+02  0.17770000000E+01 0.  1.
</event>
<event>
 6   1  0.1826851E-04  0.5044737E+03  0.7546771E-02  0.9389855E-01
        -11   -1    0    0    0    0  0.00000000000E+00  0.00000000000E+00  0.50000000000E+03  0.50000000000E+03  0.00000000000E+00 0. -1.
         11   -1    0    0    0    0 -0.00000000000E+00 -0.00000000000E+00 -0.50000000000E+03  0.50000000000E+03  0.00000000000E+00 0. -1.
        -11    1    1    2    0    0  0.39807582195E+02 -0.67811380847E+01  0.39700830916E+03  0.39905666888E+03  0.00000000000E+00 0. -1.
         11    1    1    2    0    0 -0.40157729458E+02  0.13277211018E+02 -0.49371795137E+03  0.49552632934E+03  0.00000000000E+00 0. -1.
        -15    1    1    2    0    0 -0.12357017003E+02  0.73165446329E+01  0.76189159022E+02  0.77551101708E+02  0.17770000000E+01 0. -1.
         15    1    1    2    0    0  0.12707164267E+02 -0.13812617566E+02  0.20520483186E+02  0.27865900074E+02  0.17770000000E+01 0.  1.
</event>
<event>
 6   1  0.1826851E-04  0.5023301E+03  0.7546771E-02  0.9394611E-01
        -11   -1    0    0    0    0  0.00000000000E+00  0.00000000000E+00  0.50000000000E+03  0.50000000000E+03  0.00000000000E+00 0. -1.
         11   -1    0    0    0    0 -0.00000000000E+00 -0.00000000000E+00 -0.50000000000E+03  0.50000000000E+03  0.00000000000E+00 0. -1.
        -11    1    1    2    0    0  0.21930072010E+02  0.55207219000E+01  0.49715586941E+03  0.49766993571E+03  0.00000000000E+00 0. -1.
         11    1    1    2    0    0 -0.60553516823E+01  0.95784661694E+01 -0.42239229482E+03  0.42254427581E+03  0.00000000000E+00 0. -1.
        -15    1    1    2    0    0 -0.37371987125E+01  0.34167497830E+01 -0.10493726434E+02  0.11786299537E+02  0.17770000000E+01 0. -1.
         15    1    1    2    0    0 -0.12137521615E+02 -0.18515937852E+02 -0.64269848151E+02  0.67999488938E+02  0.17770000000E+01 0.  1.
</event>
<event>
 6   1  0.1826851E-04  0.5054602E+03  0.7546771E-02  0.9387674E-01
        -11   -1    0    0    0    0  0.00000000000E+00  0.00000000000E+00  0.50000000000E+03  0.50000000000E+03  0.00000000000E+00 0. -1.
         11   -1    0    0    0    0 -0.00000000000E+00 -0.00000000000E+00 -0.50000000000E+03  0.50000000000E+03  0.00000000000E+00 0.  1.
        -11    1    1    2    0    0 -0.51513235375E+01 -0.32045421959E+02  0.49347355453E+03  0.49453978022E+03  0.00000000000E+00 0. -1.
         11    1    1    2    0    0 -0.70672395944E+01  0.54061424462E+00 -0.40990135971E+03  0.40996263590E+03  0.00000000000E+00 0.  1.
        -15    1    1    2    0    0 -0.76635632887E+00 -0.18910862922E+01 -0.35043933943E+02  0.35148236721E+02  0.17770000000E+01 0.  1.
         15    1    1    2    0    0  0.12984919461E+02  0.33395894006E+02 -0.48528260878E+02  0.60349347161E+02  0.17770000000E+01 0. -1.
</event>
<event>
 6   1  0.1826851E-04  0.3920481E+03  0.7546771E-02  0.9680192E-01
        -11   -1    0    0    0    0  0.00000000000E+00  0.00000000000E+00  0.50000000000E+03  0.50000000000E+03  0.00000000000E+00 0.  1.
         11   -1    0    0    0    0 -0.00000000000E+00 -0.00000000000E+00 -0.50000000000E+03  0.50000000000E+03  0.00000000000E+00 0. -1.
        -11    1    1    2    0    0  0.20993139295E+03  0.98629353838E+01  0.36786375235E+03  0.42366520690E+03  0.00000000000E+00 0.  1.
         11    1    1    2    0    0  0.29199724071E+02 -0.51315720149E+02 -0.22515938776E+03  0.23277172706E+03  0.00000000000E+00 0. -1.
        -15    1    1    2    0    0 -0.81626974465E+02 -0.33435783859E+02  0.34679135506E+02  0.94798284642E+02  0.17770000000E+01 0.  1.
         15    1    1    2    0    0 -0.15750414255E+03  0.74888568624E+02 -0.17738350010E+03  0.24876478140E+03  0.17770000000E+01 0. -1.
</event>
<event>
 6   1  0.1826851E-04  0.5000470E+03  0.7546771E-02  0.9399705E-01
        -11   -1    0    0    0    0  0.00000000000E+00  0.00000000000E+00  0.50000000000E+03  0.50000000000E+03  0.00000000000E+00 0. -1.
         11   -1    0    0    0    0 -0.00000000000E+00 -0.00000000000E+00 -0.50000000000E+03  0.50000000000E+03  0.00000000000E+00 0. -1.
        -11    1    1    2    0    0 -0.43751395352E+01 -0.96524809784E+01  0.49984069614E+03  0.49995303155E+03  0.00000000000E+00 0. -1.
         11    1    1    2    0    0  0.40348396962E+01  0.16733231163E+01 -0.97956368267E+02  0.98053709903E+02  0.00000000000E+00 0. -1.
        -15    1    1    2    0    0 -0.69491686197E+00  0.32092750022E+01 -0.23048929293E+03  0.23051953115E+03  0.17770000000E+01 0. -1.
         15    1    1    2    0    0  0.10352167009E+01  0.47698828599E+01 -0.17139503494E+03  0.17147372740E+03  0.17770000000E+01 0. -1.
</event>
<event>
 6   1  0.1826851E-04  0.5005842E+03  0.7546771E-02  0.9398503E-01
        -11   -1    0    0    0    0  0.00000000000E+00  0.00000000000E+00  0.50000000000E+03  0.50000000000E+03  0.00000000000E+00 0. -1.
         11   -1    0    0    0    0 -0.00000000000E+00 -0.00000000000E+00 -0.50000000000E+03  0.50000000000E+03  0.00000000000E+00 0. -1.
        -11    1    1    2    0    0  0.19365671941E+02  0.18086396760E+01  0.49903691676E+03  0.49941580343E+03  0.00000000000E+00 0. -1.
         11    1    1    2    0    0 -0.12390324270E+01 -0.41914621939E+01 -0.29213962177E+03  0.29217231588E+03  0.00000000000E+00 0. -1.
        -15    1    1    2    0    0 -0.19748510220E+02  0.55099484040E+01 -0.18685882322E+03  0.18798867182E+03  0.17770000000E+01 0.  1.
         15    1    1    2    0    0  0.16218707069E+01 -0.31271258861E+01 -0.20038471763E+02  0.20423208869E+02  0.17770000000E+01 0.  1.
</event>
<event>
 6   1  0.1826851E-04  0.5000865E+03  0.7546771E-02  0.9399616E-01
        -11   -1    0    0    0    0  0.00000000000E+00  0.00000000000E+00  0.50000000000E+03  0.50000000000E+03  0.00000000000E+00 0. -1.
         11   -1    0    0    0    0 -0.00000000000E+00 -0.00000000000E+00 -0.50000000000E+03  0.50000000000E+03  0.00000000000E+00 0.  1.
        -11    1    1    2    0    0 -0.20198259047E+01 -0.20517886188E+01  0.23359633931E+02  0.23536397996E+02  0.00000000000E+00 0. -1.
         11    1    1    2    0    0  0.45682252363E+01  0.89457840248E+01 -0.49981259703E+03  0.49991352040E+03  0.00000000000E+00 0.  1.
        -15    1    1    2    0    0 -0.12604065969E+01 -0.57293262140E+01  0.41723175146E+03  0.41727677380E+03  0.17770000000E+01 0. -1.
         15    1    1    2    0    0 -0.12879927347E+01 -0.11646691920E+01  0.59221211643E+02  0.59273307796E+02  0.17770000000E+01 0. -1.
</event>
<event>
 6   1  0.1826851E-04  0.5027707E+03  0.7546771E-02  0.9393631E-01
        -11   -1    0    0    0    0  0.00000000000E+00  0.00000000000E+00  0.50000000000E+03  0.50000000000E+03  0.00000000000E+00 0. -1.
         11   -1    0    0    0    0 -0.00000000000E+00 -0.00000000000E+00 -0.50000000000E+03  0.50000000000E+03  0.00000000000E+00 0. -1.
        -11    1    1    2    0    0  0.62232398224E+01  0.35110219309E+01  0.47721685003E+03  0.47727034052E+03  0.00000000000E+00 0. -1.
         11    1    1    2    0    0  0.85731179729E+01 -0.23481214946E+01 -0.49714985486E+03  0.49722931351E+03  0.00000000000E+00 0. -1.
        -15    1    1    2    0    0 -0.72510947084E+01  0.10831510659E+01  0.12064128630E+02  0.14228581071E+02  0.17770000000E+01 0. -1.
         15    1    1    2    0    0 -0.75452630869E+01 -0.22460515023E+01  0.78688761936E+01  0.11271764900E+02  0.17770000000E+01 0.  1.
</event>
<event>
 6   1  0.1826851E-04  0.5020043E+03  0.7546771E-02  0.9395336E-01
        -11   -1    0    0    0    0  0.00000000000E+00  0.00000000000E+00  0.50000000000E+03  0.50000000000E+03  0.00000000000E+00 0. -1.
         11   -1    0    0    0    0 -0.00000000000E+00 -0.00000000000E+00 -0.50000000000E+03  0.50000000000E+03  0.00000000000E+00 0.  1.
        -11    1    1    2    0    0  0.52390227921E+02  0.62652353458E+02  0.49125314386E+03  0.49799568746E+03  0.00000000000E+00 0. -1.
         11    1    1    2    0    0  0.15386046773E+01 -0.10191264205E+01 -0.47055978471E+02  0.47092154685E+02  0.00000000000E+00 0.  1.
        -15    1    1    2    0    0 -0.53435534904E+02 -0.49455608133E+02 -0.42996880562E+03  0.43609350500E+03  0.17770000000E+01 0.  1.
         15    1    1    2    0    0 -0.49329769393E+00 -0.12177618904E+02 -0.14228359766E+02  0.18818652859E+02  0.17770000000E+01 0. -1.
</event>
<event>
 6   1  0.1826851E-04  0.5080787E+03  0.7546771E-02  0.9381912E-01
        -11   -1    0    0    0    0  0.00000000000E+00  0.00000000000E+00  0.50000000000E+03  0.50000000000E+03  0.00000000000E+00 0. -1.
         11   -1    0    0    0    0 -0.00000000000E+00 -0.00000000000E+00 -0.50000000000E+03  0.50000000000E+03  0.00000000000E+00 0.  1.
        -11    1    1    2    0    0  0.16199964139E+02 -0.13571008420E+02  0.45260841707E+03  0.45310152319E+03  0.00000000000E+00 0. -1.
         11    1    1    2    0    0 -0.46142296454E+01 -0.21592195240E+02 -0.49142553614E+03  0.49192130628E+03  0.00000000000E+00 0.  1.
        -15    1    1    2    0    0 -0.13643620256E+02  0.31248422616E+02  0.33431601397E+02  0.47785374234E+02  0.17770000000E+01 0. -1.
         15    1    1    2    0    0  0.20578857631E+01  0.39147810441E+01  0.53855176645E+01  0.71917962952E+01  0.17770000000E+01 0.  1.
</event>
<event>
 6   1  0.1826851E-04  0.5071474E+03  0.7546771E-02  0.9383957E-01
        -11   -1    0    0    0    0  0.00000000000E+00  0.00000000000E+00  0.50000000000E+03  0.50000000000E+03  0.00000000000E+00 0.  1.
         11   -1    0    0    0    0 -0.00000000000E+00 -0.00000000000E+00 -0.50000000000E+03  0.50000000000E+03  0.00000000000E+00 0.  1.
        -11    1    1    2    0    0  0.93615774832E+00  0.92997092568E+01  0.49276400389E+03  0.49285263975E+03  0.00000000000E+00 0.  1.
         11    1    1    2    0    0  0.81052300708E+01 -0.19226854889E+01 -0.48571758854E+03  0.48578901521E+03  0.00000000000E+00 0.  1.
        -15    1    1    2    0    0 -0.33491945250E+01 -0.11995811057E+02 -0.50457013673E+01  0.13554830068E+02  0.17770000000E+01 0.  1.
         15    1    1    2    0    0 -0.56921932941E+01  0.46187872887E+01 -0.20007139782E+01  0.78035149733E+01  0.17770000000E+01 0. -1.
</event>
<event>
 6   1  0.1826851E-04  0.4881758E+03  0.7546771E-02  0.9426663E-01
        -11   -1    0    0    0    0  0.00000000000E+00  0.00000000000E+00  0.50000000000E+03  0.50000000000E+03  0.00000000000E+00 0.  1.
         11   -1    0    0    0    0 -0.00000000000E+00 -0.00000000000E+00 -0.50000000000E+03  0.50000000000E+03  0.00000000000E+00 0.  1.
        -11    1    1    2    0    0 -0.19286299689E+02  0.20641611193E+01  0.49381106349E+03  0.49419185398E+03  0.00000000000E+00 0.  1.
         11    1    1    2    0    0  0.21472648393E+01  0.75701951823E+01 -0.48236067532E+03  0.48242485394E+03  0.00000000000E+00 0.  1.
        -15    1    1    2    0    0  0.99941374411E+01 -0.71114344949E+01 -0.86409774838E+01  0.15108921359E+02  0.17770000000E+01 0. -1.
         15    1    1    2    0    0  0.71448974088E+01 -0.25229218066E+01 -0.28094106880E+01  0.82743707216E+01  0.17770000000E+01 0.  1.
</event>
<event>
 6   1  0.1826851E-04  0.5010113E+03  0.7546771E-02  0.9397550E-01
        -11   -1    0    0    0    0  0.00000000000E+00  0.00000000000E+00  0.50000000000E+03  0.50000000000E+03  0.00000000000E+00 0. -1.
         11   -1    0    0    0    0 -0.00000000000E+00 -0.00000000000E+00 -0.50000000000E+03  0.50000000000E+03  0.00000000000E+00 0.  1.
        -11    1    1    2    0    0  0.70943958732E+01  0.93652184721E+01  0.34180199636E+03  0.34200386327E+03  0.00000000000E+00 0. -1.
         11    1    1    2    0    0  0.15571147962E+02 -0.11838083757E+02 -0.49860518947E+03  0.49898871314E+03  0.00000000000E+00 0.  1.
        -15    1    1    2    0    0 -0.15379369922E+02  0.25896571427E+01  0.13581798747E+03  0.13672203477E+03  0.17770000000E+01 0. -1.
         15    1    1    2    0    0 -0.72861739128E+01 -0.11679185735E+00  0.20985205635E+02  0.22285388827E+02  0.17770000000E+01 0.  1.
</event>
<event>
 6   1  0.1826851E-04  0.5095766E+03  0.7546771E-02  0.9378633E-01
        -11   -1    0    0    0    0  0.00000000000E+00  0.00000000000E+00  0.50000000000E+03  0.50000000000E+03  0.00000000000E+00 0. -1.
         11   -1    0    0    0    0 -0.00000000000E+00 -0.00000000000E+00 -0.50000000000E+03  0.50000000000E+03  0.00000000000E+00 0.  1.
        -11    1    1    2    0    0 -0.68382415403E+00  0.30742178850E+02  0.44786593297E+03  0.44892030817E+03  0.00000000000E+00 0. -1.
         11    1    1    2    0    0  0.91845575074E+01  0.51574106224E+01 -0.49031030607E+03  0.49042344073E+03  0.00000000000E+00 0.  1.
        -15    1    1    2    0    0 -0.21632396971E+01 -0.36507639921E+02  0.37418945225E+02  0.52352865913E+02  0.17770000000E+01 0. -1.
         15    1    1    2    0    0 -0.63374936562E+01  0.60805044787E+00  0.50254278736E+01  0.83033851833E+01  0.17770000000E+01 0.  1.
</event>
<event>
 6   1  0.1826851E-04  0.5033882E+03  0.7546771E-02  0.9392260E-01
        -11   -1    0    0    0    0  0.00000000000E+00  0.00000000000E+00  0.50000000000E+03  0.50000000000E+03  0.00000000000E+00 0.  1.
         11   -1    0    0    0    0 -0.00000000000E+00 -0.00000000000E+00 -0.50000000000E+03  0.50000000000E+03  0.00000000000E+00 0.  1.
        -11    1    1    2    0    0 -0.68267698920E+01 -0.16143841763E+02  0.49630241358E+03  0.49661183447E+03  0.00000000000E+00 0.  1.
         11    1    1    2    0    0  0.17058722190E+02  0.64026590033E+01 -0.44363589549E+03  0.44400991184E+03  0.00000000000E+00 0.  1.
        -15    1    1    2    0    0 -0.13084799419E+02  0.85603548570E+01 -0.15661204764E+02  0.22201862868E+02  0.17770000000E+01 0.  1.
         15    1    1    2    0    0  0.28528471211E+01  0.11808279023E+01 -0.37005313321E+02  0.37176390818E+02  0.17770000000E+01 0. -1.
</event>
<event>
 6   1  0.1826851E-04  0.5001761E+03  0.7546771E-02  0.9399416E-01
        -11   -1    0    0    0    0  0.00000000000E+00  0.00000000000E+00  0.50000000000E+03  0.50000000000E+03  0.00000000000E+00 0.  1.
         11   -1    0    0    0    0 -0.00000000000E+00 -0.00000000000E+00 -0.50000000000E+03  0.50000000000E+03  0.00000000000E+00 0. -1.
        -11    1    1    2    0    0 -0.10903326688E+02 -0.12304129170E+01  0.49970345565E+03  0.49982390903E+03  0.00000000000E+00 0.  1.
         11    1    1    2    0    0  0.61385452724E+01 -0.45604639869E+01 -0.29015334281E+03  0.29025409887E+03  0.00000000000E+00 0. -1.
        -15    1    1    2    0    0  0.55003504679E+01  0.59334016249E+01 -0.96342146833E+02  0.96697601292E+02  0.17770000000E+01 0.  1.
         15    1    1    2    0    0 -0.73556905244E+00 -0.14252472091E+00 -0.11320796601E+03  0.11322439081E+03  0.17770000000E+01 0. -1.
</event>
<event>
 6   1  0.1826851E-04  0.5006801E+03  0.7546771E-02  0.9398289E-01
        -11   -1    0    0    0    0  0.00000000000E+00  0.00000000000E+00  0.50000000000E+03  0.50000000000E+03  0.00000000000E+00 0. -1.
         11   -1    0    0    0    0 -0.00000000000E+00 -0.00000000000E+00 -0.50000000000E+03  0.50000000000E+03  0.00000000000E+00 0. -1.
        -11    1    1    2    0    0  0.62743521895E+01 -0.59382103793E+01  0.39332320118E+03  0.39341806062E+03  0.00000000000E+00 0. -1.
         11    1    1    2    0    0  0.73716424886E+01  0.39751773673E+01 -0.49924961126E+03  0.49931985489E+03  0.00000000000E+00 0. -1.
        -15    1    1    2    0    0 -0.38059648461E+01 -0.27432433405E+01  0.19630718427E+02  0.20261628449E+02  0.17770000000E+01 0. -1.
         15    1    1    2    0    0 -0.98400298321E+01  0.47062763526E+01  0.86295691654E+02  0.87000456041E+02  0.17770000000E+01 0.  1.
</event>
<event>
 6   1  0.1826851E-04  0.4916629E+03  0.7546771E-02  0.9418660E-01
        -11   -1    0    0    0    0  0.00000000000E+00  0.00000000000E+00  0.50000000000E+03  0.50000000000E+03  0.00000000000E+00 0.  1.
         11   -1    0    0    0    0 -0.00000000000E+00 -0.00000000000E+00 -0.50000000000E+03  0.50000000000E+03  0.00000000000E+00 0. -1.
        -11    1    1    2    0    0 -0.86762602577E+01 -0.30592850885E+01  0.49040666116E+03  0.49049294595E+03  0.00000000000E+00 0.  1.
         11    1    1    2    0    0 -0.58439722053E+01  0.31652967494E+01 -0.49289838821E+03  0.49294319370E+03  0.00000000000E+00 0. -1.
        -15    1    1    2    0    0  0.39749010120E+01  0.27527789359E+01  0.18584301462E+01  0.54762324214E+01  0.17770000000E+01 0.  1.
         15    1    1    2    0    0  0.10545331451E+02 -0.28587905968E+01  0.63329690803E+00  0.11087627928E+02  0.17770000000E+01 0. -1.
</event>
<event>
 6   1  0.1826851E-04  0.5022317E+03  0.7546771E-02  0.9394830E-01
        -11   -1    0    0    0    0  0.00000000000E+00  0.00000000000E+00  0.50000000000E+03  0.50000000000E+03  0.00000000000E+00 0. -1.
         11   -1    0    0    0    0 -0.00000000000E+00 -0.00000000000E+00 -0.50000000000E+03  0.50000000000E+03  0.00000000000E+00 0.  1.
        -11    1    1    2    0    0 -0.13543007758E+02 -0.48715274075E+02  0.18028146382E+03  0.18723780918E+03  0.00000000000E+00 0. -1.
         11    1    1    2    0    0  0.11687818309E+02  0.53179629825E+02 -0.49478134849E+03  0.49776828037E+03  0.00000000000E+00 0.  1.
        -15    1    1    2    0    0  0.90350419240E+01 -0.98849345009E+00  0.19052778010E+03  0.19075272428E+03  0.17770000000E+01 0.  1.
         15    1    1    2    0    0 -0.71798524749E+01 -0.34758623005E+01  0.12397210458E+03  0.12424118618E+03  0.17770000000E+01 0. -1.
</event>
<event>
 6   1  0.1826851E-04  0.4672885E+03  0.7546771E-02  0.9476134E-01
        -11   -1    0    0    0    0  0.00000000000E+00  0.00000000000E+00  0.50000000000E+03  0.50000000000E+03  0.00000000000E+00 0.  1.
         11   -1    0    0    0    0 -0.00000000000E+00 -0.00000000000E+00 -0.50000000000E+03  0.50000000000E+03  0.00000000000E+00 0.  1.
        -11    1    1    2    0    0  0.58172698580E+01 -0.39027548995E+02  0.45357185363E+03  0.45528498395E+03  0.00000000000E+00 0.  1.
         11    1    1    2    0    0  0.46583095565E+01 -0.14814069447E+02 -0.48105294876E+03  0.48130353834E+03  0.00000000000E+00 0.  1.
        -15    1    1    2    0    0 -0.14298970414E+02  0.46497387603E+02  0.23429948885E+02  0.54023956192E+02  0.17770000000E+01 0. -1.
         15    1    1    2    0    0  0.38233909998E+01  0.73442308384E+01  0.40511462498E+01  0.93875215197E+01  0.17770000000E+01 0.  1.
</event>
<event>
 6   1  0.1826851E-04  0.5027544E+03  0.7546771E-02  0.9393668E-01
        -11   -1    0    0    0    0  0.00000000000E+00  0.00000000000E+00  0.50000000000E+03  0.50000000000E+03  0.00000000000E+00 0.  1.
         11   -1    0    0    0    0 -0.00000000000E+00 -0.00000000000E+00 -0.50000000000E+03  0.50000000000E+03  0.00000000000E+00 0.  1.
        -11    1    1    2    0    0  0.45679320118E+01 -0.10368742988E+02  0.49711653703E+03  0.49724564174E+03  0.00000000000E+00 0.  1.
         11    1    1    2    0    0 -0.68104721270E+01  0.52860052517E+01 -0.48626416914E+03  0.48634058701E+03  0.00000000000E+00 0.  1.
        -15    1    1    2    0    0  0.17309630161E+01  0.34660834172E+01  0.94296199027E+00  0.43654179105E+01  0.17770000000E+01 0.  1.
         15    1    1    2    0    0  0.51157709907E+00  0.16166543192E+01 -0.11795329878E+02  0.12048353341E+02  0.17770000000E+01 0. -1.
</event>
<event>
 6   1  0.1826851E-04  0.5062439E+03  0.7546771E-02  0.9385946E-01
        -11   -1    0    0    0    0  0.00000000000E+00  0.00000000000E+00  0.50000000000E+03  0.50000000000E+03  0.00000000000E+00 0.  1.
         11   -1    0    0    0    0 -0.00000000000E+00 -0.00000000000E+00 -0.50000000000E+03  0.50000000000E+03  0.00000000000E+00 0.  1.
        -11    1    1    2    0    0 -0.86981931775E+01 -0.19751992932E+02  0.46271048695E+03  0.46321355174E+03  0.00000000000E+00 0.  1.
         11    1    1    2    0    0  0.70926662817E+01 -0.45183499759E+00 -0.49370497925E+03  0.49375613071E+03  0.00000000000E+00 0.  1.
        -15    1    1    2    0    0  0.14613180702E+01  0.11322140752E+02  0.31898595103E+02  0.33926456052E+02  0.17770000000E+01 0.  1.
         15    1    1    2    0    0  0.14420882558E+00  0.88816871781E+01 -0.90410279454E+00  0.91038614982E+01  0.17770000000E+01 0. -1.
</event>
<event>
 6   1  0.1826851E-04  0.5003601E+03  0.7546771E-02  0.9399004E-01
        -11   -1    0    0    0    0  0.00000000000E+00  0.00000000000E+00  0.50000000000E+03  0.50000000000E+03  0.00000000000E+00 0. -1.
         11   -1    0    0    0    0 -0.00000000000E+00 -0.00000000000E+00 -0.50000000000E+03  0.50000000000E+03  0.00000000000E+00 0. -1.
        -11    1    1    2    0    0 -0.57173943343E+01  0.13548086399E+02  0.49942349725E+03  0.49963993921E+03  0.00000000000E+00 0. -1.
         11    1    1    2    0    0  0.16673795971E+01  0.36345334485E+01 -0.29257356361E+03  0.29260088877E+03  0.00000000000E+00 0. -1.
        -15    1    1    2    0    0 -0.13251145532E+01 -0.17362571478E+01 -0.22202651618E+02  0.22380482240E+02  0.17770000000E+01 0.  1.
         15    1    1    2    0    0  0.53751292904E+01 -0.15446362700E+02 -0.18464728203E+03  0.18537868978E+03  0.17770000000E+01 0. -1.
</event>
<event>
 6   1  0.1826851E-04  0.5058758E+03  0.7546771E-02  0.9386757E-01
        -11   -1    0    0    0    0  0.00000000000E+00  0.00000000000E+00  0.50000000000E+03  0.50000000000E+03  0.00000000000E+00 0. -1.
         11   -1    0    0    0    0 -0.00000000000E+00 -0.00000000000E+00 -0.50000000000E+03  0.50000000000E+03  0.00000000000E+00 0.  1.
        -11    1    1    2    0    0  0.21514279356E+02 -0.21016996483E+02  0.49320802844E+03  0.49412421280E+03  0.00000000000E+00 0. -1.
         11    1    1    2    0    0  0.67183920640E+01 -0.10029584665E+01 -0.43655315142E+03  0.43660599713E+03  0.00000000000E+00 0.  1.
        -15    1    1    2    0    0 -0.24613633535E+02  0.22805540031E+02 -0.40618414572E+02  0.52715623332E+02  0.17770000000E+01 0. -1.
         15    1    1    2    0    0 -0.36190378849E+01 -0.78558508137E+00 -0.16036462451E+02  0.16554166729E+02  0.17770000000E+01 0.  1.
</event>
<event>
 6   1  0.1826851E-04  0.5019242E+03  0.7546771E-02  0.9395514E-01
        -11   -1    0    0    0    0  0.00000000000E+00  0.00000000000E+00  0.50000000000E+03  0.50000000000E+03  0.00000000000E+00 0. -1.
         11   -1    0    0    0    0 -0.00000000000E+00 -0.00000000000E+00 -0.50000000000E+03  0.50000000000E+03  0.00000000000E+00 0.  1.
        -11    1    1    2    0    0 -0.31598850666E+02  0.14439367157E+02  0.49686267208E+03  0.49807579503E+03  0.00000000000E+00 0. -1.
         11    1    1    2    0    0  0.14385830966E+02 -0.35353618973E+01 -0.32370395911E+03  0.32404275036E+03  0.00000000000E+00 0.  1.
        -15    1    1    2    0    0 -0.23438866005E+01  0.41442244035E+00  0.26560496796E+00  0.29822517255E+01  0.17770000000E+01 0. -1.
         15    1    1    2    0    0  0.19556906301E+02 -0.11318427700E+02 -0.17342431794E+03  0.17489920289E+03  0.17770000000E+01 0.  1.
</event>
<event>
 6   1  0.1826851E-04  0.5008716E+03  0.7546771E-02  0.9397862E-01
        -11   -1    0    0    0    0  0.00000000000E+00  0.00000000000E+00  0.50000000000E+03  0.50000000000E+03  0.00000000000E+00 0. -1.
         11   -1    0    0    0    0 -0.00000000000E+00 -0.00000000000E+00 -0.50000000000E+03  0.50000000000E+03  0.00000000000E+00 0. -1.
        -11    1    1    2    0    0 -0.29068008310E+01  0.94842427309E+01  0.49902984439E+03  0.49912842630E+03  0.00000000000E+00 0. -1.
         11    1    1    2    0    0  0.21641646743E+01  0.59618494648E+01 -0.39135741812E+03  0.39140880927E+03  0.00000000000E+00 0. -1.
        -15    1    1    2    0    0 -0.31874403230E+01 -0.43069222914E+01 -0.61917880208E+02  0.62174681132E+02  0.17770000000E+01 0. -1.
         15    1    1    2    0    0  0.39300764797E+01 -0.11139169904E+02 -0.45754546063E+02  0.47288083295E+02  0.17770000000E+01 0. -1.
</event>
<event>
 6   1  0.1826851E-04  0.4850453E+03  0.7546771E-02  0.9433908E-01
        -11   -1    0    0    0    0  0.00000000000E+00  0.00000000000E+00  0.50000000000E+03  0.50000000000E+03  0.00000000000E+00 0.  1.
         11   -1    0    0    0    0 -0.00000000000E+00 -0.00000000000E+00 -0.50000000000E+03  0.50000000000E+03  0.00000000000E+00 0. -1.
        -11    1    1    2    0    0 -0.12986558450E+02 -0.15884705632E+02  0.48234514209E+03  0.48278132800E+03  0.00000000000E+00 0.  1.
         11    1    1    2    0    0 -0.53402699972E+01  0.50199773061E+01 -0.48750186920E+03  0.48755696193E+03  0.00000000000E+00 0. -1.
        -15    1    1    2    0    0  0.28865298288E+01 -0.53390052215E+01  0.32975350582E+01  0.71322154810E+01  0.17770000000E+01 0. -1.
         15    1    1    2    0    0  0.15440298619E+02  0.16203733548E+02  0.18591920516E+01  0.22529494588E+02  0.17770000000E+01 0.  1.
</event>
<event>
 6   1  0.1826851E-04  0.4643362E+03  0.7546771E-02  0.9483348E-01
        -11   -1    0    0    0    0  0.00000000000E+00  0.00000000000E+00  0.50000000000E+03  0.50000000000E+03  0.00000000000E+00 0. -1.
         11   -1    0    0    0    0 -0.00000000000E+00 -0.00000000000E+00 -0.50000000000E+03  0.50000000000E+03  0.00000000000E+00 0.  1.
        -11    1    1    2    0    0  0.36270367702E+02  0.52401359585E+01  0.47498869966E+03  0.47640031844E+03  0.00000000000E+00 0. -1.
         11    1    1    2    0    0  0.96988169176E+01  0.87662546143E+01 -0.45357281221E+03  0.45376118195E+03  0.00000000000E+00 0.  1.
        -15    1    1    2    0    0 -0.22523638010E+02 -0.13660559662E+02 -0.34095186012E+02  0.43122669185E+02  0.17770000000E+01 0.  1.
         15    1    1    2    0    0 -0.23445546609E+02 -0.34583091109E+00  0.12679298553E+02  0.26715830431E+02  0.17770000000E+01 0. -1.
</event>
<event>
 6   1  0.1826851E-04  0.5042260E+03  0.7546771E-02  0.9390403E-01
        -11   -1    0    0    0    0  0.00000000000E+00  0.00000000000E+00  0.50000000000E+03  0.50000000000E+03  0.00000000000E+00 0.  1.
         11   -1    0    0    0    0 -0.00000000000E+00 -0.00000000000E+00 -0.50000000000E+03  0.50000000000E+03  0.00000000000E+00 0.  1.
        -11    1    1    2    0    0  0.11567273955E+02 -0.37977024154E+01  0.46626674260E+03  0.46642566356E+03  0.00000000000E+00 0.  1.
         11    1    1    2    0    0  0.68520229611E+01 -0.15689004823E+01 -0.49572413650E+03  0.49577397186E+03  0.00000000000E+00 0.  1.
        -15    1    1    2    0    0 -0.16227614444E+02  0.37656346562E+01  0.30141837398E+02  0.34484830950E+02  0.17770000000E+01 0. -1.
         15    1    1    2    0    0 -0.21916824724E+01  0.16009682416E+01 -0.68444349585E+00  0.33155336327E+01  0.17770000000E+01 0.  1.
</event>
<event>
 6   1  0.1826851E-04  0.5086298E+03  0.7546771E-02  0.9380704E-01
        -11   -1    0    0    0    0  0.00000000000E+00  0.00000000000E+00  0.50000000000E+03  0.50000000000E+03  0.00000000000E+00 0.  1.
         11   -1    0    0    0    0 -0.00000000000E+00 -0.00000000000E+00 -0.50000000000E+03  0.50000000000E+03  0.00000000000E+00 0. -1.
        -11    1    1    2    0    0 -0.81880943246E+01 -0.32046041925E+02  0.24264399045E+02  0.41021393842E+02  0.00000000000E+00 0.  1.
         11    1    1    2    0    0  0.94143441035E+01  0.87755517168E+01 -0.49120165452E+03  0.49137023271E+03  0.00000000000E+00 0. -1.
        -15    1    1    2    0    0  0.16722389586E+00  0.22581055052E+02  0.42922508854E+03  0.42982236606E+03  0.17770000000E+01 0.  1.
         15    1    1    2    0    0 -0.13934736747E+01  0.68943515660E+00  0.37712166943E+02  0.37786007387E+02  0.17770000000E+01 0. -1.
</event>
<event>
 6   1  0.1826851E-04  0.5078497E+03  0.7546771E-02  0.9382415E-01
        -11   -1    0    0    0    0  0.00000000000E+00  0.00000000000E+00  0.50000000000E+03  0.50000000000E+03  0.00000000000E+00 0. -1.
         11   -1    0    0    0    0 -0.00000000000E+00 -0.00000000000E+00 -0.50000000000E+03  0.50000000000E+03  0.00000000000E+00 0. -1.
        -11    1    1    2    0    0 -0.94766539428E+01 -0.23275505443E+02  0.49150822351E+03  0.49215027167E+03  0.00000000000E+00 0. -1.
         11    1    1    2    0    0  0.16748740066E+02  0.47858877155E+01 -0.45739487921E+03  0.45772644728E+03  0.00000000000E+00 0. -1.
        -15    1    1    2    0    0  0.10260029736E+02  0.15741445330E+02 -0.18252338608E+02  0.26255797549E+02  0.17770000000E+01 0.  1.
         15    1    1    2    0    0 -0.17532115860E+02  0.27481723978E+01 -0.15861005694E+02  0.23867483501E+02  0.17770000000E+01 0. -1.
</event>
<event>
 6   1  0.1826851E-04  0.5008031E+03  0.7546771E-02  0.9398014E-01
        -11   -1    0    0    0    0  0.00000000000E+00  0.00000000000E+00  0.50000000000E+03  0.50000000000E+03  0.00000000000E+00 0. -1.
         11   -1    0    0    0    0 -0.00000000000E+00 -0.00000000000E+00 -0.50000000000E+03  0.50000000000E+03  0.00000000000E+00 0. -1.
        -11    1    1    2    0    0  0.27779830498E+01 -0.41133245049E+02  0.49749156790E+03  0.49919687616E+03  0.00000000000E+00 0. -1.
         11    1    1    2    0    0  0.23488769428E+01  0.62857237635E+01 -0.27559131644E+03  0.27567299695E+03  0.00000000000E+00 0. -1.
        -15    1    1    2    0    0 -0.12489989372E+01  0.25807119750E+02 -0.12126926748E+03  0.12400387249E+03  0.17770000000E+01 0.  1.
         15    1    1    2    0    0 -0.38778610554E+01  0.90404015353E+01 -0.10063098398E+03  0.10112625441E+03  0.17770000000E+01 0. -1.
</event>
<event>
 6   1  0.1826851E-04  0.5000673E+03  0.7546771E-02  0.9399659E-01
        -11   -1    0    0    0    0  0.00000000000E+00  0.00000000000E+00  0.50000000000E+03  0.50000000000E+03  0.00000000000E+00 0.  1.
         11   -1    0    0    0    0 -0.00000000000E+00 -0.00000000000E+00 -0.50000000000E+03  0.50000000000E+03  0.00000000000E+00 0. -1.
        -11    1    1    2    0    0 -0.94703450798E+01  0.83013285491E+01  0.49977409531E+03  0.49993274131E+03  0.00000000000E+00 0.  1.
         11    1    1    2    0    0  0.90927273390E+01 -0.66835688742E+01 -0.26993360693E+03  0.27016939119E+03  0.00000000000E+00 0. -1.
        -15    1    1    2    0    0 -0.16679443135E+00 -0.21864037255E+01 -0.90953155472E+02  0.90996936217E+02  0.17770000000E+01 0. -1.
         15    1    1    2    0    0  0.54441217215E+00  0.56864405066E+00 -0.13888733291E+03  0.13890093128E+03  0.17770000000E+01 0. -1.
</event>
<event>
 6   1  0.1826851E-04  0.5033702E+03  0.7546771E-02  0.9392300E-01
        -11   -1    0    0    0    0  0.00000000000E+00  0.00000000000E+00  0.50000000000E+03  0.50000000000E+03  0.00000000000E+00 0. -1.
         11   -1    0    0    0    0 -0.00000000000E+00 -0.00000000000E+00 -0.50000000000E+03  0.50000000000E+03  0.00000000000E+00 0.  1.
        -11    1    1    2    0    0  0.25640466924E+02  0.12231510643E+02  0.49581661471E+03  0.49662980057E+03  0.00000000000E+00 0. -1.
         11    1    1    2    0    0  0.53475910570E+00 -0.61615250260E+01 -0.27392325219E+03  0.27399306278E+03  0.00000000000E+00 0.  1.
        -15    1    1    2    0    0 -0.90989450499E+00 -0.56869840376E+01 -0.18213775932E+03  0.18223745717E+03  0.17770000000E+01 0.  1.
         15    1    1    2    0    0 -0.25265331525E+02 -0.38300157929E+00 -0.39755603192E+02  0.47139679479E+02  0.17770000000E+01 0. -1.
</event>
<event>
 6   1  0.1826851E-04  0.4864147E+03  0.7546771E-02  0.9430732E-01
        -11   -1    0    0    0    0  0.00000000000E+00  0.00000000000E+00  0.50000000000E+03  0.50000000000E+03  0.00000000000E+00 0. -1.
         11   -1    0    0    0    0 -0.00000000000E+00 -0.00000000000E+00 -0.50000000000E+03  0.50000000000E+03  0.00000000000E+00 0. -1.
        -11    1    1    2    0    0  0.90029699607E+01 -0.92419399391E+01  0.48004635052E+03  0.48021970552E+03  0.00000000000E+00 0. -1.
         11    1    1    2    0    0  0.82076128020E+01 -0.26829092170E+01 -0.49284352232E+03  0.49291916213E+03  0.00000000000E+00 0. -1.
        -15    1    1    2    0    0 -0.19551107814E+01  0.41506803119E+01 -0.72207081956E+00  0.49728986002E+01  0.17770000000E+01 0. -1.
         15    1    1    2    0    0 -0.15255471981E+02  0.77741688442E+01  0.13519242613E+02  0.21888233744E+02  0.17770000000E+01 0.  1.
</event>
<event>
 6   1  0.1826851E-04  0.5008869E+03  0.7546771E-02  0.9397827E-01
        -11   -1    0    0    0    0  0.00000000000E+00  0.00000000000E+00  0.50000000000E+03  0.50000000000E+03  0.00000000000E+00 0.  1.
         11   -1    0    0    0    0 -0.00000000000E+00 -0.00000000000E+00 -0.50000000000E+03  0.50000000000E+03  0.00000000000E+00 0.  1.
        -11    1    1    2    0    0  0.13101214041E+02  0.13811511141E+02  0.11159255261E+03  0.11320467061E+03  0.00000000000E+00 0.  1.
         11    1    1    2    0    0 -0.31140627570E+01 -0.83980852223E+01 -0.49903275418E+03  0.49911312843E+03  0.00000000000E+00 0.  1.
        -15    1    1    2    0    0 -0.60078492632E+01  0.48072216856E+00  0.20013117728E+03  0.20022979597E+03  0.17770000000E+01 0.  1.
         15    1    1    2    0    0 -0.39793020206E+01 -0.58941480872E+01  0.18730902429E+03  0.18745240499E+03  0.17770000000E+01 0. -1.
</event>
<event>
 6   1  0.1826851E-04  0.5012019E+03  0.7546771E-02  0.9397124E-01
        -11   -1    0    0    0    0  0.00000000000E+00  0.00000000000E+00  0.50000000000E+03  0.50000000000E+03  0.00000000000E+00 0. -1.
         11   -1    0    0    0    0 -0.00000000000E+00 -0.00000000000E+00 -0.50000000000E+03  0.50000000000E+03  0.00000000000E+00 0. -1.
        -11    1    1    2    0    0 -0.31328099329E+01  0.90902400979E+01  0.49870538057E+03  0.49879805891E+03  0.00000000000E+00 0. -1.
         11    1    1    2    0    0  0.62977078119E+01  0.11143221591E+01 -0.44021482490E+03  0.44026128027E+03  0.00000000000E+00 0. -1.
        -15    1    1    2    0    0 -0.29602753220E+01  0.20116111654E+01 -0.23463713785E+02  0.23801542031E+02  0.17770000000E+01 0.  1.
         15    1    1    2    0    0 -0.20462255701E+00 -0.12216173422E+02 -0.35026841881E+02  0.37139118792E+02  0.17770000000E+01 0.  1.
</event>
<event>
 6   1  0.1826851E-04  0.5251665E+03  0.7546771E-02  0.9345194E-01
        -11   -1    0    0    0    0  0.00000000000E+00  0.00000000000E+00  0.50000000000E+03  0.50000000000E+03  0.00000000000E+00 0. -1.
         11   -1    0    0    0    0 -0.00000000000E+00 -0.00000000000E+00 -0.50000000000E+03  0.50000000000E+03  0.00000000000E+00 0. -1.
        -11    1    1    2    0    0  0.33199764508E+02 -0.44319226501E+02  0.42662255989E+03  0.43020137937E+03  0.00000000000E+00 0. -1.
         11    1    1    2    0    0 -0.10392036966E+02 -0.14292022012E+02 -0.47450456974E+03  0.47483348979E+03  0.00000000000E+00 0. -1.
        -15    1    1    2    0    0  0.91511751129E+01 -0.12816436058E+01 -0.32532385957E+01  0.99562998469E+01  0.17770000000E+01 0.  1.
         15    1    1    2    0    0 -0.31958902655E+02  0.59892892119E+02  0.51135248441E+02  0.85008830997E+02  0.17770000000E+01 0. -1.
</event>
<event>
 6   1  0.1826851E-04  0.5009822E+03  0.7546771E-02  0.9397615E-01
        -11   -1    0    0    0    0  0.00000000000E+00  0.00000000000E+00  0.50000000000E+03  0.50000000000E+03  0.00000000000E+00 0.  1.
         11   -1    0    0    0    0 -0.00000000000E+00 -0.00000000000E+00 -0.50000000000E+03  0.50000000000E+03  0.00000000000E+00 0.  1.
        -11    1    1    2    0    0  0.10324360263E+01 -0.12578610876E+02  0.36131641763E+03  0.36153677686E+03  0.00000000000E+00 0.  1.
         11    1    1    2    0    0  0.74474336118E+01 -0.17125162301E+01 -0.49895928537E+03  0.49901780072E+03  0.00000000000E+00 0.  1.
        -15    1    1    2    0    0 -0.17584280605E+01  0.11312119879E+02  0.11479544389E+03  0.11537854130E+03  0.17770000000E+01 0.  1.
         15    1    1    2    0    0 -0.67214415776E+01  0.29790072264E+01  0.22847423846E+02  0.24066881109E+02  0.17770000000E+01 0. -1.
</event>
<event>
 6   1  0.1826851E-04  0.5007682E+03  0.7546771E-02  0.9398092E-01
        -11   -1    0    0    0    0  0.00000000000E+00  0.00000000000E+00  0.50000000000E+03  0.50000000000E+03  0.00000000000E+00 0. -1.
         11   -1    0    0    0    0 -0.00000000000E+00 -0.00000000000E+00 -0.50000000000E+03  0.50000000000E+03  0.00000000000E+00 0.  1.
        -11    1    1    2    0    0 -0.10965436188E+03 -0.21273529548E+03  0.38999136600E+03  0.45757365590E+03  0.00000000000E+00 0. -1.
         11    1    1    2    0    0  0.12193359312E+03  0.22397793358E+03 -0.42918352240E+03  0.49923182167E+03  0.00000000000E+00 0.  1.
        -15    1    1    2    0    0 -0.10857203232E+02 -0.94027529648E+01  0.36305922350E+02  0.39084118923E+02  0.17770000000E+01 0.  1.
         15    1    1    2    0    0 -0.14220280135E+01 -0.18398851356E+01  0.28862340577E+01  0.41104035105E+01  0.17770000000E+01 0.  1.
</event>
<event>
 6   1  0.1826851E-04  0.5024630E+03  0.7546771E-02  0.9394315E-01
        -11   -1    0    0    0    0  0.00000000000E+00  0.00000000000E+00  0.50000000000E+03  0.50000000000E+03  0.00000000000E+00 0.  1.
         11   -1    0    0    0    0 -0.00000000000E+00 -0.00000000000E+00 -0.50000000000E+03  0.50000000000E+03  0.00000000000E+00 0.  1.
        -11    1    1    2    0    0  0.84202958322E+01  0.17122547603E+01  0.49746278570E+03  0.49753698994E+03  0.00000000000E+00 0.  1.
         11    1    1    2    0    0  0.70210076508E+01 -0.93675881336E+00 -0.47095814666E+03  0.47101140960E+03  0.00000000000E+00 0.  1.
        -15    1    1    2    0    0 -0.82453207241E+01 -0.17914811818E+01 -0.18948856695E+02  0.20818540240E+02  0.17770000000E+01 0. -1.
         15    1    1    2    0    0 -0.71959827588E+01  0.10159852348E+01 -0.75557823455E+01  0.10633060223E+02  0.17770000000E+01 0.  1.
</event>
<event>
 6   1  0.1826851E-04  0.5008431E+03  0.7546771E-02  0.9397925E-01
        -11   -1    0    0    0    0  0.00000000000E+00  0.00000000000E+00  0.50000000000E+03  0.50000000000E+03  0.00000000000E+00 0. -1.
         11   -1    0    0    0    0 -0.00000000000E+00 -0.00000000000E+00 -0.50000000000E+03  0.50000000000E+03  0.00000000000E+00 0.  1.
        -11    1    1    2    0    0  0.24516451333E+01  0.11400174879E+02  0.49902063025E+03  0.49915685307E+03  0.00000000000E+00 0. -1.
         11    1    1    2    0    0  0.96491841084E+01 -0.16629343543E+01 -0.37625382219E+03  0.37638120413E+03  0.00000000000E+00 0.  1.
        -15    1    1    2    0    0 -0.60150244984E+01 -0.23739136647E+01 -0.17392959103E+02  0.18641049894E+02  0.17770000000E+01 0. -1.
         15    1    1    2    0    0 -0.60858047433E+01 -0.73633268599E+01 -0.10537384896E+03  0.10582089290E+03  0.17770000000E+01 0.  1.
</event>
<event>
 6   1  0.1826851E-04  0.5013481E+03  0.7546771E-02  0.9396798E-01
        -11   -1    0    0    0    0  0.00000000000E+00  0.00000000000E+00  0.50000000000E+03  0.50000000000E+03  0.00000000000E+00 0.  1.
         11   -1    0    0    0    0 -0.00000000000E+00 -0.00000000000E+00 -0.50000000000E+03  0.50000000000E+03  0.00000000000E+00 0. -1.
        -11    1    1    2    0    0  0.35965058677E+01 -0.49954370154E+01  0.64728712258E+01  0.89323741154E+01  0.00000000000E+00 0.  1.
         11    1    1    2    0    0 -0.73327972966E+01  0.15802464154E+01 -0.49859549812E+03  0.49865192053E+03  0.00000000000E+00 0. -1.
        -15    1    1    2    0    0  0.84906916734E+01  0.29834451774E+01  0.42540553239E+03  0.42550442713E+03  0.17770000000E+01 0.  1.
         15    1    1    2    0    0 -0.47544002446E+01  0.43174542273E+00  0.66717094512E+02  0.66911278234E+02  0.17770000000E+01 0. -1.
</event>
<event>
 6   1  0.1826851E-04  0.5001566E+03  0.7546771E-02  0.9399459E-01
        -11   -1    0    0    0    0  0.00000000000E+00  0.00000000000E+00  0.50000000000E+03  0.50000000000E+03  0.00000000000E+00 0.  1.
         11   -1    0    0    0    0 -0.00000000000E+00 -0.00000000000E+00 -0.50000000000E+03  0.50000000000E+03  0.00000000000E+00 0.  1.
        -11    1    1    2    0    0 -0.58807293690E+01  0.21521461588E+00  0.33853576197E+03  0.33858690380E+03  0.00000000000E+00 0.  1.
         11    1    1    2    0    0  0.56821835503E+01 -0.57029292769E+01 -0.49977859837E+03  0.49984343349E+03  0.00000000000E+00 0.  1.
        -15    1    1    2    0    0  0.25099070614E+01 -0.57195876802E+00  0.74933435949E+02  0.74998695471E+02  0.17770000000E+01 0. -1.
         15    1    1    2    0    0 -0.23113612428E+01  0.60596734291E+01  0.86309400451E+02  0.86570967236E+02  0.17770000000E+01 0.  1.
</event>
<event>
 6   1  0.1826851E-04  0.5000595E+03  0.7546771E-02  0.9399677E-01
        -11   -1    0    0    0    0  0.00000000000E+00  0.00000000000E+00  0.50000000000E+03  0.50000000000E+03  0.00000000000E+00 0. -1.
         11   -1    0    0    0    0 -0.00000000000E+00 -0.00000000000E+00 -0.50000000000E+03  0.50000000000E+03  0.00000000000E+00 0. -1.
        -11    1    1    2    0    0  0.17549634253E+01  0.10206500904E+02  0.30714017147E+03  0.30731472058E+03  0.00000000000E+00 0. -1.
         11    1    1    2    0    0 -0.11599338247E+01 -0.98973207438E+01 -0.49984119004E+03  0.49994051413E+03  0.00000000000E+00 0. -1.
        -15    1    1    2    0    0 -0.90147941936E+00  0.26332653930E+00  0.68959794702E+02  0.68989078994E+02  0.17770000000E+01 0.  1.
         15    1    1    2    0    0  0.30644981877E+00 -0.57250669968E+00  0.12374122387E+03  0.12375568629E+03  0.17770000000E+01 0. -1.
</event>
<event>
 6   1  0.1826851E-04  0.5020037E+03  0.7546771E-02  0.9395337E-01
        -11   -1    0    0    0    0  0.00000000000E+00  0.00000000000E+00  0.50000000000E+03  0.50000000000E+03  0.00000000000E+00 0.  1.
         11   -1    0    0    0    0 -0.00000000000E+00 -0.00000000000E+00 -0.50000000000E+03  0.50000000000E+03  0.00000000000E+00 0. -1.
        -11    1    1    2    0    0  0.12576492822E+01 -0.24428691704E+02  0.49739519601E+03  0.49799630889E+03  0.00000000000E+00 0.  1.
         11    1    1    2    0    0  0.79590576580E+01 -0.47737526263E+01 -0.34597031742E+03  0.34609477871E+03  0.00000000000E+00 0. -1.
        -15    1    1    2    0    0 -0.11469929226E+02  0.56766524662E+01 -0.41798942825E+02  0.43750348684E+02  0.17770000000E+01 0.  1.
         15    1    1    2    0    0  0.22532222855E+01  0.23525791864E+02 -0.10962593576E+03  0.11215856371E+03  0.17770000000E+01 0. -1.
</event>
<event>
 6   1  0.1826851E-04  0.5002841E+03  0.7546771E-02  0.9399174E-01
        -11   -1    0    0    0    0  0.00000000000E+00  0.00000000000E+00  0.50000000000E+03  0.50000000000E+03  0.00000000000E+00 0.  1.
         11   -1    0    0    0    0 -0.00000000000E+00 -0.00000000000E+00 -0.50000000000E+03  0.50000000000E+03  0.00000000000E+00 0.  1.
        -11    1    1    2    0    0 -0.79996366681E+01 -0.68169506066E+01  0.41571262948E+03  0.41584547047E+03  0.00000000000E+00 0.  1.
         11    1    1    2    0    0  0.15030489874E+02  0.16803463565E+01 -0.49948698240E+03  0.49971590407E+03  0.00000000000E+00 0.  1.
        -15    1    1    2    0    0 -0.55228721828E+01  0.40681226115E+01  0.73823576773E+02  0.74162861024E+02  0.17770000000E+01 0.  1.
         15    1    1    2    0    0 -0.15079810229E+01  0.10684816386E+01  0.99507761526E+01  0.10275764440E+02  0.17770000000E+01 0. -1.
</event>
<event>
 6   1  0.1826851E-04  0.5001608E+03  0.7546771E-02  0.9399450E-01
        -11   -1    0    0    0    0  0.00000000000E+00  0.00000000000E+00  0.50000000000E+03  0.50000000000E+03  0.00000000000E+00 0.  1.
         11   -1    0    0    0    0 -0.00000000000E+00 -0.00000000000E+00 -0.50000000000E+03  0.50000000000E+03  0.00000000000E+00 0. -1.
        -11    1    1    2    0    0 -0.59847906971E+01  0.62869242342E+01  0.18096824418E+03  0.18117629133E+03  0.00000000000E+00 0.  1.
         11    1    1    2    0    0 -0.17803194019E+01 -0.81532072121E+01 -0.49976949779E+03  0.49983916938E+03  0.00000000000E+00 0. -1.
        -15    1    1    2    0    0  0.42551462196E+01 -0.12952313898E+01  0.22212282864E+03  0.22217446439E+03  0.17770000000E+01 0.  1.
         15    1    1    2    0    0  0.35099638794E+01  0.31615143677E+01  0.96678424972E+02  0.96810074907E+02  0.17770000000E+01 0. -1.
</event>
<event>
 6   1  0.1826851E-04  0.5000416E+03  0.7546771E-02  0.9399717E-01
        -11   -1    0    0    0    0  0.00000000000E+00  0.00000000000E+00  0.50000000000E+03  0.50000000000E+03  0.00000000000E+00 0.  1.
         11   -1    0    0    0    0 -0.00000000000E+00 -0.00000000000E+00 -0.50000000000E+03  0.50000000000E+03  0.00000000000E+00 0.  1.
        -11    1    1    2    0    0  0.13911277657E+01 -0.56266023873E+01  0.18610220421E+03  0.18619243890E+03  0.00000000000E+00 0.  1.
         11    1    1    2    0    0  0.16406321047E+01  0.81136545203E+01 -0.49988990181E+03  0.49995843526E+03  0.00000000000E+00 0.  1.
        -15    1    1    2    0    0 -0.33108313057E+01 -0.20698993421E+01  0.19589190057E+03  0.19593886936E+03  0.17770000000E+01 0.  1.
         15    1    1    2    0    0  0.27907143531E+00 -0.41715279095E+00  0.11789579703E+03  0.11791025648E+03  0.17770000000E+01 0.  1.
</event>
<event>
 6   1  0.1826851E-04  0.5031512E+03  0.7546771E-02  0.9392786E-01
        -11   -1    0    0    0    0  0.00000000000E+00  0.00000000000E+00  0.50000000000E+03  0.50000000000E+03  0.00000000000E+00 0.  1.
         11   -1    0    0    0    0 -0.00000000000E+00 -0.00000000000E+00 -0.50000000000E+03  0.50000000000E+03  0.00000000000E+00 0.  1.
        -11    1    1    2    0    0 -0.77195405295E+01 -0.30061331409E+01  0.49677971386E+03  0.49684878207E+03  0.00000000000E+00 0.  1.
         11    1    1    2    0    0 -0.91962106569E+00  0.67531977963E+01 -0.48436111576E+03  0.48440906457E+03  0.00000000000E+00 0.  1.
        -15    1    1    2    0    0  0.94262389478E+01 -0.84391768805E+00 -0.57543601342E+01  0.11217689928E+02  0.17770000000E+01 0.  1.
         15    1    1    2    0    0 -0.78707735257E+00 -0.29031469673E+01 -0.66642379713E+01  0.75244634235E+01  0.17770000000E+01 0. -1.
</event>
<event>
 6   1  0.1826851E-04  0.5057311E+03  0.7546771E-02  0.9387076E-01
        -11   -1    0    0    0    0  0.00000000000E+00  0.00000000000E+00  0.50000000000E+03  0.50000000000E+03  0.00000000000E+00 0.  1.
         11   -1    0    0    0    0 -0.00000000000E+00 -0.00000000000E+00 -0.50000000000E+03  0.50000000000E+03  0.00000000000E+00 0. -1.
        -11    1    1    2    0    0  0.13937173166E+02 -0.19320452468E+02  0.42668499959E+03  0.42734952153E+03  0.00000000000E+00 0.  1.
         11    1    1    2    0    0  0.13689464883E+02  0.16097276681E+02 -0.49381694598E+03  0.49426885387E+03  0.00000000000E+00 0. -1.
        -15    1    1    2    0    0 -0.14504343562E+02  0.12987148361E+02  0.53681874715E+02  0.57130932135E+02  0.17770000000E+01 0.  1.
         15    1    1    2    0    0 -0.13122294488E+02 -0.97639725730E+01  0.13450071676E+02  0.21250692462E+02  0.17770000000E+01 0. -1.
</event>
<event>
 6   1  0.1826851E-04  0.4869158E+03  0.7546771E-02  0.9429572E-01
        -11   -1    0    0    0    0  0.00000000000E+00  0.00000000000E+00  0.50000000000E+03  0.50000000000E+03  0.00000000000E+00 0. -1.
         11   -1    0    0    0    0 -0.00000000000E+00 -0.00000000000E+00 -0.50000000000E+03  0.50000000000E+03  0.00000000000E+00 0.  1.
        -11    1    1    2    0    0  0.97128532063E+00  0.12649620447E+02  0.49128051930E+03  0.49144430502E+03  0.00000000000E+00 0. -1.
         11    1    1    2    0    0 -0.36755843440E+01  0.77826784921E+01 -0.48256752492E+03  0.48264427492E+03  0.00000000000E+00 0.  1.
        -15    1    1    2    0    0  0.48671025816E+00 -0.14336032071E+02  0.54954906903E+00  0.14464385075E+02  0.17770000000E+01 0. -1.
         15    1    1    2    0    0  0.22175887652E+01 -0.60962668680E+01 -0.92625434503E+01  0.11447034980E+02  0.17770000000E+01 0.  1.
</event>
<event>
 6   1  0.1826851E-04  0.5000771E+03  0.7546771E-02  0.9399637E-01
        -11   -1    0    0    0    0  0.00000000000E+00  0.00000000000E+00  0.50000000000E+03  0.50000000000E+03  0.00000000000E+00 0. -1.
         11   -1    0    0    0    0 -0.00000000000E+00 -0.00000000000E+00 -0.50000000000E+03  0.50000000000E+03  0.00000000000E+00 0.  1.
        -11    1    1    2    0    0 -0.33993012667E+01 -0.17909055649E+01  0.88629168604E+02  0.88712412431E+02  0.00000000000E+00 0. -1.
         11    1    1    2    0    0  0.10603810834E+02 -0.29656523824E+01 -0.49980165782E+03  0.49992292712E+03  0.00000000000E+00 0.  1.
        -15    1    1    2    0    0 -0.68787992464E+01  0.54905656155E+01  0.38979872941E+03  0.38990213050E+03  0.17770000000E+01 0. -1.
         15    1    1    2    0    0 -0.32571032064E+00 -0.73400766828E+00  0.21373759804E+02  0.21462529944E+02  0.17770000000E+01 0. -1.
</event>
<event>
 6   1  0.1826851E-04  0.4910413E+03  0.7546771E-02  0.9420082E-01
        -11   -1    0    0    0    0  0.00000000000E+00  0.00000000000E+00  0.50000000000E+03  0.50000000000E+03  0.00000000000E+00 0. -1.
         11   -1    0    0    0    0 -0.00000000000E+00 -0.00000000000E+00 -0.50000000000E+03  0.50000000000E+03  0.00000000000E+00 0. -1.
        -11    1    1    2    0    0 -0.12052684518E+02  0.16417250358E+00  0.49199828665E+03  0.49214592168E+03  0.00000000000E+00 0. -1.
         11    1    1    2    0    0  0.69179620962E+01  0.46665621098E+01 -0.48989316614E+03  0.48996423260E+03  0.00000000000E+00 0. -1.
        -15    1    1    2    0    0 -0.28425995482E+01  0.42548328358E+01  0.33837969981E+00  0.54273570431E+01  0.17770000000E+01 0.  1.
         15    1    1    2    0    0  0.79773219696E+01 -0.90855674492E+01 -0.24435002134E+01  0.12462488675E+02  0.17770000000E+01 0. -1.
</event>
<event>
 6   1  0.1826851E-04  0.5001095E+03  0.7546771E-02  0.9399565E-01
        -11   -1    0    0    0    0  0.00000000000E+00  0.00000000000E+00  0.50000000000E+03  0.50000000000E+03  0.00000000000E+00 0. -1.
         11   -1    0    0    0    0 -0.00000000000E+00 -0.00000000000E+00 -0.50000000000E+03  0.50000000000E+03  0.00000000000E+00 0. -1.
        -11    1    1    2    0    0 -0.18775803169E+02 -0.29111135215E+01  0.49952923624E+03  0.49989045123E+03  0.00000000000E+00 0. -1.
         11    1    1    2    0    0  0.13099981437E+02  0.54092679773E+01 -0.32984443198E+03  0.33014878313E+03  0.00000000000E+00 0. -1.
        -15    1    1    2    0    0  0.67327492217E+01 -0.26802474188E+01 -0.14349049203E+03  0.14368435082E+03  0.17770000000E+01 0. -1.
         15    1    1    2    0    0 -0.10569274901E+01  0.18209296303E+00 -0.26194312237E+02  0.26276414826E+02  0.17770000000E+01 0. -1.
</event>
<event>
 6   1  0.1826851E-04  0.5016985E+03  0.7546771E-02  0.9396017E-01
        -11   -1    0    0    0    0  0.00000000000E+00  0.00000000000E+00  0.50000000000E+03  0.50000000000E+03  0.00000000000E+00 0. -1.
         11   -1    0    0    0    0 -0.00000000000E+00 -0.00000000000E+00 -0.50000000000E+03  0.50000000000E+03  0.00000000000E+00 0. -1.
        -11    1    1    2    0    0 -0.61704027797E+01  0.87411300137E+01  0.44862295719E+03  0.44875053086E+03  0.00000000000E+00 0. -1.
         11    1    1    2    0    0 -0.93912358951E+01 -0.71203843434E+00 -0.49821245022E+03  0.49830146284E+03  0.00000000000E+00 0. -1.
        -15    1    1    2    0    0  0.75453275821E+01 -0.11796114048E+01  0.22307852427E+02  0.23645749307E+02  0.17770000000E+01 0.  1.
         15    1    1    2    0    0  0.80163110928E+01 -0.68494801746E+01  0.27281640604E+02  0.29302256999E+02  0.17770000000E+01 0. -1.
</event>
<event>
 6   1  0.1826851E-04  0.5002985E+03  0.7546771E-02  0.9399142E-01
        -11   -1    0    0    0    0  0.00000000000E+00  0.00000000000E+00  0.50000000000E+03  0.50000000000E+03  0.00000000000E+00 0. -1.
         11   -1    0    0    0    0 -0.00000000000E+00 -0.00000000000E+00 -0.50000000000E+03  0.50000000000E+03  0.00000000000E+00 0.  1.
        -11    1    1    2    0    0 -0.49025843581E+01 -0.38009768392E+00  0.31418229478E+03  0.31422077296E+03  0.00000000000E+00 0. -1.
         11    1    1    2    0    0 -0.42635908750E+01 -0.54017634181E+01 -0.49965406764E+03  0.49970145543E+03  0.00000000000E+00 0.  1.
        -15    1    1    2    0    0 -0.37534028162E+00  0.48253728482E+01  0.74555889964E+02  0.74733951861E+02  0.17770000000E+01 0. -1.
         15    1    1    2    0    0  0.95415155148E+01  0.95648825384E+00  0.11091588290E+03  0.11134381975E+03  0.17770000000E+01 0.  1.
</event>
<event>
 6   1  0.1826851E-04  0.5036048E+03  0.7546771E-02  0.9391780E-01
        -11   -1    0    0    0    0  0.00000000000E+00  0.00000000000E+00  0.50000000000E+03  0.50000000000E+03  0.00000000000E+00 0.  1.
         11   -1    0    0    0    0 -0.00000000000E+00 -0.00000000000E+00 -0.50000000000E+03  0.50000000000E+03  0.00000000000E+00 0. -1.
        -11    1    1    2    0    0  0.17022203750E+02  0.98706195801E+01  0.49600508897E+03  0.49639523853E+03  0.00000000000E+00 0.  1.
         11    1    1    2    0    0 -0.21114675920E+02 -0.21271292367E+02 -0.40674273960E+03  0.40784550216E+03  0.00000000000E+00 0. -1.
        -15    1    1    2    0    0 -0.10798841614E+02 -0.53474194328E+01 -0.30335020835E+02  0.32689158644E+02  0.17770000000E+01 0. -1.
         15    1    1    2    0    0  0.14891313785E+02  0.16748092220E+02 -0.58927328539E+02  0.63070100658E+02  0.17770000000E+01 0.  1.
</event>
<event>
 6   1  0.1826851E-04  0.5004872E+03  0.7546771E-02  0.9398720E-01
        -11   -1    0    0    0    0  0.00000000000E+00  0.00000000000E+00  0.50000000000E+03  0.50000000000E+03  0.00000000000E+00 0.  1.
         11   -1    0    0    0    0 -0.00000000000E+00 -0.00000000000E+00 -0.50000000000E+03  0.50000000000E+03  0.00000000000E+00 0.  1.
        -11    1    1    2    0    0 -0.72353951003E+01  0.26062526474E+01  0.41771139315E+02  0.42473186540E+02  0.00000000000E+00 0.  1.
         11    1    1    2    0    0  0.11697213587E+02 -0.39459198875E+01 -0.49936024466E+03  0.49951281169E+03  0.00000000000E+00 0.  1.
        -15    1    1    2    0    0 -0.15317297623E+01  0.85663699740E+01  0.11922075851E+03  0.11955114336E+03  0.17770000000E+01 0.  1.
         15    1    1    2    0    0 -0.29300887241E+01 -0.72267027340E+01  0.33836834684E+03  0.33846285841E+03  0.17770000000E+01 0. -1.
</event>
<event>
 6   1  0.1826851E-04  0.5001466E+03  0.7546771E-02  0.9399482E-01
        -11   -1    0    0    0    0  0.00000000000E+00  0.00000000000E+00  0.50000000000E+03  0.50000000000E+03  0.00000000000E+00 0.  1.
         11   -1    0    0    0    0 -0.00000000000E+00 -0.00000000000E+00 -0.50000000000E+03  0.50000000000E+03  0.00000000000E+00 0.  1.
        -11    1    1    2    0    0  0.41640495951E+01  0.41939364428E+00  0.22118928651E+03  0.22122887621E+03  0.00000000000E+00 0.  1.
         11    1    1    2    0    0  0.68276115254E+01 -0.19515949254E+01 -0.49980299163E+03  0.49985343396E+03  0.00000000000E+00 0.  1.
        -15    1    1    2    0    0 -0.86276144795E+01  0.34249804675E+01  0.21409953147E+03  0.21430803375E+03  0.17770000000E+01 0.  1.
         15    1    1    2    0    0 -0.23640466411E+01 -0.18927791864E+01  0.64514173641E+02  0.64609656083E+02  0.17770000000E+01 0. -1.
</event>
<event>
 6   1  0.1826851E-04  0.5038530E+03  0.7546771E-02  0.9391229E-01
        -11   -1    0    0    0    0  0.00000000000E+00  0.00000000000E+00  0.50000000000E+03  0.50000000000E+03  0.00000000000E+00 0.  1.
         11   -1    0    0    0    0 -0.00000000000E+00 -0.00000000000E+00 -0.50000000000E+03  0.50000000000E+03  0.00000000000E+00 0. -1.
        -11    1    1    2    0    0 -0.16021998674E+02 -0.86813936751E+01  0.41988769486E+03  0.42028293724E+03  0.00000000000E+00 0.  1.
         11    1    1    2    0    0 -0.70860629154E+01 -0.10119672462E+02 -0.49599315986E+03  0.49614698900E+03  0.00000000000E+00 0. -1.
        -15    1    1    2    0    0  0.77480758766E+01 -0.88348501068E+00  0.95131749823E+01  0.12428654505E+02  0.17770000000E+01 0. -1.
         15    1    1    2    0    0  0.15359985713E+02  0.19684551148E+02  0.66592290022E+02  0.71141419260E+02  0.17770000000E+01 0.  1.
</event>
<event>
 6   1  0.1826851E-04  0.3995197E+03  0.7546771E-02  0.9657821E-01
        -11   -1    0    0    0    0  0.00000000000E+00  0.00000000000E+00  0.50000000000E+03  0.50000000000E+03  0.00000000000E+00 0. -1.
         11   -1    0    0    0    0 -0.00000000000E+00 -0.00000000000E+00 -0.50000000000E+03  0.50000000000E+03  0.00000000000E+00 0. -1.
        -11    1    1    2    0    0 -0.45151494490E+02 -0.11184106048E+03 -0.13522058417E+03  0.18119516176E+03  0.00000000000E+00 0. -1.
         11    1    1    2    0    0  0.57735335220E+02  0.99817389399E+02 -0.33166461645E+03  0.35113857374E+03  0.00000000000E+00 0. -1.
        -15    1    1    2    0    0  0.31271737491E+00 -0.45921538141E+01  0.14859985480E+03  0.14868174146E+03  0.17770000000E+01 0.  1.
         15    1    1    2    0    0 -0.12896558105E+02  0.16615824894E+02  0.31828534582E+03  0.31898452304E+03  0.17770000000E+01 0. -1.
</event>
<event>
 6   1  0.1826851E-04  0.4932954E+03  0.7546771E-02  0.9414938E-01
        -11   -1    0    0    0    0  0.00000000000E+00  0.00000000000E+00  0.50000000000E+03  0.50000000000E+03  0.00000000000E+00 0.  1.
         11   -1    0    0    0    0 -0.00000000000E+00 -0.00000000000E+00 -0.50000000000E+03  0.50000000000E+03  0.00000000000E+00 0.  1.
        -11    1    1    2    0    0 -0.63531427003E+01 -0.10173960588E+02  0.49241441541E+03  0.49256048198E+03  0.00000000000E+00 0.  1.
         11    1    1    2    0    0  0.61032049674E+01  0.33817886579E+01 -0.49400575011E+03  0.49405502400E+03  0.00000000000E+00 0.  1.
        -15    1    1    2    0    0  0.19366098598E+01  0.89126007918E+01  0.31198925481E+01  0.98018553925E+01  0.17770000000E+01 0.  1.
         15    1    1    2    0    0 -0.16866721269E+01 -0.21204288615E+01 -0.15285578569E+01  0.35826386284E+01  0.17770000000E+01 0. -1.
</event>
<event>
 6   1  0.1826851E-04  0.5074066E+03  0.7546771E-02  0.9383388E-01
        -11   -1    0    0    0    0  0.00000000000E+00  0.00000000000E+00  0.50000000000E+03  0.50000000000E+03  0.00000000000E+00 0.  1.
         11   -1    0    0    0    0 -0.00000000000E+00 -0.00000000000E+00 -0.50000000000E+03  0.50000000000E+03  0.00000000000E+00 0.  1.
        -11    1    1    2    0    0  0.20394302020E+02  0.61933130871E+01  0.49213211234E+03  0.49259344360E+03  0.00000000000E+00 0.  1.
         11    1    1    2    0    0 -0.16983567420E+01  0.15225732302E+02 -0.42594968176E+03  0.42622510336E+03  0.00000000000E+00 0.  1.
        -15    1    1    2    0    0 -0.12676327061E+02 -0.67050156860E+01 -0.14740030002E+01  0.14525044473E+02  0.17770000000E+01 0.  1.
         15    1    1    2    0    0 -0.60196182173E+01 -0.14714029703E+02 -0.64708427584E+02  0.66656408566E+02  0.17770000000E+01 0. -1.
</event>
<event>
 6   1  0.1826851E-04  0.5008565E+03  0.7546771E-02  0.9397895E-01
        -11   -1    0    0    0    0  0.00000000000E+00  0.00000000000E+00  0.50000000000E+03  0.50000000000E+03  0.00000000000E+00 0.  1.
         11   -1    0    0    0    0 -0.00000000000E+00 -0.00000000000E+00 -0.50000000000E+03  0.50000000000E+03  0.00000000000E+00 0. -1.
        -11    1    1    2    0    0 -0.11463036702E+02  0.16035839723E+02  0.49875409447E+03  0.49914346246E+03  0.00000000000E+00 0.  1.
         11    1    1    2    0    0 -0.46797791568E+01  0.65412724629E+01 -0.23305385456E+03  0.23319259787E+03  0.00000000000E+00 0. -1.
        -15    1    1    2    0    0  0.78560874387E+01  0.18733350834E+00 -0.62666704876E+02  0.63182488339E+02  0.17770000000E+01 0.  1.
         15    1    1    2    0    0  0.82867284199E+01 -0.22764445694E+02 -0.20303353504E+03  0.20448145132E+03  0.17770000000E+01 0. -1.
</event>
<event>
 6   1  0.1826851E-04  0.5045544E+03  0.7546771E-02  0.9389676E-01
        -11   -1    0    0    0    0  0.00000000000E+00  0.00000000000E+00  0.50000000000E+03  0.50000000000E+03  0.00000000000E+00 0. -1.
         11   -1    0    0    0    0 -0.00000000000E+00 -0.00000000000E+00 -0.50000000000E+03  0.50000000000E+03  0.00000000000E+00 0. -1.
        -11    1    1    2    0    0 -0.21612420515E+01  0.16715934293E+02 -0.12207232108E+02  0.20811293622E+02  0.00000000000E+00 0. -1.
         11    1    1    2    0    0 -0.99056607862E+01 -0.28119069984E+02 -0.48282352600E+03  0.48374307382E+03  0.00000000000E+00 0. -1.
        -15    1    1    2    0    0  0.86000427113E+01  0.12030377430E+02  0.44869991381E+03  0.44894705824E+03  0.17770000000E+01 0. -1.
         15    1    1    2    0    0  0.34668601264E+01 -0.62724173928E+00  0.46330844296E+02  0.46498574317E+02  0.17770000000E+01 0. -1.
</event>
<event>
 6   1  0.1826851E-04  0.5008930E+03  0.7546771E-02  0.9397814E-01
        -11   -1    0    0    0    0  0.00000000000E+00  0.00000000000E+00  0.50000000000E+03  0.50000000000E+03  0.00000000000E+00 0.  1.
         11   -1    0    0    0    0 -0.00000000000E+00 -0.00000000000E+00 -0.50000000000E+03  0.50000000000E+03  0.00000000000E+00 0.  1.
        -11    1    1    2    0    0  0.65992484268E+00 -0.12320734484E+02  0.49895442514E+03  0.49910695684E+03  0.00000000000E+00 0.  1.
         11    1    1    2    0    0  0.10984726015E+02  0.50932531031E+01 -0.43026968195E+03  0.43044001282E+03  0.00000000000E+00 0.  1.
        -15    1    1    2    0    0 -0.71088342963E+01  0.57934242064E+01 -0.29578689612E+02  0.31018637901E+02  0.17770000000E+01 0. -1.
         15    1    1    2    0    0 -0.45358165614E+01  0.14340571744E+01 -0.39106053578E+02  0.39434392442E+02  0.17770000000E+01 0.  1.
</event>
<event>
 6   1  0.1826851E-04  0.5013722E+03  0.7546771E-02  0.9396744E-01
        -11   -1    0    0    0    0  0.00000000000E+00  0.00000000000E+00  0.50000000000E+03  0.50000000000E+03  0.00000000000E+00 0. -1.
         11   -1    0    0    0    0 -0.00000000000E+00 -0.00000000000E+00 -0.50000000000E+03  0.50000000000E+03  0.00000000000E+00 0. -1.
        -11    1    1    2    0    0 -0.10975802078E+02 -0.17885781084E+02  0.32579295850E+03  0.32646810136E+03  0.00000000000E+00 0. -1.
         11    1    1    2    0    0 -0.82831748994E+01  0.34171988950E+01 -0.49854723439E+03  0.49862775008E+03  0.00000000000E+00 0. -1.
        -15    1    1    2    0    0  0.75285569740E+01  0.11788418085E+01  0.28523648212E+02  0.29577441986E+02  0.17770000000E+01 0. -1.
         15    1    1    2    0    0  0.11730420003E+02  0.13289740381E+02  0.14423062768E+03  0.14532670657E+03  0.17770000000E+01 0.  1.
</event>
<event>
 6   1  0.1826851E-04  0.5025283E+03  0.7546771E-02  0.9394170E-01
        -11   -1    0    0    0    0  0.00000000000E+00  0.00000000000E+00  0.50000000000E+03  0.50000000000E+03  0.00000000000E+00 0.  1.
         11   -1    0    0    0    0 -0.00000000000E+00 -0.00000000000E+00 -0.50000000000E+03  0.50000000000E+03  0.00000000000E+00 0. -1.
        -11    1    1    2    0    0  0.32061374785E+01 -0.43046565917E+02  0.14085221777E+03  0.14731813671E+03  0.00000000000E+00 0.  1.
         11    1    1    2    0    0  0.19432085901E+01  0.49551258519E+02 -0.49499390013E+03  0.49747167200E+03  0.00000000000E+00 0. -1.
        -15    1    1    2    0    0 -0.11794949342E+02  0.58593122687E+01  0.18610419781E+03  0.18657808698E+03  0.17770000000E+01 0. -1.
         15    1    1    2    0    0  0.66456032734E+01 -0.12364004870E+02  0.16803748455E+03  0.16863210430E+03  0.17770000000E+01 0.  1.
</event>
<event>
 6   1  0.1826851E-04  0.5230335E+03  0.7546771E-02  0.9349696E-01
        -11   -1    0    0    0    0  0.00000000000E+00  0.00000000000E+00  0.50000000000E+03  0.50000000000E+03  0.00000000000E+00 0. -1.
         11   -1    0    0    0    0 -0.00000000000E+00 -0.00000000000E+00 -0.50000000000E+03  0.50000000000E+03  0.00000000000E+00 0.  1.
        -11    1    1    2    0    0  0.36963382470E+02  0.39252311796E+01  0.45086679506E+03  0.45239646989E+03  0.00000000000E+00 0. -1.
         11    1    1    2    0    0 -0.49376732853E+01 -0.93479748124E+01 -0.47684929187E+03  0.47696646885E+03  0.00000000000E+00 0.  1.
        -15    1    1    2    0    0 -0.41822925240E+02 -0.24312831253E+01  0.35371639613E+02  0.54857805563E+02  0.17770000000E+01 0. -1.
         15    1    1    2    0    0  0.97972160548E+01  0.78540267581E+01 -0.93891427993E+01  0.15779255694E+02  0.17770000000E+01 0.  1.
</event>
<event>
 6   1  0.1826851E-04  0.5012713E+03  0.7546771E-02  0.9396970E-01
        -11   -1    0    0    0    0  0.00000000000E+00  0.00000000000E+00  0.50000000000E+03  0.50000000000E+03  0.00000000000E+00 0. -1.
         11   -1    0    0    0    0 -0.00000000000E+00 -0.00000000000E+00 -0.50000000000E+03  0.50000000000E+03  0.00000000000E+00 0.  1.
        -11    1    1    2    0    0 -0.54288303807E+01  0.12939577178E+02  0.49853127437E+03  0.49872872023E+03  0.00000000000E+00 0. -1.
         11    1    1    2    0    0  0.30340032237E+01  0.49971373164E+01 -0.42565809401E+03  0.42569823767E+03  0.00000000000E+00 0.  1.
        -15    1    1    2    0    0  0.23594821084E+01 -0.14994620807E+01 -0.16316109024E+02  0.16648984505E+02  0.17770000000E+01 0. -1.
         15    1    1    2    0    0  0.35345048621E-01 -0.16437252414E+02 -0.56557071337E+02  0.58924057595E+02  0.17770000000E+01 0.  1.
</event>
<event>
 6   1  0.1826851E-04  0.5030605E+03  0.7546771E-02  0.9392988E-01
        -11   -1    0    0    0    0  0.00000000000E+00  0.00000000000E+00  0.50000000000E+03  0.50000000000E+03  0.00000000000E+00 0.  1.
         11   -1    0    0    0    0 -0.00000000000E+00 -0.00000000000E+00 -0.50000000000E+03  0.50000000000E+03  0.00000000000E+00 0.  1.
        -11    1    1    2    0    0  0.13745288424E+02 -0.16028440673E+01  0.49674678957E+03  0.49693950840E+03  0.00000000000E+00 0.  1.
         11    1    1    2    0    0  0.13474205332E+02  0.21623191092E+02 -0.37406601470E+03  0.37493266056E+03  0.00000000000E+00 0.  1.
        -15    1    1    2    0    0 -0.44697002347E+01 -0.59466410328E+00 -0.37856306347E+02  0.38165291887E+02  0.17770000000E+01 0. -1.
         15    1    1    2    0    0 -0.22749793522E+02 -0.19425682922E+02 -0.84824468523E+02  0.89962539157E+02  0.17770000000E+01 0.  1.
</event>
<event>
 6   1  0.1826851E-04  0.5009550E+03  0.7546771E-02  0.9397675E-01
        -11   -1    0    0    0    0  0.00000000000E+00  0.00000000000E+00  0.50000000000E+03  0.50000000000E+03  0.00000000000E+00 0. -1.
         11   -1    0    0    0    0 -0.00000000000E+00 -0.00000000000E+00 -0.50000000000E+03  0.50000000000E+03  0.00000000000E+00 0.  1.
        -11    1    1    2    0    0  0.28312847640E+01 -0.18740525330E+02  0.69567212885E+02  0.72102847181E+02  0.00000000000E+00 0. -1.
         11    1    1    2    0    0  0.26377816125E+01  0.29363093870E+02 -0.49817345981E+03  0.49904503327E+03  0.00000000000E+00 0.  1.
        -15    1    1    2    0    0 -0.17389949719E+01 -0.66322991798E+01  0.13171152799E+03  0.13190184165E+03  0.17770000000E+01 0.  1.
         15    1    1    2    0    0 -0.37300714047E+01 -0.39902693603E+01  0.29689471894E+03  0.29695027790E+03  0.17770000000E+01 0. -1.
</event>
<event>
 6   1  0.1826851E-04  0.5011116E+03  0.7546771E-02  0.9397326E-01
        -11   -1    0    0    0    0  0.00000000000E+00  0.00000000000E+00  0.50000000000E+03  0.50000000000E+03  0.00000000000E+00 0. -1.
         11   -1    0    0    0    0 -0.00000000000E+00 -0.00000000000E+00 -0.50000000000E+03  0.50000000000E+03  0.00000000000E+00 0.  1.
        -11    1    1    2    0    0 -0.74865861448E+01  0.26447089520E+01  0.43646658754E+03  0.43653880183E+03  0.00000000000E+00 0. -1.
         11    1    1    2    0    0 -0.69082557932E+01 -0.37290242210E+01 -0.49882663453E+03  0.49888840530E+03  0.00000000000E+00 0.  1.
        -15    1    1    2    0    0  0.10522551278E+02  0.19087724594E+01  0.29527645704E+02  0.31454842036E+02  0.17770000000E+01 0.  1.
         15    1    1    2    0    0  0.38722906605E+01 -0.82445719039E+00  0.32832401288E+02  0.33117950841E+02  0.17770000000E+01 0. -1.
</event>
<event>
 6   1  0.1826851E-04  0.5000743E+03  0.7546771E-02  0.9399643E-01
        -11   -1    0    0    0    0  0.00000000000E+00  0.00000000000E+00  0.50000000000E+03  0.50000000000E+03  0.00000000000E+00 0. -1.
         11   -1    0    0    0    0 -0.00000000000E+00 -0.00000000000E+00 -0.50000000000E+03  0.50000000000E+03  0.00000000000E+00 0.  1.
        -11    1    1    2    0    0  0.19473736856E+01  0.36434520706E+01  0.23523361734E+03  0.23526989126E+03  0.00000000000E+00 0. -1.
         11    1    1    2    0    0 -0.38346383964E+01 -0.63905792885E+01 -0.49987009787E+03  0.49992565317E+03  0.00000000000E+00 0.  1.
        -15    1    1    2    0    0  0.73796403095E+00  0.51449276122E+01  0.21183798814E+03  0.21190919239E+03  0.17770000000E+01 0. -1.
         15    1    1    2    0    0  0.11493006799E+01 -0.23978003943E+01  0.52798492393E+02  0.52895263179E+02  0.17770000000E+01 0.  1.
</event>
<event>
 6   1  0.1826851E-04  0.5024214E+03  0.7546771E-02  0.9394408E-01
        -11   -1    0    0    0    0  0.00000000000E+00  0.00000000000E+00  0.50000000000E+03  0.50000000000E+03  0.00000000000E+00 0. -1.
         11   -1    0    0    0    0 -0.00000000000E+00 -0.00000000000E+00 -0.50000000000E+03  0.50000000000E+03  0.00000000000E+00 0. -1.
        -11    1    1    2    0    0 -0.15316263521E+02  0.32764879735E+02  0.49626236793E+03  0.49757859992E+03  0.00000000000E+00 0. -1.
         11    1    1    2    0    0 -0.61336561580E+00  0.66698632209E+01 -0.31346060992E+03  0.31353216304E+03  0.00000000000E+00 0. -1.
        -15    1    1    2    0    0  0.53846182056E+01 -0.12605883492E+02 -0.10488563893E+03  0.10579252051E+03  0.17770000000E+01 0.  1.
         15    1    1    2    0    0  0.10545010932E+02 -0.26828859464E+02 -0.77916119081E+02  0.83096716526E+02  0.17770000000E+01 0. -1.
</event>
<event>
 6   1  0.1826851E-04  0.5015752E+03  0.7546771E-02  0.9396292E-01
        -11   -1    0    0    0    0  0.00000000000E+00  0.00000000000E+00  0.50000000000E+03  0.50000000000E+03  0.00000000000E+00 0.  1.
         11   -1    0    0    0    0 -0.00000000000E+00 -0.00000000000E+00 -0.50000000000E+03  0.50000000000E+03  0.00000000000E+00 0.  1.
        -11    1    1    2    0    0  0.10744217840E+02  0.11754393195E+01  0.47315664484E+03  0.47328007610E+03  0.00000000000E+00 0.  1.
         11    1    1    2    0    0 -0.27180707551E+01 -0.75864046475E+01 -0.49835962524E+03  0.49842477618E+03  0.00000000000E+00 0.  1.
        -15    1    1    2    0    0 -0.37896326501E+01  0.63755543315E+01  0.11138912302E+02  0.13499707587E+02  0.17770000000E+01 0. -1.
         15    1    1    2    0    0 -0.42365144343E+01  0.35410996487E-01  0.14064068089E+02  0.14795440132E+02  0.17770000000E+01 0.  1.
</event>
<event>
 6   1  0.1826851E-04  0.5044025E+03  0.7546771E-02  0.9390012E-01
        -11   -1    0    0    0    0  0.00000000000E+00  0.00000000000E+00  0.50000000000E+03  0.50000000000E+03  0.00000000000E+00 0.  1.
         11   -1    0    0    0    0 -0.00000000000E+00 -0.00000000000E+00 -0.50000000000E+03  0.50000000000E+03  0.00000000000E+00 0.  1.
        -11    1    1    2    0    0  0.14161578884E+02 -0.37004670241E+02  0.49401116827E+03  0.49559754874E+03  0.00000000000E+00 0.  1.
         11    1    1    2    0    0  0.13213605391E+02  0.91640438148E+01 -0.37471196780E+03  0.37505684620E+03  0.00000000000E+00 0.  1.
        -15    1    1    2    0    0 -0.21601074500E+02  0.32287600253E+02 -0.75684889141E+02  0.85090867448E+02  0.17770000000E+01 0.  1.
         15    1    1    2    0    0 -0.57741097745E+01 -0.44469738268E+01 -0.43614311326E+02  0.44254737614E+02  0.17770000000E+01 0. -1.
</event>
<event>
 6   1  0.1826851E-04  0.5019999E+03  0.7546771E-02  0.9395346E-01
        -11   -1    0    0    0    0  0.00000000000E+00  0.00000000000E+00  0.50000000000E+03  0.50000000000E+03  0.00000000000E+00 0.  1.
         11   -1    0    0    0    0 -0.00000000000E+00 -0.00000000000E+00 -0.50000000000E+03  0.50000000000E+03  0.00000000000E+00 0.  1.
        -11    1    1    2    0    0 -0.32591978051E+01  0.13911427413E+02  0.43015384710E+03  0.43039108071E+03  0.00000000000E+00 0.  1.
         11    1    1    2    0    0  0.53159431053E+01  0.80371675109E+01 -0.49790683782E+03  0.49800007476E+03  0.00000000000E+00 0.  1.
        -15    1    1    2    0    0  0.82660909791E+00 -0.16933157053E+02  0.52548704223E+02  0.55244358399E+02  0.17770000000E+01 0. -1.
         15    1    1    2    0    0 -0.28833543981E+01 -0.50154378712E+01  0.15204286497E+02  0.16364486137E+02  0.17770000000E+01 0.  1.
</event>
<event>
 6   1  0.1826851E-04  0.5031449E+03  0.7546771E-02  0.9392800E-01
        -11   -1    0    0    0    0  0.00000000000E+00  0.00000000000E+00  0.50000000000E+03  0.50000000000E+03  0.00000000000E+00 0. -1.
         11   -1    0    0    0    0 -0.00000000000E+00 -0.00000000000E+00 -0.50000000000E+03  0.50000000000E+03  0.00000000000E+00 0.  1.
        -11    1    1    2    0    0 -0.47521048650E+01 -0.24686682938E+02  0.49621870027E+03  0.49685512306E+03  0.00000000000E+00 0. -1.
         11    1    1    2    0    0  0.20921675277E+01 -0.65292277799E+01 -0.41637291939E+03  0.41642936493E+03  0.00000000000E+00 0.  1.
        -15    1    1    2    0    0  0.44837925653E+01  0.36187676707E+01 -0.16713562698E+02  0.17767970686E+02  0.17770000000E+01 0. -1.
         15    1    1    2    0    0 -0.18238552280E+01  0.27597143047E+02 -0.63132218184E+02  0.68947541320E+02  0.17770000000E+01 0.  1.
</event>
<event>
 6   1  0.1826851E-04  0.5004392E+03  0.7546771E-02  0.9398827E-01
        -11   -1    0    0    0    0  0.00000000000E+00  0.00000000000E+00  0.50000000000E+03  0.50000000000E+03  0.00000000000E+00 0. -1.
         11   -1    0    0    0    0 -0.00000000000E+00 -0.00000000000E+00 -0.50000000000E+03  0.50000000000E+03  0.00000000000E+00 0. -1.
        -11    1    1    2    0    0 -0.33804204019E+02  0.77603580352E+01  0.49835531514E+03  0.49956077458E+03  0.00000000000E+00 0. -1.
         11    1    1    2    0    0  0.19863337010E+02 -0.16656062639E+02 -0.21907156449E+03  0.22059992509E+03  0.00000000000E+00 0. -1.
        -15    1    1    2    0    0  0.41369739085E+01  0.33314621344E+01 -0.60705398751E+02  0.60963237771E+02  0.17770000000E+01 0.  1.
         15    1    1    2    0    0  0.98038931011E+01  0.55642424698E+01 -0.21857835190E+03  0.21887606256E+03  0.17770000000E+01 0. -1.
</event>
<event>
 6   1  0.1826851E-04  0.5088094E+03  0.7546771E-02  0.9380311E-01
        -11   -1    0    0    0    0  0.00000000000E+00  0.00000000000E+00  0.50000000000E+03  0.50000000000E+03  0.00000000000E+00 0.  1.
         11   -1    0    0    0    0 -0.00000000000E+00 -0.00000000000E+00 -0.50000000000E+03  0.50000000000E+03  0.00000000000E+00 0.  1.
        -11    1    1    2    0    0  0.15993396280E+02  0.47254982998E+01  0.49090741478E+03  0.49119060347E+03  0.00000000000E+00 0.  1.
         11    1    1    2    0    0  0.11663125333E+02 -0.48750402475E+01 -0.46092506061E+03  0.46109836913E+03  0.00000000000E+00 0.  1.
        -15    1    1    2    0    0 -0.49871258987E+01 -0.34274382655E+00 -0.23456607753E+02  0.24049097163E+02  0.17770000000E+01 0. -1.
         15    1    1    2    0    0 -0.22669395715E+02  0.49228577422E+00 -0.65257464110E+01  0.23661930238E+02  0.17770000000E+01 0.  1.
</event>
<event>
 6   1  0.1826851E-04  0.5032308E+03  0.7546771E-02  0.9392609E-01
        -11   -1    0    0    0    0  0.00000000000E+00  0.00000000000E+00  0.50000000000E+03  0.50000000000E+03  0.00000000000E+00 0. -1.
         11   -1    0    0    0    0 -0.00000000000E+00 -0.00000000000E+00 -0.50000000000E+03  0.50000000000E+03  0.00000000000E+00 0. -1.
        -11    1    1    2    0    0  0.39104482535E+02  0.37018210625E+02  0.49384222220E+03  0.49676921090E+03  0.00000000000E+00 0. -1.
         11    1    1    2    0    0 -0.21421929557E+02 -0.25260419699E+02 -0.10215304225E+03  0.10738822985E+03  0.00000000000E+00 0. -1.
        -15    1    1    2    0    0 -0.16930970415E+02 -0.24192163447E+02 -0.36643539145E+03  0.36762749131E+03  0.17770000000E+01 0. -1.
         15    1    1    2    0    0 -0.75158256351E+00  0.12434372520E+02 -0.25253788505E+02  0.28215067946E+02  0.17770000000E+01 0.  1.
</event>
<event>
 6   1  0.1826851E-04  0.5022970E+03  0.7546771E-02  0.9394685E-01
        -11   -1    0    0    0    0  0.00000000000E+00  0.00000000000E+00  0.50000000000E+03  0.50000000000E+03  0.00000000000E+00 0.  1.
         11   -1    0    0    0    0 -0.00000000000E+00 -0.00000000000E+00 -0.50000000000E+03  0.50000000000E+03  0.00000000000E+00 0.  1.
        -11    1    1    2    0    0  0.43603218317E+01 -0.47894869562E+01  0.46546380074E+03  0.46550886285E+03  0.00000000000E+00 0.  1.
         11    1    1    2    0    0 -0.10063761242E+02  0.27367973434E+01 -0.49759370914E+03  0.49770299248E+03  0.00000000000E+00 0.  1.
        -15    1    1    2    0    0  0.10870257182E+02 -0.14290497583E+01  0.23541120555E+02  0.26029728397E+02  0.17770000000E+01 0. -1.
         15    1    1    2    0    0 -0.51668177715E+01  0.34817393710E+01  0.85887878424E+01  0.10758416265E+02  0.17770000000E+01 0.  1.
</event>
<event>
 6   1  0.1826851E-04  0.5048033E+03  0.7546771E-02  0.9389126E-01
        -11   -1    0    0    0    0  0.00000000000E+00  0.00000000000E+00  0.50000000000E+03  0.50000000000E+03  0.00000000000E+00 0. -1.
         11   -1    0    0    0    0 -0.00000000000E+00 -0.00000000000E+00 -0.50000000000E+03  0.50000000000E+03  0.00000000000E+00 0. -1.
        -11    1    1    2    0    0 -0.14316037993E+02 -0.19252432343E+02  0.43926033511E+03  0.43991504531E+03  0.00000000000E+00 0. -1.
         11    1    1    2    0    0 -0.38141262413E-01  0.18213143065E+02 -0.49486167595E+03  0.49519672693E+03  0.00000000000E+00 0. -1.
        -15    1    1    2    0    0 -0.16552345080E+01 -0.56899543962E+01  0.42789655011E+02  0.43234565885E+02  0.17770000000E+01 0. -1.
         15    1    1    2    0    0  0.16009413763E+02  0.67292436748E+01  0.12811685834E+02  0.21653661870E+02  0.17770000000E+01 0.  1.
</event>
<event>
 6   1  0.1826851E-04  0.5021532E+03  0.7546771E-02  0.9395005E-01
        -11   -1    0    0    0    0  0.00000000000E+00  0.00000000000E+00  0.50000000000E+03  0.50000000000E+03  0.00000000000E+00 0.  1.
         11   -1    0    0    0    0 -0.00000000000E+00 -0.00000000000E+00 -0.50000000000E+03  0.50000000000E+03  0.00000000000E+00 0.  1.
        -11    1    1    2    0    0 -0.65544431179E+01 -0.92489193699E+00  0.46489570618E+03  0.46494282850E+03  0.00000000000E+00 0.  1.
         11    1    1    2    0    0 -0.69554270165E+01 -0.74444968889E+01 -0.49774250698E+03  0.49784676534E+03  0.00000000000E+00 0.  1.
        -15    1    1    2    0    0  0.11713958097E+02  0.71270384742E+01  0.30700127818E+02  0.33669972806E+02  0.17770000000E+01 0.  1.
         15    1    1    2    0    0  0.17959120374E+01  0.12423503517E+01  0.21466729855E+01  0.35404333561E+01  0.17770000000E+01 0. -1.
</event>
<event>
 6   1  0.1826851E-04  0.5001156E+03  0.7546771E-02  0.9399551E-01
        -11   -1    0    0    0    0  0.00000000000E+00  0.00000000000E+00  0.50000000000E+03  0.50000000000E+03  0.00000000000E+00 0. -1.
         11   -1    0    0    0    0 -0.00000000000E+00 -0.00000000000E+00 -0.50000000000E+03  0.50000000000E+03  0.00000000000E+00 0.  1.
        -11    1    1    2    0    0  0.74952489992E+01 -0.93457847656E+01  0.36225213351E+03  0.36245017683E+03  0.00000000000E+00 0. -1.
         11    1    1    2    0    0 -0.66317327192E+01  0.94957275893E+01 -0.49975021307E+03  0.49988441082E+03  0.00000000000E+00 0.  1.
        -15    1    1    2    0    0  0.57736790672E+00 -0.11791537208E+01  0.11606434286E+03  0.11608537018E+03  0.17770000000E+01 0. -1.
         15    1    1    2    0    0 -0.14408841867E+01  0.10292108972E+01  0.21433736696E+02  0.21580042170E+02  0.17770000000E+01 0.  1.
</event>
<event>
 6   1  0.1826851E-04  0.5003191E+03  0.7546771E-02  0.9399096E-01
        -11   -1    0    0    0    0  0.00000000000E+00  0.00000000000E+00  0.50000000000E+03  0.50000000000E+03  0.00000000000E+00 0. -1.
         11   -1    0    0    0    0 -0.00000000000E+00 -0.00000000000E+00 -0.50000000000E+03  0.50000000000E+03  0.00000000000E+00 0. -1.
        -11    1    1    2    0    0  0.52129261920E+01  0.37313538986E+01  0.42701407509E+03  0.42706219445E+03  0.00000000000E+00 0. -1.
         11    1    1    2    0    0 -0.83393722871E+01 -0.74998289075E+01 -0.49955505818E+03  0.49968094692E+03  0.00000000000E+00 0. -1.
        -15    1    1    2    0    0  0.39926774777E+01  0.46060440661E+01  0.67217678358E+02  0.67516895132E+02  0.17770000000E+01 0. -1.
         15    1    1    2    0    0 -0.86623138258E+00 -0.83756905713E+00  0.53233047267E+01  0.57399634970E+01  0.17770000000E+01 0. -1.
</event>
<event>
 6   1  0.1826851E-04  0.5049363E+03  0.7546771E-02  0.9388832E-01
        -11   -1    0    0    0    0  0.00000000000E+00  0.00000000000E+00  0.50000000000E+03  0.50000000000E+03  0.00000000000E+00 0. -1.
         11   -1    0    0    0    0 -0.00000000000E+00 -0.00000000000E+00 -0.50000000000E+03  0.50000000000E+03  0.00000000000E+00 0.  1.
        -11    1    1    2    0    0  0.93101168411E+01 -0.13324040892E+02  0.48311117863E+03  0.48338454595E+03  0.00000000000E+00 0. -1.
         11    1    1    2    0    0 -0.88681871485E+01  0.10498655369E+02 -0.49487288708E+03  0.49506367356E+03  0.00000000000E+00 0.  1.
        -15    1    1    2    0    0 -0.31492533922E+00  0.15540792119E+01  0.16321284172E+02  0.16494131872E+02  0.17770000000E+01 0.  1.
         15    1    1    2    0    0 -0.12700435337E+00  0.12713063111E+01 -0.45595757238E+01  0.50576486259E+01  0.17770000000E+01 0. -1.
</event>
<event>
 6   1  0.1826851E-04  0.5023445E+03  0.7546771E-02  0.9394579E-01
        -11   -1    0    0    0    0  0.00000000000E+00  0.00000000000E+00  0.50000000000E+03  0.50000000000E+03  0.00000000000E+00 0.  1.
         11   -1    0    0    0    0 -0.00000000000E+00 -0.00000000000E+00 -0.50000000000E+03  0.50000000000E+03  0.00000000000E+00 0.  1.
        -11    1    1    2    0    0  0.55426065002E+02  0.19147104687E+02  0.49418861078E+03  0.49765554687E+03  0.00000000000E+00 0.  1.
         11    1    1    2    0    0 -0.16576540947E+01  0.20257203774E+01 -0.64920144919E+02  0.64972891089E+02  0.00000000000E+00 0.  1.
        -15    1    1    2    0    0 -0.21365693338E+02 -0.14087226085E+02 -0.35602776350E+03  0.35695079339E+03  0.17770000000E+01 0.  1.
         15    1    1    2    0    0 -0.32402717569E+02 -0.70855989796E+01 -0.73240702369E+02  0.80420768656E+02  0.17770000000E+01 0. -1.
</event>
<event>
 6   1  0.1826851E-04  0.5001238E+03  0.7546771E-02  0.9399533E-01
        -11   -1    0    0    0    0  0.00000000000E+00  0.00000000000E+00  0.50000000000E+03  0.50000000000E+03  0.00000000000E+00 0. -1.
         11   -1    0    0    0    0 -0.00000000000E+00 -0.00000000000E+00 -0.50000000000E+03  0.50000000000E+03  0.00000000000E+00 0. -1.
        -11    1    1    2    0    0  0.11085033415E+01  0.12071629131E+02  0.35109927001E+03  0.35130848326E+03  0.00000000000E+00 0. -1.
         11    1    1    2    0    0 -0.11799369715E+01 -0.99205901040E+01 -0.49977636136E+03  0.49987620641E+03  0.00000000000E+00 0. -1.
        -15    1    1    2    0    0 -0.11558699096E+01  0.23761146862E+00  0.23449310243E+02  0.23546132895E+02  0.17770000000E+01 0.  1.
         15    1    1    2    0    0  0.12273035396E+01 -0.23886504961E+01  0.12522778111E+03  0.12526917744E+03  0.17770000000E+01 0. -1.
</event>
<event>
 6   1  0.1826851E-04  0.5025637E+03  0.7546771E-02  0.9394091E-01
        -11   -1    0    0    0    0  0.00000000000E+00  0.00000000000E+00  0.50000000000E+03  0.50000000000E+03  0.00000000000E+00 0. -1.
         11   -1    0    0    0    0 -0.00000000000E+00 -0.00000000000E+00 -0.50000000000E+03  0.50000000000E+03  0.00000000000E+00 0.  1.
        -11    1    1    2    0    0 -0.24081570513E+02  0.21994846276E+02  0.49636597072E+03  0.49743629963E+03  0.00000000000E+00 0. -1.
         11    1    1    2    0    0 -0.44372320537E+01  0.19299717600E+01 -0.35016728970E+03  0.35020072043E+03  0.00000000000E+00 0.  1.
        -15    1    1    2    0    0  0.27761514870E+02 -0.27318556593E+02 -0.13214359084E+03  0.13777551151E+03  0.17770000000E+01 0. -1.
         15    1    1    2    0    0  0.75728769645E+00  0.33937385568E+01 -0.14055090182E+02  0.14587468425E+02  0.17770000000E+01 0.  1.
</event>
<event>
 6   1  0.1826851E-04  0.4706974E+03  0.7546771E-02  0.9467874E-01
        -11   -1    0    0    0    0  0.00000000000E+00  0.00000000000E+00  0.50000000000E+03  0.50000000000E+03  0.00000000000E+00 0. -1.
         11   -1    0    0    0    0 -0.00000000000E+00 -0.00000000000E+00 -0.50000000000E+03  0.50000000000E+03  0.00000000000E+00 0.  1.
        -11    1    1    2    0    0 -0.13163157284E+02 -0.17819732988E+02  0.46354980081E+03  0.46407890431E+03  0.00000000000E+00 0. -1.
         11    1    1    2    0    0 -0.78195151695E+01 -0.74629287134E+01 -0.47787580481E+03  0.47799803864E+03  0.00000000000E+00 0.  1.
        -15    1    1    2    0    0  0.20347027667E+02 -0.71478071406E+01 -0.16883818374E+01  0.21704862221E+02  0.17770000000E+01 0.  1.
         15    1    1    2    0    0  0.63564478706E+00  0.32430468842E+02  0.16014385837E+02  0.36218194824E+02  0.17770000000E+01 0. -1.
</event>
<event>
 6   1  0.1826851E-04  0.5027670E+03  0.7546771E-02  0.9393640E-01
        -11   -1    0    0    0    0  0.00000000000E+00  0.00000000000E+00  0.50000000000E+03  0.50000000000E+03  0.00000000000E+00 0.  1.
         11   -1    0    0    0    0 -0.00000000000E+00 -0.00000000000E+00 -0.50000000000E+03  0.50000000000E+03  0.00000000000E+00 0. -1.
        -11    1    1    2    0    0  0.18655246967E+01 -0.20970597493E+02  0.49678711086E+03  0.49723302350E+03  0.00000000000E+00 0.  1.
         11    1    1    2    0    0 -0.38224339375E+01 -0.10349575647E+02 -0.38410377434E+03  0.38426219458E+03  0.00000000000E+00 0. -1.
        -15    1    1    2    0    0 -0.66820629142E+00  0.64600094541E+01 -0.63401425171E+01  0.92484246190E+01  0.17770000000E+01 0.  1.
         15    1    1    2    0    0  0.26251155322E+01  0.24860163687E+02 -0.10634319401E+03  0.10925635730E+03  0.17770000000E+01 0. -1.
</event>
<event>
 6   1  0.1826851E-04  0.5029444E+03  0.7546771E-02  0.9393245E-01
        -11   -1    0    0    0    0  0.00000000000E+00  0.00000000000E+00  0.50000000000E+03  0.50000000000E+03  0.00000000000E+00 0.  1.
         11   -1    0    0    0    0 -0.00000000000E+00 -0.00000000000E+00 -0.50000000000E+03  0.50000000000E+03  0.00000000000E+00 0.  1.
        -11    1    1    2    0    0 -0.92681861445E+01 -0.51079817494E+01  0.65982471506E+01  0.12471071222E+02  0.00000000000E+00 0.  1.
         11    1    1    2    0    0  0.12704774512E+01  0.11493595013E+02 -0.49692103403E+03  0.49705556118E+03  0.00000000000E+00 0.  1.
        -15    1    1    2    0    0  0.60348845201E+01 -0.65625402511E+01  0.42411966586E+03  0.42421708530E+03  0.17770000000E+01 0.  1.
         15    1    1    2    0    0  0.19628241732E+01  0.17692698696E+00  0.66203121019E+02  0.66256282295E+02  0.17770000000E+01 0. -1.
</event>
<event>
 6   1  0.1826851E-04  0.5001908E+03  0.7546771E-02  0.9399383E-01
        -11   -1    0    0    0    0  0.00000000000E+00  0.00000000000E+00  0.50000000000E+03  0.50000000000E+03  0.00000000000E+00 0. -1.
         11   -1    0    0    0    0 -0.00000000000E+00 -0.00000000000E+00 -0.50000000000E+03  0.50000000000E+03  0.00000000000E+00 0. -1.
        -11    1    1    2    0    0  0.62033412927E+01 -0.12366238296E+02  0.25385372599E+03  0.25423044565E+03  0.00000000000E+00 0. -1.
         11    1    1    2    0    0 -0.69816867307E+01  0.11815106035E+02 -0.49962073801E+03  0.49980918612E+03  0.00000000000E+00 0. -1.
        -15    1    1    2    0    0  0.48983150081E+01  0.71412964661E+00  0.13034907315E+03  0.13045513433E+03  0.17770000000E+01 0. -1.
         15    1    1    2    0    0 -0.41199695701E+01 -0.16299738546E+00  0.11541793887E+03  0.11550523390E+03  0.17770000000E+01 0.  1.
</event>
<event>
 6   1  0.1826851E-04  0.5130771E+03  0.7546771E-02  0.9371015E-01
        -11   -1    0    0    0    0  0.00000000000E+00  0.00000000000E+00  0.50000000000E+03  0.50000000000E+03  0.00000000000E+00 0.  1.
         11   -1    0    0    0    0 -0.00000000000E+00 -0.00000000000E+00 -0.50000000000E+03  0.50000000000E+03  0.00000000000E+00 0. -1.
        -11    1    1    2    0    0  0.66784161150E+02  0.96444651718E+01  0.53252141295E+02  0.85958888089E+02  0.00000000000E+00 0.  1.
         11    1    1    2    0    0 -0.83414016886E+02 -0.25577824984E+02 -0.47904255194E+03  0.48692287881E+03  0.00000000000E+00 0. -1.
        -15    1    1    2    0    0 -0.26264593767E+00  0.32882546918E+01  0.84800650810E+01  0.92709672950E+01  0.17770000000E+01 0. -1.
         15    1    1    2    0    0  0.16892501674E+02  0.12645105121E+02  0.41731034556E+03  0.41784726580E+03  0.17770000000E+01 0.  1.
</event>
<event>
 6   1  0.1826851E-04  0.5013021E+03  0.7546771E-02  0.9396901E-01
        -11   -1    0    0    0    0  0.00000000000E+00  0.00000000000E+00  0.50000000000E+03  0.50000000000E+03  0.00000000000E+00 0.  1.
         11   -1    0    0    0    0 -0.00000000000E+00 -0.00000000000E+00 -0.50000000000E+03  0.50000000000E+03  0.00000000000E+00 0.  1.
        -11    1    1    2    0    0 -0.34414290088E+01  0.15767532202E+02  0.75342685090E+02  0.77051792335E+02  0.00000000000E+00 0.  1.
         11    1    1    2    0    0  0.12805764067E+02  0.80531978637E+00 -0.49853275887E+03  0.49869785221E+03  0.00000000000E+00 0.  1.
        -15    1    1    2    0    0  0.51523947604E+01 -0.81760374210E+01  0.26121228253E+03  0.26139703333E+03  0.17770000000E+01 0.  1.
         15    1    1    2    0    0 -0.14516729819E+02 -0.83968145672E+01  0.16197779125E+03  0.16285332213E+03  0.17770000000E+01 0. -1.
</event>
<event>
 6   1  0.1826851E-04  0.5002435E+03  0.7546771E-02  0.9399265E-01
        -11   -1    0    0    0    0  0.00000000000E+00  0.00000000000E+00  0.50000000000E+03  0.50000000000E+03  0.00000000000E+00 0. -1.
         11   -1    0    0    0    0 -0.00000000000E+00 -0.00000000000E+00 -0.50000000000E+03  0.50000000000E+03  0.00000000000E+00 0.  1.
        -11    1    1    2    0    0 -0.59336920159E+01 -0.59872587705E+01  0.49968542676E+03  0.49975652241E+03  0.00000000000E+00 0. -1.
         11    1    1    2    0    0  0.10753389539E+01  0.12521261197E+02 -0.19342045728E+03  0.19382830451E+03  0.00000000000E+00 0.  1.
        -15    1    1    2    0    0  0.42075634164E+01 -0.28931396097E+01 -0.19369557872E+03  0.19377102154E+03  0.17770000000E+01 0.  1.
         15    1    1    2    0    0  0.65078964560E+00 -0.36408628170E+01 -0.11256939077E+03  0.11264415154E+03  0.17770000000E+01 0. -1.
</event>
<event>
 6   1  0.1826851E-04  0.5049262E+03  0.7546771E-02  0.9388854E-01
        -11   -1    0    0    0    0  0.00000000000E+00  0.00000000000E+00  0.50000000000E+03  0.50000000000E+03  0.00000000000E+00 0. -1.
         11   -1    0    0    0    0 -0.00000000000E+00 -0.00000000000E+00 -0.50000000000E+03  0.50000000000E+03  0.00000000000E+00 0. -1.
        -11    1    1    2    0    0 -0.13735394597E+03 -0.96862481095E+02  0.30905646956E+03  0.35180157489E+03  0.00000000000E+00 0. -1.
         11    1    1    2    0    0  0.15295120278E+03  0.96733184598E+02 -0.46081093425E+03  0.49507382940E+03  0.00000000000E+00 0. -1.
        -15    1    1    2    0    0  0.75910389253E+00 -0.17261233350E+01  0.77547576256E+01  0.81761687433E+01  0.17770000000E+01 0.  1.
         15    1    1    2    0    0 -0.16356360701E+02  0.18554198321E+01  0.14399970706E+03  0.14494842697E+03  0.17770000000E+01 0.  1.
</event>
<event>
 6   1  0.1826851E-04  0.5000884E+03  0.7546771E-02  0.9399612E-01
        -11   -1    0    0    0    0  0.00000000000E+00  0.00000000000E+00  0.50000000000E+03  0.50000000000E+03  0.00000000000E+00 0.  1.
         11   -1    0    0    0    0 -0.00000000000E+00 -0.00000000000E+00 -0.50000000000E+03  0.50000000000E+03  0.00000000000E+00 0.  1.
        -11    1    1    2    0    0  0.22367506156E+01 -0.67132123471E+01  0.49986156666E+03  0.49991164830E+03  0.00000000000E+00 0.  1.
         11    1    1    2    0    0  0.40334051322E+01  0.10171577986E+01 -0.23192823846E+03  0.23196553788E+03  0.00000000000E+00 0.  1.
        -15    1    1    2    0    0 -0.30567039723E+01  0.53184274944E+01 -0.16842819143E+03  0.16854922873E+03  0.17770000000E+01 0.  1.
         15    1    1    2    0    0 -0.32134517755E+01  0.37762705410E+00 -0.99505136778E+02  0.99573585095E+02  0.17770000000E+01 0. -1.
</event>
<event>
 6   1  0.1826851E-04  0.5012506E+03  0.7546771E-02  0.9397016E-01
        -11   -1    0    0    0    0  0.00000000000E+00  0.00000000000E+00  0.50000000000E+03  0.50000000000E+03  0.00000000000E+00 0.  1.
         11   -1    0    0    0    0 -0.00000000000E+00 -0.00000000000E+00 -0.50000000000E+03  0.50000000000E+03  0.00000000000E+00 0.  1.
        -11    1    1    2    0    0 -0.31853665952E+02  0.31070394673E+02  0.30065790087E+03  0.30393288538E+03  0.00000000000E+00 0.  1.
         11    1    1    2    0    0  0.25654525108E+02 -0.21958460006E+02 -0.49760485567E+03  0.49874935691E+03  0.00000000000E+00 0.  1.
        -15    1    1    2    0    0  0.47811339113E+01 -0.68583312225E+01  0.16170126771E+03  0.16192700101E+03  0.17770000000E+01 0.  1.
         15    1    1    2    0    0  0.14180069327E+01 -0.22536034450E+01  0.35245687094E+02  0.35390756702E+02  0.17770000000E+01 0.  1.
</event>
<event>
 6   1  0.1826851E-04  0.5038210E+03  0.7546771E-02  0.9391300E-01
        -11   -1    0    0    0    0  0.00000000000E+00  0.00000000000E+00  0.50000000000E+03  0.50000000000E+03  0.00000000000E+00 0.  1.
         11   -1    0    0    0    0 -0.00000000000E+00 -0.00000000000E+00 -0.50000000000E+03  0.50000000000E+03  0.00000000000E+00 0. -1.
        -11    1    1    2    0    0  0.54758636799E+01  0.93727623612E+01  0.49606023273E+03  0.49617898813E+03  0.00000000000E+00 0.  1.
         11    1    1    2    0    0 -0.33685052858E+01  0.81780698632E+01 -0.45142206540E+03  0.45150870289E+03  0.00000000000E+00 0. -1.
        -15    1    1    2    0    0 -0.79899652169E+01  0.47440613148E+00 -0.12263358913E+02  0.14751688248E+02  0.17770000000E+01 0. -1.
         15    1    1    2    0    0  0.58826068228E+01 -0.18025238356E+02 -0.32374808417E+02  0.37560620733E+02  0.17770000000E+01 0.  1.
</event>
<event>
 6   1  0.1826851E-04  0.5083456E+03  0.7546771E-02  0.9381327E-01
        -11   -1    0    0    0    0  0.00000000000E+00  0.00000000000E+00  0.50000000000E+03  0.50000000000E+03  0.00000000000E+00 0. -1.
         11   -1    0    0    0    0 -0.00000000000E+00 -0.00000000000E+00 -0.50000000000E+03  0.50000000000E+03  0.00000000000E+00 0.  1.
        -11    1    1    2    0    0  0.10667999034E+02  0.14364784674E+02  0.49132874864E+03  0.49165444418E+03  0.00000000000E+00 0. -1.
         11    1    1    2    0    0  0.29086889086E+00 -0.94656605404E+01 -0.47689714329E+03  0.47699116198E+03  0.00000000000E+00 0.  1.
        -15    1    1    2    0    0 -0.50107168302E+01  0.62219947915E+01 -0.16531130342E+02  0.18446042983E+02  0.17770000000E+01 0.  1.
         15    1    1    2    0    0 -0.59481510949E+01 -0.11121118925E+02  0.20995249865E+01  0.12908350854E+02  0.17770000000E+01 0. -1.
</event>
<event>
 6   1  0.1826851E-04  0.5006023E+03  0.7546771E-02  0.9398463E-01
        -11   -1    0    0    0    0  0.00000000000E+00  0.00000000000E+00  0.50000000000E+03  0.50000000000E+03  0.00000000000E+00 0. -1.
         11   -1    0    0    0    0 -0.00000000000E+00 -0.00000000000E+00 -0.50000000000E+03  0.50000000000E+03  0.00000000000E+00 0. -1.
        -11    1    1    2    0    0  0.86522481816E+01 -0.10639595940E+02  0.31582547042E+03  0.31612306175E+03  0.00000000000E+00 0. -1.
         11    1    1    2    0    0  0.55762601827E+01  0.51471599213E+01 -0.49934001903E+03  0.49939767975E+03  0.00000000000E+00 0. -1.
        -15    1    1    2    0    0 -0.66809543376E+01 -0.20894048431E+01  0.49149330901E+02  0.49677109623E+02  0.17770000000E+01 0. -1.
         15    1    1    2    0    0 -0.75475540267E+01  0.75818408620E+01  0.13436521771E+03  0.13480214888E+03  0.17770000000E+01 0.  1.
</event>
<event>
 6   1  0.1826851E-04  0.5003967E+03  0.7546771E-02  0.9398922E-01
        -11   -1    0    0    0    0  0.00000000000E+00  0.00000000000E+00  0.50000000000E+03  0.50000000000E+03  0.00000000000E+00 0. -1.
         11   -1    0    0    0    0 -0.00000000000E+00 -0.00000000000E+00 -0.50000000000E+03  0.50000000000E+03  0.00000000000E+00 0. -1.
        -11    1    1    2    0    0 -0.11278545894E+02 -0.21731684392E+02  0.49900296441E+03  0.49960327280E+03  0.00000000000E+00 0. -1.
         11    1    1    2    0    0  0.68998912755E+01  0.74990293280E+00 -0.22406774012E+03  0.22417520607E+03  0.00000000000E+00 0. -1.
        -15    1    1    2    0    0 -0.21938993378E+01  0.46414514789E+00 -0.98734097838E+01  0.10279619389E+02  0.17770000000E+01 0.  1.
         15    1    1    2    0    0  0.65725539559E+01  0.20517636311E+02 -0.26506181450E+03  0.26594190174E+03  0.17770000000E+01 0. -1.
</event>
<event>
 6   1  0.1826851E-04  0.5116441E+03  0.7546771E-02  0.9374125E-01
        -11   -1    0    0    0    0  0.00000000000E+00  0.00000000000E+00  0.50000000000E+03  0.50000000000E+03  0.00000000000E+00 0. -1.
         11   -1    0    0    0    0 -0.00000000000E+00 -0.00000000000E+00 -0.50000000000E+03  0.50000000000E+03  0.00000000000E+00 0.  1.
        -11    1    1    2    0    0 -0.94373149743E+01  0.15481921779E+01  0.45270224981E+03  0.45280325396E+03  0.00000000000E+00 0. -1.
         11    1    1    2    0    0  0.12411260327E+02  0.26558299962E+01 -0.48819089699E+03  0.48835585870E+03  0.00000000000E+00 0.  1.
        -15    1    1    2    0    0 -0.14754651588E+02 -0.21361838987E+02  0.20593344512E+02  0.33185410583E+02  0.17770000000E+01 0.  1.
         15    1    1    2    0    0  0.11780706235E+02  0.17157816813E+02  0.14895302676E+02  0.25655476764E+02  0.17770000000E+01 0. -1.
</event>
<event>
 6   1  0.1826851E-04  0.5001365E+03  0.7546771E-02  0.9399504E-01
        -11   -1    0    0    0    0  0.00000000000E+00  0.00000000000E+00  0.50000000000E+03  0.50000000000E+03  0.00000000000E+00 0. -1.
         11   -1    0    0    0    0 -0.00000000000E+00 -0.00000000000E+00 -0.50000000000E+03  0.50000000000E+03  0.00000000000E+00 0. -1.
        -11    1    1    2    0    0 -0.70639121276E+01 -0.33611958868E+01  0.24002937425E+03  0.24015681750E+03  0.00000000000E+00 0. -1.
         11    1    1    2    0    0  0.36720966812E+01  0.69590598594E+01 -0.49980152056E+03  0.49986345411E+03  0.00000000000E+00 0. -1.
        -15    1    1    2    0    0 -0.19598490837E+01  0.79971982356E+00  0.11264625607E+03  0.11268015484E+03  0.17770000000E+01 0. -1.
         15    1    1    2    0    0  0.53516645302E+01 -0.43975837962E+01  0.14712589024E+03  0.14729957354E+03  0.17770000000E+01 0.  1.
</event>
<event>
 6   1  0.1826851E-04  0.5002037E+03  0.7546771E-02  0.9399354E-01
        -11   -1    0    0    0    0  0.00000000000E+00  0.00000000000E+00  0.50000000000E+03  0.50000000000E+03  0.00000000000E+00 0.  1.
         11   -1    0    0    0    0 -0.00000000000E+00 -0.00000000000E+00 -0.50000000000E+03  0.50000000000E+03  0.00000000000E+00 0.  1.
        -11    1    1    2    0    0  0.10274378004E+02 -0.82511960298E+01  0.25136810082E+03  0.25171326383E+03  0.00000000000E+00 0.  1.
         11    1    1    2    0    0 -0.37758112263E+01  0.12576895491E+02 -0.49962377327E+03  0.49979630837E+03  0.00000000000E+00 0.  1.
        -15    1    1    2    0    0 -0.13825268849E+01 -0.43971166913E+01  0.83711654818E+02  0.83857288873E+02  0.17770000000E+01 0.  1.
         15    1    1    2    0    0 -0.51160398931E+01  0.71417229874E-01  0.16454401763E+03  0.16463313892E+03  0.17770000000E+01 0.  1.
</event>
<event>
 6   1  0.1826851E-04  0.2650172E+03  0.7546771E-02  0.1016928E+00
        -11   -1    0    0    0    0  0.00000000000E+00  0.00000000000E+00  0.50000000000E+03  0.50000000000E+03  0.00000000000E+00 0. -1.
         11   -1    0    0    0    0 -0.00000000000E+00 -0.00000000000E+00 -0.50000000000E+03  0.50000000000E+03  0.00000000000E+00 0. -1.
        -11    1    1    2    0    0  0.18484059190E+03  0.17897017784E+03  0.11964170527E+03  0.28374373405E+03  0.00000000000E+00 0. -1.
         11    1    1    2    0    0  0.16831060051E+01 -0.30418242959E+01 -0.13843392624E+03  0.13847757029E+03  0.00000000000E+00 0. -1.
        -15    1    1    2    0    0  0.13206275327E+02 -0.27751610112E+01 -0.22067660378E+03  0.22109597104E+03  0.17770000000E+01 0. -1.
         15    1    1    2    0    0 -0.19972997323E+03 -0.17315319253E+03  0.23946882474E+03  0.35668272462E+03  0.17770000000E+01 0. -1.
</event>
<event>
 6   1  0.1826851E-04  0.5006886E+03  0.7546771E-02  0.9398270E-01
        -11   -1    0    0    0    0  0.00000000000E+00  0.00000000000E+00  0.50000000000E+03  0.50000000000E+03  0.00000000000E+00 0.  1.
         11   -1    0    0    0    0 -0.00000000000E+00 -0.00000000000E+00 -0.50000000000E+03  0.50000000000E+03  0.00000000000E+00 0.  1.
        -11    1    1    2    0    0  0.11183459818E+02  0.22559160246E+02  0.49867614264E+03  0.49931140656E+03  0.00000000000E+00 0.  1.
         11    1    1    2    0    0 -0.75398653122E+01 -0.42885500186E+01 -0.37600360671E+03  0.37610364727E+03  0.00000000000E+00 0.  1.
        -15    1    1    2    0    0 -0.60688877660E+01 -0.15921323867E+02 -0.84292922207E+02  0.86016128810E+02  0.17770000000E+01 0.  1.
         15    1    1    2    0    0  0.24252932605E+01 -0.23492863604E+01 -0.38379613720E+02  0.38568817354E+02  0.17770000000E+01 0. -1.
</event>
<event>
 6   1  0.1826851E-04  0.5005008E+03  0.7546771E-02  0.9398690E-01
        -11   -1    0    0    0    0  0.00000000000E+00  0.00000000000E+00  0.50000000000E+03  0.50000000000E+03  0.00000000000E+00 0. -1.
         11   -1    0    0    0    0 -0.00000000000E+00 -0.00000000000E+00 -0.50000000000E+03  0.50000000000E+03  0.00000000000E+00 0.  1.
        -11    1    1    2    0    0 -0.10245199075E+02 -0.31598158189E+00  0.49939402255E+03  0.49949920291E+03  0.00000000000E+00 0. -1.
         11    1    1    2    0    0 -0.61042209518E+01  0.24103385702E+00 -0.31675142693E+03  0.31681033138E+03  0.00000000000E+00 0.  1.
        -15    1    1    2    0    0  0.11497501036E+02 -0.18173541270E+01 -0.15813083354E+03  0.15856863988E+03  0.17770000000E+01 0.  1.
         15    1    1    2    0    0  0.48519189904E+01  0.18923018519E+01 -0.24511762077E+02  0.25121825836E+02  0.17770000000E+01 0. -1.
</event>
<event>
 6   1  0.1826851E-04  0.5045218E+03  0.7546771E-02  0.9389748E-01
        -11   -1    0    0    0    0  0.00000000000E+00  0.00000000000E+00  0.50000000000E+03  0.50000000000E+03  0.00000000000E+00 0. -1.
         11   -1    0    0    0    0 -0.00000000000E+00 -0.00000000000E+00 -0.50000000000E+03  0.50000000000E+03  0.00000000000E+00 0. -1.
        -11    1    1    2    0    0  0.58528344075E+01 -0.10005693418E+02  0.49534257509E+03  0.49547818950E+03  0.00000000000E+00 0. -1.
         11    1    1    2    0    0  0.24967835341E+01 -0.68918571277E+01 -0.47211503167E+03  0.47217193346E+03  0.00000000000E+00 0. -1.
        -15    1    1    2    0    0 -0.77100932765E+01  0.18447107547E+02 -0.20598022827E+02  0.28760695203E+02  0.17770000000E+01 0. -1.
         15    1    1    2    0    0 -0.63952466512E+00 -0.15495570005E+01 -0.26295205934E+01  0.35891818352E+01  0.17770000000E+01 0.  1.
</event>
<event>
 6   1  0.1826851E-04  0.4686351E+03  0.7546771E-02  0.9472862E-01
        -11   -1    0    0    0    0  0.00000000000E+00  0.00000000000E+00  0.50000000000E+03  0.50000000000E+03  0.00000000000E+00 0.  1.
         11   -1    0    0    0    0 -0.00000000000E+00 -0.00000000000E+00 -0.50000000000E+03  0.50000000000E+03  0.00000000000E+00 0. -1.
        -11    1    1    2    0    0 -0.45684952870E+02  0.40910515478E+01  0.47029389827E+03  0.47252534575E+03  0.00000000000E+00 0.  1.
         11    1    1    2    0    0 -0.22258932782E+00  0.20946653243E+02 -0.46574265786E+03  0.46621350815E+03  0.00000000000E+00 0. -1.
        -15    1    1    2    0    0  0.16678902569E+02 -0.16760535208E+02  0.12049063681E+02  0.26597725390E+02  0.17770000000E+01 0.  1.
         15    1    1    2    0    0  0.29228639629E+02 -0.82771695825E+01 -0.16600304089E+02  0.34663420716E+02  0.17770000000E+01 0. -1.
</event>
<event>
 6   1  0.1826851E-04  0.5034169E+03  0.7546771E-02  0.9392196E-01
        -11   -1    0    0    0    0  0.00000000000E+00  0.00000000000E+00  0.50000000000E+03  0.50000000000E+03  0.00000000000E+00 0. -1.
         11   -1    0    0    0    0 -0.00000000000E+00 -0.00000000000E+00 -0.50000000000E+03  0.50000000000E+03  0.00000000000E+00 0.  1.
        -11    1    1    2    0    0 -0.43546712023E+02 -0.47111418705E+02  0.24942520882E+03  0.25754365978E+03  0.00000000000E+00 0. -1.
         11    1    1    2    0    0  0.59654341533E+02  0.32763382224E+02 -0.49189705561E+03  0.49658311791E+03  0.00000000000E+00 0.  1.
        -15    1    1    2    0    0 -0.16841433017E+02  0.20100039354E+02  0.23390424609E+03  0.23537629344E+03  0.17770000000E+01 0. -1.
         15    1    1    2    0    0  0.73380350620E+00 -0.57520028729E+01  0.85676007075E+01  0.10496928861E+02  0.17770000000E+01 0.  1.
</event>
<event>
 6   1  0.1826851E-04  0.4474775E+03  0.7546771E-02  0.9525668E-01
        -11   -1    0    0    0    0  0.00000000000E+00  0.00000000000E+00  0.50000000000E+03  0.50000000000E+03  0.00000000000E+00 0. -1.
         11   -1    0    0    0    0 -0.00000000000E+00 -0.00000000000E+00 -0.50000000000E+03  0.50000000000E+03  0.00000000000E+00 0.  1.
        -11    1    1    2    0    0 -0.17828391076E+02  0.62340069854E+02 -0.15887125067E+01  0.64858768453E+02  0.00000000000E+00 0. -1.
         11    1    1    2    0    0  0.24776103583E+01 -0.61921920214E+01 -0.42854457975E+03  0.42859647529E+03  0.00000000000E+00 0.  1.
        -15    1    1    2    0    0  0.23275172586E+02 -0.50154849491E+02  0.46600653417E+03  0.46927869141E+03  0.17770000000E+01 0. -1.
         15    1    1    2    0    0 -0.79243918681E+01 -0.59930283413E+01 -0.35873241912E+02  0.37266064851E+02  0.17770000000E+01 0.  1.
</event>
<event>
 6   1  0.1826851E-04  0.5006504E+03  0.7546771E-02  0.9398356E-01
        -11   -1    0    0    0    0  0.00000000000E+00  0.00000000000E+00  0.50000000000E+03  0.50000000000E+03  0.00000000000E+00 0.  1.
         11   -1    0    0    0    0 -0.00000000000E+00 -0.00000000000E+00 -0.50000000000E+03  0.50000000000E+03  0.00000000000E+00 0. -1.
        -11    1    1    2    0    0 -0.58971888153E+01  0.14448053574E+02  0.16609324290E+03  0.16682472366E+03  0.00000000000E+00 0.  1.
         11    1    1    2    0    0  0.68680610230E+01  0.44528329574E+01 -0.49928255615E+03  0.49934964590E+03  0.00000000000E+00 0. -1.
        -15    1    1    2    0    0  0.31737035224E+01 -0.95738305528E+01  0.16474967212E+03  0.16506769162E+03  0.17770000000E+01 0. -1.
         15    1    1    2    0    0 -0.41445757302E+01 -0.93270559786E+01  0.16843964113E+03  0.16875793882E+03  0.17770000000E+01 0.  1.
</event>
<event>
 6   1  0.1826851E-04  0.5019367E+03  0.7546771E-02  0.9395487E-01
        -11   -1    0    0    0    0  0.00000000000E+00  0.00000000000E+00  0.50000000000E+03  0.50000000000E+03  0.00000000000E+00 0. -1.
         11   -1    0    0    0    0 -0.00000000000E+00 -0.00000000000E+00 -0.50000000000E+03  0.50000000000E+03  0.00000000000E+00 0.  1.
        -11    1    1    2    0    0  0.98093613935E+01  0.95208747600E+01  0.32860686580E+03  0.32889108057E+03  0.00000000000E+00 0. -1.
         11    1    1    2    0    0  0.12681469507E+02  0.18800803473E+02 -0.49754670120E+03  0.49806325878E+03  0.00000000000E+00 0.  1.
        -15    1    1    2    0    0 -0.21635904212E+02 -0.27575249816E+02  0.16319909499E+03  0.16692995264E+03  0.17770000000E+01 0. -1.
         15    1    1    2    0    0 -0.85492668879E+00 -0.74642841676E+00  0.57407404001E+01  0.61157080020E+01  0.17770000000E+01 0. -1.
</event>
<event>
 6   1  0.1826851E-04  0.5036427E+03  0.7546771E-02  0.9391696E-01
        -11   -1    0    0    0    0  0.00000000000E+00  0.00000000000E+00  0.50000000000E+03  0.50000000000E+03  0.00000000000E+00 0.  1.
         11   -1    0    0    0    0 -0.00000000000E+00 -0.00000000000E+00 -0.50000000000E+03  0.50000000000E+03  0.00000000000E+00 0. -1.
        -11    1    1    2    0    0  0.35757328635E+02 -0.14272774646E+02  0.95192894601E+02  0.10268391222E+03  0.00000000000E+00 0.  1.
         11    1    1    2    0    0 -0.23379744060E+02  0.65123106791E+01 -0.49576360334E+03  0.49635730378E+03  0.00000000000E+00 0. -1.
        -15    1    1    2    0    0 -0.11150390616E+02  0.61667691830E+01  0.22497089494E+03  0.22533845999E+03  0.17770000000E+01 0. -1.
         15    1    1    2    0    0 -0.12271939591E+01  0.15936947843E+01  0.17559981380E+03  0.17562032401E+03  0.17770000000E+01 0.  1.
</event>
<event>
 6   1  0.1826851E-04  0.5063081E+03  0.7546771E-02  0.9385804E-01
        -11   -1    0    0    0    0  0.00000000000E+00  0.00000000000E+00  0.50000000000E+03  0.50000000000E+03  0.00000000000E+00 0.  1.
         11   -1    0    0    0    0 -0.00000000000E+00 -0.00000000000E+00 -0.50000000000E+03  0.50000000000E+03  0.00000000000E+00 0.  1.
        -11    1    1    2    0    0 -0.47394745678E+02  0.96996922574E+01  0.25322517145E+03  0.25780483588E+03  0.00000000000E+00 0.  1.
         11    1    1    2    0    0 -0.13908808903E+02  0.31033578996E+00 -0.49349585910E+03  0.49369192238E+03  0.00000000000E+00 0.  1.
        -15    1    1    2    0    0  0.29493961943E+01 -0.30021738806E+01  0.14610314659E+02  0.15307874096E+02  0.17770000000E+01 0. -1.
         15    1    1    2    0    0  0.58354158387E+02 -0.70078541667E+01  0.22566037299E+03  0.23319536764E+03  0.17770000000E+01 0.  1.
</event>
<event>
 6   1  0.1826851E-04  0.5025301E+03  0.7546771E-02  0.9394166E-01
        -11   -1    0    0    0    0  0.00000000000E+00  0.00000000000E+00  0.50000000000E+03  0.50000000000E+03  0.00000000000E+00 0.  1.
         11   -1    0    0    0    0 -0.00000000000E+00 -0.00000000000E+00 -0.50000000000E+03  0.50000000000E+03  0.00000000000E+00 0.  1.
        -11    1    1    2    0    0 -0.16962492572E+02  0.37055987863E+01  0.49716682060E+03  0.49746990374E+03  0.00000000000E+00 0.  1.
         11    1    1    2    0    0 -0.43836843253E+01  0.68483390336E+01 -0.42898746988E+03  0.42906452399E+03  0.00000000000E+00 0.  1.
        -15    1    1    2    0    0  0.20874136920E+02 -0.95278058663E+01 -0.67399018199E+02  0.71220039736E+02  0.17770000000E+01 0.  1.
         15    1    1    2    0    0  0.47203997757E+00 -0.10261319536E+01 -0.78033252680E+00  0.22455325379E+01  0.17770000000E+01 0. -1.
</event>
<event>
 6   1  0.1826851E-04  0.5000396E+03  0.7546771E-02  0.9399721E-01
        -11   -1    0    0    0    0  0.00000000000E+00  0.00000000000E+00  0.50000000000E+03  0.50000000000E+03  0.00000000000E+00 0. -1.
         11   -1    0    0    0    0 -0.00000000000E+00 -0.00000000000E+00 -0.50000000000E+03  0.50000000000E+03  0.00000000000E+00 0. -1.
        -11    1    1    2    0    0 -0.43893071367E+01 -0.12101685265E+02  0.49979461807E+03  0.49996037549E+03  0.00000000000E+00 0. -1.
         11    1    1    2    0    0  0.22552877265E+01  0.13654150976E+01 -0.63357846989E+02  0.63412675833E+02  0.00000000000E+00 0. -1.
        -15    1    1    2    0    0  0.17845867336E+01  0.51935756444E+01 -0.12236971158E+03  0.12250576321E+03  0.17770000000E+01 0.  1.
         15    1    1    2    0    0  0.34943267659E+00  0.55426945234E+01 -0.31406705951E+03  0.31412118547E+03  0.17770000000E+01 0. -1.
</event>
<event>
 6   1  0.1826851E-04  0.5118580E+03  0.7546771E-02  0.9373660E-01
        -11   -1    0    0    0    0  0.00000000000E+00  0.00000000000E+00  0.50000000000E+03  0.50000000000E+03  0.00000000000E+00 0. -1.
         11   -1    0    0    0    0 -0.00000000000E+00 -0.00000000000E+00 -0.50000000000E+03  0.50000000000E+03  0.00000000000E+00 0.  1.
        -11    1    1    2    0    0  0.43126542664E+02  0.19109634138E+02  0.40905062761E+03  0.41176145126E+03  0.00000000000E+00 0. -1.
         11    1    1    2    0    0 -0.32612645485E+01  0.14901394022E+02 -0.48790355945E+03  0.48814195754E+03  0.00000000000E+00 0.  1.
        -15    1    1    2    0    0  0.49538232323E+01 -0.16197358732E+01  0.31925359281E+01  0.63650548755E+01  0.17770000000E+01 0. -1.
         15    1    1    2    0    0 -0.44819101348E+02 -0.32391292287E+02  0.75660395914E+02  0.93731536318E+02  0.17770000000E+01 0.  1.
</event>
<event>
 6   1  0.1826851E-04  0.5043332E+03  0.7546771E-02  0.9390166E-01
        -11   -1    0    0    0    0  0.00000000000E+00  0.00000000000E+00  0.50000000000E+03  0.50000000000E+03  0.00000000000E+00 0. -1.
         11   -1    0    0    0    0 -0.00000000000E+00 -0.00000000000E+00 -0.50000000000E+03  0.50000000000E+03  0.00000000000E+00 0. -1.
        -11    1    1    2    0    0  0.17465668936E+01  0.47682536441E+01 -0.43484609162E+02  0.43780109327E+02  0.00000000000E+00 0. -1.
         11    1    1    2    0    0  0.86731433305E+01  0.27055943435E+01 -0.45179535650E+03  0.45188669798E+03  0.00000000000E+00 0. -1.
        -15    1    1    2    0    0 -0.15180380680E+02 -0.44212891256E+02  0.38827321653E+03  0.39108115797E+03  0.17770000000E+01 0. -1.
         15    1    1    2    0    0  0.47606704558E+01  0.36739043269E+02  0.10700674912E+03  0.11325203473E+03  0.17770000000E+01 0.  1.
</event>
<event>
 6   1  0.1826851E-04  0.5014988E+03  0.7546771E-02  0.9396462E-01
        -11   -1    0    0    0    0  0.00000000000E+00  0.00000000000E+00  0.50000000000E+03  0.50000000000E+03  0.00000000000E+00 0. -1.
         11   -1    0    0    0    0 -0.00000000000E+00 -0.00000000000E+00 -0.50000000000E+03  0.50000000000E+03  0.00000000000E+00 0. -1.
        -11    1    1    2    0    0  0.37791519885E+02  0.75640691885E+02  0.49127766732E+03  0.49850121329E+03  0.00000000000E+00 0. -1.
         11    1    1    2    0    0 -0.26252768813E+00 -0.16353514937E+01 -0.43471238814E+02  0.43502780363E+02  0.00000000000E+00 0. -1.
        -15    1    1    2    0    0 -0.36389155846E+02 -0.41855654537E+02 -0.18276108837E+03  0.19099958019E+03  0.17770000000E+01 0.  1.
         15    1    1    2    0    0 -0.11398363511E+01 -0.32149685855E+02 -0.26504534013E+03  0.26699642616E+03  0.17770000000E+01 0. -1.
</event>
<event>
 6   1  0.1826851E-04  0.5044360E+03  0.7546771E-02  0.9389938E-01
        -11   -1    0    0    0    0  0.00000000000E+00  0.00000000000E+00  0.50000000000E+03  0.50000000000E+03  0.00000000000E+00 0. -1.
         11   -1    0    0    0    0 -0.00000000000E+00 -0.00000000000E+00 -0.50000000000E+03  0.50000000000E+03  0.00000000000E+00 0. -1.
        -11    1    1    2    0    0 -0.21861917466E+02  0.19116470300E+02  0.40253254604E+03  0.40357878226E+03  0.00000000000E+00 0. -1.
         11    1    1    2    0    0  0.12427154624E+02  0.10215932625E+02 -0.49530284868E+03  0.49556403357E+03  0.00000000000E+00 0. -1.
        -15    1    1    2    0    0 -0.17474465789E+01 -0.17390610383E+02  0.73242943705E+02  0.75320471524E+02  0.17770000000E+01 0. -1.
         15    1    1    2    0    0  0.11182209421E+02 -0.11941792542E+02  0.19527358943E+02  0.25536712649E+02  0.17770000000E+01 0.  1.
</event>
<event>
 6   1  0.1826851E-04  0.5096400E+03  0.7546771E-02  0.9378494E-01
        -11   -1    0    0    0    0  0.00000000000E+00  0.00000000000E+00  0.50000000000E+03  0.50000000000E+03  0.00000000000E+00 0. -1.
         11   -1    0    0    0    0 -0.00000000000E+00 -0.00000000000E+00 -0.50000000000E+03  0.50000000000E+03  0.00000000000E+00 0. -1.
        -11    1    1    2    0    0  0.10341795634E+02 -0.96072750803E+01  0.46465556916E+03  0.46486992850E+03  0.00000000000E+00 0. -1.
         11    1    1    2    0    0  0.93022429704E+01 -0.18781621961E+01 -0.49026812100E+03  0.49035995930E+03  0.00000000000E+00 0. -1.
        -15    1    1    2    0    0 -0.21973638959E+02  0.18610941545E+02  0.21880393641E+02  0.36209353890E+02  0.17770000000E+01 0. -1.
         15    1    1    2    0    0  0.23296003549E+01 -0.71255042687E+01  0.37321581983E+01  0.85607583025E+01  0.17770000000E+01 0.  1.
</event>
<event>
 6   1  0.1826851E-04  0.5001781E+03  0.7546771E-02  0.9399411E-01
        -11   -1    0    0    0    0  0.00000000000E+00  0.00000000000E+00  0.50000000000E+03  0.50000000000E+03  0.00000000000E+00 0. -1.
         11   -1    0    0    0    0 -0.00000000000E+00 -0.00000000000E+00 -0.50000000000E+03  0.50000000000E+03  0.00000000000E+00 0. -1.
        -11    1    1    2    0    0 -0.59121515691E+01 -0.11535368034E+02  0.49965375246E+03  0.49982185886E+03  0.00000000000E+00 0. -1.
         11    1    1    2    0    0  0.38481686780E+01  0.24592439699E+01 -0.27984142417E+03  0.27987868615E+03  0.00000000000E+00 0. -1.
        -15    1    1    2    0    0 -0.33450254757E+01  0.18638542616E+01 -0.34157264135E+02  0.34417140647E+02  0.17770000000E+01 0.  1.
         15    1    1    2    0    0  0.54090083668E+01  0.72122698021E+01 -0.18565506416E+03  0.18588231434E+03  0.17770000000E+01 0. -1.
</event>
<event>
 6   1  0.1826851E-04  0.5100359E+03  0.7546771E-02  0.9377629E-01
        -11   -1    0    0    0    0  0.00000000000E+00  0.00000000000E+00  0.50000000000E+03  0.50000000000E+03  0.00000000000E+00 0.  1.
         11   -1    0    0    0    0 -0.00000000000E+00 -0.00000000000E+00 -0.50000000000E+03  0.50000000000E+03  0.00000000000E+00 0. -1.
        -11    1    1    2    0    0  0.64592705790E+01  0.21605173808E+02  0.48944491473E+03  0.48996411120E+03  0.00000000000E+00 0.  1.
         11    1    1    2    0    0 -0.10137215124E+02  0.56275228440E+01 -0.47216608798E+03  0.47230842337E+03  0.00000000000E+00 0. -1.
        -15    1    1    2    0    0  0.32640442457E+01 -0.49384802063E+01 -0.13759036439E+02  0.15083480511E+02  0.17770000000E+01 0.  1.
         15    1    1    2    0    0  0.41390029883E+00 -0.22294216446E+02 -0.35197903029E+01  0.22643984922E+02  0.17770000000E+01 0. -1.
</event>
<event>
 6   1  0.1826851E-04  0.5070342E+03  0.7546771E-02  0.9384206E-01
        -11   -1    0    0    0    0  0.00000000000E+00  0.00000000000E+00  0.50000000000E+03  0.50000000000E+03  0.00000000000E+00 0. -1.
         11   -1    0    0    0    0 -0.00000000000E+00 -0.00000000000E+00 -0.50000000000E+03  0.50000000000E+03  0.00000000000E+00 0. -1.
        -11    1    1    2    0    0  0.78396966983E+02  0.73923655666E+02  0.44249639666E+03  0.45542710982E+03  0.00000000000E+00 0. -1.
         11    1    1    2    0    0 -0.66892390245E+02 -0.66210635794E+02 -0.48389759350E+03  0.49296584178E+03  0.00000000000E+00 0. -1.
        -15    1    1    2    0    0  0.62903186352E+01 -0.45889923547E+01  0.20127389226E+01  0.82362495308E+01  0.17770000000E+01 0.  1.
         15    1    1    2    0    0 -0.17794895373E+02 -0.31240275176E+01  0.39388457911E+02  0.43370798873E+02  0.17770000000E+01 0. -1.
</event>
<event>
 6   1  0.1826851E-04  0.5024415E+03  0.7546771E-02  0.9394363E-01
        -11   -1    0    0    0    0  0.00000000000E+00  0.00000000000E+00  0.50000000000E+03  0.50000000000E+03  0.00000000000E+00 0.  1.
         11   -1    0    0    0    0 -0.00000000000E+00 -0.00000000000E+00 -0.50000000000E+03  0.50000000000E+03  0.00000000000E+00 0.  1.
        -11    1    1    2    0    0 -0.14870322043E+02  0.29233456387E+02  0.49647629918E+03  0.49755847606E+03  0.00000000000E+00 0.  1.
         11    1    1    2    0    0 -0.19247806802E+02 -0.14908605699E+01 -0.26478683276E+03  0.26548967501E+03  0.00000000000E+00 0.  1.
        -15    1    1    2    0    0  0.24561796033E+02 -0.19572312164E+02 -0.20495721373E+03  0.20735711808E+03  0.17770000000E+01 0.  1.
         15    1    1    2    0    0  0.95563328120E+01 -0.81702836536E+01 -0.26732252685E+02  0.29594730856E+02  0.17770000000E+01 0. -1.
</event>
<event>
 6   1  0.1826851E-04  0.5039235E+03  0.7546771E-02  0.9391073E-01
        -11   -1    0    0    0    0  0.00000000000E+00  0.00000000000E+00  0.50000000000E+03  0.50000000000E+03  0.00000000000E+00 0.  1.
         11   -1    0    0    0    0 -0.00000000000E+00 -0.00000000000E+00 -0.50000000000E+03  0.50000000000E+03  0.00000000000E+00 0. -1.
        -11    1    1    2    0    0  0.35749937323E+01 -0.10280480084E+02  0.49595705296E+03  0.49607647317E+03  0.00000000000E+00 0.  1.
         11    1    1    2    0    0 -0.92029288766E+01 -0.63418250193E+00 -0.48474726347E+03  0.48483502919E+03  0.00000000000E+00 0. -1.
        -15    1    1    2    0    0  0.20862815141E+01  0.49700523573E-01 -0.55999397631E+01  0.62347489964E+01  0.17770000000E+01 0. -1.
         15    1    1    2    0    0  0.35416536302E+01  0.10864962062E+02 -0.56098497274E+01  0.12853748636E+02  0.17770000000E+01 0.  1.
</event>
<event>
 6   1  0.1826851E-04  0.4812343E+03  0.7546771E-02  0.9442807E-01
        -11   -1    0    0    0    0  0.00000000000E+00  0.00000000000E+00  0.50000000000E+03  0.50000000000E+03  0.00000000000E+00 0.  1.
         11   -1    0    0    0    0 -0.00000000000E+00 -0.00000000000E+00 -0.50000000000E+03  0.50000000000E+03  0.00000000000E+00 0.  1.
        -11    1    1    2    0    0 -0.32465974700E+02 -0.11044841941E+02 -0.15308589699E+02  0.37555039147E+02  0.00000000000E+00 0.  1.
         11    1    1    2    0    0 -0.12976521537E+02 -0.33395689058E+02 -0.47044555335E+03  0.47180788551E+03  0.00000000000E+00 0.  1.
        -15    1    1    2    0    0 -0.21433597463E+01 -0.59583599322E+00  0.10289477904E+02  0.10676146124E+02  0.17770000000E+01 0. -1.
         15    1    1    2    0    0  0.47585855984E+02  0.45036366993E+02  0.47546466515E+03  0.47996092922E+03  0.17770000000E+01 0.  1.
</event>
<event>
 6   1  0.1826851E-04  0.5004747E+03  0.7546771E-02  0.9398748E-01
        -11   -1    0    0    0    0  0.00000000000E+00  0.00000000000E+00  0.50000000000E+03  0.50000000000E+03  0.00000000000E+00 0.  1.
         11   -1    0    0    0    0 -0.00000000000E+00 -0.00000000000E+00 -0.50000000000E+03  0.50000000000E+03  0.00000000000E+00 0.  1.
        -11    1    1    2    0    0 -0.36128261136E+01  0.25298734337E+01  0.31356850657E+03  0.31359952342E+03  0.00000000000E+00 0.  1.
         11    1    1    2    0    0 -0.10419060034E+01  0.10488830575E+02 -0.49941404169E+03  0.49952526080E+03  0.00000000000E+00 0.  1.
        -15    1    1    2    0    0  0.38543701225E+01 -0.49981274809E+01  0.25909667703E+02  0.26726504763E+02  0.17770000000E+01 0. -1.
         15    1    1    2    0    0  0.80036199438E+00 -0.80205765282E+01  0.15993586741E+03  0.16014871102E+03  0.17770000000E+01 0.  1.
</event>
<event>
 6   1  0.1826851E-04  0.5004095E+03  0.7546771E-02  0.9398894E-01
        -11   -1    0    0    0    0  0.00000000000E+00  0.00000000000E+00  0.50000000000E+03  0.50000000000E+03  0.00000000000E+00 0. -1.
         11   -1    0    0    0    0 -0.00000000000E+00 -0.00000000000E+00 -0.50000000000E+03  0.50000000000E+03  0.00000000000E+00 0. -1.
        -11    1    1    2    0    0 -0.66078429344E+00 -0.92835020545E+01  0.49950375386E+03  0.49959045244E+03  0.00000000000E+00 0. -1.
         11    1    1    2    0    0  0.78260699574E+01 -0.59252046189E+00 -0.38470279157E+03  0.38478284303E+03  0.00000000000E+00 0. -1.
        -15    1    1    2    0    0 -0.16338927314E+01  0.56197804776E+01 -0.68041868739E+02  0.68316214536E+02  0.17770000000E+01 0. -1.
         15    1    1    2    0    0 -0.55313929326E+01  0.42562420388E+01 -0.46759093557E+02  0.47310489992E+02  0.17770000000E+01 0.  1.
</event>
<event>
 6   1  0.1826851E-04  0.5027688E+03  0.7546771E-02  0.9393636E-01
        -11   -1    0    0    0    0  0.00000000000E+00  0.00000000000E+00  0.50000000000E+03  0.50000000000E+03  0.00000000000E+00 0.  1.
         11   -1    0    0    0    0 -0.00000000000E+00 -0.00000000000E+00 -0.50000000000E+03  0.50000000000E+03  0.00000000000E+00 0. -1.
        -11    1    1    2    0    0 -0.37056042990E+02 -0.17139200994E+02 -0.30090504490E+02  0.50718251087E+02  0.00000000000E+00 0.  1.
         11    1    1    2    0    0 -0.16642561703E+02 -0.70604572504E+01 -0.45168887981E+03  0.45205051605E+03  0.00000000000E+00 0. -1.
        -15    1    1    2    0    0  0.84783053147E+02  0.54472060702E+01  0.37235677712E+03  0.38193005296E+03  0.17770000000E+01 0.  1.
         15    1    1    2    0    0 -0.31084448454E+02  0.18752452174E+02  0.10942260718E+03  0.11530117991E+03  0.17770000000E+01 0. -1.
</event>
<event>
 6   1  0.1826851E-04  0.5205397E+03  0.7546771E-02  0.9354988E-01
        -11   -1    0    0    0    0  0.00000000000E+00  0.00000000000E+00  0.50000000000E+03  0.50000000000E+03  0.00000000000E+00 0.  1.
         11   -1    0    0    0    0 -0.00000000000E+00 -0.00000000000E+00 -0.50000000000E+03  0.50000000000E+03  0.00000000000E+00 0.  1.
        -11    1    1    2    0    0 -0.41578080223E+00 -0.82686138939E+02  0.37246547145E+03  0.38153335093E+03  0.00000000000E+00 0.  1.
         11    1    1    2    0    0 -0.66712010828E+01  0.81777579461E+01 -0.47934415132E+03  0.47946031749E+03  0.00000000000E+00 0.  1.
        -15    1    1    2    0    0 -0.85164844375E+01  0.66846703423E+02  0.99160543039E+02  0.11990405869E+03  0.17770000000E+01 0.  1.
         15    1    1    2    0    0  0.15603466322E+02  0.76616775696E+01  0.77181368231E+01  0.19102272888E+02  0.17770000000E+01 0. -1.
</event>
<event>
 6   1  0.1826851E-04  0.5000583E+03  0.7546771E-02  0.9399679E-01
        -11   -1    0    0    0    0  0.00000000000E+00  0.00000000000E+00  0.50000000000E+03  0.50000000000E+03  0.00000000000E+00 0.  1.
         11   -1    0    0    0    0 -0.00000000000E+00 -0.00000000000E+00 -0.50000000000E+03  0.50000000000E+03  0.00000000000E+00 0.  1.
        -11    1    1    2    0    0  0.25149439159E+01 -0.48647137651E+01  0.11674818858E+03  0.11687655847E+03  0.00000000000E+00 0.  1.
         11    1    1    2    0    0  0.16696842087E+01  0.86621714700E+01 -0.49986386834E+03  0.49994170453E+03  0.00000000000E+00 0.  1.
        -15    1    1    2    0    0 -0.21113446343E+01 -0.45284398290E+00  0.14840177870E+03  0.14842812569E+03  0.17770000000E+01 0.  1.
         15    1    1    2    0    0 -0.20732834903E+01 -0.33446137219E+01  0.23471390106E+03  0.23475361131E+03  0.17770000000E+01 0.  1.
</event>
<event>
 6   1  0.1826851E-04  0.5000733E+03  0.7546771E-02  0.9399646E-01
        -11   -1    0    0    0    0  0.00000000000E+00  0.00000000000E+00  0.50000000000E+03  0.50000000000E+03  0.00000000000E+00 0. -1.
         11   -1    0    0    0    0 -0.00000000000E+00 -0.00000000000E+00 -0.50000000000E+03  0.50000000000E+03  0.00000000000E+00 0.  1.
        -11    1    1    2    0    0  0.25445236271E+01  0.10491077604E+02  0.24733524930E+03  0.24757072294E+03  0.00000000000E+00 0. -1.
         11    1    1    2    0    0 -0.10059744339E+01 -0.12173759652E+02 -0.49977742591E+03  0.49992668249E+03  0.00000000000E+00 0.  1.
        -15    1    1    2    0    0 -0.17601354515E+01 -0.43201007809E+00  0.15588758055E+03  0.15590824292E+03  0.17770000000E+01 0.  1.
         15    1    1    2    0    0  0.22158625824E+00  0.21146921267E+01  0.96554596061E+02  0.96594351661E+02  0.17770000000E+01 0. -1.
</event>
<event>
 6   1  0.1826851E-04  0.5039778E+03  0.7546771E-02  0.9390953E-01
        -11   -1    0    0    0    0  0.00000000000E+00  0.00000000000E+00  0.50000000000E+03  0.50000000000E+03  0.00000000000E+00 0. -1.
         11   -1    0    0    0    0 -0.00000000000E+00 -0.00000000000E+00 -0.50000000000E+03  0.50000000000E+03  0.00000000000E+00 0. -1.
        -11    1    1    2    0    0  0.30925538943E+02  0.72568866822E+00  0.49642554589E+02  0.58491869598E+02  0.00000000000E+00 0. -1.
         11    1    1    2    0    0 -0.38980997908E+02  0.21869881404E+02 -0.49400425812E+03  0.49602219401E+03  0.00000000000E+00 0. -1.
        -15    1    1    2    0    0  0.25015350687E+01 -0.57600079069E+01  0.29398451636E+03  0.29405694849E+03  0.17770000000E+01 0.  1.
         15    1    1    2    0    0  0.55539238964E+01 -0.16835562166E+02  0.15037718717E+03  0.15142898789E+03  0.17770000000E+01 0. -1.
</event>
<event>
 6   1  0.1826851E-04  0.5007806E+03  0.7546771E-02  0.9398065E-01
        -11   -1    0    0    0    0  0.00000000000E+00  0.00000000000E+00  0.50000000000E+03  0.50000000000E+03  0.00000000000E+00 0.  1.
         11   -1    0    0    0    0 -0.00000000000E+00 -0.00000000000E+00 -0.50000000000E+03  0.50000000000E+03  0.00000000000E+00 0. -1.
        -11    1    1    2    0    0  0.87631891150E+01 -0.12776035045E+02  0.33997799296E+03  0.34033080415E+03  0.00000000000E+00 0.  1.
         11    1    1    2    0    0  0.11082705707E+02  0.18879879826E+02 -0.49873916558E+03  0.49921942221E+03  0.00000000000E+00 0. -1.
        -15    1    1    2    0    0 -0.85870139838E+01 -0.76539234639E+01  0.86252621462E+02  0.87034428772E+02  0.17770000000E+01 0.  1.
         15    1    1    2    0    0 -0.11258880838E+02  0.15500786828E+01  0.72508551164E+02  0.73415344871E+02  0.17770000000E+01 0. -1.
</event>
<event>
 6   1  0.1826851E-04  0.5002231E+03  0.7546771E-02  0.9399311E-01
        -11   -1    0    0    0    0  0.00000000000E+00  0.00000000000E+00  0.50000000000E+03  0.50000000000E+03  0.00000000000E+00 0. -1.
         11   -1    0    0    0    0 -0.00000000000E+00 -0.00000000000E+00 -0.50000000000E+03  0.50000000000E+03  0.00000000000E+00 0. -1.
        -11    1    1    2    0    0  0.17095615201E+02 -0.10745992308E+02  0.49936880644E+03  0.49977689148E+03  0.00000000000E+00 0. -1.
         11    1    1    2    0    0 -0.11675116585E+02  0.57072875024E+01 -0.14024414823E+03  0.14084495941E+03  0.00000000000E+00 0. -1.
        -15    1    1    2    0    0 -0.40507439639E+01 -0.28690209332E+01 -0.13635953798E+03  0.13646142728E+03  0.17770000000E+01 0. -1.
         15    1    1    2    0    0 -0.13697546514E+01  0.79077257391E+01 -0.22276512023E+03  0.22291672184E+03  0.17770000000E+01 0.  1.
</event>
<event>
 6   1  0.1826851E-04  0.4904641E+03  0.7546771E-02  0.9421404E-01
        -11   -1    0    0    0    0  0.00000000000E+00  0.00000000000E+00  0.50000000000E+03  0.50000000000E+03  0.00000000000E+00 0. -1.
         11   -1    0    0    0    0 -0.00000000000E+00 -0.00000000000E+00 -0.50000000000E+03  0.50000000000E+03  0.00000000000E+00 0. -1.
        -11    1    1    2    0    0 -0.10579546616E+02  0.67203782341E+01  0.48804919185E+03  0.48821010227E+03  0.00000000000E+00 0. -1.
         11    1    1    2    0    0 -0.48869518343E+01 -0.59603943096E+01 -0.49279142103E+03  0.49285169498E+03  0.00000000000E+00 0. -1.
        -15    1    1    2    0    0  0.30735469399E+01  0.15087552012E+01 -0.22031777616E+01  0.44423816021E+01  0.17770000000E+01 0.  1.
         15    1    1    2    0    0  0.12392951510E+02 -0.22687391257E+01  0.69454069449E+01  0.14495821156E+02  0.17770000000E+01 0. -1.
</event>
<event>
 6   1  0.1826851E-04  0.5045245E+03  0.7546771E-02  0.9389742E-01
        -11   -1    0    0    0    0  0.00000000000E+00  0.00000000000E+00  0.50000000000E+03  0.50000000000E+03  0.00000000000E+00 0. -1.
         11   -1    0    0    0    0 -0.00000000000E+00 -0.00000000000E+00 -0.50000000000E+03  0.50000000000E+03  0.00000000000E+00 0. -1.
        -11    1    1    2    0    0 -0.49826922511E+00 -0.73009261269E+01  0.48608326691E+03  0.48613834879E+03  0.00000000000E+00 0. -1.
         11    1    1    2    0    0 -0.72020962509E+01  0.66097758520E+00 -0.49542272890E+03  0.49547551644E+03  0.00000000000E+00 0. -1.
        -15    1    1    2    0    0  0.41982122995E+01  0.97033774369E+00 -0.20335886075E+01  0.50852486147E+01  0.17770000000E+01 0.  1.
         15    1    1    2    0    0  0.35021531765E+01  0.56696107980E+01  0.11373050604E+02  0.13300886155E+02  0.17770000000E+01 0. -1.
</event>
<event>
 6   1  0.1826851E-04  0.5101479E+03  0.7546771E-02  0.9377385E-01
        -11   -1    0    0    0    0  0.00000000000E+00  0.00000000000E+00  0.50000000000E+03  0.50000000000E+03  0.00000000000E+00 0.  1.
         11   -1    0    0    0    0 -0.00000000000E+00 -0.00000000000E+00 -0.50000000000E+03  0.50000000000E+03  0.00000000000E+00 0.  1.
        -11    1    1    2    0    0  0.30283429082E+02 -0.63263530417E+01  0.44783070354E+03  0.44889803725E+03  0.00000000000E+00 0.  1.
         11    1    1    2    0    0  0.31855720149E+01 -0.19845184751E+02 -0.48943958582E+03  0.48985210768E+03  0.00000000000E+00 0.  1.
        -15    1    1    2    0    0 -0.12985516482E+02  0.86239589810E+01  0.66021718242E+01  0.17021830354E+02  0.17770000000E+01 0.  1.
         15    1    1    2    0    0 -0.20483484614E+02  0.17547578812E+02  0.35006710461E+02  0.44228024717E+02  0.17770000000E+01 0. -1.
</event>
<event>
 6   1  0.1826851E-04  0.5134901E+03  0.7546771E-02  0.9370120E-01
        -11   -1    0    0    0    0  0.00000000000E+00  0.00000000000E+00  0.50000000000E+03  0.50000000000E+03  0.00000000000E+00 0. -1.
         11   -1    0    0    0    0 -0.00000000000E+00 -0.00000000000E+00 -0.50000000000E+03  0.50000000000E+03  0.00000000000E+00 0.  1.
        -11    1    1    2    0    0 -0.42371496323E+02  0.32206677482E+02  0.45312898831E+03  0.45624389729E+03  0.00000000000E+00 0. -1.
         11    1    1    2    0    0  0.67027920581E+01 -0.82412146519E+01 -0.48639393449E+03  0.48650992235E+03  0.00000000000E+00 0.  1.
        -15    1    1    2    0    0  0.35967638088E+02 -0.22005407950E+02  0.34306180608E+02  0.54387321368E+02  0.17770000000E+01 0. -1.
         15    1    1    2    0    0 -0.29893382270E+00 -0.19600548807E+01 -0.10412344246E+01  0.28588589844E+01  0.17770000000E+01 0. -1.
</event>
<event>
 6   1  0.1826851E-04  0.5002469E+03  0.7546771E-02  0.9399257E-01
        -11   -1    0    0    0    0  0.00000000000E+00  0.00000000000E+00  0.50000000000E+03  0.50000000000E+03  0.00000000000E+00 0. -1.
         11   -1    0    0    0    0 -0.00000000000E+00 -0.00000000000E+00 -0.50000000000E+03  0.50000000000E+03  0.00000000000E+00 0.  1.
        -11    1    1    2    0    0 -0.68840460549E+01 -0.12498105880E+02  0.49954936067E+03  0.49975309552E+03  0.00000000000E+00 0. -1.
         11    1    1    2    0    0 -0.11044132134E+00 -0.35721023944E+01 -0.24358251392E+03  0.24360872973E+03  0.00000000000E+00 0.  1.
        -15    1    1    2    0    0  0.19961467707E+01  0.35407743019E+01 -0.92385030146E+02  0.92491476411E+02  0.17770000000E+01 0. -1.
         15    1    1    2    0    0  0.49983406055E+01  0.12529433973E+02 -0.16358181660E+03  0.16414669834E+03  0.17770000000E+01 0. -1.
</event>
<event>
 6   1  0.1826851E-04  0.5040590E+03  0.7546771E-02  0.9390773E-01
        -11   -1    0    0    0    0  0.00000000000E+00  0.00000000000E+00  0.50000000000E+03  0.50000000000E+03  0.00000000000E+00 0.  1.
         11   -1    0    0    0    0 -0.00000000000E+00 -0.00000000000E+00 -0.50000000000E+03  0.50000000000E+03  0.00000000000E+00 0.  1.
        -11    1    1    2    0    0  0.11471314815E+02 -0.38926100429E+01  0.48729498515E+03  0.48744553135E+03  0.00000000000E+00 0.  1.
         11    1    1    2    0    0  0.87522639335E+00  0.72244039831E+01 -0.49588758932E+03  0.49594098366E+03  0.00000000000E+00 0.  1.
        -15    1    1    2    0    0 -0.69948780674E+01 -0.17312238931E+01  0.17916074286E+01  0.76349879845E+01  0.17770000000E+01 0.  1.
         15    1    1    2    0    0 -0.53516631406E+01 -0.16005700471E+01  0.68009967396E+01  0.89784970066E+01  0.17770000000E+01 0. -1.
</event>
<event>
 6   1  0.1826851E-04  0.5014485E+03  0.7546771E-02  0.9396574E-01
        -11   -1    0    0    0    0  0.00000000000E+00  0.00000000000E+00  0.50000000000E+03  0.50000000000E+03  0.00000000000E+00 0.  1.
         11   -1    0    0    0    0 -0.00000000000E+00 -0.00000000000E+00 -0.50000000000E+03  0.50000000000E+03  0.00000000000E+00 0. -1.
        -11    1    1    2    0    0 -0.13080093005E+02 -0.25077389637E+01  0.44250058565E+03  0.44270096667E+03  0.00000000000E+00 0.  1.
         11    1    1    2    0    0  0.32313423987E+01 -0.99279644677E+01 -0.49844220382E+03  0.49855153856E+03  0.00000000000E+00 0. -1.
        -15    1    1    2    0    0  0.94489307421E+01  0.90231728491E+01  0.49569246630E+02  0.51292961319E+02  0.17770000000E+01 0.  1.
         15    1    1    2    0    0  0.39981986406E+00  0.34125305823E+01  0.63723715436E+01  0.74545334521E+01  0.17770000000E+01 0. -1.
</event>
<event>
 6   1  0.1826851E-04  0.4924016E+03  0.7546771E-02  0.9416974E-01
        -11   -1    0    0    0    0  0.00000000000E+00  0.00000000000E+00  0.50000000000E+03  0.50000000000E+03  0.00000000000E+00 0. -1.
         11   -1    0    0    0    0 -0.00000000000E+00 -0.00000000000E+00 -0.50000000000E+03  0.50000000000E+03  0.00000000000E+00 0.  1.
        -11    1    1    2    0    0  0.49328465643E+01  0.70274570373E+01  0.49221482374E+03  0.49228970214E+03  0.00000000000E+00 0. -1.
         11    1    1    2    0    0  0.70063947059E+01 -0.20605016377E+00 -0.49255968556E+03  0.49260955722E+03  0.00000000000E+00 0.  1.
        -15    1    1    2    0    0 -0.20121459191E+01 -0.29013738225E+01  0.14813922934E+01  0.42212502158E+01  0.17770000000E+01 0. -1.
         15    1    1    2    0    0 -0.99270953511E+01 -0.39200330510E+01 -0.11365304694E+01  0.10879490417E+02  0.17770000000E+01 0.  1.
</event>
<event>
 6   1  0.1826851E-04  0.5002902E+03  0.7546771E-02  0.9399161E-01
        -11   -1    0    0    0    0  0.00000000000E+00  0.00000000000E+00  0.50000000000E+03  0.50000000000E+03  0.00000000000E+00 0. -1.
         11   -1    0    0    0    0 -0.00000000000E+00 -0.00000000000E+00 -0.50000000000E+03  0.50000000000E+03  0.00000000000E+00 0. -1.
        -11    1    1    2    0    0 -0.55236750497E+02 -0.10706829449E+02  0.40136113794E+03  0.40528569905E+03  0.00000000000E+00 0. -1.
         11    1    1    2    0    0  0.58226340160E+02  0.10777331152E+02 -0.49618888369E+03  0.49970978163E+03  0.00000000000E+00 0. -1.
        -15    1    1    2    0    0 -0.29732445148E+01  0.10271794554E+01  0.51591489699E+02  0.51717838499E+02  0.17770000000E+01 0. -1.
         15    1    1    2    0    0 -0.16345147992E-01 -0.10976811586E+01  0.43236256049E+02  0.43286680829E+02  0.17770000000E+01 0.  1.
</event>
<event>
 6   1  0.1826851E-04  0.5002801E+03  0.7546771E-02  0.9399183E-01
        -11   -1    0    0    0    0  0.00000000000E+00  0.00000000000E+00  0.50000000000E+03  0.50000000000E+03  0.00000000000E+00 0.  1.
         11   -1    0    0    0    0 -0.00000000000E+00 -0.00000000000E+00 -0.50000000000E+03  0.50000000000E+03  0.00000000000E+00 0. -1.
        -11    1    1    2    0    0 -0.26706671891E+00  0.15750553229E+02  0.49947157439E+03  0.49971992643E+03  0.00000000000E+00 0.  1.
         11    1    1    2    0    0  0.57987464019E+01 -0.59053568310E+01 -0.30972617681E+03  0.30983673652E+03  0.00000000000E+00 0. -1.
        -15    1    1    2    0    0 -0.27984280843E+01 -0.11414807194E+02 -0.11554817209E+03  0.11615793914E+03  0.17770000000E+01 0.  1.
         15    1    1    2    0    0 -0.27332515986E+01  0.15696107963E+01 -0.74197225489E+02  0.74285397904E+02  0.17770000000E+01 0. -1.
</event>
<event>
 6   1  0.1826851E-04  0.5044042E+03  0.7546771E-02  0.9390009E-01
        -11   -1    0    0    0    0  0.00000000000E+00  0.00000000000E+00  0.50000000000E+03  0.50000000000E+03  0.00000000000E+00 0. -1.
         11   -1    0    0    0    0 -0.00000000000E+00 -0.00000000000E+00 -0.50000000000E+03  0.50000000000E+03  0.00000000000E+00 0. -1.
        -11    1    1    2    0    0 -0.15885083673E+01  0.31975968326E+02  0.37884225698E+03  0.38019263747E+03  0.00000000000E+00 0. -1.
         11    1    1    2    0    0  0.94003102970E+01 -0.11287635974E+02 -0.49537806906E+03  0.49559581098E+03  0.00000000000E+00 0. -1.
        -15    1    1    2    0    0 -0.98905967141E+00  0.71878181030E+01  0.49036674238E+01  0.89356953461E+01  0.17770000000E+01 0.  1.
         15    1    1    2    0    0 -0.68227422583E+01 -0.27876150455E+02  0.11163214465E+03  0.11527585621E+03  0.17770000000E+01 0. -1.
</event>
<event>
 6   1  0.1826851E-04  0.5078686E+03  0.7546771E-02  0.9382373E-01
        -11   -1    0    0    0    0  0.00000000000E+00  0.00000000000E+00  0.50000000000E+03  0.50000000000E+03  0.00000000000E+00 0. -1.
         11   -1    0    0    0    0 -0.00000000000E+00 -0.00000000000E+00 -0.50000000000E+03  0.50000000000E+03  0.00000000000E+00 0.  1.
        -11    1    1    2    0    0  0.12675944939E+02 -0.11192011496E+02  0.46140978880E+03  0.46171954031E+03  0.00000000000E+00 0. -1.
         11    1    1    2    0    0  0.87448654352E+01  0.50741847982E+01 -0.49202750118E+03  0.49213136655E+03  0.00000000000E+00 0.  1.
        -15    1    1    2    0    0 -0.18775192805E+01  0.44066948229E+01 -0.38855999081E+01  0.64186956273E+01  0.17770000000E+01 0. -1.
         15    1    1    2    0    0 -0.19543291094E+02  0.17111318748E+01  0.34503312283E+02  0.39730397513E+02  0.17770000000E+01 0.  1.
</event>
<event>
 6   1  0.1826851E-04  0.5025847E+03  0.7546771E-02  0.9394045E-01
        -11   -1    0    0    0    0  0.00000000000E+00  0.00000000000E+00  0.50000000000E+03  0.50000000000E+03  0.00000000000E+00 0.  1.
         11   -1    0    0    0    0 -0.00000000000E+00 -0.00000000000E+00 -0.50000000000E+03  0.50000000000E+03  0.00000000000E+00 0. -1.
        -11    1    1    2    0    0 -0.12909060422E+02  0.56262534409E+01  0.43225248733E+03  0.43248180467E+03  0.00000000000E+00 0.  1.
         11    1    1    2    0    0 -0.39958697232E+01 -0.69860230988E+01 -0.49735018890E+03  0.49741530122E+03  0.00000000000E+00 0. -1.
        -15    1    1    2    0    0  0.79311150539E+01  0.67528401050E+01  0.12156801416E+02  0.16107420189E+02  0.17770000000E+01 0.  1.
         15    1    1    2    0    0  0.89738150914E+01 -0.53930704471E+01  0.52940900150E+02  0.53995473920E+02  0.17770000000E+01 0.  1.
</event>
<event>
 6   1  0.1826851E-04  0.5007590E+03  0.7546771E-02  0.9398113E-01
        -11   -1    0    0    0    0  0.00000000000E+00  0.00000000000E+00  0.50000000000E+03  0.50000000000E+03  0.00000000000E+00 0. -1.
         11   -1    0    0    0    0 -0.00000000000E+00 -0.00000000000E+00 -0.50000000000E+03  0.50000000000E+03  0.00000000000E+00 0.  1.
        -11    1    1    2    0    0 -0.72160121692E+01 -0.66490514114E+00  0.42536541173E+03  0.42542713409E+03  0.00000000000E+00 0. -1.
         11    1    1    2    0    0 -0.16321840459E+01  0.65518976164E+01 -0.49919537133E+03  0.49924103411E+03  0.00000000000E+00 0.  1.
        -15    1    1    2    0    0  0.82680053989E+01 -0.97356662446E+00  0.58712349188E+02  0.59326262493E+02  0.17770000000E+01 0. -1.
         15    1    1    2    0    0  0.58019081616E+00 -0.49134258508E+01  0.15117610415E+02  0.16005569301E+02  0.17770000000E+01 0.  1.
</event>
<event>
 6   1  0.1826851E-04  0.5066077E+03  0.7546771E-02  0.9385145E-01
        -11   -1    0    0    0    0  0.00000000000E+00  0.00000000000E+00  0.50000000000E+03  0.50000000000E+03  0.00000000000E+00 0.  1.
         11   -1    0    0    0    0 -0.00000000000E+00 -0.00000000000E+00 -0.50000000000E+03  0.50000000000E+03  0.00000000000E+00 0.  1.
        -11    1    1    2    0    0 -0.54428659395E+01 -0.47835522260E+02  0.49103773544E+03  0.49339225734E+03  0.00000000000E+00 0.  1.
         11    1    1    2    0    0  0.91600862186E+01  0.26461112736E+02 -0.38343771946E+03  0.38445881752E+03  0.00000000000E+00 0.  1.
        -15    1    1    2    0    0 -0.11061965511E+00  0.32855714579E+02 -0.33135220415E+02  0.46697010377E+02  0.17770000000E+01 0.  1.
         15    1    1    2    0    0 -0.36066006241E+01 -0.11481305055E+02 -0.74464795567E+02  0.75451914764E+02  0.17770000000E+01 0. -1.
</event>
<event>
 6   1  0.1826851E-04  0.5006997E+03  0.7546771E-02  0.9398245E-01
        -11   -1    0    0    0    0  0.00000000000E+00  0.00000000000E+00  0.50000000000E+03  0.50000000000E+03  0.00000000000E+00 0.  1.
         11   -1    0    0    0    0 -0.00000000000E+00 -0.00000000000E+00 -0.50000000000E+03  0.50000000000E+03  0.00000000000E+00 0. -1.
        -11    1    1    2    0    0 -0.14897060062E+02 -0.61711962027E+01  0.49903984889E+03  0.49930028725E+03  0.00000000000E+00 0.  1.
         11    1    1    2    0    0  0.12629507456E+02 -0.80468571159E+01 -0.40885894975E+03  0.40913310445E+03  0.00000000000E+00 0. -1.
        -15    1    1    2    0    0  0.37552363800E+01  0.10558578170E+02 -0.58417751624E+02  0.59509468213E+02  0.17770000000E+01 0.  1.
         15    1    1    2    0    0 -0.14876837741E+01  0.36594751490E+01 -0.31763147516E+02  0.32057140087E+02  0.17770000000E+01 0. -1.
</event>
<event>
 6   1  0.1826851E-04  0.5047575E+03  0.7546771E-02  0.9389227E-01
        -11   -1    0    0    0    0  0.00000000000E+00  0.00000000000E+00  0.50000000000E+03  0.50000000000E+03  0.00000000000E+00 0. -1.
         11   -1    0    0    0    0 -0.00000000000E+00 -0.00000000000E+00 -0.50000000000E+03  0.50000000000E+03  0.00000000000E+00 0. -1.
        -11    1    1    2    0    0 -0.46538054763E+01  0.71948805823E+02  0.43447985054E+03  0.44042142215E+03  0.00000000000E+00 0. -1.
         11    1    1    2    0    0 -0.15216857533E+02 -0.55513042426E+02 -0.49188608222E+03  0.49524253504E+03  0.00000000000E+00 0. -1.
        -15    1    1    2    0    0  0.16402894443E+02 -0.14794430505E+02  0.55376419459E+02  0.59645919233E+02  0.17770000000E+01 0. -1.
         15    1    1    2    0    0  0.34677685664E+01 -0.16413328920E+01  0.20298122244E+01  0.46901235761E+01  0.17770000000E+01 0.  1.
</event>
<event>
 6   1  0.1826851E-04  0.5006051E+03  0.7546771E-02  0.9398457E-01
        -11   -1    0    0    0    0  0.00000000000E+00  0.00000000000E+00  0.50000000000E+03  0.50000000000E+03  0.00000000000E+00 0. -1.
         11   -1    0    0    0    0 -0.00000000000E+00 -0.00000000000E+00 -0.50000000000E+03  0.50000000000E+03  0.00000000000E+00 0. -1.
        -11    1    1    2    0    0 -0.86010949360E+00 -0.96770797878E+01  0.24474921980E+03  0.24494196508E+03  0.00000000000E+00 0. -1.
         11    1    1    2    0    0  0.48431278694E+01 -0.78552723082E+01 -0.49930961593E+03  0.49939488759E+03  0.00000000000E+00 0. -1.
        -15    1    1    2    0    0 -0.21599672971E+01  0.12786053742E+02  0.23530353860E+03  0.23566726891E+03  0.17770000000E+01 0. -1.
         15    1    1    2    0    0 -0.18230510787E+01  0.47462983542E+01  0.19256857525E+02  0.19995878427E+02  0.17770000000E+01 0.  1.
</event>
<event>
 6   1  0.1826851E-04  0.5024571E+03  0.7546771E-02  0.9394329E-01
        -11   -1    0    0    0    0  0.00000000000E+00  0.00000000000E+00  0.50000000000E+03  0.50000000000E+03  0.00000000000E+00 0. -1.
         11   -1    0    0    0    0 -0.00000000000E+00 -0.00000000000E+00 -0.50000000000E+03  0.50000000000E+03  0.00000000000E+00 0. -1.
        -11    1    1    2    0    0 -0.39728641250E+01 -0.15123252013E+02  0.49729714645E+03  0.49754291098E+03  0.00000000000E+00 0. -1.
         11    1    1    2    0    0 -0.60314565921E+01 -0.85487718035E+01 -0.43018565050E+03  0.43031285580E+03  0.00000000000E+00 0. -1.
        -15    1    1    2    0    0  0.73388676421E+01  0.20259272666E+02 -0.51734396044E+02  0.56070514268E+02  0.17770000000E+01 0.  1.
         15    1    1    2    0    0  0.26654530751E+01  0.34127511507E+01 -0.15377099905E+02  0.16073718954E+02  0.17770000000E+01 0. -1.
</event>
<event>
 6   1  0.1826851E-04  0.5241452E+03  0.7546771E-02  0.9347347E-01
        -11   -1    0    0    0    0  0.00000000000E+00  0.00000000000E+00  0.50000000000E+03  0.50000000000E+03  0.00000000000E+00 0. -1.
         11   -1    0    0    0    0 -0.00000000000E+00 -0.00000000000E+00 -0.50000000000E+03  0.50000000000E+03  0.00000000000E+00 0. -1.
        -11    1    1    2    0    0 -0.50374992097E+01  0.54757935727E+02  0.40732782167E+03  0.41102282446E+03  0.00000000000E+00 0. -1.
         11    1    1    2    0    0  0.16344491171E+02  0.14376303610E+02 -0.47535669542E+03  0.47585481859E+03  0.00000000000E+00 0. -1.
        -15    1    1    2    0    0 -0.26215787936E+00 -0.53481672583E+02  0.13342138471E+02  0.55150053644E+02  0.17770000000E+01 0. -1.
         15    1    1    2    0    0 -0.11044834082E+02 -0.15652566754E+02  0.54686735278E+02  0.57972303303E+02  0.17770000000E+01 0.  1.
</event>
<event>
 6   1  0.1826851E-04  0.5001620E+03  0.7546771E-02  0.9399447E-01
        -11   -1    0    0    0    0  0.00000000000E+00  0.00000000000E+00  0.50000000000E+03  0.50000000000E+03  0.00000000000E+00 0.  1.
         11   -1    0    0    0    0 -0.00000000000E+00 -0.00000000000E+00 -0.50000000000E+03  0.50000000000E+03  0.00000000000E+00 0.  1.
        -11    1    1    2    0    0  0.12046751499E+02 -0.86937035597E+01  0.49961715397E+03  0.49983797899E+03  0.00000000000E+00 0.  1.
         11    1    1    2    0    0  0.25724299871E+00 -0.31490973071E+01 -0.69143659491E+02  0.69215812035E+02  0.00000000000E+00 0.  1.
        -15    1    1    2    0    0 -0.88813385080E+01  0.21218674316E+01 -0.15957049646E+03  0.15984142631E+03  0.17770000000E+01 0.  1.
         15    1    1    2    0    0 -0.34226559894E+01  0.97209334352E+01 -0.27090299802E+03  0.27110478267E+03  0.17770000000E+01 0. -1.
</event>
<event>
 6   1  0.1826851E-04  0.4373307E+03  0.7546771E-02  0.9552108E-01
        -11   -1    0    0    0    0  0.00000000000E+00  0.00000000000E+00  0.50000000000E+03  0.50000000000E+03  0.00000000000E+00 0. -1.
         11   -1    0    0    0    0 -0.00000000000E+00 -0.00000000000E+00 -0.50000000000E+03  0.50000000000E+03  0.00000000000E+00 0. -1.
        -11    1    1    2    0    0 -0.97484056261E+02  0.14786891903E+02  0.41405040927E+03  0.42562839992E+03  0.00000000000E+00 0. -1.
         11    1    1    2    0    0 -0.30136373877E+01 -0.56224594114E+01 -0.45577897331E+03  0.45582361344E+03  0.00000000000E+00 0. -1.
        -15    1    1    2    0    0  0.10496621276E+03 -0.11510403878E+02  0.39692063787E+02  0.11282292708E+03  0.17770000000E+01 0. -1.
         15    1    1    2    0    0 -0.44685191079E+01  0.23459713863E+01  0.20365002480E+01  0.57250595650E+01  0.17770000000E+01 0.  1.
</event>
<event>
 6   1  0.1826851E-04  0.5008684E+03  0.7546771E-02  0.9397869E-01
        -11   -1    0    0    0    0  0.00000000000E+00  0.00000000000E+00  0.50000000000E+03  0.50000000000E+03  0.00000000000E+00 0.  1.
         11   -1    0    0    0    0 -0.00000000000E+00 -0.00000000000E+00 -0.50000000000E+03  0.50000000000E+03  0.00000000000E+00 0.  1.
        -11    1    1    2    0    0 -0.17405768241E+02 -0.14060050308E+02  0.49862987761E+03  0.49913164659E+03  0.00000000000E+00 0.  1.
         11    1    1    2    0    0  0.70232292258E+01 -0.31213617106E+01 -0.38285514808E+03  0.38293228260E+03  0.00000000000E+00 0.  1.
        -15    1    1    2    0    0  0.10065911228E+02  0.77183163664E+01 -0.69217352633E+02  0.70392432910E+02  0.17770000000E+01 0.  1.
         15    1    1    2    0    0  0.31662778700E+00  0.94630956525E+01 -0.46557376899E+02  0.47543637904E+02  0.17770000000E+01 0. -1.
</event>
<event>
 6   1  0.1826851E-04  0.5000331E+03  0.7546771E-02  0.9399736E-01
        -11   -1    0    0    0    0  0.00000000000E+00  0.00000000000E+00  0.50000000000E+03  0.50000000000E+03  0.00000000000E+00 0. -1.
         11   -1    0    0    0    0 -0.00000000000E+00 -0.00000000000E+00 -0.50000000000E+03  0.50000000000E+03  0.00000000000E+00 0. -1.
        -11    1    1    2    0    0 -0.84036843558E+01 -0.11072840828E+02  0.49977362624E+03  0.49996690610E+03  0.00000000000E+00 0. -1.
         11    1    1    2    0    0 -0.29189028140E+00  0.31246036544E+01 -0.68765527174E+02  0.68837098105E+02  0.00000000000E+00 0. -1.
        -15    1    1    2    0    0  0.44848018704E+01  0.29567816709E+01 -0.15063184128E+03  0.15073806865E+03  0.17770000000E+01 0. -1.
         15    1    1    2    0    0  0.42107727669E+01  0.49914555024E+01 -0.28037625779E+03  0.28045792714E+03  0.17770000000E+01 0. -1.
</event>
<event>
 6   1  0.1826851E-04  0.4905205E+03  0.7546771E-02  0.9421274E-01
        -11   -1    0    0    0    0  0.00000000000E+00  0.00000000000E+00  0.50000000000E+03  0.50000000000E+03  0.00000000000E+00 0. -1.
         11   -1    0    0    0    0 -0.00000000000E+00 -0.00000000000E+00 -0.50000000000E+03  0.50000000000E+03  0.00000000000E+00 0. -1.
        -11    1    1    2    0    0 -0.76249303772E+01 -0.69530921606E+01  0.49083018420E+03  0.49093864666E+03  0.00000000000E+00 0. -1.
         11    1    1    2    0    0  0.73084435830E+01 -0.57382196987E+01 -0.49009665497E+03  0.49018473224E+03  0.00000000000E+00 0. -1.
        -15    1    1    2    0    0 -0.54891580747E+01  0.70029222611E+01 -0.40289445673E+01  0.99278346023E+01  0.17770000000E+01 0. -1.
         15    1    1    2    0    0  0.58056448689E+01  0.56883895982E+01  0.32954153333E+01  0.89487864978E+01  0.17770000000E+01 0.  1.
</event>
<event>
 6   1  0.1826851E-04  0.5064412E+03  0.7546771E-02  0.9385511E-01
        -11   -1    0    0    0    0  0.00000000000E+00  0.00000000000E+00  0.50000000000E+03  0.50000000000E+03  0.00000000000E+00 0. -1.
         11   -1    0    0    0    0 -0.00000000000E+00 -0.00000000000E+00 -0.50000000000E+03  0.50000000000E+03  0.00000000000E+00 0. -1.
        -11    1    1    2    0    0  0.19364398040E+02 -0.31500880904E+02  0.24182838445E+03  0.24463902578E+03  0.00000000000E+00 0. -1.
         11    1    1    2    0    0 -0.47946950334E+01 -0.59918031426E+01 -0.49349915869E+03  0.49355882166E+03  0.00000000000E+00 0. -1.
        -15    1    1    2    0    0 -0.21913867481E+02  0.40890746303E+02  0.24870673251E+03  0.25300289967E+03  0.17770000000E+01 0. -1.
         15    1    1    2    0    0  0.73441644744E+01 -0.33980622559E+01  0.29640417360E+01  0.87992528850E+01  0.17770000000E+01 0.  1.
</event>
<event>
 6   1  0.1826851E-04  0.5000398E+03  0.7546771E-02  0.9399721E-01
        -11   -1    0    0    0    0  0.00000000000E+00  0.00000000000E+00  0.50000000000E+03  0.50000000000E+03  0.00000000000E+00 0.  1.
         11   -1    0    0    0    0 -0.00000000000E+00 -0.00000000000E+00 -0.50000000000E+03  0.50000000000E+03  0.00000000000E+00 0.  1.
        -11    1    1    2    0    0 -0.74904847322E+01  0.96869400822E+00  0.49990316526E+03  0.49996021878E+03  0.00000000000E+00 0.  1.
         11    1    1    2    0    0  0.19091043909E+01 -0.31723573358E+01 -0.20402312186E+03  0.20405671463E+03  0.00000000000E+00 0.  1.
        -15    1    1    2    0    0  0.44620527038E+01  0.41136769606E+00 -0.22001147148E+03  0.22006427345E+03  0.17770000000E+01 0.  1.
         15    1    1    2    0    0  0.11193276375E+01  0.17922956315E+01 -0.75868571921E+02  0.75918793144E+02  0.17770000000E+01 0.  1.
</event>
<event>
 6   1  0.1826851E-04  0.5006890E+03  0.7546771E-02  0.9398269E-01
        -11   -1    0    0    0    0  0.00000000000E+00  0.00000000000E+00  0.50000000000E+03  0.50000000000E+03  0.00000000000E+00 0.  1.
         11   -1    0    0    0    0 -0.00000000000E+00 -0.00000000000E+00 -0.50000000000E+03  0.50000000000E+03  0.00000000000E+00 0. -1.
        -11    1    1    2    0    0 -0.80856931968E+01  0.19827455196E+01  0.96567686199E+02  0.96925887832E+02  0.00000000000E+00 0.  1.
         11    1    1    2    0    0 -0.16900945223E+02 -0.87341252575E+00 -0.49902410183E+03  0.49931098427E+03  0.00000000000E+00 0. -1.
        -15    1    1    2    0    0  0.14671668325E+02  0.29633871496E+01  0.33797027505E+03  0.33830622823E+03  0.17770000000E+01 0.  1.
         15    1    1    2    0    0  0.10314970095E+02 -0.40727201434E+01  0.64486140586E+02  0.65456899668E+02  0.17770000000E+01 0. -1.
</event>
<event>
 6   1  0.1826851E-04  0.5042920E+03  0.7546771E-02  0.9390257E-01
        -11   -1    0    0    0    0  0.00000000000E+00  0.00000000000E+00  0.50000000000E+03  0.50000000000E+03  0.00000000000E+00 0.  1.
         11   -1    0    0    0    0 -0.00000000000E+00 -0.00000000000E+00 -0.50000000000E+03  0.50000000000E+03  0.00000000000E+00 0.  1.
        -11    1    1    2    0    0  0.25973538256E+02  0.44547496586E+01  0.32415562410E+03  0.32522505764E+03  0.00000000000E+00 0.  1.
         11    1    1    2    0    0 -0.82919466057E+01 -0.78115840970E-01 -0.49563861776E+03  0.49570798046E+03  0.00000000000E+00 0.  1.
        -15    1    1    2    0    0  0.13401182464E+02  0.56737855096E+01  0.91251018127E+02  0.92421261469E+02  0.17770000000E+01 0.  1.
         15    1    1    2    0    0 -0.31082774115E+02 -0.10050419327E+02  0.80231975534E+02  0.86645700426E+02  0.17770000000E+01 0. -1.
</event>
<event>
 6   1  0.1826851E-04  0.5001264E+03  0.7546771E-02  0.9399527E-01
        -11   -1    0    0    0    0  0.00000000000E+00  0.00000000000E+00  0.50000000000E+03  0.50000000000E+03  0.00000000000E+00 0.  1.
         11   -1    0    0    0    0 -0.00000000000E+00 -0.00000000000E+00 -0.50000000000E+03  0.50000000000E+03  0.00000000000E+00 0. -1.
        -11    1    1    2    0    0 -0.43759439682E+01  0.12120631184E+02  0.49970743168E+03  0.49987355987E+03  0.00000000000E+00 0.  1.
         11    1    1    2    0    0 -0.15026413862E+01 -0.66065480804E+01 -0.17734705752E+03  0.17747643004E+03  0.00000000000E+00 0. -1.
        -15    1    1    2    0    0 -0.33356271889E+00  0.26017380089E+01 -0.95571991430E+02  0.95624492572E+02  0.17770000000E+01 0.  1.
         15    1    1    2    0    0  0.62121480733E+01 -0.81158211125E+01 -0.22678838273E+03  0.22702551752E+03  0.17770000000E+01 0. -1.
</event>
<event>
 6   1  0.1826851E-04  0.5110962E+03  0.7546771E-02  0.9375318E-01
        -11   -1    0    0    0    0  0.00000000000E+00  0.00000000000E+00  0.50000000000E+03  0.50000000000E+03  0.00000000000E+00 0. -1.
         11   -1    0    0    0    0 -0.00000000000E+00 -0.00000000000E+00 -0.50000000000E+03  0.50000000000E+03  0.00000000000E+00 0. -1.
        -11    1    1    2    0    0 -0.28081105836E+02  0.22146470342E+02  0.44680183172E+03  0.44823084620E+03  0.00000000000E+00 0. -1.
         11    1    1    2    0    0 -0.68714416939E+00  0.12743921273E+02 -0.48873719709E+03  0.48890380190E+03  0.00000000000E+00 0. -1.
        -15    1    1    2    0    0  0.57341299120E+01 -0.16727266654E+01  0.73534569935E+01  0.96389480287E+01  0.17770000000E+01 0.  1.
         15    1    1    2    0    0  0.23034120093E+02 -0.33217664950E+02  0.34581908375E+02  0.53226403871E+02  0.17770000000E+01 0. -1.
</event>
<event>
 6   1  0.1826851E-04  0.5011170E+03  0.7546771E-02  0.9397314E-01
        -11   -1    0    0    0    0  0.00000000000E+00  0.00000000000E+00  0.50000000000E+03  0.50000000000E+03  0.00000000000E+00 0.  1.
         11   -1    0    0    0    0 -0.00000000000E+00 -0.00000000000E+00 -0.50000000000E+03  0.50000000000E+03  0.00000000000E+00 0. -1.
        -11    1    1    2    0    0 -0.75448408928E+01 -0.15434835280E+01  0.49882357255E+03  0.49888301585E+03  0.00000000000E+00 0.  1.
         11    1    1    2    0    0 -0.74383064455E+01  0.13126541965E+01 -0.38355363535E+03  0.38362800035E+03  0.00000000000E+00 0. -1.
        -15    1    1    2    0    0  0.85270590604E+01 -0.40643336668E+00 -0.18145322303E+02  0.20131725578E+02  0.17770000000E+01 0.  1.
         15    1    1    2    0    0  0.64560882779E+01  0.63726269817E+00 -0.97124614903E+02  0.97357258223E+02  0.17770000000E+01 0. -1.
</event>
<event>
 6   1  0.1826851E-04  0.5005949E+03  0.7546771E-02  0.9398480E-01
        -11   -1    0    0    0    0  0.00000000000E+00  0.00000000000E+00  0.50000000000E+03  0.50000000000E+03  0.00000000000E+00 0. -1.
         11   -1    0    0    0    0 -0.00000000000E+00 -0.00000000000E+00 -0.50000000000E+03  0.50000000000E+03  0.00000000000E+00 0.  1.
        -11    1    1    2    0    0 -0.87927428195E+01  0.81603089794E+01  0.38003524827E+03  0.38022452958E+03  0.00000000000E+00 0. -1.
         11    1    1    2    0    0  0.79267539141E+01 -0.28761459311E+01 -0.49933387842E+03  0.49940507385E+03  0.00000000000E+00 0.  1.
        -15    1    1    2    0    0  0.31585332967E+01 -0.88458237587E+01  0.10282386512E+03  0.10326727408E+03  0.17770000000E+01 0. -1.
         15    1    1    2    0    0 -0.22925443912E+01  0.35616607104E+01  0.16474765036E+02  0.17103122487E+02  0.17770000000E+01 0.  1.
</event>
<event>
 6   1  0.1826851E-04  0.4509868E+03  0.7546771E-02  0.9516697E-01
        -11   -1    0    0    0    0  0.00000000000E+00  0.00000000000E+00  0.50000000000E+03  0.50000000000E+03  0.00000000000E+00 0.  1.
         11   -1    0    0    0    0 -0.00000000000E+00 -0.00000000000E+00 -0.50000000000E+03  0.50000000000E+03  0.00000000000E+00 0. -1.
        -11    1    1    2    0    0 -0.27049477413E+02 -0.66504342495E+02  0.44601943857E+03  0.45176082320E+03  0.00000000000E+00 0.  1.
         11    1    1    2    0    0  0.95029151351E+01 -0.48998927192E+01 -0.45310642145E+03  0.45323254904E+03  0.00000000000E+00 0. -1.
        -15    1    1    2    0    0  0.16314864528E+02  0.64151650341E+02  0.28653222068E+02  0.72151049264E+02  0.17770000000E+01 0.  1.
         15    1    1    2    0    0  0.12316977504E+01  0.72525848729E+01 -0.21566239184E+02  0.22855578493E+02  0.17770000000E+01 0. -1.
</event>
<event>
 6   1  0.1826851E-04  0.5015545E+03  0.7546771E-02  0.9396338E-01
        -11   -1    0    0    0    0  0.00000000000E+00  0.00000000000E+00  0.50000000000E+03  0.50000000000E+03  0.00000000000E+00 0.  1.
         11   -1    0    0    0    0 -0.00000000000E+00 -0.00000000000E+00 -0.50000000000E+03  0.50000000000E+03  0.00000000000E+00 0. -1.
        -11    1    1    2    0    0 -0.26592586521E+02 -0.20498905246E+01  0.49773140824E+03  0.49844550601E+03  0.00000000000E+00 0.  1.
         11    1    1    2    0    0  0.77694764733E+01 -0.39440393343E+01 -0.33836736158E+03  0.33847952906E+03  0.00000000000E+00 0. -1.
        -15    1    1    2    0    0  0.25942915156E+02  0.44333859531E+01 -0.10850144057E+03  0.11166203514E+03  0.17770000000E+01 0.  1.
         15    1    1    2    0    0 -0.71198051084E+01  0.15605439058E+01 -0.50862606091E+02  0.51412929788E+02  0.17770000000E+01 0. -1.
</event>
<event>
 6   1  0.1826851E-04  0.5017263E+03  0.7546771E-02  0.9395955E-01
        -11   -1    0    0    0    0  0.00000000000E+00  0.00000000000E+00  0.50000000000E+03  0.50000000000E+03  0.00000000000E+00 0.  1.
         11   -1    0    0    0    0 -0.00000000000E+00 -0.00000000000E+00 -0.50000000000E+03  0.50000000000E+03  0.00000000000E+00 0. -1.
        -11    1    1    2    0    0  0.10007112298E+02  0.19473051548E+02  0.81152845669E+02  0.84054306215E+02  0.00000000000E+00 0.  1.
         11    1    1    2    0    0  0.11560418173E+02 -0.10222608119E+02 -0.49803463116E+03  0.49827365857E+03  0.00000000000E+00 0. -1.
        -15    1    1    2    0    0 -0.64895219891E+01 -0.73841064784E+00  0.63027729913E+02  0.63390153911E+02  0.17770000000E+01 0.  1.
         15    1    1    2    0    0 -0.15078008482E+02 -0.85120327805E+01  0.35385405558E+03  0.35428188131E+03  0.17770000000E+01 0.  1.
</event>
<event>
 6   1  0.1826851E-04  0.4944518E+03  0.7546771E-02  0.9412311E-01
        -11   -1    0    0    0    0  0.00000000000E+00  0.00000000000E+00  0.50000000000E+03  0.50000000000E+03  0.00000000000E+00 0. -1.
         11   -1    0    0    0    0 -0.00000000000E+00 -0.00000000000E+00 -0.50000000000E+03  0.50000000000E+03  0.00000000000E+00 0.  1.
        -11    1    1    2    0    0  0.11059846271E+02 -0.97145073829E-01  0.35203228698E+01  0.11606994004E+02  0.00000000000E+00 0. -1.
         11    1    1    2    0    0 -0.13728444761E+02 -0.15971784593E+02 -0.49530762170E+03  0.49575518980E+03  0.00000000000E+00 0.  1.
        -15    1    1    2    0    0 -0.90237695143E+01  0.76736200381E+01  0.12735466105E+03  0.12791669274E+03  0.17770000000E+01 0. -1.
         15    1    1    2    0    0  0.11692368004E+02  0.83953096287E+01  0.36443263778E+03  0.36472112346E+03  0.17770000000E+01 0.  1.
</event>
<event>
 6   1  0.1826851E-04  0.4839475E+03  0.7546771E-02  0.9436463E-01
        -11   -1    0    0    0    0  0.00000000000E+00  0.00000000000E+00  0.50000000000E+03  0.50000000000E+03  0.00000000000E+00 0. -1.
         11   -1    0    0    0    0 -0.00000000000E+00 -0.00000000000E+00 -0.50000000000E+03  0.50000000000E+03  0.00000000000E+00 0.  1.
        -11    1    1    2    0    0 -0.18925111315E+02 -0.10216911848E+02  0.48787401324E+03  0.48834782473E+03  0.00000000000E+00 0. -1.
         11    1    1    2    0    0 -0.62486798072E+01  0.12668971945E+02 -0.47970406887E+03  0.47991201541E+03  0.00000000000E+00 0.  1.
        -15    1    1    2    0    0  0.10649926020E+02 -0.22222702335E+01 -0.12317379688E+02  0.16529820949E+02  0.17770000000E+01 0.  1.
         15    1    1    2    0    0  0.14523865103E+02 -0.22978986358E+00  0.41474353200E+01  0.15210338906E+02  0.17770000000E+01 0. -1.
</event>
<event>
 6   1  0.1826851E-04  0.5048746E+03  0.7546771E-02  0.9388968E-01
        -11   -1    0    0    0    0  0.00000000000E+00  0.00000000000E+00  0.50000000000E+03  0.50000000000E+03  0.00000000000E+00 0. -1.
         11   -1    0    0    0    0 -0.00000000000E+00 -0.00000000000E+00 -0.50000000000E+03  0.50000000000E+03  0.00000000000E+00 0.  1.
        -11    1    1    2    0    0 -0.61302616521E+02  0.24955594922E+02  0.49068158492E+03  0.49512544905E+03  0.00000000000E+00 0. -1.
         11    1    1    2    0    0  0.50130291763E+01 -0.24943412678E+01 -0.29372852221E+03  0.29378188671E+03  0.00000000000E+00 0.  1.
        -15    1    1    2    0    0  0.56938365242E+02 -0.31847496729E+02 -0.15733735926E+03  0.17033626400E+03  0.17770000000E+01 0. -1.
         15    1    1    2    0    0 -0.64877789771E+00  0.93862430748E+01 -0.39615703449E+02  0.40756400241E+02  0.17770000000E+01 0.  1.
</event>
<event>
 6   1  0.1826851E-04  0.4975533E+03  0.7546771E-02  0.9405301E-01
        -11   -1    0    0    0    0  0.00000000000E+00  0.00000000000E+00  0.50000000000E+03  0.50000000000E+03  0.00000000000E+00 0. -1.
         11   -1    0    0    0    0 -0.00000000000E+00 -0.00000000000E+00 -0.50000000000E+03  0.50000000000E+03  0.00000000000E+00 0.  1.
        -11    1    1    2    0    0  0.47321844034E+01  0.13146244108E+00 -0.13560081329E+01  0.49243892674E+01  0.00000000000E+00 0. -1.
         11    1    1    2    0    0  0.90916977996E+01  0.13027153012E+02 -0.49652833783E+03  0.49678240302E+03  0.00000000000E+00 0.  1.
        -15    1    1    2    0    0 -0.68217358783E+01 -0.10050905650E+02  0.28779568332E+03  0.28805740721E+03  0.17770000000E+01 0. -1.
         15    1    1    2    0    0 -0.70021463247E+01 -0.31077098031E+01  0.21008866264E+03  0.21023580050E+03  0.17770000000E+01 0. -1.
</event>
<event>
 6   1  0.1826851E-04  0.5019419E+03  0.7546771E-02  0.9395475E-01
        -11   -1    0    0    0    0  0.00000000000E+00  0.00000000000E+00  0.50000000000E+03  0.50000000000E+03  0.00000000000E+00 0.  1.
         11   -1    0    0    0    0 -0.00000000000E+00 -0.00000000000E+00 -0.50000000000E+03  0.50000000000E+03  0.00000000000E+00 0.  1.
        -11    1    1    2    0    0  0.16454936532E+02  0.42431047041E+01  0.37297992863E+03  0.37336683843E+03  0.00000000000E+00 0.  1.
         11    1    1    2    0    0  0.50861079614E+01 -0.61090621409E+01 -0.49799463468E+03  0.49805807423E+03  0.00000000000E+00 0.  1.
        -15    1    1    2    0    0 -0.51882279525E+01 -0.39148099440E+01  0.80287549995E+02  0.80569794957E+02  0.17770000000E+01 0.  1.
         15    1    1    2    0    0 -0.16352816541E+02  0.57807673808E+01  0.44727156049E+02  0.48005292391E+02  0.17770000000E+01 0. -1.
</event>
<event>
 6   1  0.1826851E-04  0.5004260E+03  0.7546771E-02  0.9398857E-01
        -11   -1    0    0    0    0  0.00000000000E+00  0.00000000000E+00  0.50000000000E+03  0.50000000000E+03  0.00000000000E+00 0. -1.
         11   -1    0    0    0    0 -0.00000000000E+00 -0.00000000000E+00 -0.50000000000E+03  0.50000000000E+03  0.00000000000E+00 0.  1.
        -11    1    1    2    0    0  0.25200030386E+01  0.10836114688E+02  0.38880160008E+03  0.38896073841E+03  0.00000000000E+00 0. -1.
         11    1    1    2    0    0  0.37006474469E+01 -0.72187943563E+01 -0.49950810231E+03  0.49957396856E+03  0.00000000000E+00 0.  1.
        -15    1    1    2    0    0 -0.89704898094E+01 -0.31489574861E+01  0.83791007745E+02  0.84347355197E+02  0.17770000000E+01 0. -1.
         15    1    1    2    0    0  0.27498393239E+01 -0.46836284533E+00  0.26915494486E+02  0.27117937836E+02  0.17770000000E+01 0.  1.
</event>
<event>
 6   1  0.1826851E-04  0.5001298E+03  0.7546771E-02  0.9399519E-01
        -11   -1    0    0    0    0  0.00000000000E+00  0.00000000000E+00  0.50000000000E+03  0.50000000000E+03  0.00000000000E+00 0.  1.
         11   -1    0    0    0    0 -0.00000000000E+00 -0.00000000000E+00 -0.50000000000E+03  0.50000000000E+03  0.00000000000E+00 0. -1.
        -11    1    1    2    0    0 -0.55631762646E+01  0.23574339234E+01  0.62694242028E+02  0.62984715673E+02  0.00000000000E+00 0.  1.
         11    1    1    2    0    0  0.42500866702E+01 -0.12723421298E+02 -0.49969014022E+03  0.49987016806E+03  0.00000000000E+00 0. -1.
        -15    1    1    2    0    0 -0.83445938866E+00  0.43628931349E+01  0.17134282667E+03  0.17140960632E+03  0.17770000000E+01 0. -1.
         15    1    1    2    0    0  0.21475489831E+01  0.60030942401E+01  0.26565307152E+03  0.26573550994E+03  0.17770000000E+01 0.  1.
</event>
<event>
 6   1  0.1826851E-04  0.4567894E+03  0.7546771E-02  0.9502052E-01
        -11   -1    0    0    0    0  0.00000000000E+00  0.00000000000E+00  0.50000000000E+03  0.50000000000E+03  0.00000000000E+00 0.  1.
         11   -1    0    0    0    0 -0.00000000000E+00 -0.00000000000E+00 -0.50000000000E+03  0.50000000000E+03  0.00000000000E+00 0.  1.
        -11    1    1    2    0    0  0.58901095905E+02 -0.18220479169E+02  0.45258481184E+03  0.45676507843E+03  0.00000000000E+00 0.  1.
         11    1    1    2    0    0 -0.70419047567E+00 -0.14109539373E+02 -0.45904161863E+03  0.45925894942E+03  0.00000000000E+00 0.  1.
        -15    1    1    2    0    0 -0.41702751169E+02  0.28755455138E+02  0.26919602402E+02  0.57391797129E+02  0.17770000000E+01 0.  1.
         15    1    1    2    0    0 -0.16494154261E+02  0.35745634036E+01 -0.20462795618E+02  0.26584175026E+02  0.17770000000E+01 0. -1.
</event>
<event>
 6   1  0.1826851E-04  0.5001002E+03  0.7546771E-02  0.9399586E-01
        -11   -1    0    0    0    0  0.00000000000E+00  0.00000000000E+00  0.50000000000E+03  0.50000000000E+03  0.00000000000E+00 0.  1.
         11   -1    0    0    0    0 -0.00000000000E+00 -0.00000000000E+00 -0.50000000000E+03  0.50000000000E+03  0.00000000000E+00 0.  1.
        -11    1    1    2    0    0  0.19342287802E+01 -0.13148579294E+02  0.49972309784E+03  0.49989979085E+03  0.00000000000E+00 0.  1.
         11    1    1    2    0    0 -0.27673642225E+01  0.23272860311E+01 -0.15053771424E+03  0.15058113419E+03  0.00000000000E+00 0.  1.
        -15    1    1    2    0    0 -0.31285446224E+01  0.56387126127E+01 -0.91134366325E+02  0.91379501672E+02  0.17770000000E+01 0. -1.
         15    1    1    2    0    0  0.39616800647E+01  0.51825806503E+01 -0.25805101728E+03  0.25813957329E+03  0.17770000000E+01 0.  1.
</event>
<event>
 6   1  0.1826851E-04  0.5012634E+03  0.7546771E-02  0.9396987E-01
        -11   -1    0    0    0    0  0.00000000000E+00  0.00000000000E+00  0.50000000000E+03  0.50000000000E+03  0.00000000000E+00 0.  1.
         11   -1    0    0    0    0 -0.00000000000E+00 -0.00000000000E+00 -0.50000000000E+03  0.50000000000E+03  0.00000000000E+00 0.  1.
        -11    1    1    2    0    0 -0.10363790545E+02  0.15562400159E+01  0.21417805984E+02  0.23844337915E+02  0.00000000000E+00 0.  1.
         11    1    1    2    0    0  0.66845584647E+01  0.13375897061E+02 -0.49851240057E+03  0.49873661533E+03  0.00000000000E+00 0.  1.
        -15    1    1    2    0    0  0.55035322502E+01 -0.62938595428E+01  0.24936342135E+03  0.24950986989E+03  0.17770000000E+01 0.  1.
         15    1    1    2    0    0 -0.18243001695E+01 -0.86382775340E+01  0.22773117324E+03  0.22790917687E+03  0.17770000000E+01 0.  1.
</event>
<event>
 6   1  0.1826851E-04  0.5098640E+03  0.7546771E-02  0.9378005E-01
        -11   -1    0    0    0    0  0.00000000000E+00  0.00000000000E+00  0.50000000000E+03  0.50000000000E+03  0.00000000000E+00 0. -1.
         11   -1    0    0    0    0 -0.00000000000E+00 -0.00000000000E+00 -0.50000000000E+03  0.50000000000E+03  0.00000000000E+00 0.  1.
        -11    1    1    2    0    0  0.12582490937E+02 -0.20577906054E+01  0.48997016780E+03  0.49013602083E+03  0.00000000000E+00 0. -1.
         11    1    1    2    0    0  0.76743689530E+01 -0.27539005972E+01 -0.47564370170E+03  0.47571358071E+03  0.00000000000E+00 0.  1.
        -15    1    1    2    0    0  0.36432023497E+00  0.27944847022E+01 -0.12880638472E+02  0.13304527441E+02  0.17770000000E+01 0. -1.
         15    1    1    2    0    0 -0.20621180125E+02  0.20172065004E+01 -0.14458276296E+01  0.20845871015E+02  0.17770000000E+01 0. -1.
</event>
<event>
 6   1  0.1826851E-04  0.5008146E+03  0.7546771E-02  0.9397989E-01
        -11   -1    0    0    0    0  0.00000000000E+00  0.00000000000E+00  0.50000000000E+03  0.50000000000E+03  0.00000000000E+00 0.  1.
         11   -1    0    0    0    0 -0.00000000000E+00 -0.00000000000E+00 -0.50000000000E+03  0.50000000000E+03  0.00000000000E+00 0.  1.
        -11    1    1    2    0    0  0.14499644229E+02 -0.15948574467E+02  0.14828624027E+03  0.14984460539E+03  0.00000000000E+00 0.  1.
         11    1    1    2    0    0 -0.83375761241E+01  0.82787272394E+01 -0.49904709670E+03  0.49918539364E+03  0.00000000000E+00 0.  1.
        -15    1    1    2    0    0 -0.33930397770E+01  0.77344224832E+01  0.22345753302E+03  0.22362415075E+03  0.17770000000E+01 0.  1.
         15    1    1    2    0    0 -0.27690283281E+01 -0.64575255309E-01  0.12730332341E+03  0.12734585022E+03  0.17770000000E+01 0.  1.
</event>
<event>
 6   1  0.1826851E-04  0.5006773E+03  0.7546771E-02  0.9398295E-01
        -11   -1    0    0    0    0  0.00000000000E+00  0.00000000000E+00  0.50000000000E+03  0.50000000000E+03  0.00000000000E+00 0.  1.
         11   -1    0    0    0    0 -0.00000000000E+00 -0.00000000000E+00 -0.50000000000E+03  0.50000000000E+03  0.00000000000E+00 0.  1.
        -11    1    1    2    0    0  0.10308697694E+02 -0.73419580364E+01  0.49916225710E+03  0.49932267374E+03  0.00000000000E+00 0.  1.
         11    1    1    2    0    0 -0.29727071108E+01 -0.35315030189E+01 -0.29311408146E+03  0.29315042769E+03  0.00000000000E+00 0.  1.
        -15    1    1    2    0    0 -0.54028011033E+01  0.43680991002E+00 -0.13214091037E+02  0.14392741004E+02  0.17770000000E+01 0. -1.
         15    1    1    2    0    0 -0.19331894799E+01  0.10436651145E+02 -0.19283408460E+03  0.19313415757E+03  0.17770000000E+01 0.  1.
</event>
<event>
 6   1  0.1826851E-04  0.5013355E+03  0.7546771E-02  0.9396826E-01
        -11   -1    0    0    0    0  0.00000000000E+00  0.00000000000E+00  0.50000000000E+03  0.50000000000E+03  0.00000000000E+00 0. -1.
         11   -1    0    0    0    0 -0.00000000000E+00 -0.00000000000E+00 -0.50000000000E+03  0.50000000000E+03  0.00000000000E+00 0.  1.
        -11    1    1    2    0    0 -0.11062225170E+02 -0.13543472730E+01  0.49853998009E+03  0.49866453537E+03  0.00000000000E+00 0. -1.
         11    1    1    2    0    0  0.73436974885E+01 -0.19767468408E+01 -0.37051593773E+03  0.37059397936E+03  0.00000000000E+00 0.  1.
        -15    1    1    2    0    0 -0.98014597809E+01  0.55668149450E+01 -0.78526277507E+02  0.79351068238E+02  0.17770000000E+01 0.  1.
         15    1    1    2    0    0  0.13519987462E+02 -0.22357208312E+01 -0.49497764855E+02  0.51390417037E+02  0.17770000000E+01 0.  1.
</event>
<event>
 6   1  0.1826851E-04  0.5123898E+03  0.7546771E-02  0.9372505E-01
        -11   -1    0    0    0    0  0.00000000000E+00  0.00000000000E+00  0.50000000000E+03  0.50000000000E+03  0.00000000000E+00 0.  1.
         11   -1    0    0    0    0 -0.00000000000E+00 -0.00000000000E+00 -0.50000000000E+03  0.50000000000E+03  0.00000000000E+00 0.  1.
        -11    1    1    2    0    0  0.10998472610E+02 -0.35532682706E+02  0.44462108974E+03  0.44617423882E+03  0.00000000000E+00 0.  1.
         11    1    1    2    0    0 -0.29226865769E+01 -0.12107469853E+02 -0.48745106169E+03  0.48761016239E+03  0.00000000000E+00 0.  1.
        -15    1    1    2    0    0  0.31281857700E+01  0.50327680845E+01  0.33690837356E+01  0.70443420574E+01  0.17770000000E+01 0.  1.
         15    1    1    2    0    0 -0.11203971804E+02  0.42607384474E+02  0.39460888214E+02  0.59171256735E+02  0.17770000000E+01 0. -1.
</event>
<event>
 6   1  0.1826851E-04  0.5010430E+03  0.7546771E-02  0.9397479E-01
        -11   -1    0    0    0    0  0.00000000000E+00  0.00000000000E+00  0.50000000000E+03  0.50000000000E+03  0.00000000000E+00 0. -1.
         11   -1    0    0    0    0 -0.00000000000E+00 -0.00000000000E+00 -0.50000000000E+03  0.50000000000E+03  0.00000000000E+00 0. -1.
        -11    1    1    2    0    0  0.80918190273E+01 -0.85367348135E+00  0.16603199202E+02  0.18489794951E+02  0.00000000000E+00 0. -1.
         11    1    1    2    0    0 -0.16193521646E+02  0.80676875325E+00 -0.49869348759E+03  0.49895698771E+03  0.00000000000E+00 0. -1.
        -15    1    1    2    0    0  0.44705099367E+01 -0.89141696010E+01  0.16504311258E+03  0.16535366527E+03  0.17770000000E+01 0. -1.
         15    1    1    2    0    0  0.36311926823E+01  0.89610743291E+01  0.31704717581E+03  0.31719955207E+03  0.17770000000E+01 0.  1.
</event>
<event>
 6   1  0.1826851E-04  0.5004071E+03  0.7546771E-02  0.9398899E-01
        -11   -1    0    0    0    0  0.00000000000E+00  0.00000000000E+00  0.50000000000E+03  0.50000000000E+03  0.00000000000E+00 0. -1.
         11   -1    0    0    0    0 -0.00000000000E+00 -0.00000000000E+00 -0.50000000000E+03  0.50000000000E+03  0.00000000000E+00 0. -1.
        -11    1    1    2    0    0 -0.65618303106E+01 -0.87215729155E+01  0.73094012016E+02  0.73904384469E+02  0.00000000000E+00 0. -1.
         11    1    1    2    0    0  0.37874994246E+01  0.90371962344E+01 -0.49949677478E+03  0.49959287833E+03  0.00000000000E+00 0. -1.
        -15    1    1    2    0    0  0.67902516533E+00 -0.36019067918E+01  0.29951160503E+03  0.29953930308E+03  0.17770000000E+01 0.  1.
         15    1    1    2    0    0  0.20953057206E+01  0.32862834729E+01  0.12689115773E+03  0.12696343412E+03  0.17770000000E+01 0. -1.
</event>
<event>
 6   1  0.1826851E-04  0.5018275E+03  0.7546771E-02  0.9395730E-01
        -11   -1    0    0    0    0  0.00000000000E+00  0.00000000000E+00  0.50000000000E+03  0.50000000000E+03  0.00000000000E+00 0.  1.
         11   -1    0    0    0    0 -0.00000000000E+00 -0.00000000000E+00 -0.50000000000E+03  0.50000000000E+03  0.00000000000E+00 0. -1.
        -11    1    1    2    0    0 -0.73248486790E+01  0.59454190936E+01  0.46792098968E+03  0.46801608306E+03  0.00000000000E+00 0.  1.
         11    1    1    2    0    0 -0.59476385644E+01 -0.47573513652E+01 -0.49811427885E+03  0.49817250184E+03  0.00000000000E+00 0. -1.
        -15    1    1    2    0    0  0.36529175729E+01 -0.32673414094E+01  0.99974881764E+01  0.11275053238E+02  0.17770000000E+01 0. -1.
         15    1    1    2    0    0  0.96195696705E+01  0.20792736811E+01  0.20195800987E+02  0.22536361867E+02  0.17770000000E+01 0.  1.
</event>
<event>
 6   1  0.1826851E-04  0.5034660E+03  0.7546771E-02  0.9392087E-01
        -11   -1    0    0    0    0  0.00000000000E+00  0.00000000000E+00  0.50000000000E+03  0.50000000000E+03  0.00000000000E+00 0.  1.
         11   -1    0    0    0    0 -0.00000000000E+00 -0.00000000000E+00 -0.50000000000E+03  0.50000000000E+03  0.00000000000E+00 0.  1.
        -11    1    1    2    0    0 -0.14899235532E+02 -0.17026077855E+02  0.36628323587E+03  0.36698131209E+03  0.00000000000E+00 0.  1.
         11    1    1    2    0    0 -0.34219041748E+01  0.19440611804E+02 -0.49614147427E+03  0.49653399612E+03  0.00000000000E+00 0.  1.
        -15    1    1    2    0    0  0.11447997828E+02 -0.25832636083E+01  0.12875191104E+03  0.12929788177E+03  0.17770000000E+01 0. -1.
         15    1    1    2    0    0  0.68731418784E+01  0.16872965973E+00  0.11063273606E+01  0.71868100161E+01  0.17770000000E+01 0.  1.
</event>
<event>
 6   1  0.1826851E-04  0.5010090E+03  0.7546771E-02  0.9397555E-01
        -11   -1    0    0    0    0  0.00000000000E+00  0.00000000000E+00  0.50000000000E+03  0.50000000000E+03  0.00000000000E+00 0.  1.
         11   -1    0    0    0    0 -0.00000000000E+00 -0.00000000000E+00 -0.50000000000E+03  0.50000000000E+03  0.00000000000E+00 0. -1.
        -11    1    1    2    0    0 -0.17434237541E+02  0.18617402931E+01  0.49868286126E+03  0.49899099674E+03  0.00000000000E+00 0.  1.
         11    1    1    2    0    0  0.60700764833E+01 -0.16829415275E+01 -0.33922632620E+03  0.33928480442E+03  0.00000000000E+00 0. -1.
        -15    1    1    2    0    0  0.11110815660E+02 -0.72211855259E+01 -0.42757278420E+02  0.44798865297E+02  0.17770000000E+01 0. -1.
         15    1    1    2    0    0  0.25334539751E+00  0.70423867603E+01 -0.11669925664E+03  0.11692533354E+03  0.17770000000E+01 0.  1.
</event>
<event>
 6   1  0.1826851E-04  0.5008385E+03  0.7546771E-02  0.9397935E-01
        -11   -1    0    0    0    0  0.00000000000E+00  0.00000000000E+00  0.50000000000E+03  0.50000000000E+03  0.00000000000E+00 0. -1.
         11   -1    0    0    0    0 -0.00000000000E+00 -0.00000000000E+00 -0.50000000000E+03  0.50000000000E+03  0.00000000000E+00 0.  1.
        -11    1    1    2    0    0 -0.13770164831E+02 -0.46898643063E+01  0.49894949711E+03  0.49916150987E+03  0.00000000000E+00 0. -1.
         11    1    1    2    0    0 -0.15262476399E+01 -0.54238815024E+01 -0.38825895570E+03  0.38829983853E+03  0.00000000000E+00 0.  1.
        -15    1    1    2    0    0  0.96721533237E+01  0.34923924737E+01 -0.76861482287E+02  0.77566697387E+02  0.17770000000E+01 0.  1.
         15    1    1    2    0    0  0.56242591470E+01  0.66213533350E+01 -0.33829059129E+02  0.34971954213E+02  0.17770000000E+01 0. -1.
</event>
<event>
 6   1  0.1826851E-04  0.5124295E+03  0.7546771E-02  0.9372419E-01
        -11   -1    0    0    0    0  0.00000000000E+00  0.00000000000E+00  0.50000000000E+03  0.50000000000E+03  0.00000000000E+00 0. -1.
         11   -1    0    0    0    0 -0.00000000000E+00 -0.00000000000E+00 -0.50000000000E+03  0.50000000000E+03  0.00000000000E+00 0. -1.
        -11    1    1    2    0    0 -0.55768837874E+02  0.29118277443E+02  0.48349447974E+03  0.48757045573E+03  0.00000000000E+00 0. -1.
         11    1    1    2    0    0 -0.21139133730E+01  0.74523153664E+01 -0.40704946920E+03  0.40712317056E+03  0.00000000000E+00 0. -1.
        -15    1    1    2    0    0  0.17143682185E+02 -0.45412472885E+01 -0.33631954040E+02  0.38063037547E+02  0.17770000000E+01 0. -1.
         15    1    1    2    0    0  0.40739069062E+02 -0.32029345521E+02 -0.42813056500E+02  0.67243336164E+02  0.17770000000E+01 0.  1.
</event>
<event>
 6   1  0.1826851E-04  0.5000693E+03  0.7546771E-02  0.9399655E-01
        -11   -1    0    0    0    0  0.00000000000E+00  0.00000000000E+00  0.50000000000E+03  0.50000000000E+03  0.00000000000E+00 0.  1.
         11   -1    0    0    0    0 -0.00000000000E+00 -0.00000000000E+00 -0.50000000000E+03  0.50000000000E+03  0.00000000000E+00 0. -1.
        -11    1    1    2    0    0  0.89836770556E+01 -0.16618342929E+01  0.49984722308E+03  0.49993070976E+03  0.00000000000E+00 0.  1.
         11    1    1    2    0    0 -0.89329286287E+01  0.42424995056E+01 -0.32548378851E+03  0.32563398563E+03  0.00000000000E+00 0. -1.
        -15    1    1    2    0    0 -0.66562848200E+00 -0.36479597939E+00 -0.48798526810E+02  0.48836769807E+02  0.17770000000E+01 0.  1.
         15    1    1    2    0    0  0.61488005506E+00 -0.22158692333E+01 -0.12556490776E+03  0.12559853480E+03  0.17770000000E+01 0.  1.
</event>
<event>
 6   1  0.1826851E-04  0.4104068E+03  0.7546771E-02  0.9626142E-01
        -11   -1    0    0    0    0  0.00000000000E+00  0.00000000000E+00  0.50000000000E+03  0.50000000000E+03  0.00000000000E+00 0.  1.
         11   -1    0    0    0    0 -0.00000000000E+00 -0.00000000000E+00 -0.50000000000E+03  0.50000000000E+03  0.00000000000E+00 0. -1.
        -11    1    1    2    0    0  0.13208806288E+02  0.89081138472E+02  0.43080063470E+03  0.44011260906E+03  0.00000000000E+00 0.  1.
         11    1    1    2    0    0  0.70141550751E+02 -0.30350498764E+02 -0.38092125536E+03  0.38851253867E+03  0.00000000000E+00 0. -1.
        -15    1    1    2    0    0  0.14369948712E+02 -0.27807760628E+02  0.28470969964E+02  0.42349980364E+02  0.17770000000E+01 0.  1.
         15    1    1    2    0    0 -0.97720305751E+02 -0.30922879079E+02 -0.78350349299E+02  0.12902487191E+03  0.17770000000E+01 0. -1.
</event>
<event>
 6   1  0.1826851E-04  0.5039649E+03  0.7546771E-02  0.9390981E-01
        -11   -1    0    0    0    0  0.00000000000E+00  0.00000000000E+00  0.50000000000E+03  0.50000000000E+03  0.00000000000E+00 0. -1.
         11   -1    0    0    0    0 -0.00000000000E+00 -0.00000000000E+00 -0.50000000000E+03  0.50000000000E+03  0.00000000000E+00 0.  1.
        -11    1    1    2    0    0  0.99684802394E+01 -0.67034711326E+01  0.49588963177E+03  0.49603511369E+03  0.00000000000E+00 0. -1.
         11    1    1    2    0    0 -0.45135518316E+01 -0.51959443978E+01 -0.48180969646E+03  0.48185885235E+03  0.00000000000E+00 0.  1.
        -15    1    1    2    0    0 -0.80274774388E+01  0.10176801005E+02 -0.89311287790E+01  0.15840784797E+02  0.17770000000E+01 0. -1.
         15    1    1    2    0    0  0.25725490310E+01  0.17226145257E+01 -0.51488065315E+01  0.62652491586E+01  0.17770000000E+01 0.  1.
</event>
<event>
 6   1  0.1826851E-04  0.5039368E+03  0.7546771E-02  0.9391044E-01
        -11   -1    0    0    0    0  0.00000000000E+00  0.00000000000E+00  0.50000000000E+03  0.50000000000E+03  0.00000000000E+00 0.  1.
         11   -1    0    0    0    0 -0.00000000000E+00 -0.00000000000E+00 -0.50000000000E+03  0.50000000000E+03  0.00000000000E+00 0.  1.
        -11    1    1    2    0    0 -0.12462925386E+02  0.14474905387E+02  0.17969141901E+03  0.18070377268E+03  0.00000000000E+00 0.  1.
         11    1    1    2    0    0  0.82699106220E+01  0.12742282373E+02 -0.49583053337E+03  0.49606317643E+03  0.00000000000E+00 0.  1.
        -15    1    1    2    0    0  0.28131630289E+01 -0.24067547717E+02  0.31800802247E+03  0.31893482222E+03  0.17770000000E+01 0.  1.
         15    1    1    2    0    0  0.13798517354E+01 -0.31496400429E+01 -0.18689081077E+01  0.42982286732E+01  0.17770000000E+01 0. -1.
</event>
<event>
 6   1  0.1826851E-04  0.5002443E+03  0.7546771E-02  0.9399263E-01
        -11   -1    0    0    0    0  0.00000000000E+00  0.00000000000E+00  0.50000000000E+03  0.50000000000E+03  0.00000000000E+00 0. -1.
         11   -1    0    0    0    0 -0.00000000000E+00 -0.00000000000E+00 -0.50000000000E+03  0.50000000000E+03  0.00000000000E+00 0. -1.
        -11    1    1    2    0    0  0.12890827945E+02  0.51510674828E+01  0.49956285669E+03  0.49975569504E+03  0.00000000000E+00 0. -1.
         11    1    1    2    0    0 -0.55920918072E+01  0.16460835013E+01 -0.30851388181E+03  0.30856894910E+03  0.00000000000E+00 0. -1.
        -15    1    1    2    0    0  0.13765851943E+01 -0.61967316107E+01 -0.85708730786E+02  0.85961844626E+02  0.17770000000E+01 0. -1.
         15    1    1    2    0    0 -0.86753213320E+01 -0.60041937346E+00 -0.10534024409E+03  0.10571351124E+03  0.17770000000E+01 0.  1.
</event>
<event>
 6   1  0.1826851E-04  0.5061167E+03  0.7546771E-02  0.9386226E-01
        -11   -1    0    0    0    0  0.00000000000E+00  0.00000000000E+00  0.50000000000E+03  0.50000000000E+03  0.00000000000E+00 0.  1.
         11   -1    0    0    0    0 -0.00000000000E+00 -0.00000000000E+00 -0.50000000000E+03  0.50000000000E+03  0.00000000000E+00 0. -1.
        -11    1    1    2    0    0  0.89110600674E+00  0.13229222770E+02  0.49370530335E+03  0.49388331918E+03  0.00000000000E+00 0.  1.
         11    1    1    2    0    0  0.17609204881E+01  0.64452784668E+01 -0.48114045246E+03  0.48118684256E+03  0.00000000000E+00 0. -1.
        -15    1    1    2    0    0  0.16184663387E+01 -0.71369954926E+01 -0.75290653223E+01  0.10648976081E+02  0.17770000000E+01 0. -1.
         15    1    1    2    0    0 -0.42704928335E+01 -0.12537505744E+02 -0.50357855685E+01  0.14280862180E+02  0.17770000000E+01 0.  1.
</event>
<event>
 6   1  0.1826851E-04  0.5059602E+03  0.7546771E-02  0.9386571E-01
        -11   -1    0    0    0    0  0.00000000000E+00  0.00000000000E+00  0.50000000000E+03  0.50000000000E+03  0.00000000000E+00 0.  1.
         11   -1    0    0    0    0 -0.00000000000E+00 -0.00000000000E+00 -0.50000000000E+03  0.50000000000E+03  0.00000000000E+00 0.  1.
        -11    1    1    2    0    0  0.15705454604E+02  0.17013574970E+01  0.49378720828E+03  0.49403983947E+03  0.00000000000E+00 0.  1.
         11    1    1    2    0    0  0.48590036690E+01  0.56129767794E+01 -0.47530918137E+03  0.47536715634E+03  0.00000000000E+00 0.  1.
        -15    1    1    2    0    0 -0.20018722470E+02 -0.82003963065E+01 -0.14470448650E+02  0.26087302697E+02  0.17770000000E+01 0.  1.
         15    1    1    2    0    0 -0.54573580359E+00  0.88606203013E+00 -0.40075782577E+01  0.45057014970E+01  0.17770000000E+01 0. -1.
</event>
<event>
 6   1  0.1826851E-04  0.5132775E+03  0.7546771E-02  0.9370581E-01
        -11   -1    0    0    0    0  0.00000000000E+00  0.00000000000E+00  0.50000000000E+03  0.50000000000E+03  0.00000000000E+00 0. -1.
         11   -1    0    0    0    0 -0.00000000000E+00 -0.00000000000E+00 -0.50000000000E+03  0.50000000000E+03  0.00000000000E+00 0. -1.
        -11    1    1    2    0    0 -0.41813527249E+02 -0.49091840561E+01  0.38723356344E+03  0.38951547312E+03  0.00000000000E+00 0. -1.
         11    1    1    2    0    0  0.22962755386E+01  0.19953242835E+02 -0.48630795568E+03  0.48672254164E+03  0.00000000000E+00 0. -1.
        -15    1    1    2    0    0  0.12641409553E+02 -0.30376849370E+02  0.19318447542E+02  0.38195789789E+02  0.17770000000E+01 0. -1.
         15    1    1    2    0    0  0.26875842158E+02  0.15332790591E+02  0.79755944701E+02  0.85566195446E+02  0.17770000000E+01 0.  1.
</event>
<event>
 6   1  0.1826851E-04  0.5000866E+03  0.7546771E-02  0.9399616E-01
        -11   -1    0    0    0    0  0.00000000000E+00  0.00000000000E+00  0.50000000000E+03  0.50000000000E+03  0.00000000000E+00 0. -1.
         11   -1    0    0    0    0 -0.00000000000E+00 -0.00000000000E+00 -0.50000000000E+03  0.50000000000E+03  0.00000000000E+00 0. -1.
        -11    1    1    2    0    0  0.68352883204E+01  0.99272781800E+01  0.49976809863E+03  0.49991341693E+03  0.00000000000E+00 0. -1.
         11    1    1    2    0    0  0.11247514520E+01  0.15484560115E+01 -0.13169915189E+03  0.13171305702E+03  0.00000000000E+00 0. -1.
        -15    1    1    2    0    0 -0.33407980742E+01 -0.29788325450E+01 -0.87621635035E+02  0.87753877580E+02  0.17770000000E+01 0. -1.
         15    1    1    2    0    0 -0.46192416981E+01 -0.84969016465E+01 -0.28044731171E+03  0.28061964847E+03  0.17770000000E+01 0. -1.
</event>
<event>
 6   1  0.1826851E-04  0.5001526E+03  0.7546771E-02  0.9399468E-01
        -11   -1    0    0    0    0  0.00000000000E+00  0.00000000000E+00  0.50000000000E+03  0.50000000000E+03  0.00000000000E+00 0. -1.
         11   -1    0    0    0    0 -0.00000000000E+00 -0.00000000000E+00 -0.50000000000E+03  0.50000000000E+03  0.00000000000E+00 0. -1.
        -11    1    1    2    0    0  0.69341961474E+00 -0.99393222994E+01  0.22635481739E+03  0.22657399303E+03  0.00000000000E+00 0. -1.
         11    1    1    2    0    0 -0.48716083443E+01  0.46747669515E+01 -0.49980175684E+03  0.49984735885E+03  0.00000000000E+00 0. -1.
        -15    1    1    2    0    0 -0.15941592974E+00  0.64838457336E+00  0.55636818645E+02  0.55669193761E+02  0.17770000000E+01 0. -1.
         15    1    1    2    0    0  0.43376046593E+01  0.46161707746E+01  0.21781012080E+03  0.21790945436E+03  0.17770000000E+01 0. -1.
</event>
<event>
 6   1  0.1826851E-04  0.5031855E+03  0.7546771E-02  0.9392710E-01
        -11   -1    0    0    0    0  0.00000000000E+00  0.00000000000E+00  0.50000000000E+03  0.50000000000E+03  0.00000000000E+00 0. -1.
         11   -1    0    0    0    0 -0.00000000000E+00 -0.00000000000E+00 -0.50000000000E+03  0.50000000000E+03  0.00000000000E+00 0. -1.
        -11    1    1    2    0    0  0.25352465645E+02 -0.27277520528E+02  0.49541679191E+03  0.49681446069E+03  0.00000000000E+00 0. -1.
         11    1    1    2    0    0 -0.21853294694E+01  0.64205982362E+01 -0.42364732674E+03  0.42370161341E+03  0.00000000000E+00 0. -1.
        -15    1    1    2    0    0 -0.68815043565E+01  0.48251947198E+01 -0.35920614105E+02  0.36933532906E+02  0.17770000000E+01 0. -1.
         15    1    1    2    0    0 -0.16285631819E+02  0.16031727572E+02 -0.35848851063E+02  0.42550392998E+02  0.17770000000E+01 0.  1.
</event>
<event>
 6   1  0.1826851E-04  0.5005688E+03  0.7546771E-02  0.9398538E-01
        -11   -1    0    0    0    0  0.00000000000E+00  0.00000000000E+00  0.50000000000E+03  0.50000000000E+03  0.00000000000E+00 0. -1.
         11   -1    0    0    0    0 -0.00000000000E+00 -0.00000000000E+00 -0.50000000000E+03  0.50000000000E+03  0.00000000000E+00 0. -1.
        -11    1    1    2    0    0 -0.11835111745E+02 -0.27148364159E+01  0.49928354536E+03  0.49943117531E+03  0.00000000000E+00 0. -1.
         11    1    1    2    0    0 -0.37113706895E+01 -0.40857906957E+01 -0.32320873876E+03  0.32325586888E+03  0.00000000000E+00 0. -1.
        -15    1    1    2    0    0  0.15158071406E+02  0.20484375979E+01 -0.11496912917E+03  0.11599578275E+03  0.17770000000E+01 0.  1.
         15    1    1    2    0    0  0.38841102857E+00  0.47521895137E+01 -0.61105677433E+02  0.61317173058E+02  0.17770000000E+01 0. -1.
</event>
<event>
 6   1  0.1826851E-04  0.4848425E+03  0.7546771E-02  0.9434379E-01
        -11   -1    0    0    0    0  0.00000000000E+00  0.00000000000E+00  0.50000000000E+03  0.50000000000E+03  0.00000000000E+00 0.  1.
         11   -1    0    0    0    0 -0.00000000000E+00 -0.00000000000E+00 -0.50000000000E+03  0.50000000000E+03  0.00000000000E+00 0. -1.
        -11    1    1    2    0    0  0.96885912768E+01  0.95061109035E+01  0.48053467002E+03  0.48072632966E+03  0.00000000000E+00 0.  1.
         11    1    1    2    0    0  0.14536073768E+02 -0.47656823092E+01 -0.48907118441E+03  0.48931036428E+03  0.00000000000E+00 0. -1.
        -15    1    1    2    0    0 -0.11984136153E+02 -0.79406130845E+01  0.92166660955E+01  0.17169086126E+02  0.17770000000E+01 0.  1.
         15    1    1    2    0    0 -0.12240528892E+02  0.32001844903E+01 -0.68015170009E+00  0.12794219932E+02  0.17770000000E+01 0. -1.
</event>
<event>
 6   1  0.1826851E-04  0.5001053E+03  0.7546771E-02  0.9399574E-01
        -11   -1    0    0    0    0  0.00000000000E+00  0.00000000000E+00  0.50000000000E+03  0.50000000000E+03  0.00000000000E+00 0. -1.
         11   -1    0    0    0    0 -0.00000000000E+00 -0.00000000000E+00 -0.50000000000E+03  0.50000000000E+03  0.00000000000E+00 0. -1.
        -11    1    1    2    0    0  0.81399421672E+01 -0.18322439496E+02  0.49949251173E+03  0.49989472864E+03  0.00000000000E+00 0. -1.
         11    1    1    2    0    0 -0.34315795363E+00  0.62239729947E+00 -0.22887348035E+02  0.22898380638E+02  0.00000000000E+00 0. -1.
        -15    1    1    2    0    0 -0.10410627952E+02  0.13906642254E+02 -0.28266086731E+03  0.28319975196E+03  0.17770000000E+01 0. -1.
         15    1    1    2    0    0  0.26138437381E+01  0.37933999426E+01 -0.19394429639E+03  0.19400713877E+03  0.17770000000E+01 0.  1.
</event>
<event>
 6   1  0.1826851E-04  0.5181669E+03  0.7546771E-02  0.9360053E-01
        -11   -1    0    0    0    0  0.00000000000E+00  0.00000000000E+00  0.50000000000E+03  0.50000000000E+03  0.00000000000E+00 0.  1.
         11   -1    0    0    0    0 -0.00000000000E+00 -0.00000000000E+00 -0.50000000000E+03  0.50000000000E+03  0.00000000000E+00 0. -1.
        -11    1    1    2    0    0  0.81677486144E+02  0.48320947557E+02  0.33418448999E+03  0.34739804125E+03  0.00000000000E+00 0.  1.
         11    1    1    2    0    0 -0.67028840997E+02  0.11863618218E+02 -0.47700052808E+03  0.48183307769E+03  0.00000000000E+00 0. -1.
        -15    1    1    2    0    0 -0.17948082337E+02 -0.34935850679E+02  0.13961295509E+03  0.14504338068E+03  0.17770000000E+01 0.  1.
         15    1    1    2    0    0  0.32994371898E+01 -0.25248715096E+02  0.32030830019E+01  0.25725500374E+02  0.17770000000E+01 0. -1.
</event>
<event>
 6   1  0.1826851E-04  0.5014723E+03  0.7546771E-02  0.9396521E-01
        -11   -1    0    0    0    0  0.00000000000E+00  0.00000000000E+00  0.50000000000E+03  0.50000000000E+03  0.00000000000E+00 0.  1.
         11   -1    0    0    0    0 -0.00000000000E+00 -0.00000000000E+00 -0.50000000000E+03  0.50000000000E+03  0.00000000000E+00 0.  1.
        -11    1    1    2    0    0  0.90620899425E+01  0.15009778671E+01  0.46134124309E+03  0.46143267872E+03  0.00000000000E+00 0.  1.
         11    1    1    2    0    0  0.17148400436E+01 -0.81061202235E+01 -0.49845887704E+03  0.49852773440E+03  0.00000000000E+00 0.  1.
        -15    1    1    2    0    0 -0.76588769678E+01  0.90366383695E+00  0.15610996607E+02  0.17502455508E+02  0.17770000000E+01 0.  1.
         15    1    1    2    0    0 -0.31180530183E+01  0.57014785195E+01  0.21506637341E+02  0.22537131376E+02  0.17770000000E+01 0. -1.
</event>
<event>
 6   1  0.1826851E-04  0.5004995E+03  0.7546771E-02  0.9398693E-01
        -11   -1    0    0    0    0  0.00000000000E+00  0.00000000000E+00  0.50000000000E+03  0.50000000000E+03  0.00000000000E+00 0.  1.
         11   -1    0    0    0    0 -0.00000000000E+00 -0.00000000000E+00 -0.50000000000E+03  0.50000000000E+03  0.00000000000E+00 0. -1.
        -11    1    1    2    0    0  0.20627995925E+02  0.24515050329E+01  0.49906832475E+03  0.49950046732E+03  0.00000000000E+00 0.  1.
         11    1    1    2    0    0 -0.33752072356E+01 -0.93600014697E+00 -0.21695511773E+03  0.21698338929E+03  0.00000000000E+00 0. -1.
        -15    1    1    2    0    0 -0.20368918768E+02  0.27104527522E+01 -0.16688627700E+03  0.16815595912E+03  0.17770000000E+01 0.  1.
         15    1    1    2    0    0  0.31161300785E+01 -0.42259576381E+01 -0.11522693001E+03  0.11536018426E+03  0.17770000000E+01 0. -1.
</event>
<event>
 6   1  0.1826851E-04  0.4877373E+03  0.7546771E-02  0.9427674E-01
        -11   -1    0    0    0    0  0.00000000000E+00  0.00000000000E+00  0.50000000000E+03  0.50000000000E+03  0.00000000000E+00 0. -1.
         11   -1    0    0    0    0 -0.00000000000E+00 -0.00000000000E+00 -0.50000000000E+03  0.50000000000E+03  0.00000000000E+00 0. -1.
        -11    1    1    2    0    0  0.76024773963E+01  0.28317296223E+01  0.49152348370E+03  0.49159043052E+03  0.00000000000E+00 0. -1.
         11    1    1    2    0    0  0.62090260684E+01 -0.37442965615E+01 -0.48395730896E+03  0.48401162037E+03  0.00000000000E+00 0. -1.
        -15    1    1    2    0    0 -0.37410166479E+01  0.50997297380E+01 -0.11012205018E+02  0.12822980828E+02  0.17770000000E+01 0. -1.
         15    1    1    2    0    0 -0.10070486817E+02 -0.41871627988E+01  0.34460302790E+01  0.11574968281E+02  0.17770000000E+01 0.  1.
</event>
<event>
 6   1  0.1826851E-04  0.4913114E+03  0.7546771E-02  0.9419464E-01
        -11   -1    0    0    0    0  0.00000000000E+00  0.00000000000E+00  0.50000000000E+03  0.50000000000E+03  0.00000000000E+00 0. -1.
         11   -1    0    0    0    0 -0.00000000000E+00 -0.00000000000E+00 -0.50000000000E+03  0.50000000000E+03  0.00000000000E+00 0. -1.
        -11    1    1    2    0    0 -0.15731884397E+02 -0.13976019849E+02 -0.71496675980E+00  0.21055462354E+02  0.00000000000E+00 0. -1.
         11    1    1    2    0    0 -0.43189784288E+01  0.58907570501E+01 -0.48689826017E+03  0.48695304738E+03  0.00000000000E+00 0. -1.
        -15    1    1    2    0    0  0.19370683925E+02  0.10582504280E+02  0.48828005249E+03  0.48878193521E+03  0.17770000000E+01 0. -1.
         15    1    1    2    0    0  0.68017890111E+00 -0.24972414811E+01 -0.66682556466E+00  0.32095550604E+01  0.17770000000E+01 0.  1.
</event>
<event>
 6   1  0.1826851E-04  0.4374333E+03  0.7546771E-02  0.9551837E-01
        -11   -1    0    0    0    0  0.00000000000E+00  0.00000000000E+00  0.50000000000E+03  0.50000000000E+03  0.00000000000E+00 0.  1.
         11   -1    0    0    0    0 -0.00000000000E+00 -0.00000000000E+00 -0.50000000000E+03  0.50000000000E+03  0.00000000000E+00 0. -1.
        -11    1    1    2    0    0 -0.50218144731E+02  0.31928919433E+02  0.41095084957E+03  0.41523718369E+03  0.00000000000E+00 0.  1.
         11    1    1    2    0    0 -0.37521702402E+02 -0.59029140530E+02 -0.46055184203E+03  0.46583292796E+03  0.00000000000E+00 0. -1.
        -15    1    1    2    0    0  0.53503777119E+02  0.32483417133E+02  0.55567860463E+02  0.83718405384E+02  0.17770000000E+01 0.  1.
         15    1    1    2    0    0  0.34236070015E+02 -0.53831960354E+01 -0.59668680066E+01  0.35211482962E+02  0.17770000000E+01 0. -1.
</event>
<event>
 6   1  0.1826851E-04  0.5039551E+03  0.7546771E-02  0.9391003E-01
        -11   -1    0    0    0    0  0.00000000000E+00  0.00000000000E+00  0.50000000000E+03  0.50000000000E+03  0.00000000000E+00 0.  1.
         11   -1    0    0    0    0 -0.00000000000E+00 -0.00000000000E+00 -0.50000000000E+03  0.50000000000E+03  0.00000000000E+00 0. -1.
        -11    1    1    2    0    0  0.29204359112E+02 -0.90063584974E+01  0.49510257077E+03  0.49604492203E+03  0.00000000000E+00 0.  1.
         11    1    1    2    0    0  0.69477774210E+01  0.10052729186E+02 -0.41722643404E+03  0.41740535003E+03  0.00000000000E+00 0. -1.
        -15    1    1    2    0    0 -0.68893020641E+01  0.10093048189E+01 -0.80489304736E+01  0.10790004167E+02  0.17770000000E+01 0.  1.
         15    1    1    2    0    0 -0.29262834469E+02 -0.20556755076E+01 -0.69827206259E+02  0.75759723771E+02  0.17770000000E+01 0. -1.
</event>
<event>
 6   1  0.1826851E-04  0.5007024E+03  0.7546771E-02  0.9398239E-01
        -11   -1    0    0    0    0  0.00000000000E+00  0.00000000000E+00  0.50000000000E+03  0.50000000000E+03  0.00000000000E+00 0. -1.
         11   -1    0    0    0    0 -0.00000000000E+00 -0.00000000000E+00 -0.50000000000E+03  0.50000000000E+03  0.00000000000E+00 0.  1.
        -11    1    1    2    0    0 -0.23182926240E+01 -0.90265152710E+01  0.49921062938E+03  0.49929761159E+03  0.00000000000E+00 0. -1.
         11    1    1    2    0    0 -0.40934670089E+01  0.50099564216E+01 -0.47398873075E+03  0.47403288178E+03  0.00000000000E+00 0.  1.
        -15    1    1    2    0    0  0.45678162567E+01  0.19242139322E+01 -0.13514777503E+02  0.14504291937E+02  0.17770000000E+01 0.  1.
         15    1    1    2    0    0  0.18439433761E+01  0.20923449172E+01 -0.11707121125E+02  0.12165214691E+02  0.17770000000E+01 0. -1.
</event>
<event>
 6   1  0.1826851E-04  0.5002362E+03  0.7546771E-02  0.9399281E-01
        -11   -1    0    0    0    0  0.00000000000E+00  0.00000000000E+00  0.50000000000E+03  0.50000000000E+03  0.00000000000E+00 0. -1.
         11   -1    0    0    0    0 -0.00000000000E+00 -0.00000000000E+00 -0.50000000000E+03  0.50000000000E+03  0.00000000000E+00 0. -1.
        -11    1    1    2    0    0  0.22547331872E-01  0.82800198706E+00  0.33806601979E+01  0.34806549738E+01  0.00000000000E+00 0. -1.
         11    1    1    2    0    0 -0.53784928564E+01  0.46711669070E+01 -0.49971304301E+03  0.49976381756E+03  0.00000000000E+00 0. -1.
        -15    1    1    2    0    0  0.56712059874E+01 -0.48207739870E+01  0.49140180004E+03  0.49146138124E+03  0.17770000000E+01 0. -1.
         15    1    1    2    0    0 -0.31526046290E+00 -0.67839490715E+00  0.49305827755E+01  0.52941462310E+01  0.17770000000E+01 0. -1.
</event>
<event>
 6   1  0.1826851E-04  0.5017501E+03  0.7546771E-02  0.9395902E-01
        -11   -1    0    0    0    0  0.00000000000E+00  0.00000000000E+00  0.50000000000E+03  0.50000000000E+03  0.00000000000E+00 0.  1.
         11   -1    0    0    0    0 -0.00000000000E+00 -0.00000000000E+00 -0.50000000000E+03  0.50000000000E+03  0.00000000000E+00 0.  1.
        -11    1    1    2    0    0 -0.14497407930E+02 -0.11800343296E+02  0.46187633262E+03  0.46225444245E+03  0.00000000000E+00 0.  1.
         11    1    1    2    0    0  0.14454310119E+02  0.17266734601E+01 -0.49803718125E+03  0.49824987947E+03  0.00000000000E+00 0.  1.
        -15    1    1    2    0    0  0.36243429136E+01  0.36329506724E+01  0.27298658218E+02  0.27833588731E+02  0.17770000000E+01 0.  1.
         15    1    1    2    0    0 -0.35812451023E+01  0.64407191638E+01  0.88621904203E+01  0.11662089344E+02  0.17770000000E+01 0. -1.
</event>
<event>
 6   1  0.1826851E-04  0.5004913E+03  0.7546771E-02  0.9398711E-01
        -11   -1    0    0    0    0  0.00000000000E+00  0.00000000000E+00  0.50000000000E+03  0.50000000000E+03  0.00000000000E+00 0.  1.
         11   -1    0    0    0    0 -0.00000000000E+00 -0.00000000000E+00 -0.50000000000E+03  0.50000000000E+03  0.00000000000E+00 0.  1.
        -11    1    1    2    0    0 -0.42833793659E+01 -0.16720405159E+02  0.49921036392E+03  0.49950866532E+03  0.00000000000E+00 0.  1.
         11    1    1    2    0    0 -0.46333103178E+01 -0.51995696929E+00 -0.20313477094E+03  0.20318827005E+03  0.00000000000E+00 0.  1.
        -15    1    1    2    0    0  0.27300351870E+01  0.30990518998E+01 -0.19396832872E+03  0.19402043060E+03  0.17770000000E+01 0.  1.
         15    1    1    2    0    0  0.61866544967E+01  0.14141310228E+02 -0.10210726426E+03  0.10328263403E+03  0.17770000000E+01 0. -1.
</event>
<event>
 6   1  0.1826851E-04  0.5053870E+03  0.7546771E-02  0.9387836E-01
        -11   -1    0    0    0    0  0.00000000000E+00  0.00000000000E+00  0.50000000000E+03  0.50000000000E+03  0.00000000000E+00 0.  1.
         11   -1    0    0    0    0 -0.00000000000E+00 -0.00000000000E+00 -0.50000000000E+03  0.50000000000E+03  0.00000000000E+00 0. -1.
        -11    1    1    2    0    0 -0.31402198750E+02  0.16659211421E+02  0.34180980154E+03  0.34365326688E+03  0.00000000000E+00 0.  1.
         11    1    1    2    0    0 -0.73690147643E+01  0.50048270121E+01 -0.49453278075E+03  0.49461300216E+03  0.00000000000E+00 0. -1.
        -15    1    1    2    0    0  0.36262691425E+02 -0.20572578938E+02  0.15287493515E+03  0.15846803249E+03  0.17770000000E+01 0.  1.
         15    1    1    2    0    0  0.25085220895E+01 -0.10914594949E+01 -0.15195594479E+00  0.32656984722E+01  0.17770000000E+01 0. -1.
</event>
<event>
 6   1  0.1826851E-04  0.5125194E+03  0.7546771E-02  0.9372224E-01
        -11   -1    0    0    0    0  0.00000000000E+00  0.00000000000E+00  0.50000000000E+03  0.50000000000E+03  0.00000000000E+00 0.  1.
         11   -1    0    0    0    0 -0.00000000000E+00 -0.00000000000E+00 -0.50000000000E+03  0.50000000000E+03  0.00000000000E+00 0. -1.
        -11    1    1    2    0    0  0.45365847492E+01  0.39457623853E+02  0.41465279944E+03  0.41655063170E+03  0.00000000000E+00 0.  1.
         11    1    1    2    0    0  0.17921491632E+02  0.26407626415E+01 -0.48714390895E+03  0.48748060629E+03  0.00000000000E+00 0. -1.
        -15    1    1    2    0    0  0.36790386624E+01 -0.22073709434E+02  0.53256969918E+02  0.57794866100E+02  0.17770000000E+01 0.  1.
         15    1    1    2    0    0 -0.26137115043E+02 -0.20024677061E+02  0.19234139585E+02  0.38173895907E+02  0.17770000000E+01 0. -1.
</event>
<event>
 6   1  0.1826851E-04  0.4900486E+03  0.7546771E-02  0.9422356E-01
        -11   -1    0    0    0    0  0.00000000000E+00  0.00000000000E+00  0.50000000000E+03  0.50000000000E+03  0.00000000000E+00 0. -1.
         11   -1    0    0    0    0 -0.00000000000E+00 -0.00000000000E+00 -0.50000000000E+03  0.50000000000E+03  0.00000000000E+00 0. -1.
        -11    1    1    2    0    0 -0.16417846660E+01 -0.76915363648E+01  0.49379839914E+03  0.49386102720E+03  0.00000000000E+00 0. -1.
         11    1    1    2    0    0 -0.46187215205E+01 -0.82141462266E+01 -0.48632236139E+03  0.48641365521E+03  0.00000000000E+00 0. -1.
        -15    1    1    2    0    0  0.20221468884E+01  0.33604044608E+01  0.21153647678E+00  0.43109016295E+01  0.17770000000E+01 0.  1.
         15    1    1    2    0    0  0.42383592981E+01  0.12545278131E+02 -0.76875742255E+01  0.15414415960E+02  0.17770000000E+01 0. -1.
</event>
<event>
 6   1  0.1826851E-04  0.4971321E+03  0.7546771E-02  0.9406250E-01
        -11   -1    0    0    0    0  0.00000000000E+00  0.00000000000E+00  0.50000000000E+03  0.50000000000E+03  0.00000000000E+00 0. -1.
         11   -1    0    0    0    0 -0.00000000000E+00 -0.00000000000E+00 -0.50000000000E+03  0.50000000000E+03  0.00000000000E+00 0. -1.
        -11    1    1    2    0    0 -0.26222861091E-01  0.63417679588E+01 -0.13014861000E+01  0.64739921648E+01  0.00000000000E+00 0. -1.
         11    1    1    2    0    0  0.15729373114E+01  0.80746478045E+01 -0.49559330899E+03  0.49566158010E+03  0.00000000000E+00 0. -1.
        -15    1    1    2    0    0 -0.12228159787E+02 -0.99325298521E+01  0.16427667942E+03  0.16503989872E+03  0.17770000000E+01 0.  1.
         15    1    1    2    0    0  0.10681445336E+02 -0.44838859112E+01  0.33261811568E+03  0.33282452901E+03  0.17770000000E+01 0. -1.
</event>
<event>
 6   1  0.1826851E-04  0.4832359E+03  0.7546771E-02  0.9438122E-01
        -11   -1    0    0    0    0  0.00000000000E+00  0.00000000000E+00  0.50000000000E+03  0.50000000000E+03  0.00000000000E+00 0.  1.
         11   -1    0    0    0    0 -0.00000000000E+00 -0.00000000000E+00 -0.50000000000E+03  0.50000000000E+03  0.00000000000E+00 0.  1.
        -11    1    1    2    0    0  0.17177812473E+02  0.10922570302E+02  0.48367871110E+03  0.48410688422E+03  0.00000000000E+00 0.  1.
         11    1    1    2    0    0  0.85400148950E+01  0.15411790195E+00 -0.48269547249E+03  0.48277103763E+03  0.00000000000E+00 0.  1.
        -15    1    1    2    0    0 -0.18621601226E+02 -0.67563640779E+01 -0.86404766219E+01  0.21684742401E+02  0.17770000000E+01 0.  1.
         15    1    1    2    0    0 -0.70962261423E+01 -0.43203241263E+01  0.76572380174E+01  0.11437335751E+02  0.17770000000E+01 0. -1.
</event>
<event>
 6   1  0.1826851E-04  0.5183212E+03  0.7546771E-02  0.9359723E-01
        -11   -1    0    0    0    0  0.00000000000E+00  0.00000000000E+00  0.50000000000E+03  0.50000000000E+03  0.00000000000E+00 0. -1.
         11   -1    0    0    0    0 -0.00000000000E+00 -0.00000000000E+00 -0.50000000000E+03  0.50000000000E+03  0.00000000000E+00 0.  1.
        -11    1    1    2    0    0 -0.49038107691E+02 -0.51331402758E+02  0.10367842653E+03  0.12565375061E+03  0.00000000000E+00 0. -1.
         11    1    1    2    0    0 -0.79693432502E+01 -0.76775504242E+01 -0.48155168416E+03  0.48167881387E+03  0.00000000000E+00 0.  1.
        -15    1    1    2    0    0  0.64086561953E+02  0.56827668136E+02  0.37477734643E+03  0.38444464936E+03  0.17770000000E+01 0. -1.
         15    1    1    2    0    0 -0.70791110117E+01  0.21812850460E+01  0.30959111972E+01  0.82227861646E+01  0.17770000000E+01 0.  1.
</event>
<event>
 6   1  0.1826851E-04  0.5002808E+03  0.7546771E-02  0.9399182E-01
        -11   -1    0    0    0    0  0.00000000000E+00  0.00000000000E+00  0.50000000000E+03  0.50000000000E+03  0.00000000000E+00 0.  1.
         11   -1    0    0    0    0 -0.00000000000E+00 -0.00000000000E+00 -0.50000000000E+03  0.50000000000E+03  0.00000000000E+00 0. -1.
        -11    1    1    2    0    0 -0.10421965257E+02 -0.50809414677E+00  0.49961023628E+03  0.49971918486E+03  0.00000000000E+00 0.  1.
         11    1    1    2    0    0 -0.25341812359E+01  0.44322670584E+01 -0.32157182167E+03  0.32161234982E+03  0.00000000000E+00 0. -1.
        -15    1    1    2    0    0  0.33951494386E+01 -0.31088846135E+01 -0.44160430747E+02  0.44435274006E+02  0.17770000000E+01 0. -1.
         15    1    1    2    0    0  0.95609970547E+01 -0.81528829808E+00 -0.13387798386E+03  0.13423319132E+03  0.17770000000E+01 0.  1.
</event>
<event>
 6   1  0.1826851E-04  0.5044076E+03  0.7546771E-02  0.9390001E-01
        -11   -1    0    0    0    0  0.00000000000E+00  0.00000000000E+00  0.50000000000E+03  0.50000000000E+03  0.00000000000E+00 0.  1.
         11   -1    0    0    0    0 -0.00000000000E+00 -0.00000000000E+00 -0.50000000000E+03  0.50000000000E+03  0.00000000000E+00 0. -1.
        -11    1    1    2    0    0 -0.11163685806E+02 -0.34755695412E+00  0.48533297962E+03  0.48546148126E+03  0.00000000000E+00 0.  1.
         11    1    1    2    0    0  0.33558059818E+01  0.88257288496E+01 -0.49550242958E+03  0.49559238558E+03  0.00000000000E+00 0. -1.
        -15    1    1    2    0    0  0.89828338063E+01 -0.53055568923E+01  0.10745008136E+02  0.15081550516E+02  0.17770000000E+01 0.  1.
         15    1    1    2    0    0 -0.11749539827E+01 -0.31726150032E+01 -0.57555817833E+00  0.38645826472E+01  0.17770000000E+01 0. -1.
</event>
<event>
 6   1  0.1826851E-04  0.5004144E+03  0.7546771E-02  0.9398883E-01
        -11   -1    0    0    0    0  0.00000000000E+00  0.00000000000E+00  0.50000000000E+03  0.50000000000E+03  0.00000000000E+00 0.  1.
         11   -1    0    0    0    0 -0.00000000000E+00 -0.00000000000E+00 -0.50000000000E+03  0.50000000000E+03  0.00000000000E+00 0.  1.
        -11    1    1    2    0    0 -0.12942637545E+02  0.34069596525E+02  0.28303227476E+03  0.28536909053E+03  0.00000000000E+00 0.  1.
         11    1    1    2    0    0  0.14191972392E+02 -0.37816158806E+02 -0.49795006343E+03  0.49958556786E+03  0.00000000000E+00 0.  1.
        -15    1    1    2    0    0 -0.66522152361E+00  0.48207398065E+01  0.13767410673E+03  0.13777154802E+03  0.17770000000E+01 0.  1.
         15    1    1    2    0    0 -0.58411332365E+00 -0.10741775254E+01  0.77243681948E+02  0.77273793589E+02  0.17770000000E+01 0. -1.
</event>
<event>
 6   1  0.1826851E-04  0.5009500E+03  0.7546771E-02  0.9397686E-01
        -11   -1    0    0    0    0  0.00000000000E+00  0.00000000000E+00  0.50000000000E+03  0.50000000000E+03  0.00000000000E+00 0.  1.
         11   -1    0    0    0    0 -0.00000000000E+00 -0.00000000000E+00 -0.50000000000E+03  0.50000000000E+03  0.00000000000E+00 0. -1.
        -11    1    1    2    0    0 -0.15283099559E+02 -0.45350841171E+01  0.49879528632E+03  0.49904997523E+03  0.00000000000E+00 0.  1.
         11    1    1    2    0    0 -0.54793520142E+01  0.29013336491E+01 -0.31352529762E+03  0.31358659615E+03  0.00000000000E+00 0. -1.
        -15    1    1    2    0    0  0.17716784611E+02  0.18372967437E+01 -0.77690676448E+02  0.79726150367E+02  0.17770000000E+01 0.  1.
         15    1    1    2    0    0  0.30456669616E+01 -0.20354627575E+00 -0.10757931225E+03  0.10763727826E+03  0.17770000000E+01 0. -1.
</event>
<event>
 6   1  0.1826851E-04  0.5061682E+03  0.7546771E-02  0.9386113E-01
        -11   -1    0    0    0    0  0.00000000000E+00  0.00000000000E+00  0.50000000000E+03  0.50000000000E+03  0.00000000000E+00 0.  1.
         11   -1    0    0    0    0 -0.00000000000E+00 -0.00000000000E+00 -0.50000000000E+03  0.50000000000E+03  0.00000000000E+00 0.  1.
        -11    1    1    2    0    0 -0.22415659177E+01 -0.41571658312E+02  0.49207377335E+03  0.49383177886E+03  0.00000000000E+00 0.  1.
         11    1    1    2    0    0 -0.31786215838E+01  0.52436053652E+01 -0.43775922482E+03  0.43780216759E+03  0.00000000000E+00 0.  1.
        -15    1    1    2    0    0 -0.24405213355E+01  0.32351269559E+02 -0.41271147505E+02  0.52526432697E+02  0.17770000000E+01 0.  1.
         15    1    1    2    0    0  0.78607088370E+01  0.39767833879E+01 -0.13043401024E+02  0.15839620855E+02  0.17770000000E+01 0. -1.
</event>
<event>
 6   1  0.1826851E-04  0.5002743E+03  0.7546771E-02  0.9399196E-01
        -11   -1    0    0    0    0  0.00000000000E+00  0.00000000000E+00  0.50000000000E+03  0.50000000000E+03  0.00000000000E+00 0. -1.
         11   -1    0    0    0    0 -0.00000000000E+00 -0.00000000000E+00 -0.50000000000E+03  0.50000000000E+03  0.00000000000E+00 0.  1.
        -11    1    1    2    0    0 -0.84127312892E+01 -0.52207601639E+01  0.95756641002E+02  0.96267152656E+02  0.00000000000E+00 0. -1.
         11    1    1    2    0    0  0.10012163195E+02  0.68182285169E+01 -0.49957890816E+03  0.49972574191E+03  0.00000000000E+00 0.  1.
        -15    1    1    2    0    0 -0.83832359370E+00 -0.51236034135E+01  0.34671939143E+03  0.34676281263E+03  0.17770000000E+01 0. -1.
         15    1    1    2    0    0 -0.76110831160E+00  0.35261350605E+01  0.57102875723E+02  0.57244292809E+02  0.17770000000E+01 0.  1.
</event>
<event>
 6   1  0.1826851E-04  0.5035947E+03  0.7546771E-02  0.9391802E-01
        -11   -1    0    0    0    0  0.00000000000E+00  0.00000000000E+00  0.50000000000E+03  0.50000000000E+03  0.00000000000E+00 0. -1.
         11   -1    0    0    0    0 -0.00000000000E+00 -0.00000000000E+00 -0.50000000000E+03  0.50000000000E+03  0.00000000000E+00 0. -1.
        -11    1    1    2    0    0 -0.20989864602E+02  0.16504893754E+02  0.49568665091E+03  0.49640532010E+03  0.00000000000E+00 0. -1.
         11    1    1    2    0    0 -0.11914947642E+02 -0.66257250564E+01 -0.41549442727E+03  0.41571803581E+03  0.00000000000E+00 0. -1.
        -15    1    1    2    0    0  0.24296406038E+02 -0.10615747629E+02 -0.52987709154E+02  0.59277858383E+02  0.17770000000E+01 0.  1.
         15    1    1    2    0    0  0.86084062057E+01  0.73657893122E+00 -0.27204514492E+02  0.28598785703E+02  0.17770000000E+01 0. -1.
</event>
<event>
 6   1  0.1826851E-04  0.5172535E+03  0.7546771E-02  0.9362010E-01
        -11   -1    0    0    0    0  0.00000000000E+00  0.00000000000E+00  0.50000000000E+03  0.50000000000E+03  0.00000000000E+00 0. -1.
         11   -1    0    0    0    0 -0.00000000000E+00 -0.00000000000E+00 -0.50000000000E+03  0.50000000000E+03  0.00000000000E+00 0.  1.
        -11    1    1    2    0    0  0.46555310284E+02 -0.28397763969E+02  0.47965646713E+03  0.48274647215E+03  0.00000000000E+00 0. -1.
         11    1    1    2    0    0 -0.44023252408E+01 -0.73435983854E+01 -0.44439617202E+03  0.44447864584E+03  0.00000000000E+00 0.  1.
        -15    1    1    2    0    0 -0.15917877292E+01 -0.98281728124E+00 -0.13693967251E+02  0.13934926841E+02  0.17770000000E+01 0. -1.
         15    1    1    2    0    0 -0.40561197314E+02  0.36724179636E+02 -0.21566327865E+02  0.58839955167E+02  0.17770000000E+01 0.  1.
</event>
<event>
 6   1  0.1826851E-04  0.5004427E+03  0.7546771E-02  0.9398820E-01
        -11   -1    0    0    0    0  0.00000000000E+00  0.00000000000E+00  0.50000000000E+03  0.50000000000E+03  0.00000000000E+00 0. -1.
         11   -1    0    0    0    0 -0.00000000000E+00 -0.00000000000E+00 -0.50000000000E+03  0.50000000000E+03  0.00000000000E+00 0. -1.
        -11    1    1    2    0    0 -0.20849627112E+02  0.57581766536E+01  0.49908881561E+03  0.49955731344E+03  0.00000000000E+00 0. -1.
         11    1    1    2    0    0 -0.31133193856E+01 -0.38502323215E+01 -0.25735647195E+03  0.25740410001E+03  0.00000000000E+00 0. -1.
        -15    1    1    2    0    0  0.15557029727E+02 -0.39876042031E+01 -0.16912720008E+03  0.16989729161E+03  0.17770000000E+01 0. -1.
         15    1    1    2    0    0  0.84059167704E+01  0.20796598711E+01 -0.72605143574E+02  0.73141294932E+02  0.17770000000E+01 0.  1.
</event>
<event>
 6   1  0.1826851E-04  0.5002649E+03  0.7546771E-02  0.9399217E-01
        -11   -1    0    0    0    0  0.00000000000E+00  0.00000000000E+00  0.50000000000E+03  0.50000000000E+03  0.00000000000E+00 0.  1.
         11   -1    0    0    0    0 -0.00000000000E+00 -0.00000000000E+00 -0.50000000000E+03  0.50000000000E+03  0.00000000000E+00 0.  1.
        -11    1    1    2    0    0 -0.19705709936E+02  0.26593650604E+02  0.49863776139E+03  0.49973508416E+03  0.00000000000E+00 0.  1.
         11    1    1    2    0    0  0.62417746261E+01  0.23562101504E+01 -0.10831242588E+03  0.10851770859E+03  0.00000000000E+00 0.  1.
        -15    1    1    2    0    0  0.13948404413E+02 -0.26108236801E+02 -0.33115870564E+03  0.33248375008E+03  0.17770000000E+01 0.  1.
         15    1    1    2    0    0 -0.48446910265E+00 -0.28416239538E+01 -0.59166629865E+02  0.59263457169E+02  0.17770000000E+01 0. -1.
</event>
<event>
 6   1  0.1826851E-04  0.4681100E+03  0.7546771E-02  0.9474137E-01
        -11   -1    0    0    0    0  0.00000000000E+00  0.00000000000E+00  0.50000000000E+03  0.50000000000E+03  0.00000000000E+00 0.  1.
         11   -1    0    0    0    0 -0.00000000000E+00 -0.00000000000E+00 -0.50000000000E+03  0.50000000000E+03  0.00000000000E+00 0. -1.
        -11    1    1    2    0    0 -0.35118415290E+02 -0.94081342448E+01  0.47297765436E+03  0.47437293094E+03  0.00000000000E+00 0.  1.
         11    1    1    2    0    0 -0.91000326433E+01  0.17277952205E+01 -0.46288397236E+03  0.46297663843E+03  0.00000000000E+00 0. -1.
        -15    1    1    2    0    0  0.34374413114E+02 -0.68097867278E+01  0.94570850965E+01  0.36339615569E+02  0.17770000000E+01 0.  1.
         15    1    1    2    0    0  0.98440348193E+01  0.14490125752E+02 -0.19550767102E+02  0.26310815060E+02  0.17770000000E+01 0. -1.
</event>
<event>
 6   1  0.1826851E-04  0.5015522E+03  0.7546771E-02  0.9396343E-01
        -11   -1    0    0    0    0  0.00000000000E+00  0.00000000000E+00  0.50000000000E+03  0.50000000000E+03  0.00000000000E+00 0.  1.
         11   -1    0    0    0    0 -0.00000000000E+00 -0.00000000000E+00 -0.50000000000E+03  0.50000000000E+03  0.00000000000E+00 0.  1.
        -11    1    1    2    0    0 -0.63011026314E+01  0.75042522807E+01  0.46273123480E+03  0.46283497421E+03  0.00000000000E+00 0.  1.
         11    1    1    2    0    0  0.10908963255E+01 -0.11888315586E+02 -0.49830478587E+03  0.49844777231E+03  0.00000000000E+00 0.  1.
        -15    1    1    2    0    0  0.47231978614E+01 -0.41610976009E+01  0.15202392382E+02  0.16549736989E+02  0.17770000000E+01 0.  1.
         15    1    1    2    0    0  0.48700844443E+00  0.85451609064E+01  0.20371158685E+02  0.22167516490E+02  0.17770000000E+01 0. -1.
</event>
<event>
 6   1  0.1826851E-04  0.5048485E+03  0.7546771E-02  0.9389026E-01
        -11   -1    0    0    0    0  0.00000000000E+00  0.00000000000E+00  0.50000000000E+03  0.50000000000E+03  0.00000000000E+00 0. -1.
         11   -1    0    0    0    0 -0.00000000000E+00 -0.00000000000E+00 -0.50000000000E+03  0.50000000000E+03  0.00000000000E+00 0.  1.
        -11    1    1    2    0    0 -0.12659245433E+02  0.75481308089E+00  0.49498911409E+03  0.49515154176E+03  0.00000000000E+00 0. -1.
         11    1    1    2    0    0 -0.85124617799E+00 -0.85166767218E+01 -0.48375153243E+03  0.48382724554E+03  0.00000000000E+00 0.  1.
        -15    1    1    2    0    0  0.71876839280E+01  0.19481790613E+01 -0.12987813963E+01  0.77654854336E+01  0.17770000000E+01 0. -1.
         15    1    1    2    0    0  0.63228076835E+01  0.58136845796E+01 -0.99388002692E+01  0.13255727260E+02  0.17770000000E+01 0.  1.
</event>
<event>
 6   1  0.1826851E-04  0.5001766E+03  0.7546771E-02  0.9399415E-01
        -11   -1    0    0    0    0  0.00000000000E+00  0.00000000000E+00  0.50000000000E+03  0.50000000000E+03  0.00000000000E+00 0. -1.
         11   -1    0    0    0    0 -0.00000000000E+00 -0.00000000000E+00 -0.50000000000E+03  0.50000000000E+03  0.00000000000E+00 0. -1.
        -11    1    1    2    0    0  0.77834064925E+01 -0.77428028967E+01  0.49970280773E+03  0.49982339728E+03  0.00000000000E+00 0. -1.
         11    1    1    2    0    0  0.53646249520E+01  0.38452740499E+01 -0.19283336304E+03  0.19294629106E+03  0.00000000000E+00 0. -1.
        -15    1    1    2    0    0 -0.10827348742E+02  0.36401775504E+01 -0.21145928228E+03  0.21177504141E+03  0.17770000000E+01 0.  1.
         15    1    1    2    0    0 -0.23206827023E+01  0.25735129635E+00 -0.95410162412E+02  0.95455270249E+02  0.17770000000E+01 0. -1.
</event>
<event>
 6   1  0.1826851E-04  0.5002494E+03  0.7546771E-02  0.9399252E-01
        -11   -1    0    0    0    0  0.00000000000E+00  0.00000000000E+00  0.50000000000E+03  0.50000000000E+03  0.00000000000E+00 0. -1.
         11   -1    0    0    0    0 -0.00000000000E+00 -0.00000000000E+00 -0.50000000000E+03  0.50000000000E+03  0.00000000000E+00 0.  1.
        -11    1    1    2    0    0  0.19177602493E+02  0.48134672865E+01  0.49935926434E+03  0.49975056257E+03  0.00000000000E+00 0. -1.
         11    1    1    2    0    0 -0.48027796810E+01 -0.35131224328E+01 -0.27768844661E+03  0.27775219550E+03  0.00000000000E+00 0.  1.
        -15    1    1    2    0    0 -0.15477732610E+02 -0.25331933938E+01 -0.15951087557E+03  0.16028990745E+03  0.17770000000E+01 0. -1.
         15    1    1    2    0    0  0.11029097981E+01  0.12328485401E+01 -0.62159942161E+02  0.62207334487E+02  0.17770000000E+01 0.  1.
</event>
<event>
 6   1  0.1826851E-04  0.5002526E+03  0.7546771E-02  0.9399245E-01
        -11   -1    0    0    0    0  0.00000000000E+00  0.00000000000E+00  0.50000000000E+03  0.50000000000E+03  0.00000000000E+00 0.  1.
         11   -1    0    0    0    0 -0.00000000000E+00 -0.00000000000E+00 -0.50000000000E+03  0.50000000000E+03  0.00000000000E+00 0.  1.
        -11    1    1    2    0    0 -0.85576684339E+01 -0.59517104786E+01  0.49963872380E+03  0.49974744709E+03  0.00000000000E+00 0.  1.
         11    1    1    2    0    0 -0.49437098916E+01  0.35052138542E+01 -0.24260191535E+03  0.24267759707E+03  0.00000000000E+00 0.  1.
        -15    1    1    2    0    0  0.60527102426E+01  0.91436709374E+00 -0.18618118570E+03  0.18629026547E+03  0.17770000000E+01 0.  1.
         15    1    1    2    0    0  0.74486680829E+01  0.15321295307E+01 -0.70855622751E+02  0.71284690372E+02  0.17770000000E+01 0. -1.
</event>
<event>
 6   1  0.1826851E-04  0.5010797E+03  0.7546771E-02  0.9397397E-01
        -11   -1    0    0    0    0  0.00000000000E+00  0.00000000000E+00  0.50000000000E+03  0.50000000000E+03  0.00000000000E+00 0.  1.
         11   -1    0    0    0    0 -0.00000000000E+00 -0.00000000000E+00 -0.50000000000E+03  0.50000000000E+03  0.00000000000E+00 0.  1.
        -11    1    1    2    0    0 -0.29515534884E+02  0.11798305421E+02  0.49790668209E+03  0.49892026505E+03  0.00000000000E+00 0.  1.
         11    1    1    2    0    0 -0.22095363212E+01 -0.40846809492E+01 -0.31635157857E+03  0.31638566329E+03  0.00000000000E+00 0.  1.
        -15    1    1    2    0    0  0.30231097567E+02 -0.83332994134E+01 -0.16464842756E+03  0.16761749779E+03  0.17770000000E+01 0.  1.
         15    1    1    2    0    0  0.14939736375E+01  0.61967494129E+00 -0.16906675959E+02  0.17076573874E+02  0.17770000000E+01 0. -1.
</event>
<event>
 6   1  0.1826851E-04  0.5024666E+03  0.7546771E-02  0.9394307E-01
        -11   -1    0    0    0    0  0.00000000000E+00  0.00000000000E+00  0.50000000000E+03  0.50000000000E+03  0.00000000000E+00 0.  1.
         11   -1    0    0    0    0 -0.00000000000E+00 -0.00000000000E+00 -0.50000000000E+03  0.50000000000E+03  0.00000000000E+00 0. -1.
        -11    1    1    2    0    0 -0.31170694130E+02  0.35871106815E+02  0.49525870072E+03  0.49753344523E+03  0.00000000000E+00 0.  1.
         11    1    1    2    0    0 -0.45239049725E+01 -0.30941186840E+01 -0.24737692859E+03  0.24743763676E+03  0.00000000000E+00 0. -1.
        -15    1    1    2    0    0  0.11409962429E+02 -0.16755881239E+02 -0.18009750344E+03  0.18124352478E+03  0.17770000000E+01 0. -1.
         15    1    1    2    0    0  0.24284636673E+02 -0.16021106892E+02 -0.67784268690E+02  0.73785393238E+02  0.17770000000E+01 0.  1.
</event>
<event>
 6   1  0.1826851E-04  0.5011560E+03  0.7546771E-02  0.9397227E-01
        -11   -1    0    0    0    0  0.00000000000E+00  0.00000000000E+00  0.50000000000E+03  0.50000000000E+03  0.00000000000E+00 0. -1.
         11   -1    0    0    0    0 -0.00000000000E+00 -0.00000000000E+00 -0.50000000000E+03  0.50000000000E+03  0.00000000000E+00 0.  1.
        -11    1    1    2    0    0  0.23179602800E+01  0.23096794087E+02  0.49830361005E+03  0.49884398625E+03  0.00000000000E+00 0. -1.
         11    1    1    2    0    0 -0.67049837369E+01  0.17035854617E+01 -0.36271447169E+03  0.36278043908E+03  0.00000000000E+00 0.  1.
        -15    1    1    2    0    0  0.59098246880E+01 -0.14018006684E+02 -0.57255455925E+02  0.59268672176E+02  0.17770000000E+01 0.  1.
         15    1    1    2    0    0 -0.15228012311E+01 -0.10782372865E+02 -0.78333682433E+02  0.79106902484E+02  0.17770000000E+01 0. -1.
</event>
<event>
 6   1  0.1826851E-04  0.5049794E+03  0.7546771E-02  0.9388736E-01
        -11   -1    0    0    0    0  0.00000000000E+00  0.00000000000E+00  0.50000000000E+03  0.50000000000E+03  0.00000000000E+00 0.  1.
         11   -1    0    0    0    0 -0.00000000000E+00 -0.00000000000E+00 -0.50000000000E+03  0.50000000000E+03  0.00000000000E+00 0.  1.
        -11    1    1    2    0    0  0.28358454221E+02  0.53959146717E+01  0.44628140378E+03  0.44721405297E+03  0.00000000000E+00 0.  1.
         11    1    1    2    0    0 -0.52466715819E+00 -0.71887968220E+01 -0.49496814465E+03  0.49502062411E+03  0.00000000000E+00 0.  1.
        -15    1    1    2    0    0 -0.20985199056E+02 -0.45582510965E+01  0.32557810278E+02  0.39042604569E+02  0.17770000000E+01 0. -1.
         15    1    1    2    0    0 -0.68485880072E+01  0.63511332468E+01  0.16128930596E+02  0.18722718349E+02  0.17770000000E+01 0.  1.
</event>
<event>
 6   1  0.1826851E-04  0.5017746E+03  0.7546771E-02  0.9395848E-01
        -11   -1    0    0    0    0  0.00000000000E+00  0.00000000000E+00  0.50000000000E+03  0.50000000000E+03  0.00000000000E+00 0.  1.
         11   -1    0    0    0    0 -0.00000000000E+00 -0.00000000000E+00 -0.50000000000E+03  0.50000000000E+03  0.00000000000E+00 0.  1.
        -11    1    1    2    0    0  0.11465111278E+02 -0.47030351533E+00  0.17310089738E+02  0.20767984224E+02  0.00000000000E+00 0.  1.
         11    1    1    2    0    0 -0.81873121676E+01  0.45650931579E+01 -0.49813723928E+03  0.49822543222E+03  0.00000000000E+00 0.  1.
        -15    1    1    2    0    0 -0.68359034494E+01 -0.52048432251E+01  0.28159213653E+03  0.28172878634E+03  0.17770000000E+01 0.  1.
         15    1    1    2    0    0  0.35581043393E+01  0.11100535825E+01  0.19923501301E+03  0.19927779722E+03  0.17770000000E+01 0. -1.
</event>
<event>
 6   1  0.1826851E-04  0.5007020E+03  0.7546771E-02  0.9398240E-01
        -11   -1    0    0    0    0  0.00000000000E+00  0.00000000000E+00  0.50000000000E+03  0.50000000000E+03  0.00000000000E+00 0.  1.
         11   -1    0    0    0    0 -0.00000000000E+00 -0.00000000000E+00 -0.50000000000E+03  0.50000000000E+03  0.00000000000E+00 0.  1.
        -11    1    1    2    0    0  0.89665402830E+01  0.10186371240E+01  0.38556737433E+03  0.38567296589E+03  0.00000000000E+00 0.  1.
         11    1    1    2    0    0  0.25271138960E+01  0.94051901405E+01 -0.49920306198E+03  0.49929804826E+03  0.00000000000E+00 0.  1.
        -15    1    1    2    0    0 -0.53118198459E+01 -0.23061188264E+01  0.22303209351E+02  0.23111133474E+02  0.17770000000E+01 0. -1.
         15    1    1    2    0    0 -0.61818343330E+01 -0.81177084381E+01  0.91332478294E+02  0.91917852381E+02  0.17770000000E+01 0.  1.
</event>
<event>
 6   1  0.1826851E-04  0.4895147E+03  0.7546771E-02  0.9423582E-01
        -11   -1    0    0    0    0  0.00000000000E+00  0.00000000000E+00  0.50000000000E+03  0.50000000000E+03  0.00000000000E+00 0.  1.
         11   -1    0    0    0    0 -0.00000000000E+00 -0.00000000000E+00 -0.50000000000E+03  0.50000000000E+03  0.00000000000E+00 0. -1.
        -11    1    1    2    0    0  0.11160224251E+02 -0.11398594636E+01  0.48637735706E+03  0.48650671460E+03  0.00000000000E+00 0.  1.
         11    1    1    2    0    0  0.57872609132E+01  0.34568786414E+01 -0.49264609146E+03  0.49269221003E+03  0.00000000000E+00 0. -1.
        -15    1    1    2    0    0 -0.15167896817E+02 -0.31040496739E+01  0.81278446616E+01  0.17576114646E+02  0.17770000000E+01 0.  1.
         15    1    1    2    0    0 -0.17795883470E+01  0.78703049617E+00 -0.18591102645E+01  0.32249607226E+01  0.17770000000E+01 0. -1.
</event>
<event>
 6   1  0.1826851E-04  0.5035561E+03  0.7546771E-02  0.9391888E-01
        -11   -1    0    0    0    0  0.00000000000E+00  0.00000000000E+00  0.50000000000E+03  0.50000000000E+03  0.00000000000E+00 0. -1.
         11   -1    0    0    0    0 -0.00000000000E+00 -0.00000000000E+00 -0.50000000000E+03  0.50000000000E+03  0.00000000000E+00 0. -1.
        -11    1    1    2    0    0  0.32991840315E+01  0.64074798842E+01  0.49639156906E+03  0.49644388429E+03  0.00000000000E+00 0. -1.
         11    1    1    2    0    0  0.76919702576E+01  0.37632771079E-01 -0.48370059777E+03  0.48376175552E+03  0.00000000000E+00 0. -1.
        -15    1    1    2    0    0 -0.92268541056E+00  0.12772493371E+01 -0.18448223597E+01  0.30072932639E+01  0.17770000000E+01 0.  1.
         15    1    1    2    0    0 -0.10068468879E+02 -0.77223619923E+01 -0.10846148932E+02  0.16787066925E+02  0.17770000000E+01 0. -1.
</event>
<event>
 6   1  0.1826851E-04  0.5184017E+03  0.7546771E-02  0.9359550E-01
        -11   -1    0    0    0    0  0.00000000000E+00  0.00000000000E+00  0.50000000000E+03  0.50000000000E+03  0.00000000000E+00 0. -1.
         11   -1    0    0    0    0 -0.00000000000E+00 -0.00000000000E+00 -0.50000000000E+03  0.50000000000E+03  0.00000000000E+00 0. -1.
        -11    1    1    2    0    0  0.14297149781E+03  0.27875081873E+02  0.45904146359E+03  0.48159831257E+03  0.00000000000E+00 0. -1.
         11    1    1    2    0    0  0.16709549352E+02 -0.57014273201E+01 -0.23177101820E+03  0.23244250943E+03  0.00000000000E+00 0. -1.
        -15    1    1    2    0    0 -0.16396003444E+03 -0.27199428710E+02 -0.22200720480E+03  0.27733203660E+03  0.17770000000E+01 0. -1.
         15    1    1    2    0    0  0.42789872815E+01  0.50257741564E+01 -0.52632406004E+01  0.86271413947E+01  0.17770000000E+01 0.  1.
</event>
<event>
 6   1  0.1826851E-04  0.5040174E+03  0.7546771E-02  0.9390865E-01
        -11   -1    0    0    0    0  0.00000000000E+00  0.00000000000E+00  0.50000000000E+03  0.50000000000E+03  0.00000000000E+00 0.  1.
         11   -1    0    0    0    0 -0.00000000000E+00 -0.00000000000E+00 -0.50000000000E+03  0.50000000000E+03  0.00000000000E+00 0.  1.
        -11    1    1    2    0    0  0.59902766928E+02  0.94146109773E+01  0.49226189443E+03  0.49598260967E+03  0.00000000000E+00 0.  1.
         11    1    1    2    0    0 -0.52915308622E+01  0.11351670727E+01 -0.31539750091E+03  0.31544392923E+03  0.00000000000E+00 0.  1.
        -15    1    1    2    0    0  0.43754619808E+01 -0.27083283717E+01 -0.21921763731E+02  0.22587632992E+02  0.17770000000E+01 0. -1.
         15    1    1    2    0    0 -0.58986698047E+02 -0.78414496784E+01 -0.15494262979E+03  0.16598582811E+03  0.17770000000E+01 0.  1.
</event>
<event>
 6   1  0.1826851E-04  0.5002866E+03  0.7546771E-02  0.9399169E-01
        -11   -1    0    0    0    0  0.00000000000E+00  0.00000000000E+00  0.50000000000E+03  0.50000000000E+03  0.00000000000E+00 0. -1.
         11   -1    0    0    0    0 -0.00000000000E+00 -0.00000000000E+00 -0.50000000000E+03  0.50000000000E+03  0.00000000000E+00 0.  1.
        -11    1    1    2    0    0 -0.10909085462E+01 -0.56398207997E+01  0.34624344154E+03  0.34629108922E+03  0.00000000000E+00 0. -1.
         11    1    1    2    0    0  0.69243740314E+01 -0.15010308739E+01 -0.49966319982E+03  0.49971343118E+03  0.00000000000E+00 0.  1.
        -15    1    1    2    0    0  0.42888736842E+00  0.21115889937E+01  0.90143488939E+02  0.90186745587E+02  0.17770000000E+01 0. -1.
         15    1    1    2    0    0 -0.62623528536E+01  0.50292626799E+01  0.63276269336E+02  0.63808734014E+02  0.17770000000E+01 0.  1.
</event>
<event>
 6   1  0.1826851E-04  0.4878714E+03  0.7546771E-02  0.9427365E-01
        -11   -1    0    0    0    0  0.00000000000E+00  0.00000000000E+00  0.50000000000E+03  0.50000000000E+03  0.00000000000E+00 0. -1.
         11   -1    0    0    0    0 -0.00000000000E+00 -0.00000000000E+00 -0.50000000000E+03  0.50000000000E+03  0.00000000000E+00 0.  1.
        -11    1    1    2    0    0  0.10652807051E+02  0.18196218814E+02  0.49116068449E+03  0.49161306194E+03  0.00000000000E+00 0. -1.
         11    1    1    2    0    0  0.62153553400E+01 -0.47573572321E+01 -0.48432873891E+03  0.48439198014E+03  0.00000000000E+00 0.  1.
        -15    1    1    2    0    0 -0.45804208788E+01 -0.15532449917E+01 -0.41143596395E+01  0.65938236005E+01  0.17770000000E+01 0.  1.
         15    1    1    2    0    0 -0.12287741512E+02 -0.11885616590E+02 -0.27175859451E+01  0.17401134318E+02  0.17770000000E+01 0. -1.
</event>
<event>
 6   1  0.1826851E-04  0.5037561E+03  0.7546771E-02  0.9391444E-01
        -11   -1    0    0    0    0  0.00000000000E+00  0.00000000000E+00  0.50000000000E+03  0.50000000000E+03  0.00000000000E+00 0. -1.
         11   -1    0    0    0    0 -0.00000000000E+00 -0.00000000000E+00 -0.50000000000E+03  0.50000000000E+03  0.00000000000E+00 0.  1.
        -11    1    1    2    0    0 -0.11633660657E+02 -0.25815215555E+02  0.36978216112E+03  0.37086468435E+03  0.00000000000E+00 0. -1.
         11    1    1    2    0    0 -0.88721761317E+01 -0.76087369615E+00 -0.49616397645E+03  0.49624387751E+03  0.00000000000E+00 0.  1.
        -15    1    1    2    0    0  0.65895533548E+01 -0.15716066140E+00  0.71056449361E+01  0.98536709833E+01  0.17770000000E+01 0. -1.
         15    1    1    2    0    0  0.13916283434E+02  0.26733249913E+02  0.11927617039E+03  0.12303776716E+03  0.17770000000E+01 0.  1.
</event>
<event>
 6   1  0.1826851E-04  0.5026400E+03  0.7546771E-02  0.9393922E-01
        -11   -1    0    0    0    0  0.00000000000E+00  0.00000000000E+00  0.50000000000E+03  0.50000000000E+03  0.00000000000E+00 0. -1.
         11   -1    0    0    0    0 -0.00000000000E+00 -0.00000000000E+00 -0.50000000000E+03  0.50000000000E+03  0.00000000000E+00 0. -1.
        -11    1    1    2    0    0 -0.99941772042E+01 -0.10277955485E+02  0.48200196546E+03  0.48221511243E+03  0.00000000000E+00 0. -1.
         11    1    1    2    0    0  0.17620761582E+02  0.48139387662E+01 -0.49702447727E+03  0.49736002680E+03  0.00000000000E+00 0. -1.
        -15    1    1    2    0    0 -0.21669705042E+00  0.52052009357E+01  0.32296218670E+01  0.63819480409E+01  0.17770000000E+01 0. -1.
         15    1    1    2    0    0 -0.74098873274E+01  0.25881578280E+00  0.11792889944E+02  0.14042912734E+02  0.17770000000E+01 0.  1.
</event>
<event>
 6   1  0.1826851E-04  0.5027417E+03  0.7546771E-02  0.9393696E-01
        -11   -1    0    0    0    0  0.00000000000E+00  0.00000000000E+00  0.50000000000E+03  0.50000000000E+03  0.00000000000E+00 0.  1.
         11   -1    0    0    0    0 -0.00000000000E+00 -0.00000000000E+00 -0.50000000000E+03  0.50000000000E+03  0.00000000000E+00 0. -1.
        -11    1    1    2    0    0  0.45284253171E+01 -0.15569889268E+02  0.28339934879E+02  0.32650880488E+02  0.00000000000E+00 0.  1.
         11    1    1    2    0    0  0.52509061149E+01  0.16195782672E+02 -0.49696673334E+03  0.49725829247E+03  0.00000000000E+00 0. -1.
        -15    1    1    2    0    0 -0.38184391229E+01 -0.49132427079E+01  0.44920335023E+03  0.44924996162E+03  0.17770000000E+01 0.  1.
         15    1    1    2    0    0 -0.59608923090E+01  0.42873493040E+01  0.19423448228E+02  0.20840865415E+02  0.17770000000E+01 0. -1.
</event>
<event>
 6   1  0.1826851E-04  0.5044092E+03  0.7546771E-02  0.9389997E-01
        -11   -1    0    0    0    0  0.00000000000E+00  0.00000000000E+00  0.50000000000E+03  0.50000000000E+03  0.00000000000E+00 0. -1.
         11   -1    0    0    0    0 -0.00000000000E+00 -0.00000000000E+00 -0.50000000000E+03  0.50000000000E+03  0.00000000000E+00 0.  1.
        -11    1    1    2    0    0 -0.98511162999E+02  0.33477882265E+02  0.48454617940E+03  0.49559077656E+03  0.00000000000E+00 0. -1.
         11    1    1    2    0    0  0.69201483790E+02  0.13479775593E+02 -0.36947590248E+03  0.37614224998E+03  0.00000000000E+00 0.  1.
        -15    1    1    2    0    0  0.15193224401E+02 -0.22065489698E+02 -0.42889425442E+02  0.50600202046E+02  0.17770000000E+01 0. -1.
         15    1    1    2    0    0  0.14116454808E+02 -0.24892168160E+02 -0.72180851481E+02  0.77666771412E+02  0.17770000000E+01 0.  1.
</event>
<event>
 6   1  0.1826851E-04  0.5026065E+03  0.7546771E-02  0.9393996E-01
        -11   -1    0    0    0    0  0.00000000000E+00  0.00000000000E+00  0.50000000000E+03  0.50000000000E+03  0.00000000000E+00 0. -1.
         11   -1    0    0    0    0 -0.00000000000E+00 -0.00000000000E+00 -0.50000000000E+03  0.50000000000E+03  0.00000000000E+00 0.  1.
        -11    1    1    2    0    0  0.13988815497E+02 -0.10404215004E+02  0.49708783578E+03  0.49739345707E+03  0.00000000000E+00 0. -1.
         11    1    1    2    0    0 -0.66639071120E+01 -0.34345220413E+01 -0.45112910280E+03  0.45119139065E+03  0.00000000000E+00 0.  1.
        -15    1    1    2    0    0 -0.10395778376E+02  0.15454976212E+02 -0.41297345333E+02  0.45338250499E+02  0.17770000000E+01 0.  1.
         15    1    1    2    0    0  0.30708699910E+01 -0.16162391659E+01 -0.46613876440E+01  0.60769017855E+01  0.17770000000E+01 0. -1.
</event>
<event>
 6   1  0.1826851E-04  0.5004805E+03  0.7546771E-02  0.9398735E-01
        -11   -1    0    0    0    0  0.00000000000E+00  0.00000000000E+00  0.50000000000E+03  0.50000000000E+03  0.00000000000E+00 0.  1.
         11   -1    0    0    0    0 -0.00000000000E+00 -0.00000000000E+00 -0.50000000000E+03  0.50000000000E+03  0.00000000000E+00 0. -1.
        -11    1    1    2    0    0  0.19987371613E+02 -0.21752076648E+01  0.49911467552E+03  0.49951945495E+03  0.00000000000E+00 0.  1.
         11    1    1    2    0    0 -0.86929494084E+01  0.11163327827E+02 -0.38366380055E+03  0.38392460082E+03  0.00000000000E+00 0. -1.
        -15    1    1    2    0    0 -0.45070565142E+01 -0.72859857181E+01 -0.58995099585E+02  0.59640411219E+02  0.17770000000E+01 0.  1.
         15    1    1    2    0    0 -0.67873656907E+01 -0.17021344445E+01 -0.56455775385E+02  0.56915533012E+02  0.17770000000E+01 0. -1.
</event>
<event>
 6   1  0.1826851E-04  0.5001904E+03  0.7546771E-02  0.9399384E-01
        -11   -1    0    0    0    0  0.00000000000E+00  0.00000000000E+00  0.50000000000E+03  0.50000000000E+03  0.00000000000E+00 0.  1.
         11   -1    0    0    0    0 -0.00000000000E+00 -0.00000000000E+00 -0.50000000000E+03  0.50000000000E+03  0.00000000000E+00 0.  1.
        -11    1    1    2    0    0 -0.81241866547E+01  0.59760412520E+01  0.89647851133E+02  0.90213373125E+02  0.00000000000E+00 0.  1.
         11    1    1    2    0    0  0.22260510007E+02 -0.21108770300E+02 -0.49886724804E+03  0.49980960541E+03  0.00000000000E+00 0.  1.
        -15    1    1    2    0    0 -0.12822599320E+02  0.16390102302E+02  0.39345126906E+03  0.39400521997E+03  0.17770000000E+01 0.  1.
         15    1    1    2    0    0 -0.13137240321E+01 -0.12573732543E+01  0.15768127848E+02  0.15971801500E+02  0.17770000000E+01 0. -1.
</event>
<event>
 6   1  0.1826851E-04  0.5024759E+03  0.7546771E-02  0.9394287E-01
        -11   -1    0    0    0    0  0.00000000000E+00  0.00000000000E+00  0.50000000000E+03  0.50000000000E+03  0.00000000000E+00 0. -1.
         11   -1    0    0    0    0 -0.00000000000E+00 -0.00000000000E+00 -0.50000000000E+03  0.50000000000E+03  0.00000000000E+00 0.  1.
        -11    1    1    2    0    0  0.15324651467E+01 -0.73056537869E+01  0.48425573680E+03  0.48431326603E+03  0.00000000000E+00 0. -1.
         11    1    1    2    0    0 -0.65612144535E+01 -0.31353453864E+01 -0.49747090780E+03  0.49752405372E+03  0.00000000000E+00 0.  1.
        -15    1    1    2    0    0  0.24630971723E+01  0.26652754807E+01  0.36318847152E+01  0.54331258638E+01  0.17770000000E+01 0. -1.
         15    1    1    2    0    0  0.25656521345E+01  0.77757236926E+01  0.95832862878E+01  0.12729554387E+02  0.17770000000E+01 0.  1.
</event>
<event>
 6   1  0.1826851E-04  0.5000455E+03  0.7546771E-02  0.9399708E-01
        -11   -1    0    0    0    0  0.00000000000E+00  0.00000000000E+00  0.50000000000E+03  0.50000000000E+03  0.00000000000E+00 0. -1.
         11   -1    0    0    0    0 -0.00000000000E+00 -0.00000000000E+00 -0.50000000000E+03  0.50000000000E+03  0.00000000000E+00 0. -1.
        -11    1    1    2    0    0 -0.26989894359E+01  0.95351275699E+01  0.49985626676E+03  0.49995448855E+03  0.00000000000E+00 0. -1.
         11    1    1    2    0    0  0.28897425953E+01 -0.76147615441E+01 -0.26602889354E+03  0.26615354103E+03  0.00000000000E+00 0. -1.
        -15    1    1    2    0    0  0.69832034337E+00 -0.20538228641E+01 -0.18851506720E+03  0.18853592265E+03  0.17770000000E+01 0. -1.
         15    1    1    2    0    0 -0.88907350271E+00  0.13345683828E+00 -0.45312306027E+02  0.45356047766E+02  0.17770000000E+01 0.  1.
</event>
<event>
 6   1  0.1826851E-04  0.5007573E+03  0.7546771E-02  0.9398117E-01
        -11   -1    0    0    0    0  0.00000000000E+00  0.00000000000E+00  0.50000000000E+03  0.50000000000E+03  0.00000000000E+00 0. -1.
         11   -1    0    0    0    0 -0.00000000000E+00 -0.00000000000E+00 -0.50000000000E+03  0.50000000000E+03  0.00000000000E+00 0.  1.
        -11    1    1    2    0    0  0.98095871169E+01 -0.37628416717E+01  0.39626231440E+03  0.39640157516E+03  0.00000000000E+00 0. -1.
         11    1    1    2    0    0 -0.24726822335E+01  0.84758991269E+01 -0.49916459483E+03  0.49924267422E+03  0.00000000000E+00 0.  1.
        -15    1    1    2    0    0  0.23328140661E+00 -0.84582099767E+01  0.56484304644E+02  0.57142192260E+02  0.17770000000E+01 0. -1.
         15    1    1    2    0    0 -0.75701862900E+01  0.37451525215E+01  0.46417975793E+02  0.47213558366E+02  0.17770000000E+01 0.  1.
</event>
<event>
 6   1  0.1826851E-04  0.5007523E+03  0.7546771E-02  0.9398128E-01
        -11   -1    0    0    0    0  0.00000000000E+00  0.00000000000E+00  0.50000000000E+03  0.50000000000E+03  0.00000000000E+00 0.  1.
         11   -1    0    0    0    0 -0.00000000000E+00 -0.00000000000E+00 -0.50000000000E+03  0.50000000000E+03  0.00000000000E+00 0. -1.
        -11    1    1    2    0    0 -0.94713334488E+01 -0.40204932525E+01  0.28925758923E+03  0.28944053526E+03  0.00000000000E+00 0.  1.
         11    1    1    2    0    0 -0.55758572538E+01  0.44490297491E+01 -0.49919674874E+03  0.49924771206E+03  0.00000000000E+00 0. -1.
        -15    1    1    2    0    0  0.50092642932E+01 -0.61927523914E+01  0.15100269289E+03  0.15122306008E+03  0.17770000000E+01 0. -1.
         15    1    1    2    0    0  0.10037926409E+02  0.57642158949E+01  0.58936466614E+02  0.60088692592E+02  0.17770000000E+01 0.  1.
</event>
<event>
 6   1  0.1826851E-04  0.5020326E+03  0.7546771E-02  0.9395273E-01
        -11   -1    0    0    0    0  0.00000000000E+00  0.00000000000E+00  0.50000000000E+03  0.50000000000E+03  0.00000000000E+00 0.  1.
         11   -1    0    0    0    0 -0.00000000000E+00 -0.00000000000E+00 -0.50000000000E+03  0.50000000000E+03  0.00000000000E+00 0.  1.
        -11    1    1    2    0    0  0.55709330672E+01  0.87318691282E+01  0.49785971679E+03  0.49796744716E+03  0.00000000000E+00 0.  1.
         11    1    1    2    0    0 -0.10828848963E+02  0.19378015643E+01 -0.47609477647E+03  0.47622185505E+03  0.00000000000E+00 0.  1.
        -15    1    1    2    0    0  0.74072427958E+00 -0.52444754590E+01 -0.48593872762E+01  0.74043614849E+01  0.17770000000E+01 0. -1.
         15    1    1    2    0    0  0.45171916159E+01 -0.54251952335E+01 -0.16905553046E+02  0.18406336306E+02  0.17770000000E+01 0.  1.
</event>
<event>
 6   1  0.1826851E-04  0.5002267E+03  0.7546771E-02  0.9399303E-01
        -11   -1    0    0    0    0  0.00000000000E+00  0.00000000000E+00  0.50000000000E+03  0.50000000000E+03  0.00000000000E+00 0. -1.
         11   -1    0    0    0    0 -0.00000000000E+00 -0.00000000000E+00 -0.50000000000E+03  0.50000000000E+03  0.00000000000E+00 0.  1.
        -11    1    1    2    0    0 -0.80392659090E+01 -0.25886437065E+01  0.79818711345E+02  0.80264298124E+02  0.00000000000E+00 0. -1.
         11    1    1    2    0    0  0.80403806115E+01 -0.53349288720E+01 -0.49968012411E+03  0.49977328421E+03  0.00000000000E+00 0.  1.
        -15    1    1    2    0    0 -0.11885087008E+01  0.54456533807E+01  0.24039483710E+03  0.24046601241E+03  0.17770000000E+01 0. -1.
         15    1    1    2    0    0  0.11873939984E+01  0.24779191978E+01  0.17946657566E+03  0.17949640525E+03  0.17770000000E+01 0. -1.
</event>
<event>
 6   1  0.1826851E-04  0.4841955E+03  0.7546771E-02  0.9435885E-01
        -11   -1    0    0    0    0  0.00000000000E+00  0.00000000000E+00  0.50000000000E+03  0.50000000000E+03  0.00000000000E+00 0.  1.
         11   -1    0    0    0    0 -0.00000000000E+00 -0.00000000000E+00 -0.50000000000E+03  0.50000000000E+03  0.00000000000E+00 0.  1.
        -11    1    1    2    0    0  0.28984176889E+02  0.43375103596E+01  0.48049192671E+03  0.48138486489E+03  0.00000000000E+00 0.  1.
         11    1    1    2    0    0 -0.78972346318E+01 -0.10066676188E+02 -0.48710719763E+03  0.48727520588E+03  0.00000000000E+00 0.  1.
        -15    1    1    2    0    0 -0.19492957235E+02 -0.18968687333E+01  0.10675906685E+02  0.22376465433E+02  0.17770000000E+01 0.  1.
         15    1    1    2    0    0 -0.15939850227E+01  0.76260345620E+01 -0.40606357699E+01  0.89634637975E+01  0.17770000000E+01 0. -1.
</event>
<event>
 6   1  0.1826851E-04  0.4841574E+03  0.7546771E-02  0.9435974E-01
        -11   -1    0    0    0    0  0.00000000000E+00  0.00000000000E+00  0.50000000000E+03  0.50000000000E+03  0.00000000000E+00 0. -1.
         11   -1    0    0    0    0 -0.00000000000E+00 -0.00000000000E+00 -0.50000000000E+03  0.50000000000E+03  0.00000000000E+00 0. -1.
        -11    1    1    2    0    0  0.20280021921E+02 -0.11060739501E+02  0.48657189549E+03  0.48711993259E+03  0.00000000000E+00 0. -1.
         11    1    1    2    0    0  0.66433518749E+01  0.98221795953E+01 -0.48143752437E+03  0.48158353295E+03  0.00000000000E+00 0. -1.
        -15    1    1    2    0    0 -0.18038919693E+02 -0.54804740566E+00  0.37093903059E+01  0.18510005000E+02  0.17770000000E+01 0.  1.
         15    1    1    2    0    0 -0.88844541033E+01  0.17866073118E+01 -0.88437614222E+01  0.12786529455E+02  0.17770000000E+01 0. -1.
</event>
<event>
 6   1  0.1826851E-04  0.5002784E+03  0.7546771E-02  0.9399187E-01
        -11   -1    0    0    0    0  0.00000000000E+00  0.00000000000E+00  0.50000000000E+03  0.50000000000E+03  0.00000000000E+00 0.  1.
         11   -1    0    0    0    0 -0.00000000000E+00 -0.00000000000E+00 -0.50000000000E+03  0.50000000000E+03  0.00000000000E+00 0. -1.
        -11    1    1    2    0    0 -0.33564268772E+01 -0.39796856397E+01  0.30770713260E+03  0.30775117051E+03  0.00000000000E+00 0.  1.
         11    1    1    2    0    0 -0.10767713298E+02  0.37470704945E+01 -0.49959156102E+03  0.49972163454E+03  0.00000000000E+00 0. -1.
        -15    1    1    2    0    0  0.89847527614E+01 -0.26606004318E+01  0.12149042107E+03  0.12186420605E+03  0.17770000000E+01 0.  1.
         15    1    1    2    0    0  0.51393874142E+01  0.28932155770E+01  0.70394007354E+02  0.70662988896E+02  0.17770000000E+01 0. -1.
</event>
<event>
 6   1  0.1826851E-04  0.5008170E+03  0.7546771E-02  0.9397983E-01
        -11   -1    0    0    0    0  0.00000000000E+00  0.00000000000E+00  0.50000000000E+03  0.50000000000E+03  0.00000000000E+00 0. -1.
         11   -1    0    0    0    0 -0.00000000000E+00 -0.00000000000E+00 -0.50000000000E+03  0.50000000000E+03  0.00000000000E+00 0.  1.
        -11    1    1    2    0    0  0.71024649708E+01 -0.10977009005E+02  0.49901174392E+03  0.49918299280E+03  0.00000000000E+00 0. -1.
         11    1    1    2    0    0  0.13949869315E+02  0.52632235420E+01 -0.23780139867E+03  0.23826834784E+03  0.00000000000E+00 0.  1.
        -15    1    1    2    0    0 -0.18446526056E+02  0.90701581818E+01 -0.17440183903E+03  0.17561805511E+03  0.17770000000E+01 0. -1.
         15    1    1    2    0    0 -0.26058082299E+01 -0.33563727192E+01 -0.86808506217E+02  0.86930604248E+02  0.17770000000E+01 0.  1.
</event>
<event>
 6   1  0.1826851E-04  0.4926062E+03  0.7546771E-02  0.9416507E-01
        -11   -1    0    0    0    0  0.00000000000E+00  0.00000000000E+00  0.50000000000E+03  0.50000000000E+03  0.00000000000E+00 0.  1.
         11   -1    0    0    0    0 -0.00000000000E+00 -0.00000000000E+00 -0.50000000000E+03  0.50000000000E+03  0.00000000000E+00 0. -1.
        -11    1    1    2    0    0 -0.11952862174E+02 -0.71804486581E+01 -0.57337131842E+01  0.15076644984E+02  0.00000000000E+00 0.  1.
         11    1    1    2    0    0  0.70863937109E+01  0.85680127453E+01 -0.48931764469E+03  0.48944395514E+03  0.00000000000E+00 0. -1.
        -15    1    1    2    0    0  0.11161876817E+02 -0.58862899560E+00  0.17793526515E+03  0.17829484090E+03  0.17770000000E+01 0.  1.
         15    1    1    2    0    0 -0.62954083539E+01 -0.79893509165E+00  0.31711609272E+03  0.31718455898E+03  0.17770000000E+01 0. -1.
</event>
<event>
 6   1  0.1826851E-04  0.5041714E+03  0.7546771E-02  0.9390524E-01
        -11   -1    0    0    0    0  0.00000000000E+00  0.00000000000E+00  0.50000000000E+03  0.50000000000E+03  0.00000000000E+00 0. -1.
         11   -1    0    0    0    0 -0.00000000000E+00 -0.00000000000E+00 -0.50000000000E+03  0.50000000000E+03  0.00000000000E+00 0. -1.
        -11    1    1    2    0    0 -0.33019041436E+01  0.88941309864E+01  0.49573778767E+03  0.49582856136E+03  0.00000000000E+00 0. -1.
         11    1    1    2    0    0  0.36684138181E+01  0.60457261852E+01 -0.48355958645E+03  0.48361129196E+03  0.00000000000E+00 0. -1.
        -15    1    1    2    0    0  0.70535628864E+00 -0.40421118720E+01 -0.70268055749E+01  0.83288607545E+01  0.17770000000E+01 0.  1.
         15    1    1    2    0    0 -0.10718659631E+01 -0.10897745300E+02 -0.51513956501E+01  0.12231285926E+02  0.17770000000E+01 0. -1.
</event>
<event>
 6   1  0.1826851E-04  0.5042609E+03  0.7546771E-02  0.9390326E-01
        -11   -1    0    0    0    0  0.00000000000E+00  0.00000000000E+00  0.50000000000E+03  0.50000000000E+03  0.00000000000E+00 0.  1.
         11   -1    0    0    0    0 -0.00000000000E+00 -0.00000000000E+00 -0.50000000000E+03  0.50000000000E+03  0.00000000000E+00 0. -1.
        -11    1    1    2    0    0  0.42523822870E+00 -0.74240645561E+01  0.49568333739E+03  0.49573911337E+03  0.00000000000E+00 0.  1.
         11    1    1    2    0    0 -0.84614568650E+01 -0.13489946925E+01 -0.48457659687E+03  0.48465234372E+03  0.00000000000E+00 0. -1.
        -15    1    1    2    0    0 -0.19246084407E+01  0.42399372743E+01 -0.25178002972E+01  0.55837472253E+01  0.17770000000E+01 0.  1.
         15    1    1    2    0    0  0.99608270771E+01  0.45331219743E+01 -0.85889402199E+01  0.14024795685E+02  0.17770000000E+01 0. -1.
</event>
<event>
 6   1  0.1826851E-04  0.5001134E+03  0.7546771E-02  0.9399556E-01
        -11   -1    0    0    0    0  0.00000000000E+00  0.00000000000E+00  0.50000000000E+03  0.50000000000E+03  0.00000000000E+00 0. -1.
         11   -1    0    0    0    0 -0.00000000000E+00 -0.00000000000E+00 -0.50000000000E+03  0.50000000000E+03  0.00000000000E+00 0. -1.
        -11    1    1    2    0    0 -0.35309282157E+01  0.13209889366E+02  0.20586575276E+03  0.20631935632E+03  0.00000000000E+00 0. -1.
         11    1    1    2    0    0  0.88834993516E+01 -0.17509114443E+02 -0.49950083008E+03  0.49988655203E+03  0.00000000000E+00 0. -1.
        -15    1    1    2    0    0 -0.18814419928E+01  0.21793357795E+01  0.48076168984E+02  0.48195073209E+02  0.17770000000E+01 0. -1.
         15    1    1    2    0    0 -0.34711291431E+01  0.21198892970E+01  0.24555890834E+03  0.24559901844E+03  0.17770000000E+01 0. -1.
</event>
<event>
 6   1  0.1826851E-04  0.5022836E+03  0.7546771E-02  0.9394714E-01
        -11   -1    0    0    0    0  0.00000000000E+00  0.00000000000E+00  0.50000000000E+03  0.50000000000E+03  0.00000000000E+00 0. -1.
         11   -1    0    0    0    0 -0.00000000000E+00 -0.00000000000E+00 -0.50000000000E+03  0.50000000000E+03  0.00000000000E+00 0. -1.
        -11    1    1    2    0    0 -0.17837128724E+01  0.12992673596E+02  0.47369495866E+03  0.47387646603E+03  0.00000000000E+00 0. -1.
         11    1    1    2    0    0 -0.50657618919E+01 -0.54229079167E+01 -0.49766106248E+03  0.49771638810E+03  0.00000000000E+00 0. -1.
        -15    1    1    2    0    0  0.58856017493E+01  0.85653375752E+00  0.13201882161E+02  0.14588398803E+02  0.17770000000E+01 0. -1.
         15    1    1    2    0    0  0.96387301507E+00 -0.84262994373E+01  0.10764221666E+02  0.13818747066E+02  0.17770000000E+01 0.  1.
</event>
<event>
 6   1  0.1826851E-04  0.5009128E+03  0.7546771E-02  0.9397770E-01
        -11   -1    0    0    0    0  0.00000000000E+00  0.00000000000E+00  0.50000000000E+03  0.50000000000E+03  0.00000000000E+00 0.  1.
         11   -1    0    0    0    0 -0.00000000000E+00 -0.00000000000E+00 -0.50000000000E+03  0.50000000000E+03  0.00000000000E+00 0.  1.
        -11    1    1    2    0    0  0.18161351486E+02 -0.14211766108E+02  0.49855413085E+03  0.49908719716E+03  0.00000000000E+00 0.  1.
         11    1    1    2    0    0  0.19304658891E+01  0.78268790720E+00 -0.13985444561E+03  0.13986995837E+03  0.00000000000E+00 0.  1.
        -15    1    1    2    0    0  0.13853346071E+01  0.48141092820E+01 -0.24196589545E+03  0.24202426963E+03  0.17770000000E+01 0. -1.
         15    1    1    2    0    0 -0.21477151982E+02  0.86149689189E+01 -0.11673378979E+03  0.11901857483E+03  0.17770000000E+01 0.  1.
</event>
<event>
 6   1  0.1826851E-04  0.5027077E+03  0.7546771E-02  0.9393771E-01
        -11   -1    0    0    0    0  0.00000000000E+00  0.00000000000E+00  0.50000000000E+03  0.50000000000E+03  0.00000000000E+00 0. -1.
         11   -1    0    0    0    0 -0.00000000000E+00 -0.00000000000E+00 -0.50000000000E+03  0.50000000000E+03  0.00000000000E+00 0.  1.
        -11    1    1    2    0    0 -0.30417915565E+01  0.22137864386E+02  0.28494703261E+03  0.28582188322E+03  0.00000000000E+00 0. -1.
         11    1    1    2    0    0 -0.94088457240E+01 -0.28471482679E+02 -0.49638745006E+03  0.49729232075E+03  0.00000000000E+00 0.  1.
        -15    1    1    2    0    0  0.13852390074E+02 -0.53021634854E+01  0.19950720721E+03  0.20006570197E+03  0.17770000000E+01 0. -1.
         15    1    1    2    0    0 -0.14017527931E+01  0.11635781778E+02  0.11933210237E+02  0.16820094056E+02  0.17770000000E+01 0.  1.
</event>
<event>
 6   1  0.1826851E-04  0.5002127E+03  0.7546771E-02  0.9399334E-01
        -11   -1    0    0    0    0  0.00000000000E+00  0.00000000000E+00  0.50000000000E+03  0.50000000000E+03  0.00000000000E+00 0. -1.
         11   -1    0    0    0    0 -0.00000000000E+00 -0.00000000000E+00 -0.50000000000E+03  0.50000000000E+03  0.00000000000E+00 0. -1.
        -11    1    1    2    0    0 -0.17289982471E+00 -0.16026666686E+02  0.36888394847E+03  0.36923197502E+03  0.00000000000E+00 0. -1.
         11    1    1    2    0    0 -0.58407769802E+01  0.12999634881E+02 -0.49958411080E+03  0.49978734373E+03  0.00000000000E+00 0. -1.
        -15    1    1    2    0    0  0.40913807990E+01  0.83910210875E+00  0.97521401328E+02  0.97626968278E+02  0.17770000000E+01 0. -1.
         15    1    1    2    0    0  0.19222960060E+01  0.21879296964E+01  0.33178761006E+02  0.33353712974E+02  0.17770000000E+01 0.  1.
</event>
<event>
 6   1  0.1826851E-04  0.4877502E+03  0.7546771E-02  0.9427645E-01
        -11   -1    0    0    0    0  0.00000000000E+00  0.00000000000E+00  0.50000000000E+03  0.50000000000E+03  0.00000000000E+00 0.  1.
         11   -1    0    0    0    0 -0.00000000000E+00 -0.00000000000E+00 -0.50000000000E+03  0.50000000000E+03  0.00000000000E+00 0.  1.
        -11    1    1    2    0    0 -0.11952801531E+02 -0.57632177490E+01  0.49006041404E+03  0.49024003667E+03  0.00000000000E+00 0.  1.
         11    1    1    2    0    0 -0.65837721323E+01 -0.39671546528E+00 -0.48542206797E+03  0.48546687582E+03  0.00000000000E+00 0.  1.
        -15    1    1    2    0    0  0.21542397966E+01 -0.17032217387E+01 -0.50653944756E+01  0.60297316346E+01  0.17770000000E+01 0. -1.
         15    1    1    2    0    0  0.16382333867E+02  0.78631549530E+01  0.42704841087E+00  0.18263355883E+02  0.17770000000E+01 0.  1.
</event>
<event>
 6   1  0.1826851E-04  0.5003061E+03  0.7546771E-02  0.9399125E-01
        -11   -1    0    0    0    0  0.00000000000E+00  0.00000000000E+00  0.50000000000E+03  0.50000000000E+03  0.00000000000E+00 0. -1.
         11   -1    0    0    0    0 -0.00000000000E+00 -0.00000000000E+00 -0.50000000000E+03  0.50000000000E+03  0.00000000000E+00 0.  1.
        -11    1    1    2    0    0 -0.42698228876E+01 -0.46271460454E+01  0.36469552358E+03  0.36474986879E+03  0.00000000000E+00 0. -1.
         11    1    1    2    0    0 -0.65001876297E+01  0.28241121337E+01 -0.49964360169E+03  0.49969386304E+03  0.00000000000E+00 0.  1.
        -15    1    1    2    0    0  0.38612340164E+01  0.12288248874E+01  0.82959506879E+02  0.83077413593E+02  0.17770000000E+01 0.  1.
         15    1    1    2    0    0  0.69087765010E+01  0.57420902432E+00  0.51988571239E+02  0.52478854572E+02  0.17770000000E+01 0. -1.
</event>
<event>
 6   1  0.1826851E-04  0.5037219E+03  0.7546771E-02  0.9391520E-01
        -11   -1    0    0    0    0  0.00000000000E+00  0.00000000000E+00  0.50000000000E+03  0.50000000000E+03  0.00000000000E+00 0. -1.
         11   -1    0    0    0    0 -0.00000000000E+00 -0.00000000000E+00 -0.50000000000E+03  0.50000000000E+03  0.00000000000E+00 0.  1.
        -11    1    1    2    0    0  0.28761578087E+00  0.21505408532E+02  0.43806311412E+03  0.43859076287E+03  0.00000000000E+00 0. -1.
         11    1    1    2    0    0 -0.81939738247E+01 -0.11534844942E+01 -0.49620914905E+03  0.49627813909E+03  0.00000000000E+00 0.  1.
        -15    1    1    2    0    0  0.70195747239E+00 -0.20790759490E+02  0.49536939268E+02  0.53756994945E+02  0.17770000000E+01 0.  1.
         15    1    1    2    0    0  0.72044005714E+01  0.43883545260E+00  0.86090956635E+01  0.11374103098E+02  0.17770000000E+01 0. -1.
</event>
<event>
 6   1  0.1826851E-04  0.5020857E+03  0.7546771E-02  0.9395155E-01
        -11   -1    0    0    0    0  0.00000000000E+00  0.00000000000E+00  0.50000000000E+03  0.50000000000E+03  0.00000000000E+00 0.  1.
         11   -1    0    0    0    0 -0.00000000000E+00 -0.00000000000E+00 -0.50000000000E+03  0.50000000000E+03  0.00000000000E+00 0. -1.
        -11    1    1    2    0    0 -0.11653105230E+02  0.54365302336E+01  0.29929190060E+02  0.32574639524E+02  0.00000000000E+00 0.  1.
         11    1    1    2    0    0  0.28762591146E+02  0.12379644275E+02 -0.49692864283E+03  0.49791426803E+03  0.00000000000E+00 0. -1.
        -15    1    1    2    0    0  0.70915926000E+01 -0.55569384786E+01  0.31269951161E+03  0.31283432124E+03  0.17770000000E+01 0.  1.
         15    1    1    2    0    0 -0.24201078516E+02 -0.12259236030E+02  0.15429994115E+03  0.15667677121E+03  0.17770000000E+01 0. -1.
</event>
<event>
 6   1  0.1826851E-04  0.5135832E+03  0.7546771E-02  0.9369919E-01
        -11   -1    0    0    0    0  0.00000000000E+00  0.00000000000E+00  0.50000000000E+03  0.50000000000E+03  0.00000000000E+00 0.  1.
         11   -1    0    0    0    0 -0.00000000000E+00 -0.00000000000E+00 -0.50000000000E+03  0.50000000000E+03  0.00000000000E+00 0. -1.
        -11    1    1    2    0    0 -0.83643557369E+02  0.29302438133E+02  0.47827440852E+03  0.48641678365E+03  0.00000000000E+00 0.  1.
         11    1    1    2    0    0 -0.55706641826E+01 -0.20798015846E+02 -0.37190682297E+03  0.37252956222E+03  0.00000000000E+00 0. -1.
        -15    1    1    2    0    0  0.65138031124E+02  0.14026659914E+01 -0.86232588444E+02  0.10809323572E+03  0.17770000000E+01 0.  1.
         15    1    1    2    0    0  0.24076190427E+02 -0.99070882779E+01 -0.20134997111E+02  0.32960418403E+02  0.17770000000E+01 0. -1.
</event>
<event>
 6   1  0.1826851E-04  0.5028319E+03  0.7546771E-02  0.9393495E-01
        -11   -1    0    0    0    0  0.00000000000E+00  0.00000000000E+00  0.50000000000E+03  0.50000000000E+03  0.00000000000E+00 0. -1.
         11   -1    0    0    0    0 -0.00000000000E+00 -0.00000000000E+00 -0.50000000000E+03  0.50000000000E+03  0.00000000000E+00 0.  1.
        -11    1    1    2    0    0 -0.82327180990E+01  0.10618304093E+02  0.48379329982E+03  0.48397983737E+03  0.00000000000E+00 0. -1.
         11    1    1    2    0    0  0.86886322813E+01 -0.58938463626E+01 -0.49705725440E+03  0.49716812439E+03  0.00000000000E+00 0.  1.
        -15    1    1    2    0    0 -0.42597971097E+01  0.11923494109E+01  0.14402645165E+01  0.49799256431E+01  0.17770000000E+01 0. -1.
         15    1    1    2    0    0  0.38038829274E+01 -0.59168071410E+01  0.11823690064E+02  0.13872112594E+02  0.17770000000E+01 0. -1.
</event>
<event>
 6   1  0.1826851E-04  0.5008134E+03  0.7546771E-02  0.9397992E-01
        -11   -1    0    0    0    0  0.00000000000E+00  0.00000000000E+00  0.50000000000E+03  0.50000000000E+03  0.00000000000E+00 0.  1.
         11   -1    0    0    0    0 -0.00000000000E+00 -0.00000000000E+00 -0.50000000000E+03  0.50000000000E+03  0.00000000000E+00 0.  1.
        -11    1    1    2    0    0  0.56196650321E+01  0.82769774125E+01  0.31176393121E+02  0.32742273565E+02  0.00000000000E+00 0.  1.
         11    1    1    2    0    0  0.69128291527E+01 -0.91639780229E+01 -0.49905462087E+03  0.49918661873E+03  0.00000000000E+00 0.  1.
        -15    1    1    2    0    0 -0.63758286918E+01 -0.10466645801E+00  0.28794594748E+03  0.28802202788E+03  0.17770000000E+01 0.  1.
         15    1    1    2    0    0 -0.61566654931E+01  0.99166706843E+00  0.17993228027E+03  0.18004907983E+03  0.17770000000E+01 0. -1.
</event>
<event>
 6   1  0.1826851E-04  0.5038022E+03  0.7546771E-02  0.9391342E-01
        -11   -1    0    0    0    0  0.00000000000E+00  0.00000000000E+00  0.50000000000E+03  0.50000000000E+03  0.00000000000E+00 0.  1.
         11   -1    0    0    0    0 -0.00000000000E+00 -0.00000000000E+00 -0.50000000000E+03  0.50000000000E+03  0.00000000000E+00 0.  1.
        -11    1    1    2    0    0 -0.41794502827E+02  0.29457605889E+02  0.12418893710E+03  0.13430347393E+03  0.00000000000E+00 0.  1.
         11    1    1    2    0    0  0.59828380283E+02 -0.77795519318E+01 -0.49251628699E+03  0.49619779269E+03  0.00000000000E+00 0.  1.
        -15    1    1    2    0    0 -0.55154768969E+01 -0.47870344313E+01  0.13890968540E+03  0.13911288442E+03  0.17770000000E+01 0.  1.
         15    1    1    2    0    0 -0.12518400559E+02 -0.16891019526E+02  0.22941766449E+03  0.23038584896E+03  0.17770000000E+01 0. -1.
</event>
<event>
 6   1  0.1826851E-04  0.5001832E+03  0.7546771E-02  0.9399400E-01
        -11   -1    0    0    0    0  0.00000000000E+00  0.00000000000E+00  0.50000000000E+03  0.50000000000E+03  0.00000000000E+00 0.  1.
         11   -1    0    0    0    0 -0.00000000000E+00 -0.00000000000E+00 -0.50000000000E+03  0.50000000000E+03  0.00000000000E+00 0. -1.
        -11    1    1    2    0    0 -0.19965537659E+02  0.16488526636E+01  0.49941514538E+03  0.49981679528E+03  0.00000000000E+00 0.  1.
         11    1    1    2    0    0  0.21721723297E+02 -0.26394435732E+01 -0.40025204296E+03  0.40084971975E+03  0.00000000000E+00 0. -1.
        -15    1    1    2    0    0 -0.30894594373E+00  0.13717290595E+01 -0.18691955326E+02  0.18828808012E+02  0.17770000000E+01 0. -1.
         15    1    1    2    0    0 -0.14472396943E+01 -0.38113814983E+00 -0.80471147091E+02  0.80504676958E+02  0.17770000000E+01 0.  1.
</event>
<event>
 6   1  0.1826851E-04  0.4925840E+03  0.7546771E-02  0.9416558E-01
        -11   -1    0    0    0    0  0.00000000000E+00  0.00000000000E+00  0.50000000000E+03  0.50000000000E+03  0.00000000000E+00 0. -1.
         11   -1    0    0    0    0 -0.00000000000E+00 -0.00000000000E+00 -0.50000000000E+03  0.50000000000E+03  0.00000000000E+00 0.  1.
        -11    1    1    2    0    0  0.84996797669E+01 -0.93597201559E+01  0.49545726937E+03  0.49561855765E+03  0.00000000000E+00 0. -1.
         11    1    1    2    0    0  0.28655620770E+01  0.61323172579E+01 -0.48959091273E+03  0.48963770136E+03  0.00000000000E+00 0.  1.
        -15    1    1    2    0    0 -0.11369995729E+01 -0.43978359253E+00 -0.23436276494E+01  0.31837866128E+01  0.17770000000E+01 0. -1.
         15    1    1    2    0    0 -0.10228242271E+02  0.36671864905E+01 -0.35227289843E+01  0.11559954377E+02  0.17770000000E+01 0.  1.
</event>
<event>
 6   1  0.1826851E-04  0.5002064E+03  0.7546771E-02  0.9399348E-01
        -11   -1    0    0    0    0  0.00000000000E+00  0.00000000000E+00  0.50000000000E+03  0.50000000000E+03  0.00000000000E+00 0.  1.
         11   -1    0    0    0    0 -0.00000000000E+00 -0.00000000000E+00 -0.50000000000E+03  0.50000000000E+03  0.00000000000E+00 0. -1.
        -11    1    1    2    0    0 -0.20474938765E+01  0.11212646612E+02  0.14531288689E+03  0.14575922191E+03  0.00000000000E+00 0.  1.
         11    1    1    2    0    0  0.76444567946E+01 -0.83647541805E+01 -0.49966516431E+03  0.49979364068E+03  0.00000000000E+00 0. -1.
        -15    1    1    2    0    0 -0.25360749520E+01  0.13213469180E+00  0.87767609882E+02  0.87822321816E+02  0.17770000000E+01 0.  1.
         15    1    1    2    0    0 -0.30608879661E+01 -0.29800271236E+01  0.26658466754E+03  0.26662481560E+03  0.17770000000E+01 0.  1.
</event>
<event>
 6   1  0.1826851E-04  0.5000951E+03  0.7546771E-02  0.9399597E-01
        -11   -1    0    0    0    0  0.00000000000E+00  0.00000000000E+00  0.50000000000E+03  0.50000000000E+03  0.00000000000E+00 0. -1.
         11   -1    0    0    0    0 -0.00000000000E+00 -0.00000000000E+00 -0.50000000000E+03  0.50000000000E+03  0.00000000000E+00 0. -1.
        -11    1    1    2    0    0  0.66301618612E+01 -0.38596180292E+01  0.11749014711E+03  0.11774035147E+03  0.00000000000E+00 0. -1.
         11    1    1    2    0    0 -0.56751415435E+01  0.10524590052E+02 -0.49976184386E+03  0.49990486576E+03  0.00000000000E+00 0. -1.
        -15    1    1    2    0    0 -0.14865603947E+01 -0.45914572413E+01  0.22790910907E+03  0.22796712717E+03  0.17770000000E+01 0. -1.
         15    1    1    2    0    0  0.53154007701E+00 -0.20735147814E+01  0.15436258768E+03  0.15438765561E+03  0.17770000000E+01 0.  1.
</event>
<event>
 6   1  0.1826851E-04  0.5045682E+03  0.7546771E-02  0.9389646E-01
        -11   -1    0    0    0    0  0.00000000000E+00  0.00000000000E+00  0.50000000000E+03  0.50000000000E+03  0.00000000000E+00 0.  1.
         11   -1    0    0    0    0 -0.00000000000E+00 -0.00000000000E+00 -0.50000000000E+03  0.50000000000E+03  0.00000000000E+00 0. -1.
        -11    1    1    2    0    0  0.52331528521E+01 -0.94400704183E+01  0.49531420722E+03  0.49543179621E+03  0.00000000000E+00 0.  1.
         11    1    1    2    0    0  0.15636514811E+02  0.64094899416E+00 -0.46433356969E+03  0.46459721841E+03  0.00000000000E+00 0. -1.
        -15    1    1    2    0    0 -0.14331523100E+02  0.76045556356E+01 -0.13485176649E+02  0.21171432144E+02  0.17770000000E+01 0. -1.
         15    1    1    2    0    0 -0.65381445630E+01  0.11945657885E+01 -0.17495460879E+02  0.18799553242E+02  0.17770000000E+01 0.  1.
</event>
<event>
 6   1  0.1826851E-04  0.4908166E+03  0.7546771E-02  0.9420596E-01
        -11   -1    0    0    0    0  0.00000000000E+00  0.00000000000E+00  0.50000000000E+03  0.50000000000E+03  0.00000000000E+00 0.  1.
         11   -1    0    0    0    0 -0.00000000000E+00 -0.00000000000E+00 -0.50000000000E+03  0.50000000000E+03  0.00000000000E+00 0.  1.
        -11    1    1    2    0    0  0.60509168828E+00 -0.11355507769E+02  0.49221171121E+03  0.49234305352E+03  0.00000000000E+00 0.  1.
         11    1    1    2    0    0  0.71884820311E+01 -0.17259339923E+01 -0.48935647015E+03  0.48941230879E+03  0.00000000000E+00 0.  1.
        -15    1    1    2    0    0 -0.94101886209E+01  0.12083795386E+02 -0.24147524541E+01  0.15606361499E+02  0.17770000000E+01 0.  1.
         15    1    1    2    0    0  0.16166149015E+01  0.99764637438E+00 -0.44048860920E+00  0.26382761878E+01  0.17770000000E+01 0. -1.
</event>
<event>
 6   1  0.1826851E-04  0.5002334E+03  0.7546771E-02  0.9399288E-01
        -11   -1    0    0    0    0  0.00000000000E+00  0.00000000000E+00  0.50000000000E+03  0.50000000000E+03  0.00000000000E+00 0.  1.
         11   -1    0    0    0    0 -0.00000000000E+00 -0.00000000000E+00 -0.50000000000E+03  0.50000000000E+03  0.00000000000E+00 0. -1.
        -11    1    1    2    0    0  0.29227579672E+01 -0.73560804147E+01  0.49970390264E+03  0.49976659026E+03  0.00000000000E+00 0.  1.
         11    1    1    2    0    0  0.61014542578E+00 -0.55235078962E+01 -0.23861620054E+03  0.23868090116E+03  0.00000000000E+00 0. -1.
        -15    1    1    2    0    0  0.24373994597E+00  0.53917921104E+00 -0.68033307115E+02  0.68059082637E+02  0.17770000000E+01 0. -1.
         15    1    1    2    0    0 -0.37766433390E+01  0.12340409100E+02 -0.19305439498E+03  0.19349342594E+03  0.17770000000E+01 0. -1.
</event>
<event>
 6   1  0.1826851E-04  0.5016638E+03  0.7546771E-02  0.9396095E-01
        -11   -1    0    0    0    0  0.00000000000E+00  0.00000000000E+00  0.50000000000E+03  0.50000000000E+03  0.00000000000E+00 0.  1.
         11   -1    0    0    0    0 -0.00000000000E+00 -0.00000000000E+00 -0.50000000000E+03  0.50000000000E+03  0.00000000000E+00 0.  1.
        -11    1    1    2    0    0  0.16199735553E+02 -0.47363728598E+01  0.49805032602E+03  0.49833622375E+03  0.00000000000E+00 0.  1.
         11    1    1    2    0    0 -0.21087570961E+01  0.59043224882E+01 -0.45574930744E+03  0.45579242985E+03  0.00000000000E+00 0.  1.
        -15    1    1    2    0    0 -0.10190445275E+02  0.18647193298E+01 -0.16662748532E+02  0.19700945935E+02  0.17770000000E+01 0.  1.
         15    1    1    2    0    0 -0.39005331813E+01 -0.30326689583E+01 -0.25638270045E+02  0.26170400456E+02  0.17770000000E+01 0. -1.
</event>
<event>
 6   1  0.1826851E-04  0.5003264E+03  0.7546771E-02  0.9399080E-01
        -11   -1    0    0    0    0  0.00000000000E+00  0.00000000000E+00  0.50000000000E+03  0.50000000000E+03  0.00000000000E+00 0. -1.
         11   -1    0    0    0    0 -0.00000000000E+00 -0.00000000000E+00 -0.50000000000E+03  0.50000000000E+03  0.00000000000E+00 0.  1.
        -11    1    1    2    0    0 -0.70271190059E+01  0.65171002882E+01  0.14226988717E+03  0.14259233427E+03  0.00000000000E+00 0. -1.
         11    1    1    2    0    0 -0.72783401952E+01 -0.20746963843E+01 -0.49961624849E+03  0.49967356780E+03  0.00000000000E+00 0.  1.
        -15    1    1    2    0    0  0.12468357445E+02 -0.27667637432E+01  0.32121360085E+03  0.32147231610E+03  0.17770000000E+01 0. -1.
         15    1    1    2    0    0  0.18371017566E+01 -0.16756401606E+01  0.36132760473E+02  0.36261781826E+02  0.17770000000E+01 0. -1.
</event>
<event>
 6   1  0.1826851E-04  0.5041993E+03  0.7546771E-02  0.9390462E-01
        -11   -1    0    0    0    0  0.00000000000E+00  0.00000000000E+00  0.50000000000E+03  0.50000000000E+03  0.00000000000E+00 0. -1.
         11   -1    0    0    0    0 -0.00000000000E+00 -0.00000000000E+00 -0.50000000000E+03  0.50000000000E+03  0.00000000000E+00 0.  1.
        -11    1    1    2    0    0  0.76576440758E+02  0.80893649482E+02  0.48312586105E+03  0.49580069728E+03  0.00000000000E+00 0. -1.
         11    1    1    2    0    0 -0.13180792716E+01  0.21022847399E+00 -0.72298807376E+02  0.72311126924E+02  0.00000000000E+00 0.  1.
        -15    1    1    2    0    0 -0.75854633580E+02 -0.85619196125E+02 -0.30185810620E+03  0.32280961291E+03  0.17770000000E+01 0.  1.
         15    1    1    2    0    0  0.59627209391E+00  0.45153181698E+01 -0.10896894747E+03  0.10907856288E+03  0.17770000000E+01 0.  1.
</event>
<event>
 6   1  0.1826851E-04  0.5007157E+03  0.7546771E-02  0.9398210E-01
        -11   -1    0    0    0    0  0.00000000000E+00  0.00000000000E+00  0.50000000000E+03  0.50000000000E+03  0.00000000000E+00 0. -1.
         11   -1    0    0    0    0 -0.00000000000E+00 -0.00000000000E+00 -0.50000000000E+03  0.50000000000E+03  0.00000000000E+00 0. -1.
        -11    1    1    2    0    0  0.17834566387E+02  0.33338859320E+01  0.49895457965E+03  0.49928434695E+03  0.00000000000E+00 0. -1.
         11    1    1    2    0    0 -0.77058384192E+01 -0.62726033277E+01 -0.45325137448E+03  0.45336026951E+03  0.00000000000E+00 0. -1.
        -15    1    1    2    0    0 -0.30729903024E+01  0.74852503914E-01 -0.67685267082E+01  0.76432686134E+01  0.17770000000E+01 0.  1.
         15    1    1    2    0    0 -0.70557376652E+01  0.28638648918E+01 -0.38934678465E+02  0.39712114931E+02  0.17770000000E+01 0. -1.
</event>
<event>
 6   1  0.1826851E-04  0.4871280E+03  0.7546771E-02  0.9429082E-01
        -11   -1    0    0    0    0  0.00000000000E+00  0.00000000000E+00  0.50000000000E+03  0.50000000000E+03  0.00000000000E+00 0. -1.
         11   -1    0    0    0    0 -0.00000000000E+00 -0.00000000000E+00 -0.50000000000E+03  0.50000000000E+03  0.00000000000E+00 0. -1.
        -11    1    1    2    0    0  0.78172937384E+01  0.12458279600E+02  0.48740436650E+03  0.48762622499E+03  0.00000000000E+00 0. -1.
         11    1    1    2    0    0 -0.59646882516E+01  0.94115423226E+01 -0.48674965054E+03  0.48687716822E+03  0.00000000000E+00 0. -1.
        -15    1    1    2    0    0 -0.56831082889E+01 -0.41397682848E+01  0.13800024335E+00  0.72534250077E+01  0.17770000000E+01 0.  1.
         15    1    1    2    0    0  0.38305028021E+01 -0.17730053638E+02 -0.79271620568E+00  0.18243181787E+02  0.17770000000E+01 0. -1.
</event>
<event>
 6   1  0.1826851E-04  0.5024058E+03  0.7546771E-02  0.9394443E-01
        -11   -1    0    0    0    0  0.00000000000E+00  0.00000000000E+00  0.50000000000E+03  0.50000000000E+03  0.00000000000E+00 0. -1.
         11   -1    0    0    0    0 -0.00000000000E+00 -0.00000000000E+00 -0.50000000000E+03  0.50000000000E+03  0.00000000000E+00 0. -1.
        -11    1    1    2    0    0  0.28550298242E+02  0.59336559466E+02  0.49321804647E+03  0.49759420031E+03  0.00000000000E+00 0. -1.
         11    1    1    2    0    0  0.68988228026E+00 -0.21169880934E+01 -0.11118276063E+03  0.11120505311E+03  0.00000000000E+00 0. -1.
        -15    1    1    2    0    0 -0.33299738286E+02 -0.64410071381E+02 -0.29620554153E+03  0.30495640742E+03  0.17770000000E+01 0. -1.
         15    1    1    2    0    0  0.40595577636E+01  0.71905000089E+01 -0.85829744311E+02  0.86244339160E+02  0.17770000000E+01 0.  1.
</event>
<event>
 6   1  0.1826851E-04  0.5022978E+03  0.7546771E-02  0.9394683E-01
        -11   -1    0    0    0    0  0.00000000000E+00  0.00000000000E+00  0.50000000000E+03  0.50000000000E+03  0.00000000000E+00 0. -1.
         11   -1    0    0    0    0 -0.00000000000E+00 -0.00000000000E+00 -0.50000000000E+03  0.50000000000E+03  0.00000000000E+00 0.  1.
        -11    1    1    2    0    0 -0.30066653917E+02  0.63193139558E+02  0.49275769911E+03  0.49770224693E+03  0.00000000000E+00 0. -1.
         11    1    1    2    0    0  0.19869906102E+02 -0.69620722723E+02 -0.33032511194E+03  0.33816643503E+03  0.00000000000E+00 0.  1.
        -15    1    1    2    0    0  0.11580814931E+02  0.10906606042E+00 -0.44775131123E+02  0.46282796653E+02  0.17770000000E+01 0.  1.
         15    1    1    2    0    0 -0.13840671158E+01  0.63185171048E+01 -0.11765745605E+03  0.11784852138E+03  0.17770000000E+01 0. -1.
</event>
<event>
 6   1  0.1826851E-04  0.5002422E+03  0.7546771E-02  0.9399268E-01
        -11   -1    0    0    0    0  0.00000000000E+00  0.00000000000E+00  0.50000000000E+03  0.50000000000E+03  0.00000000000E+00 0. -1.
         11   -1    0    0    0    0 -0.00000000000E+00 -0.00000000000E+00 -0.50000000000E+03  0.50000000000E+03  0.00000000000E+00 0.  1.
        -11    1    1    2    0    0 -0.10434211243E+01 -0.23983971451E+02  0.49918088550E+03  0.49975781741E+03  0.00000000000E+00 0. -1.
         11    1    1    2    0    0  0.26734242901E+01 -0.50278598897E+00 -0.91251681605E+02  0.91292219751E+02  0.00000000000E+00 0.  1.
        -15    1    1    2    0    0 -0.14395223762E+01  0.13674539801E+02 -0.32554067885E+03  0.32583578161E+03  0.17770000000E+01 0.  1.
         15    1    1    2    0    0 -0.19048078965E+00  0.10812217639E+02 -0.82388525048E+02  0.83114181231E+02  0.17770000000E+01 0. -1.
</event>
<event>
 6   1  0.1826851E-04  0.5068883E+03  0.7546771E-02  0.9384527E-01
        -11   -1    0    0    0    0  0.00000000000E+00  0.00000000000E+00  0.50000000000E+03  0.50000000000E+03  0.00000000000E+00 0. -1.
         11   -1    0    0    0    0 -0.00000000000E+00 -0.00000000000E+00 -0.50000000000E+03  0.50000000000E+03  0.00000000000E+00 0. -1.
        -11    1    1    2    0    0 -0.13831657463E+02  0.15484994745E+02  0.49267435155E+03  0.49311166736E+03  0.00000000000E+00 0. -1.
         11    1    1    2    0    0  0.28740400670E+01 -0.79325838420E+01 -0.47685283599E+03  0.47692747162E+03  0.00000000000E+00 0. -1.
        -15    1    1    2    0    0  0.95221315807E+00  0.59092206807E+01  0.78291742273E+00  0.62925581160E+01  0.17770000000E+01 0. -1.
         15    1    1    2    0    0  0.10005404238E+02 -0.13461631583E+02 -0.16604432976E+02  0.23668302903E+02  0.17770000000E+01 0. -1.
</event>
<event>
 6   1  0.1826851E-04  0.4942165E+03  0.7546771E-02  0.9412844E-01
        -11   -1    0    0    0    0  0.00000000000E+00  0.00000000000E+00  0.50000000000E+03  0.50000000000E+03  0.00000000000E+00 0. -1.
         11   -1    0    0    0    0 -0.00000000000E+00 -0.00000000000E+00 -0.50000000000E+03  0.50000000000E+03  0.00000000000E+00 0. -1.
        -11    1    1    2    0    0 -0.11174062608E+02  0.35917082012E+00  0.28008144349E+01  0.11525330379E+02  0.00000000000E+00 0. -1.
         11    1    1    2    0    0  0.39891483565E+01 -0.59879910954E+01 -0.49555655169E+03  0.49560878247E+03  0.00000000000E+00 0. -1.
        -15    1    1    2    0    0  0.44221304118E+01  0.48344349391E+01  0.27420328436E+03  0.27428730536E+03  0.17770000000E+01 0. -1.
         15    1    1    2    0    0  0.27627838402E+01  0.79438533626E+00  0.21855245289E+03  0.21857858179E+03  0.17770000000E+01 0. -1.
</event>
<event>
 6   1  0.1826851E-04  0.5002345E+03  0.7546771E-02  0.9399285E-01
        -11   -1    0    0    0    0  0.00000000000E+00  0.00000000000E+00  0.50000000000E+03  0.50000000000E+03  0.00000000000E+00 0. -1.
         11   -1    0    0    0    0 -0.00000000000E+00 -0.00000000000E+00 -0.50000000000E+03  0.50000000000E+03  0.00000000000E+00 0.  1.
        -11    1    1    2    0    0 -0.24143607217E+02 -0.12853847930E+02  0.49901642874E+03  0.49976547633E+03  0.00000000000E+00 0. -1.
         11    1    1    2    0    0  0.31745389213E+01  0.33790933871E-01 -0.82711074233E+02  0.82771979799E+02  0.00000000000E+00 0.  1.
        -15    1    1    2    0    0  0.22329487130E+02  0.86197250450E+01 -0.26565463232E+03  0.26673666238E+03  0.17770000000E+01 0.  1.
         15    1    1    2    0    0 -0.13604188344E+01  0.42003319509E+01 -0.15065072218E+03  0.15072588149E+03  0.17770000000E+01 0. -1.
</event>
<event>
 6   1  0.1826851E-04  0.5029868E+03  0.7546771E-02  0.9393151E-01
        -11   -1    0    0    0    0  0.00000000000E+00  0.00000000000E+00  0.50000000000E+03  0.50000000000E+03  0.00000000000E+00 0.  1.
         11   -1    0    0    0    0 -0.00000000000E+00 -0.00000000000E+00 -0.50000000000E+03  0.50000000000E+03  0.00000000000E+00 0. -1.
        -11    1    1    2    0    0  0.20493139617E+02  0.52903086956E+01  0.43073039673E+03  0.43125007920E+03  0.00000000000E+00 0.  1.
         11    1    1    2    0    0 -0.64570648026E+01  0.28270461410E+01 -0.49696325763E+03  0.49701324460E+03  0.00000000000E+00 0. -1.
        -15    1    1    2    0    0  0.28932131190E+01 -0.88107453981E+01  0.14798698023E+02  0.17554461222E+02  0.17770000000E+01 0. -1.
         15    1    1    2    0    0 -0.16929287934E+02  0.69339056156E+00  0.51434162875E+02  0.54182214979E+02  0.17770000000E+01 0.  1.
</event>
<event>
 6   1  0.1826851E-04  0.5004964E+03  0.7546771E-02  0.9398700E-01
        -11   -1    0    0    0    0  0.00000000000E+00  0.00000000000E+00  0.50000000000E+03  0.50000000000E+03  0.00000000000E+00 0.  1.
         11   -1    0    0    0    0 -0.00000000000E+00 -0.00000000000E+00 -0.50000000000E+03  0.50000000000E+03  0.00000000000E+00 0.  1.
        -11    1    1    2    0    0 -0.26524106123E+01 -0.66578645720E+01  0.34153807742E+03  0.34161326199E+03  0.00000000000E+00 0.  1.
         11    1    1    2    0    0 -0.52359457475E+01 -0.54558172560E+01 -0.49944632076E+03  0.49950356194E+03  0.00000000000E+00 0.  1.
        -15    1    1    2    0    0  0.13704678179E+01  0.25407356157E+01  0.11049951313E+02  0.11558229645E+02  0.17770000000E+01 0.  1.
         15    1    1    2    0    0  0.65178885419E+01  0.95729462123E+01  0.14685829203E+03  0.14732494642E+03  0.17770000000E+01 0. -1.
</event>
<event>
 6   1  0.1826851E-04  0.5002724E+03  0.7546771E-02  0.9399200E-01
        -11   -1    0    0    0    0  0.00000000000E+00  0.00000000000E+00  0.50000000000E+03  0.50000000000E+03  0.00000000000E+00 0.  1.
         11   -1    0    0    0    0 -0.00000000000E+00 -0.00000000000E+00 -0.50000000000E+03  0.50000000000E+03  0.00000000000E+00 0.  1.
        -11    1    1    2    0    0  0.13696467289E+02  0.13378731438E+01  0.49953810306E+03  0.49972762534E+03  0.00000000000E+00 0.  1.
         11    1    1    2    0    0  0.52738473785E+00 -0.50010731869E+01 -0.26543618927E+03  0.26548382143E+03  0.00000000000E+00 0.  1.
        -15    1    1    2    0    0 -0.80960150331E+01 -0.20439387883E+01 -0.81287670012E+02  0.81734730501E+02  0.17770000000E+01 0. -1.
         15    1    1    2    0    0 -0.61278369933E+01  0.57071388315E+01 -0.15281424378E+03  0.15305382272E+03  0.17770000000E+01 0.  1.
</event>
<event>
 6   1  0.1826851E-04  0.5012459E+03  0.7546771E-02  0.9397026E-01
        -11   -1    0    0    0    0  0.00000000000E+00  0.00000000000E+00  0.50000000000E+03  0.50000000000E+03  0.00000000000E+00 0. -1.
         11   -1    0    0    0    0 -0.00000000000E+00 -0.00000000000E+00 -0.50000000000E+03  0.50000000000E+03  0.00000000000E+00 0. -1.
        -11    1    1    2    0    0  0.87482097247E+01  0.27220886750E+02  0.49793383631E+03  0.49875406083E+03  0.00000000000E+00 0. -1.
         11    1    1    2    0    0  0.60950550758E-01 -0.67302629502E+01 -0.34733072722E+03  0.34739593295E+03  0.00000000000E+00 0. -1.
        -15    1    1    2    0    0 -0.76211844125E+01  0.26030408808E+01 -0.38892222557E+02  0.39757024261E+02  0.17770000000E+01 0.  1.
         15    1    1    2    0    0 -0.11879758629E+01 -0.23093664680E+02 -0.11171088653E+03  0.11409298197E+03  0.17770000000E+01 0. -1.
</event>
<event>
 6   1  0.1826851E-04  0.5007178E+03  0.7546771E-02  0.9398205E-01
        -11   -1    0    0    0    0  0.00000000000E+00  0.00000000000E+00  0.50000000000E+03  0.50000000000E+03  0.00000000000E+00 0. -1.
         11   -1    0    0    0    0 -0.00000000000E+00 -0.00000000000E+00 -0.50000000000E+03  0.50000000000E+03  0.00000000000E+00 0. -1.
        -11    1    1    2    0    0  0.14983235078E+01 -0.11422994775E+02  0.37173650163E+03  0.37191498548E+03  0.00000000000E+00 0. -1.
         11    1    1    2    0    0  0.12089836617E+02 -0.51001069264E+00 -0.49913557755E+03  0.49928223385E+03  0.00000000000E+00 0. -1.
        -15    1    1    2    0    0 -0.45525600978E+01  0.25392095919E+01  0.48897337525E+02  0.49206511102E+02  0.17770000000E+01 0. -1.
         15    1    1    2    0    0 -0.90356000268E+01  0.93937958754E+01  0.78501738400E+02  0.79596269571E+02  0.17770000000E+01 0.  1.
</event>
<event>
 6   1  0.1826851E-04  0.5000822E+03  0.7546771E-02  0.9399626E-01
        -11   -1    0    0    0    0  0.00000000000E+00  0.00000000000E+00  0.50000000000E+03  0.50000000000E+03  0.00000000000E+00 0. -1.
         11   -1    0    0    0    0 -0.00000000000E+00 -0.00000000000E+00 -0.50000000000E+03  0.50000000000E+03  0.00000000000E+00 0.  1.
        -11    1    1    2    0    0  0.67528380630E+01  0.38592305474E+01  0.20660423080E+03  0.20675058081E+03  0.00000000000E+00 0. -1.
         11    1    1    2    0    0 -0.12053332175E+02  0.79740438501E-01 -0.49977250463E+03  0.49991783880E+03  0.00000000000E+00 0.  1.
        -15    1    1    2    0    0  0.17525994452E+01  0.14867422545E+01  0.11464708426E+03  0.11468388582E+03  0.17770000000E+01 0. -1.
         15    1    1    2    0    0  0.35478946666E+01 -0.54257132405E+01  0.17852118957E+03  0.17864769457E+03  0.17770000000E+01 0.  1.
</event>
<event>
 6   1  0.1826851E-04  0.5059641E+03  0.7546771E-02  0.9386562E-01
        -11   -1    0    0    0    0  0.00000000000E+00  0.00000000000E+00  0.50000000000E+03  0.50000000000E+03  0.00000000000E+00 0.  1.
         11   -1    0    0    0    0 -0.00000000000E+00 -0.00000000000E+00 -0.50000000000E+03  0.50000000000E+03  0.00000000000E+00 0. -1.
        -11    1    1    2    0    0  0.99430567594E+01 -0.45453991635E+01  0.47038319329E+03  0.47051022684E+03  0.00000000000E+00 0.  1.
         11    1    1    2    0    0  0.14163374336E+02  0.76303602222E+01 -0.49377383670E+03  0.49403585435E+03  0.00000000000E+00 0. -1.
        -15    1    1    2    0    0 -0.22895575436E+02 -0.29797817717E+01  0.23860789457E+02  0.33250285360E+02  0.17770000000E+01 0.  1.
         15    1    1    2    0    0 -0.12108556593E+01 -0.10517928699E+00 -0.47014604205E+00  0.22036334566E+01  0.17770000000E+01 0. -1.
</event>
<event>
 6   1  0.1826851E-04  0.5040791E+03  0.7546771E-02  0.9390728E-01
        -11   -1    0    0    0    0  0.00000000000E+00  0.00000000000E+00  0.50000000000E+03  0.50000000000E+03  0.00000000000E+00 0. -1.
         11   -1    0    0    0    0 -0.00000000000E+00 -0.00000000000E+00 -0.50000000000E+03  0.50000000000E+03  0.00000000000E+00 0. -1.
        -11    1    1    2    0    0 -0.83645609311E+01  0.28644823706E+02  0.49502231126E+03  0.49592094173E+03  0.00000000000E+00 0. -1.
         11    1    1    2    0    0 -0.35999526455E+01  0.64320682919E+01 -0.37610027173E+03  0.37617249441E+03  0.00000000000E+00 0. -1.
        -15    1    1    2    0    0  0.13210902031E+02 -0.39755576434E+02 -0.10636700457E+03  0.11433342110E+03  0.17770000000E+01 0. -1.
         15    1    1    2    0    0 -0.12463884539E+01  0.46786844364E+01 -0.12555034961E+02  0.13573142750E+02  0.17770000000E+01 0.  1.
</event>
<event>
 6   1  0.1826851E-04  0.5009952E+03  0.7546771E-02  0.9397586E-01
        -11   -1    0    0    0    0  0.00000000000E+00  0.00000000000E+00  0.50000000000E+03  0.50000000000E+03  0.00000000000E+00 0. -1.
         11   -1    0    0    0    0 -0.00000000000E+00 -0.00000000000E+00 -0.50000000000E+03  0.50000000000E+03  0.00000000000E+00 0.  1.
        -11    1    1    2    0    0 -0.99924057531E+01 -0.17453165953E+01  0.38493973666E+03  0.38507336336E+03  0.00000000000E+00 0. -1.
         11    1    1    2    0    0 -0.87075985873E+01 -0.58452409707E+01 -0.49889459858E+03  0.49900481923E+03  0.00000000000E+00 0.  1.
        -15    1    1    2    0    0  0.19376066139E+01 -0.19140222623E+00  0.17346971891E+02  0.17546114014E+02  0.17770000000E+01 0.  1.
         15    1    1    2    0    0  0.16762397726E+02  0.77819597922E+01  0.96607890028E+02  0.98375703405E+02  0.17770000000E+01 0. -1.
</event>
<event>
 6   1  0.1826851E-04  0.5013647E+03  0.7546771E-02  0.9396761E-01
        -11   -1    0    0    0    0  0.00000000000E+00  0.00000000000E+00  0.50000000000E+03  0.50000000000E+03  0.00000000000E+00 0.  1.
         11   -1    0    0    0    0 -0.00000000000E+00 -0.00000000000E+00 -0.50000000000E+03  0.50000000000E+03  0.00000000000E+00 0. -1.
        -11    1    1    2    0    0 -0.15855230682E+02 -0.29114565511E+01  0.49837469032E+03  0.49863533456E+03  0.00000000000E+00 0.  1.
         11    1    1    2    0    0  0.42890025562E+00 -0.65961324314E+01 -0.41928884627E+03  0.41934094663E+03  0.00000000000E+00 0. -1.
        -15    1    1    2    0    0  0.17031817555E+01  0.39058881579E+01 -0.38565399891E+02  0.38840759366E+02  0.17770000000E+01 0.  1.
         15    1    1    2    0    0  0.13723148671E+02  0.56017008246E+01 -0.40520444166E+02  0.43182959440E+02  0.17770000000E+01 0. -1.
</event>
<event>
 6   1  0.1826851E-04  0.5191154E+03  0.7546771E-02  0.9358025E-01
        -11   -1    0    0    0    0  0.00000000000E+00  0.00000000000E+00  0.50000000000E+03  0.50000000000E+03  0.00000000000E+00 0. -1.
         11   -1    0    0    0    0 -0.00000000000E+00 -0.00000000000E+00 -0.50000000000E+03  0.50000000000E+03  0.00000000000E+00 0.  1.
        -11    1    1    2    0    0  0.32906376876E+02  0.85713545927E+02  0.47203852648E+03  0.48088461410E+03  0.00000000000E+00 0. -1.
         11    1    1    2    0    0  0.15009118309E+02 -0.36970376126E+02 -0.38808011499E+03  0.39012595145E+03  0.00000000000E+00 0.  1.
        -15    1    1    2    0    0 -0.72659412189E+01  0.18078022967E+02 -0.14241988985E+02  0.24199189974E+02  0.17770000000E+01 0. -1.
         15    1    1    2    0    0 -0.40649553966E+02 -0.66821192768E+02 -0.69716422511E+02  0.10479024448E+03  0.17770000000E+01 0.  1.
</event>
<event>
 6   1  0.1826851E-04  0.5144800E+03  0.7546771E-02  0.9367980E-01
        -11   -1    0    0    0    0  0.00000000000E+00  0.00000000000E+00  0.50000000000E+03  0.50000000000E+03  0.00000000000E+00 0. -1.
         11   -1    0    0    0    0 -0.00000000000E+00 -0.00000000000E+00 -0.50000000000E+03  0.50000000000E+03  0.00000000000E+00 0.  1.
        -11    1    1    2    0    0 -0.29615633057E+02  0.90575635628E+01  0.48453129904E+03  0.48552003556E+03  0.00000000000E+00 0. -1.
         11    1    1    2    0    0 -0.42018611161E+01  0.11373910117E+02 -0.45904791024E+03  0.45920801971E+03  0.00000000000E+00 0.  1.
        -15    1    1    2    0    0  0.25582584903E+02 -0.26120308485E+02 -0.12281739369E+02  0.38610076620E+02  0.17770000000E+01 0. -1.
         15    1    1    2    0    0  0.82349092702E+01  0.56888348045E+01 -0.13201649430E+02  0.16661868106E+02  0.17770000000E+01 0.  1.
</event>
<event>
 6   1  0.1826851E-04  0.5039213E+03  0.7546771E-02  0.9391078E-01
        -11   -1    0    0    0    0  0.00000000000E+00  0.00000000000E+00  0.50000000000E+03  0.50000000000E+03  0.00000000000E+00 0.  1.
         11   -1    0    0    0    0 -0.00000000000E+00 -0.00000000000E+00 -0.50000000000E+03  0.50000000000E+03  0.00000000000E+00 0.  1.
        -11    1    1    2    0    0 -0.43442198223E+01 -0.22694135942E+02  0.32068590281E+03  0.32151725352E+03  0.00000000000E+00 0.  1.
         11    1    1    2    0    0 -0.13033540254E+02  0.14648478088E+02 -0.49569109078E+03  0.49607873221E+03  0.00000000000E+00 0.  1.
        -15    1    1    2    0    0 -0.19937184939E+01  0.15101177182E+02  0.14583789266E+03  0.14664197602E+03  0.17770000000E+01 0.  1.
         15    1    1    2    0    0  0.19371478570E+02 -0.70555193288E+01  0.29167295305E+02  0.35762038244E+02  0.17770000000E+01 0. -1.
</event>
<event>
 6   1  0.1826851E-04  0.5078697E+03  0.7546771E-02  0.9382371E-01
        -11   -1    0    0    0    0  0.00000000000E+00  0.00000000000E+00  0.50000000000E+03  0.50000000000E+03  0.00000000000E+00 0. -1.
         11   -1    0    0    0    0 -0.00000000000E+00 -0.00000000000E+00 -0.50000000000E+03  0.50000000000E+03  0.00000000000E+00 0.  1.
        -11    1    1    2    0    0  0.58449112711E+01 -0.35998280710E+02  0.35094574283E+02  0.50612926669E+02  0.00000000000E+00 0. -1.
         11    1    1    2    0    0 -0.17304964993E+02  0.16129488499E+02 -0.49156135442E+03  0.49213025447E+03  0.00000000000E+00 0.  1.
        -15    1    1    2    0    0  0.12381186035E+02  0.12058799145E+02  0.23406421512E+03  0.23470816546E+03  0.17770000000E+01 0. -1.
         15    1    1    2    0    0 -0.92113231294E+00  0.78099930653E+01  0.22240256501E+03  0.22254865340E+03  0.17770000000E+01 0.  1.
</event>
<event>
 6   1  0.1826851E-04  0.5006052E+03  0.7546771E-02  0.9398456E-01
        -11   -1    0    0    0    0  0.00000000000E+00  0.00000000000E+00  0.50000000000E+03  0.50000000000E+03  0.00000000000E+00 0.  1.
         11   -1    0    0    0    0 -0.00000000000E+00 -0.00000000000E+00 -0.50000000000E+03  0.50000000000E+03  0.00000000000E+00 0. -1.
        -11    1    1    2    0    0 -0.12862673007E+02  0.22362536656E+01  0.12586860667E+03  0.12654388699E+03  0.00000000000E+00 0.  1.
         11    1    1    2    0    0  0.10309853172E+02  0.18246616311E+01 -0.49928498677E+03  0.49939475416E+03  0.00000000000E+00 0. -1.
        -15    1    1    2    0    0  0.11314829504E+02 -0.58159583833E+01  0.21951513309E+03  0.21989065948E+03  0.17770000000E+01 0. -1.
         15    1    1    2    0    0 -0.87620096686E+01  0.17550430865E+01  0.15390124700E+03  0.15417069938E+03  0.17770000000E+01 0.  1.
</event>
<event>
 6   1  0.1826851E-04  0.5005449E+03  0.7546771E-02  0.9398591E-01
        -11   -1    0    0    0    0  0.00000000000E+00  0.00000000000E+00  0.50000000000E+03  0.50000000000E+03  0.00000000000E+00 0. -1.
         11   -1    0    0    0    0 -0.00000000000E+00 -0.00000000000E+00 -0.50000000000E+03  0.50000000000E+03  0.00000000000E+00 0. -1.
        -11    1    1    2    0    0  0.87618519192E+01 -0.25890660135E+02  0.49870667300E+03  0.49945514515E+03  0.00000000000E+00 0. -1.
         11    1    1    2    0    0 -0.99091304335E+01  0.31007266112E+02 -0.31806542600E+03  0.31972684691E+03  0.00000000000E+00 0. -1.
        -15    1    1    2    0    0  0.27143458097E+01 -0.17429076765E+01 -0.10492660993E+03  0.10499122155E+03  0.17770000000E+01 0.  1.
         15    1    1    2    0    0 -0.15670672954E+01 -0.33736983005E+01 -0.75714637060E+02  0.75826786390E+02  0.17770000000E+01 0. -1.
</event>
<event>
 6   1  0.1826851E-04  0.5015652E+03  0.7546771E-02  0.9396314E-01
        -11   -1    0    0    0    0  0.00000000000E+00  0.00000000000E+00  0.50000000000E+03  0.50000000000E+03  0.00000000000E+00 0.  1.
         11   -1    0    0    0    0 -0.00000000000E+00 -0.00000000000E+00 -0.50000000000E+03  0.50000000000E+03  0.00000000000E+00 0. -1.
        -11    1    1    2    0    0 -0.67165218619E+01  0.30090670308E+01  0.47116815508E+03  0.47122563227E+03  0.00000000000E+00 0.  1.
         11    1    1    2    0    0 -0.32127601331E+01 -0.69071146819E+01 -0.49837659116E+03  0.49843480685E+03  0.00000000000E+00 0. -1.
        -15    1    1    2    0    0  0.51808702436E+01  0.56190342987E+01  0.13385826970E+02  0.15516219114E+02  0.17770000000E+01 0.  1.
         15    1    1    2    0    0  0.47484117514E+01 -0.17209866476E+01  0.13822609120E+02  0.14823341765E+02  0.17770000000E+01 0. -1.
</event>
<event>
 6   1  0.1826851E-04  0.5074557E+03  0.7546771E-02  0.9383280E-01
        -11   -1    0    0    0    0  0.00000000000E+00  0.00000000000E+00  0.50000000000E+03  0.50000000000E+03  0.00000000000E+00 0.  1.
         11   -1    0    0    0    0 -0.00000000000E+00 -0.00000000000E+00 -0.50000000000E+03  0.50000000000E+03  0.00000000000E+00 0.  1.
        -11    1    1    2    0    0  0.28571435765E+01 -0.34644198102E+02  0.49131612601E+03  0.49254433243E+03  0.00000000000E+00 0.  1.
         11    1    1    2    0    0  0.72459001817E+01 -0.82228379696E+01 -0.42701189014E+03  0.42715251662E+03  0.00000000000E+00 0.  1.
        -15    1    1    2    0    0 -0.14810252294E+02  0.23537780971E+02 -0.33288091560E+02  0.43412273320E+02  0.17770000000E+01 0.  1.
         15    1    1    2    0    0  0.47072085359E+01  0.19329255100E+02 -0.31016144318E+02  0.36890877630E+02  0.17770000000E+01 0. -1.
</event>
<event>
 6   1  0.1826851E-04  0.5023739E+03  0.7546771E-02  0.9394514E-01
        -11   -1    0    0    0    0  0.00000000000E+00  0.00000000000E+00  0.50000000000E+03  0.50000000000E+03  0.00000000000E+00 0.  1.
         11   -1    0    0    0    0 -0.00000000000E+00 -0.00000000000E+00 -0.50000000000E+03  0.50000000000E+03  0.00000000000E+00 0. -1.
        -11    1    1    2    0    0 -0.82469858899E+01  0.86599951933E+02  0.31789655476E+03  0.32958425930E+03  0.00000000000E+00 0.  1.
         11    1    1    2    0    0  0.12783559559E+02 -0.83516424574E+02 -0.49040123227E+03  0.49762614600E+03  0.00000000000E+00 0. -1.
        -15    1    1    2    0    0 -0.45894930570E+01  0.13810983923E+01  0.87407915465E+02  0.87557251522E+02  0.17770000000E+01 0. -1.
         15    1    1    2    0    0  0.52919388401E-01 -0.44646257510E+01  0.85096762048E+02  0.85232343178E+02  0.17770000000E+01 0.  1.
</event>
<event>
 6   1  0.1826851E-04  0.5066884E+03  0.7546771E-02  0.9384967E-01
        -11   -1    0    0    0    0  0.00000000000E+00  0.00000000000E+00  0.50000000000E+03  0.50000000000E+03  0.00000000000E+00 0.  1.
         11   -1    0    0    0    0 -0.00000000000E+00 -0.00000000000E+00 -0.50000000000E+03  0.50000000000E+03  0.00000000000E+00 0.  1.
        -11    1    1    2    0    0 -0.29332462139E+02  0.73835659293E+01  0.49238339250E+03  0.49331158064E+03  0.00000000000E+00 0.  1.
         11    1    1    2    0    0  0.87445667597E+01 -0.13328409834E+02 -0.47626863259E+03  0.47653533378E+03  0.00000000000E+00 0.  1.
        -15    1    1    2    0    0  0.24418655901E+01  0.51155492971E+01 -0.85149579427E+01  0.10382378819E+02  0.17770000000E+01 0. -1.
         15    1    1    2    0    0  0.18146029789E+02  0.82929460760E+00 -0.75998019706E+01  0.19770706757E+02  0.17770000000E+01 0.  1.
</event>
<event>
 6   1  0.1826851E-04  0.5021034E+03  0.7546771E-02  0.9395116E-01
        -11   -1    0    0    0    0  0.00000000000E+00  0.00000000000E+00  0.50000000000E+03  0.50000000000E+03  0.00000000000E+00 0.  1.
         11   -1    0    0    0    0 -0.00000000000E+00 -0.00000000000E+00 -0.50000000000E+03  0.50000000000E+03  0.00000000000E+00 0. -1.
        -11    1    1    2    0    0 -0.90606496312E+01  0.76973795752E+01  0.43863047614E+03  0.43879156740E+03  0.00000000000E+00 0.  1.
         11    1    1    2    0    0  0.72486696316E+01 -0.32961405860E+01 -0.49783294172E+03  0.49789662141E+03  0.00000000000E+00 0. -1.
        -15    1    1    2    0    0  0.99382435913E+01 -0.51385292548E+01  0.48118850713E+02  0.49434347285E+02  0.17770000000E+01 0.  1.
         15    1    1    2    0    0 -0.81262635917E+01  0.73729026557E+00  0.11083614863E+02  0.13877463901E+02  0.17770000000E+01 0. -1.
</event>
<event>
 6   1  0.1826851E-04  0.5023805E+03  0.7546771E-02  0.9394499E-01
        -11   -1    0    0    0    0  0.00000000000E+00  0.00000000000E+00  0.50000000000E+03  0.50000000000E+03  0.00000000000E+00 0.  1.
         11   -1    0    0    0    0 -0.00000000000E+00 -0.00000000000E+00 -0.50000000000E+03  0.50000000000E+03  0.00000000000E+00 0.  1.
        -11    1    1    2    0    0  0.30182760902E+01 -0.11409582762E+02  0.49747951154E+03  0.49761948612E+03  0.00000000000E+00 0.  1.
         11    1    1    2    0    0 -0.74627108406E+01  0.13114264907E+01 -0.47362919777E+03  0.47368980238E+03  0.00000000000E+00 0.  1.
        -15    1    1    2    0    0  0.48658257649E+01 -0.30099330906E+00 -0.58267434985E+01  0.78022769845E+01  0.17770000000E+01 0.  1.
         15    1    1    2    0    0 -0.42139101438E+00  0.10399149580E+02 -0.18023570266E+02  0.20888434516E+02  0.17770000000E+01 0. -1.
</event>
<event>
 6   1  0.1826851E-04  0.5034535E+03  0.7546771E-02  0.9392115E-01
        -11   -1    0    0    0    0  0.00000000000E+00  0.00000000000E+00  0.50000000000E+03  0.50000000000E+03  0.00000000000E+00 0. -1.
         11   -1    0    0    0    0 -0.00000000000E+00 -0.00000000000E+00 -0.50000000000E+03  0.50000000000E+03  0.00000000000E+00 0. -1.
        -11    1    1    2    0    0 -0.30916009679E+02  0.11580995184E+01  0.25574198608E+03  0.25760649117E+03  0.00000000000E+00 0. -1.
         11    1    1    2    0    0  0.22579665566E+02 -0.11296729179E+02 -0.49590418471E+03  0.49654649107E+03  0.00000000000E+00 0. -1.
        -15    1    1    2    0    0  0.17535053751E+02  0.31044099571E+01  0.22889211311E+03  0.22959066323E+03  0.17770000000E+01 0.  1.
         15    1    1    2    0    0 -0.91987096381E+01  0.70342197034E+01  0.11270085513E+02  0.16256354521E+02  0.17770000000E+01 0. -1.
</event>
<event>
 6   1  0.1826851E-04  0.5044730E+03  0.7546771E-02  0.9389856E-01
        -11   -1    0    0    0    0  0.00000000000E+00  0.00000000000E+00  0.50000000000E+03  0.50000000000E+03  0.00000000000E+00 0.  1.
         11   -1    0    0    0    0 -0.00000000000E+00 -0.00000000000E+00 -0.50000000000E+03  0.50000000000E+03  0.00000000000E+00 0. -1.
        -11    1    1    2    0    0 -0.10727518137E+02 -0.17913294423E+02  0.19415616752E+02  0.28511961285E+02  0.00000000000E+00 0.  1.
         11    1    1    2    0    0  0.60419791152E+01  0.13451618039E+02 -0.49530757130E+03  0.49552703431E+03  0.00000000000E+00 0. -1.
        -15    1    1    2    0    0  0.44128890336E+01  0.28089711320E+01  0.36764662495E+03  0.36768813209E+03  0.17770000000E+01 0.  1.
         15    1    1    2    0    0  0.27264998825E+00  0.16527052523E+01  0.10824532960E+03  0.10827287232E+03  0.17770000000E+01 0.  1.
</event>
<event>
 6   1  0.1826851E-04  0.5004823E+03  0.7546771E-02  0.9398731E-01
        -11   -1    0    0    0    0  0.00000000000E+00  0.00000000000E+00  0.50000000000E+03  0.50000000000E+03  0.00000000000E+00 0. -1.
         11   -1    0    0    0    0 -0.00000000000E+00 -0.00000000000E+00 -0.50000000000E+03  0.50000000000E+03  0.00000000000E+00 0. -1.
        -11    1    1    2    0    0 -0.34062689728E+01 -0.73730598545E+01  0.45136717598E+03  0.45144024215E+03  0.00000000000E+00 0. -1.
         11    1    1    2    0    0 -0.25045626472E+01  0.63711096641E+01 -0.49947077052E+03  0.49951768184E+03  0.00000000000E+00 0. -1.
        -15    1    1    2    0    0  0.46358045785E+00 -0.22751938811E+01  0.16403656257E+02  0.16662205185E+02  0.17770000000E+01 0. -1.
         15    1    1    2    0    0  0.54472511621E+01  0.32771440715E+01  0.31699938281E+02  0.32379870823E+02  0.17770000000E+01 0.  1.
</event>
<event>
 6   1  0.1826851E-04  0.5000606E+03  0.7546771E-02  0.9399674E-01
        -11   -1    0    0    0    0  0.00000000000E+00  0.00000000000E+00  0.50000000000E+03  0.50000000000E+03  0.00000000000E+00 0. -1.
         11   -1    0    0    0    0 -0.00000000000E+00 -0.00000000000E+00 -0.50000000000E+03  0.50000000000E+03  0.00000000000E+00 0. -1.
        -11    1    1    2    0    0 -0.78106633702E+01  0.12921717217E+01  0.19529128125E+03  0.19545168380E+03  0.00000000000E+00 0. -1.
         11    1    1    2    0    0  0.13586439225E+02  0.81571408840E+00 -0.49975407151E+03  0.49993938503E+03  0.00000000000E+00 0. -1.
        -15    1    1    2    0    0 -0.66105412649E+01 -0.26663057408E+01  0.22482188929E+03  0.22494187711E+03  0.17770000000E+01 0. -1.
         15    1    1    2    0    0  0.83476541003E+00  0.55841993073E+00  0.79640900970E+02  0.79667054058E+02  0.17770000000E+01 0. -1.
</event>
<event>
 6   1  0.1826851E-04  0.5020221E+03  0.7546771E-02  0.9395296E-01
        -11   -1    0    0    0    0  0.00000000000E+00  0.00000000000E+00  0.50000000000E+03  0.50000000000E+03  0.00000000000E+00 0. -1.
         11   -1    0    0    0    0 -0.00000000000E+00 -0.00000000000E+00 -0.50000000000E+03  0.50000000000E+03  0.00000000000E+00 0. -1.
        -11    1    1    2    0    0  0.14529899059E+01  0.11674046841E+02 -0.94275954503E+01  0.15075612933E+02  0.00000000000E+00 0. -1.
         11    1    1    2    0    0 -0.82366362392E+01  0.10103990692E+01 -0.48687575539E+03  0.48694646961E+03  0.00000000000E+00 0. -1.
        -15    1    1    2    0    0  0.19294811002E+02  0.39409565848E+01  0.22022551112E+03  0.22111140709E+03  0.17770000000E+01 0.  1.
         15    1    1    2    0    0 -0.12511164669E+02 -0.16625402495E+02  0.27607783972E+03  0.27686651036E+03  0.17770000000E+01 0. -1.
</event>
<event>
 6   1  0.1826851E-04  0.5008099E+03  0.7546771E-02  0.9397999E-01
        -11   -1    0    0    0    0  0.00000000000E+00  0.00000000000E+00  0.50000000000E+03  0.50000000000E+03  0.00000000000E+00 0.  1.
         11   -1    0    0    0    0 -0.00000000000E+00 -0.00000000000E+00 -0.50000000000E+03  0.50000000000E+03  0.00000000000E+00 0.  1.
        -11    1    1    2    0    0  0.69275005493E+01  0.16411695694E+02  0.49887212114E+03  0.49919007129E+03  0.00000000000E+00 0.  1.
         11    1    1    2    0    0 -0.90003179344E+01  0.61000737137E-01 -0.25528557497E+03  0.25544419005E+03  0.00000000000E+00 0.  1.
        -15    1    1    2    0    0  0.10660477249E+02 -0.97958603188E+01 -0.19499512831E+03  0.19553992546E+03  0.17770000000E+01 0.  1.
         15    1    1    2    0    0 -0.85876598637E+01 -0.66768361127E+01 -0.48591417861E+02  0.49825813201E+02  0.17770000000E+01 0. -1.
</event>
<event>
 6   1  0.1826851E-04  0.5013098E+03  0.7546771E-02  0.9396884E-01
        -11   -1    0    0    0    0  0.00000000000E+00  0.00000000000E+00  0.50000000000E+03  0.50000000000E+03  0.00000000000E+00 0. -1.
         11   -1    0    0    0    0 -0.00000000000E+00 -0.00000000000E+00 -0.50000000000E+03  0.50000000000E+03  0.00000000000E+00 0. -1.
        -11    1    1    2    0    0 -0.19425943133E+02  0.23426932654E+01  0.49830618639E+03  0.49869019528E+03  0.00000000000E+00 0. -1.
         11    1    1    2    0    0  0.34673644818E+01 -0.36175716688E+01 -0.35618235684E+03  0.35621760311E+03  0.00000000000E+00 0. -1.
        -15    1    1    2    0    0 -0.45162626165E+01  0.63815862257E+01 -0.37901403650E+02  0.38740100651E+02  0.17770000000E+01 0.  1.
         15    1    1    2    0    0  0.20474841267E+02 -0.51067078222E+01 -0.10422242590E+03  0.10635210096E+03  0.17770000000E+01 0. -1.
</event>
<event>
 6   1  0.1826851E-04  0.5004415E+03  0.7546771E-02  0.9398822E-01
        -11   -1    0    0    0    0  0.00000000000E+00  0.00000000000E+00  0.50000000000E+03  0.50000000000E+03  0.00000000000E+00 0.  1.
         11   -1    0    0    0    0 -0.00000000000E+00 -0.00000000000E+00 -0.50000000000E+03  0.50000000000E+03  0.00000000000E+00 0.  1.
        -11    1    1    2    0    0  0.99018935385E-01 -0.64484434865E+01  0.28098819820E+03  0.28106219909E+03  0.00000000000E+00 0.  1.
         11    1    1    2    0    0  0.12674694284E+02  0.38725982664E+01 -0.49938264499E+03  0.49955847607E+03  0.00000000000E+00 0.  1.
        -15    1    1    2    0    0 -0.13561810651E+02 -0.21403122741E+01  0.19187093353E+03  0.19236973907E+03  0.17770000000E+01 0.  1.
         15    1    1    2    0    0  0.78809743118E+00  0.47161574941E+01  0.26523513261E+02  0.27009585775E+02  0.17770000000E+01 0. -1.
</event>
<event>
 6   1  0.1826851E-04  0.5008705E+03  0.7546771E-02  0.9397864E-01
        -11   -1    0    0    0    0  0.00000000000E+00  0.00000000000E+00  0.50000000000E+03  0.50000000000E+03  0.00000000000E+00 0. -1.
         11   -1    0    0    0    0 -0.00000000000E+00 -0.00000000000E+00 -0.50000000000E+03  0.50000000000E+03  0.00000000000E+00 0.  1.
        -11    1    1    2    0    0  0.79598830955E+01 -0.76800228612E+00  0.49906547871E+03  0.49912954391E+03  0.00000000000E+00 0. -1.
         11    1    1    2    0    0 -0.44026010260E+01  0.47093024629E+01 -0.47742818813E+03  0.47747171146E+03  0.00000000000E+00 0.  1.
        -15    1    1    2    0    0 -0.38347509295E+01 -0.17786646462E+01 -0.62232740445E+01  0.77301896127E+01  0.17770000000E+01 0. -1.
         15    1    1    2    0    0  0.27746885998E+00 -0.21626355306E+01 -0.15414016541E+02  0.15668555017E+02  0.17770000000E+01 0.  1.
</event>
<event>
 6   1  0.1826851E-04  0.5007428E+03  0.7546771E-02  0.9398149E-01
        -11   -1    0    0    0    0  0.00000000000E+00  0.00000000000E+00  0.50000000000E+03  0.50000000000E+03  0.00000000000E+00 0.  1.
         11   -1    0    0    0    0 -0.00000000000E+00 -0.00000000000E+00 -0.50000000000E+03  0.50000000000E+03  0.00000000000E+00 0. -1.
        -11    1    1    2    0    0  0.43055731730E+01 -0.14774364246E+02  0.32278882867E+03  0.32315545441E+03  0.00000000000E+00 0.  1.
         11    1    1    2    0    0 -0.96479479138E+01 -0.32142948346E+01 -0.49915359687E+03  0.49925717607E+03  0.00000000000E+00 0. -1.
        -15    1    1    2    0    0  0.87981609958E+00  0.13706314235E+02  0.13723183718E+03  0.13792886569E+03  0.17770000000E+01 0.  1.
         15    1    1    2    0    0  0.44625586412E+01  0.42823448464E+01  0.39132931011E+02  0.39658503823E+02  0.17770000000E+01 0. -1.
</event>
<event>
 6   1  0.1826851E-04  0.5012654E+03  0.7546771E-02  0.9396983E-01
        -11   -1    0    0    0    0  0.00000000000E+00  0.00000000000E+00  0.50000000000E+03  0.50000000000E+03  0.00000000000E+00 0.  1.
         11   -1    0    0    0    0 -0.00000000000E+00 -0.00000000000E+00 -0.50000000000E+03  0.50000000000E+03  0.00000000000E+00 0.  1.
        -11    1    1    2    0    0 -0.49009072821E+01 -0.67213330838E+01  0.49866522768E+03  0.49873460328E+03  0.00000000000E+00 0.  1.
         11    1    1    2    0    0  0.36630991760E+01 -0.81413763666E+01 -0.44315579065E+03  0.44324570511E+03  0.00000000000E+00 0.  1.
        -15    1    1    2    0    0 -0.69324444910E-01  0.14319030156E+01 -0.17469875014E+02  0.17618439606E+02  0.17770000000E+01 0. -1.
         15    1    1    2    0    0  0.13071325511E+01  0.13430806435E+02 -0.38039562011E+02  0.40401252010E+02  0.17770000000E+01 0.  1.
</event>
<event>
 6   1  0.1826851E-04  0.5001178E+03  0.7546771E-02  0.9399546E-01
        -11   -1    0    0    0    0  0.00000000000E+00  0.00000000000E+00  0.50000000000E+03  0.50000000000E+03  0.00000000000E+00 0.  1.
         11   -1    0    0    0    0 -0.00000000000E+00 -0.00000000000E+00 -0.50000000000E+03  0.50000000000E+03  0.00000000000E+00 0.  1.
        -11    1    1    2    0    0  0.82969982879E+01  0.10895887967E+01  0.49981211629E+03  0.49988216509E+03  0.00000000000E+00 0.  1.
         11    1    1    2    0    0 -0.82955750120E+01 -0.29122159211E+00 -0.38445099659E+03  0.38454059624E+03  0.00000000000E+00 0.  1.
        -15    1    1    2    0    0  0.22884308850E+01 -0.11446969174E+01 -0.89088106619E+02  0.89142558393E+02  0.17770000000E+01 0.  1.
         15    1    1    2    0    0 -0.22898541609E+01  0.34632971280E+00 -0.26273013077E+02  0.26434680280E+02  0.17770000000E+01 0. -1.
</event>
<event>
 6   1  0.1826851E-04  0.5081859E+03  0.7546771E-02  0.9381677E-01
        -11   -1    0    0    0    0  0.00000000000E+00  0.00000000000E+00  0.50000000000E+03  0.50000000000E+03  0.00000000000E+00 0. -1.
         11   -1    0    0    0    0 -0.00000000000E+00 -0.00000000000E+00 -0.50000000000E+03  0.50000000000E+03  0.00000000000E+00 0.  1.
        -11    1    1    2    0    0 -0.17661766490E+02 -0.10917739810E+02  0.47968027075E+03  0.48012945877E+03  0.00000000000E+00 0. -1.
         11    1    1    2    0    0  0.67953238149E+01 -0.39530321520E+01 -0.49175130890E+03  0.49181414446E+03  0.00000000000E+00 0.  1.
        -15    1    1    2    0    0 -0.46934404818E+00  0.13607785502E+02  0.56605017822E+01  0.14852310242E+02  0.17770000000E+01 0.  1.
         15    1    1    2    0    0  0.11335786724E+02  0.12629864597E+01  0.64105363657E+01  0.13204086524E+02  0.17770000000E+01 0. -1.
</event>
<event>
 6   1  0.1826851E-04  0.5004343E+03  0.7546771E-02  0.9398838E-01
        -11   -1    0    0    0    0  0.00000000000E+00  0.00000000000E+00  0.50000000000E+03  0.50000000000E+03  0.00000000000E+00 0. -1.
         11   -1    0    0    0    0 -0.00000000000E+00 -0.00000000000E+00 -0.50000000000E+03  0.50000000000E+03  0.00000000000E+00 0.  1.
        -11    1    1    2    0    0  0.50149661672E+01  0.24687736433E+02  0.49893008830E+03  0.49956567859E+03  0.00000000000E+00 0. -1.
         11    1    1    2    0    0  0.33107428930E+01 -0.73697641070E+00 -0.70307829737E+02  0.70389594935E+02  0.00000000000E+00 0.  1.
        -15    1    1    2    0    0  0.66599037334E+00 -0.23975135785E+02 -0.24055390568E+03  0.24175315913E+03  0.17770000000E+01 0.  1.
         15    1    1    2    0    0 -0.89916994335E+01  0.24375763087E-01 -0.18806835287E+03  0.18829156735E+03  0.17770000000E+01 0. -1.
</event>
<event>
 6   1  0.1826851E-04  0.5004288E+03  0.7546771E-02  0.9398851E-01
        -11   -1    0    0    0    0  0.00000000000E+00  0.00000000000E+00  0.50000000000E+03  0.50000000000E+03  0.00000000000E+00 0. -1.
         11   -1    0    0    0    0 -0.00000000000E+00 -0.00000000000E+00 -0.50000000000E+03  0.50000000000E+03  0.00000000000E+00 0.  1.
        -11    1    1    2    0    0  0.67637533865E+01 -0.93414764850E+01  0.24792691761E+03  0.24819502014E+03  0.00000000000E+00 0. -1.
         11    1    1    2    0    0  0.28420777357E+00  0.97262784848E+01 -0.49947638833E+03  0.49957115986E+03  0.00000000000E+00 0.  1.
        -15    1    1    2    0    0 -0.63900646486E+00 -0.19036679337E+01  0.58017148564E+01  0.63913930515E+01  0.17770000000E+01 0.  1.
         15    1    1    2    0    0 -0.64089546952E+01  0.15188659339E+01  0.24574775585E+03  0.24584242695E+03  0.17770000000E+01 0. -1.
</event>
<event>
 6   1  0.1826851E-04  0.5010262E+03  0.7546771E-02  0.9397516E-01
        -11   -1    0    0    0    0  0.00000000000E+00  0.00000000000E+00  0.50000000000E+03  0.50000000000E+03  0.00000000000E+00 0.  1.
         11   -1    0    0    0    0 -0.00000000000E+00 -0.00000000000E+00 -0.50000000000E+03  0.50000000000E+03  0.00000000000E+00 0. -1.
        -11    1    1    2    0    0 -0.12249174791E+02 -0.43843919570E+01  0.49880413100E+03  0.49897377314E+03  0.00000000000E+00 0.  1.
         11    1    1    2    0    0 -0.62251950191E+01  0.96685735291E+01 -0.27434981330E+03  0.27459070346E+03  0.00000000000E+00 0. -1.
        -15    1    1    2    0    0  0.22420822286E+02 -0.39139295760E+01 -0.21109616312E+03  0.21232701178E+03  0.17770000000E+01 0. -1.
         15    1    1    2    0    0 -0.39464524754E+01 -0.13702519961E+01 -0.13358154572E+02  0.14108511624E+02  0.17770000000E+01 0.  1.
</event>
<event>
 6   1  0.1826851E-04  0.5336020E+03  0.7546771E-02  0.9327610E-01
        -11   -1    0    0    0    0  0.00000000000E+00  0.00000000000E+00  0.50000000000E+03  0.50000000000E+03  0.00000000000E+00 0. -1.
         11   -1    0    0    0    0 -0.00000000000E+00 -0.00000000000E+00 -0.50000000000E+03  0.50000000000E+03  0.00000000000E+00 0. -1.
        -11    1    1    2    0    0 -0.17019649149E+02  0.36844507167E+02  0.35757135051E+03  0.35986727675E+03  0.00000000000E+00 0. -1.
         11    1    1    2    0    0  0.16280779524E+02  0.37984207203E+01 -0.46609828999E+03  0.46639801427E+03  0.00000000000E+00 0. -1.
        -15    1    1    2    0    0 -0.15798917008E+02  0.14248830758E+01 -0.26719028108E+02  0.31123949982E+02  0.17770000000E+01 0.  1.
         15    1    1    2    0    0  0.16537786633E+02 -0.42067810963E+02  0.13524596759E+03  0.14261075900E+03  0.17770000000E+01 0.  1.
</event>
<event>
 6   1  0.1826851E-04  0.5002034E+03  0.7546771E-02  0.9399355E-01
        -11   -1    0    0    0    0  0.00000000000E+00  0.00000000000E+00  0.50000000000E+03  0.50000000000E+03  0.00000000000E+00 0. -1.
         11   -1    0    0    0    0 -0.00000000000E+00 -0.00000000000E+00 -0.50000000000E+03  0.50000000000E+03  0.00000000000E+00 0.  1.
        -11    1    1    2    0    0 -0.35615624686E+01  0.76988882295E+01  0.11090783800E+03  0.11123176766E+03  0.00000000000E+00 0. -1.
         11    1    1    2    0    0  0.77184154514E+01 -0.21667727846E+01 -0.49973227479E+03  0.49979657393E+03  0.00000000000E+00 0.  1.
        -15    1    1    2    0    0 -0.50777246268E+01 -0.17158159817E+01  0.14628427879E+03  0.14639322137E+03  0.17770000000E+01 0.  1.
         15    1    1    2    0    0  0.92087164411E+00 -0.38162994632E+01  0.24254015800E+03  0.24257843704E+03  0.17770000000E+01 0. -1.
</event>
<event>
 6   1  0.1826851E-04  0.5003564E+03  0.7546771E-02  0.9399013E-01
        -11   -1    0    0    0    0  0.00000000000E+00  0.00000000000E+00  0.50000000000E+03  0.50000000000E+03  0.00000000000E+00 0. -1.
         11   -1    0    0    0    0 -0.00000000000E+00 -0.00000000000E+00 -0.50000000000E+03  0.50000000000E+03  0.00000000000E+00 0. -1.
        -11    1    1    2    0    0 -0.35817398646E+01 -0.76192520986E+01  0.49957265085E+03  0.49964358831E+03  0.00000000000E+00 0. -1.
         11    1    1    2    0    0  0.18945134147E+01 -0.56718579619E+01 -0.30930854812E+03  0.30936634770E+03  0.00000000000E+00 0. -1.
        -15    1    1    2    0    0  0.46281127216E+01  0.79200416916E+01 -0.14192773988E+03  0.14223497307E+03  0.17770000000E+01 0. -1.
         15    1    1    2    0    0 -0.29408862717E+01  0.53710683689E+01 -0.48336362847E+02  0.48755090912E+02  0.17770000000E+01 0.  1.
</event>
<event>
 6   1  0.1826851E-04  0.5057978E+03  0.7546771E-02  0.9386929E-01
        -11   -1    0    0    0    0  0.00000000000E+00  0.00000000000E+00  0.50000000000E+03  0.50000000000E+03  0.00000000000E+00 0. -1.
         11   -1    0    0    0    0 -0.00000000000E+00 -0.00000000000E+00 -0.50000000000E+03  0.50000000000E+03  0.00000000000E+00 0.  1.
        -11    1    1    2    0    0  0.16613072281E+02 -0.90242236195E+00  0.49392201836E+03  0.49420215373E+03  0.00000000000E+00 0. -1.
         11    1    1    2    0    0  0.26900293281E+01  0.68107034901E+01 -0.42547502842E+03  0.42553803796E+03  0.00000000000E+00 0.  1.
        -15    1    1    2    0    0 -0.92613275664E+01 -0.83382328382E+01 -0.17089349346E+01  0.12703405164E+02  0.17770000000E+01 0.  1.
         15    1    1    2    0    0 -0.10041774043E+02  0.24299517100E+01 -0.66738055000E+02  0.67556403142E+02  0.17770000000E+01 0. -1.
</event>
<event>
 6   1  0.1826851E-04  0.5024178E+03  0.7546771E-02  0.9394416E-01
        -11   -1    0    0    0    0  0.00000000000E+00  0.00000000000E+00  0.50000000000E+03  0.50000000000E+03  0.00000000000E+00 0.  1.
         11   -1    0    0    0    0 -0.00000000000E+00 -0.00000000000E+00 -0.50000000000E+03  0.50000000000E+03  0.00000000000E+00 0. -1.
        -11    1    1    2    0    0  0.70966888543E+01  0.80061079771E+01  0.47403705758E+03  0.47415777197E+03  0.00000000000E+00 0.  1.
         11    1    1    2    0    0 -0.12410093956E+02 -0.62884306922E+01 -0.49738762313E+03  0.49758215647E+03  0.00000000000E+00 0. -1.
        -15    1    1    2    0    0 -0.49684848562E+01 -0.14194126553E+01  0.74449046939E+01  0.92349828887E+01  0.17770000000E+01 0. -1.
         15    1    1    2    0    0  0.10281889958E+02 -0.29826462959E+00  0.15905660854E+02  0.19025088676E+02  0.17770000000E+01 0.  1.
</event>
<event>
 6   1  0.1826851E-04  0.5001803E+03  0.7546771E-02  0.9399406E-01
        -11   -1    0    0    0    0  0.00000000000E+00  0.00000000000E+00  0.50000000000E+03  0.50000000000E+03  0.00000000000E+00 0.  1.
         11   -1    0    0    0    0 -0.00000000000E+00 -0.00000000000E+00 -0.50000000000E+03  0.50000000000E+03  0.00000000000E+00 0. -1.
        -11    1    1    2    0    0 -0.42250559573E+00 -0.46561085268E+01  0.44725016144E+02  0.44968710530E+02  0.00000000000E+00 0.  1.
         11    1    1    2    0    0  0.78629614363E+01  0.32334690201E+01 -0.49974738240E+03  0.49981969519E+03  0.00000000000E+00 0. -1.
        -15    1    1    2    0    0  0.19703611303E+01 -0.11534377707E+01  0.15041305303E+03  0.15044087540E+03  0.17770000000E+01 0.  1.
         15    1    1    2    0    0 -0.94108169709E+01  0.25760772775E+01  0.30460931323E+03  0.30477071888E+03  0.17770000000E+01 0. -1.
</event>
<event>
 6   1  0.1826851E-04  0.5066059E+03  0.7546771E-02  0.9385149E-01
        -11   -1    0    0    0    0  0.00000000000E+00  0.00000000000E+00  0.50000000000E+03  0.50000000000E+03  0.00000000000E+00 0.  1.
         11   -1    0    0    0    0 -0.00000000000E+00 -0.00000000000E+00 -0.50000000000E+03  0.50000000000E+03  0.00000000000E+00 0. -1.
        -11    1    1    2    0    0  0.63379547989E+02 -0.12060138911E+02  0.12997896271E+03  0.14511011267E+03  0.00000000000E+00 0.  1.
         11    1    1    2    0    0 -0.53390669551E+02  0.57803079996E+01 -0.49046281330E+03  0.49339410899E+03  0.00000000000E+00 0. -1.
        -15    1    1    2    0    0 -0.10289512035E+02  0.14453490461E+02  0.19979082381E+03  0.20058491582E+03  0.17770000000E+01 0.  1.
         15    1    1    2    0    0  0.30063359708E+00 -0.81736595499E+01  0.16069302678E+03  0.16091086252E+03  0.17770000000E+01 0. -1.
</event>
<event>
 6   1  0.1826851E-04  0.5027818E+03  0.7546771E-02  0.9393607E-01
        -11   -1    0    0    0    0  0.00000000000E+00  0.00000000000E+00  0.50000000000E+03  0.50000000000E+03  0.00000000000E+00 0. -1.
         11   -1    0    0    0    0 -0.00000000000E+00 -0.00000000000E+00 -0.50000000000E+03  0.50000000000E+03  0.00000000000E+00 0. -1.
        -11    1    1    2    0    0 -0.68096206795E+01 -0.83366073646E+01  0.48410919564E+03  0.48422885422E+03  0.00000000000E+00 0. -1.
         11    1    1    2    0    0  0.81573812972E+01 -0.28312930330E+01 -0.49714326735E+03  0.49721824922E+03  0.00000000000E+00 0. -1.
        -15    1    1    2    0    0  0.78843211733E+00  0.65843460871E+01  0.10685509372E+02  0.12700908556E+02  0.17770000000E+01 0. -1.
         15    1    1    2    0    0 -0.21361927350E+01  0.45835543105E+01  0.23485623377E+01  0.58519880017E+01  0.17770000000E+01 0.  1.
</event>
<event>
 6   1  0.1826851E-04  0.5073270E+03  0.7546771E-02  0.9383563E-01
        -11   -1    0    0    0    0  0.00000000000E+00  0.00000000000E+00  0.50000000000E+03  0.50000000000E+03  0.00000000000E+00 0. -1.
         11   -1    0    0    0    0 -0.00000000000E+00 -0.00000000000E+00 -0.50000000000E+03  0.50000000000E+03  0.00000000000E+00 0.  1.
        -11    1    1    2    0    0 -0.10738064498E+03  0.21868526995E+03  0.31141702813E+03  0.39539147136E+03  0.00000000000E+00 0. -1.
         11    1    1    2    0    0  0.10336535709E+03 -0.23148101105E+03 -0.42244390335E+03  0.49267302240E+03  0.00000000000E+00 0.  1.
        -15    1    1    2    0    0 -0.53422905588E-01  0.41348352524E+01  0.35056787455E+02  0.35344529877E+02  0.17770000000E+01 0.  1.
         15    1    1    2    0    0  0.40687107922E+01  0.86609058391E+01  0.75970087764E+02  0.76590976370E+02  0.17770000000E+01 0. -1.
</event>
<event>
 6   1  0.1826851E-04  0.5013009E+03  0.7546771E-02  0.9396903E-01
        -11   -1    0    0    0    0  0.00000000000E+00  0.00000000000E+00  0.50000000000E+03  0.50000000000E+03  0.00000000000E+00 0.  1.
         11   -1    0    0    0    0 -0.00000000000E+00 -0.00000000000E+00 -0.50000000000E+03  0.50000000000E+03  0.00000000000E+00 0.  1.
        -11    1    1    2    0    0  0.21695399888E+02  0.30468555178E+02  0.36750381310E+03  0.36940232251E+03  0.00000000000E+00 0.  1.
         11    1    1    2    0    0 -0.24356610264E+02 -0.26254562715E+02 -0.49741150802E+03  0.49869906240E+03  0.00000000000E+00 0.  1.
        -15    1    1    2    0    0 -0.74592344407E+01 -0.82953457335E+01  0.79046091335E+02  0.79849203024E+02  0.17770000000E+01 0. -1.
         15    1    1    2    0    0  0.10120444817E+02  0.40813532702E+01  0.50861603584E+02  0.52049412061E+02  0.17770000000E+01 0.  1.
</event>
<event>
 6   1  0.1826851E-04  0.4916454E+03  0.7546771E-02  0.9418700E-01
        -11   -1    0    0    0    0  0.00000000000E+00  0.00000000000E+00  0.50000000000E+03  0.50000000000E+03  0.00000000000E+00 0.  1.
         11   -1    0    0    0    0 -0.00000000000E+00 -0.00000000000E+00 -0.50000000000E+03  0.50000000000E+03  0.00000000000E+00 0. -1.
        -11    1    1    2    0    0  0.17762111642E+02 -0.33354655673E+01  0.49156366604E+03  0.49189577729E+03  0.00000000000E+00 0.  1.
         11    1    1    2    0    0 -0.10986766417E+02  0.36519115465E+00 -0.49130000640E+03  0.49142297331E+03  0.00000000000E+00 0. -1.
        -15    1    1    2    0    0  0.23941471004E+01  0.29074100242E+01 -0.47519532805E+01  0.63185253317E+01  0.17770000000E+01 0.  1.
         15    1    1    2    0    0 -0.91694923253E+01  0.62864388385E-01  0.44882936425E+01  0.10362724075E+02  0.17770000000E+01 0. -1.
</event>
<event>
 6   1  0.1826851E-04  0.5048802E+03  0.7546771E-02  0.9388956E-01
        -11   -1    0    0    0    0  0.00000000000E+00  0.00000000000E+00  0.50000000000E+03  0.50000000000E+03  0.00000000000E+00 0. -1.
         11   -1    0    0    0    0 -0.00000000000E+00 -0.00000000000E+00 -0.50000000000E+03  0.50000000000E+03  0.00000000000E+00 0. -1.
        -11    1    1    2    0    0 -0.13318038519E+02 -0.92692758067E+01  0.44753952739E+03  0.44783358315E+03  0.00000000000E+00 0. -1.
         11    1    1    2    0    0 -0.10407195258E+02  0.83977556667E+01 -0.49493912909E+03  0.49511975675E+03  0.00000000000E+00 0. -1.
        -15    1    1    2    0    0  0.57696833571E+01 -0.37251642272E+01  0.11458585769E+01  0.71858761080E+01  0.17770000000E+01 0.  1.
         15    1    1    2    0    0  0.17955550419E+02  0.45966843671E+01  0.46253743128E+02  0.49860783993E+02  0.17770000000E+01 0. -1.
</event>
<event>
 6   1  0.1826851E-04  0.5001919E+03  0.7546771E-02  0.9399380E-01
        -11   -1    0    0    0    0  0.00000000000E+00  0.00000000000E+00  0.50000000000E+03  0.50000000000E+03  0.00000000000E+00 0. -1.
         11   -1    0    0    0    0 -0.00000000000E+00 -0.00000000000E+00 -0.50000000000E+03  0.50000000000E+03  0.00000000000E+00 0. -1.
        -11    1    1    2    0    0 -0.58049742753E+01 -0.48489773061E+01  0.19138652503E+03  0.19153592946E+03  0.00000000000E+00 0. -1.
         11    1    1    2    0    0  0.97351978573E+01  0.15596784796E+01 -0.49971083486E+03  0.49980808832E+03  0.00000000000E+00 0. -1.
        -15    1    1    2    0    0 -0.56365854518E+01 -0.29933399891E+00  0.59488958116E+02  0.59782560694E+02  0.17770000000E+01 0. -1.
         15    1    1    2    0    0  0.17063618698E+01  0.35886328253E+01  0.24883535171E+03  0.24887342153E+03  0.17770000000E+01 0.  1.
</event>
<event>
 6   1  0.1826851E-04  0.5052934E+03  0.7546771E-02  0.9388043E-01
        -11   -1    0    0    0    0  0.00000000000E+00  0.00000000000E+00  0.50000000000E+03  0.50000000000E+03  0.00000000000E+00 0. -1.
         11   -1    0    0    0    0 -0.00000000000E+00 -0.00000000000E+00 -0.50000000000E+03  0.50000000000E+03  0.00000000000E+00 0.  1.
        -11    1    1    2    0    0 -0.49946142865E+01  0.17306275984E+02  0.46248960179E+03  0.46284023715E+03  0.00000000000E+00 0. -1.
         11    1    1    2    0    0  0.55790962842E+01  0.94388396109E+01 -0.49458503543E+03  0.49470655471E+03  0.00000000000E+00 0.  1.
        -15    1    1    2    0    0  0.20543827834E+01 -0.46837516104E+01  0.76398695976E+01  0.93639390343E+01  0.17770000000E+01 0.  1.
         15    1    1    2    0    0 -0.26388647811E+01 -0.22061363984E+02  0.24455564035E+02  0.33089269098E+02  0.17770000000E+01 0. -1.
</event>
<event>
 6   1  0.1826851E-04  0.5014027E+03  0.7546771E-02  0.9396676E-01
        -11   -1    0    0    0    0  0.00000000000E+00  0.00000000000E+00  0.50000000000E+03  0.50000000000E+03  0.00000000000E+00 0.  1.
         11   -1    0    0    0    0 -0.00000000000E+00 -0.00000000000E+00 -0.50000000000E+03  0.50000000000E+03  0.00000000000E+00 0. -1.
        -11    1    1    2    0    0 -0.15859018460E+01 -0.14443165395E+02  0.30564545889E+03  0.30599063164E+03  0.00000000000E+00 0.  1.
         11    1    1    2    0    0 -0.11276446279E+00 -0.11600039137E+02 -0.49846229476E+03  0.49859726526E+03  0.00000000000E+00 0. -1.
        -15    1    1    2    0    0 -0.72082280678E+01  0.10812126735E+02  0.10554517690E+03  0.10635695902E+03  0.17770000000E+01 0. -1.
         15    1    1    2    0    0  0.89068943765E+01  0.15231077797E+02  0.87271658976E+02  0.89055144083E+02  0.17770000000E+01 0.  1.
</event>
<event>
 6   1  0.1826851E-04  0.5037574E+03  0.7546771E-02  0.9391441E-01
        -11   -1    0    0    0    0  0.00000000000E+00  0.00000000000E+00  0.50000000000E+03  0.50000000000E+03  0.00000000000E+00 0.  1.
         11   -1    0    0    0    0 -0.00000000000E+00 -0.00000000000E+00 -0.50000000000E+03  0.50000000000E+03  0.00000000000E+00 0. -1.
        -11    1    1    2    0    0 -0.14153925258E+02 -0.13514578593E+02  0.39298625114E+03  0.39347321513E+03  0.00000000000E+00 0.  1.
         11    1    1    2    0    0 -0.71970417743E+01 -0.19087104564E+02 -0.49582316407E+03  0.49624260700E+03  0.00000000000E+00 0. -1.
        -15    1    1    2    0    0  0.80475464664E+00  0.35489094178E+01  0.78038325017E+01  0.87920372389E+01  0.17770000000E+01 0. -1.
         15    1    1    2    0    0  0.20546212386E+02  0.29052773739E+02  0.95033080428E+02  0.10149214063E+03  0.17770000000E+01 0.  1.
</event>
<event>
 6   1  0.1826851E-04  0.5025214E+03  0.7546771E-02  0.9394186E-01
        -11   -1    0    0    0    0  0.00000000000E+00  0.00000000000E+00  0.50000000000E+03  0.50000000000E+03  0.00000000000E+00 0. -1.
         11   -1    0    0    0    0 -0.00000000000E+00 -0.00000000000E+00 -0.50000000000E+03  0.50000000000E+03  0.00000000000E+00 0. -1.
        -11    1    1    2    0    0  0.42906652639E+01 -0.82720253310E+01  0.49739133013E+03  0.49747861412E+03  0.00000000000E+00 0. -1.
         11    1    1    2    0    0  0.62177741932E+01 -0.14330157493E+01 -0.47343656194E+03  0.47347955862E+03  0.00000000000E+00 0. -1.
        -15    1    1    2    0    0 -0.16122348134E+01  0.21331282045E+01 -0.11215201677E+02  0.11665676778E+02  0.17770000000E+01 0. -1.
         15    1    1    2    0    0 -0.88962046437E+01  0.75719128757E+01 -0.12739566520E+02  0.17376150488E+02  0.17770000000E+01 0.  1.
</event>
<event>
 6   1  0.1826851E-04  0.5006346E+03  0.7546771E-02  0.9398391E-01
        -11   -1    0    0    0    0  0.00000000000E+00  0.00000000000E+00  0.50000000000E+03  0.50000000000E+03  0.00000000000E+00 0.  1.
         11   -1    0    0    0    0 -0.00000000000E+00 -0.00000000000E+00 -0.50000000000E+03  0.50000000000E+03  0.00000000000E+00 0.  1.
        -11    1    1    2    0    0 -0.11711114424E+02 -0.14095161821E+02  0.14213599838E+03  0.14331247616E+03  0.00000000000E+00 0.  1.
         11    1    1    2    0    0  0.17004134906E+02 -0.34127755254E+00 -0.49907568699E+03  0.49936539569E+03  0.00000000000E+00 0.  1.
        -15    1    1    2    0    0 -0.20864064551E+01  0.23650380693E+01  0.11108544312E+03  0.11114441011E+03  0.17770000000E+01 0. -1.
         15    1    1    2    0    0 -0.32066140263E+01  0.12071401304E+02  0.24585424549E+03  0.24617771804E+03  0.17770000000E+01 0.  1.
</event>
<event>
 6   1  0.1826851E-04  0.5002263E+03  0.7546771E-02  0.9399303E-01
        -11   -1    0    0    0    0  0.00000000000E+00  0.00000000000E+00  0.50000000000E+03  0.50000000000E+03  0.00000000000E+00 0. -1.
         11   -1    0    0    0    0 -0.00000000000E+00 -0.00000000000E+00 -0.50000000000E+03  0.50000000000E+03  0.00000000000E+00 0.  1.
        -11    1    1    2    0    0 -0.56468857603E+01 -0.17859217509E+02  0.49942257803E+03  0.49977369921E+03  0.00000000000E+00 0. -1.
         11    1    1    2    0    0  0.36141060480E+01 -0.12907942917E+01 -0.21857289652E+03  0.21860658500E+03  0.00000000000E+00 0.  1.
        -15    1    1    2    0    0 -0.24445185268E+01  0.51726100116E+01 -0.88763319876E+02  0.88965253046E+02  0.17770000000E+01 0. -1.
         15    1    1    2    0    0  0.44772982391E+01  0.13977401789E+02 -0.19208636164E+03  0.19265446275E+03  0.17770000000E+01 0.  1.
</event>
<event>
 6   1  0.1826851E-04  0.5013234E+03  0.7546771E-02  0.9396853E-01
        -11   -1    0    0    0    0  0.00000000000E+00  0.00000000000E+00  0.50000000000E+03  0.50000000000E+03  0.00000000000E+00 0.  1.
         11   -1    0    0    0    0 -0.00000000000E+00 -0.00000000000E+00 -0.50000000000E+03  0.50000000000E+03  0.00000000000E+00 0. -1.
        -11    1    1    2    0    0  0.48720907430E+01  0.11045289341E+02  0.43125217865E+03  0.43142111361E+03  0.00000000000E+00 0.  1.
         11    1    1    2    0    0 -0.90024786087E+01  0.60373609036E+01 -0.49855875220E+03  0.49867657228E+03  0.00000000000E+00 0. -1.
        -15    1    1    2    0    0  0.40222680660E+01 -0.99939156173E+01  0.48760740040E+02  0.49968234790E+02  0.17770000000E+01 0.  1.
         15    1    1    2    0    0  0.10811979965E+00 -0.70887346270E+01  0.18545833512E+02  0.19934079316E+02  0.17770000000E+01 0. -1.
</event>
<event>
 6   1  0.1826851E-04  0.5021655E+03  0.7546771E-02  0.9394977E-01
        -11   -1    0    0    0    0  0.00000000000E+00  0.00000000000E+00  0.50000000000E+03  0.50000000000E+03  0.00000000000E+00 0. -1.
         11   -1    0    0    0    0 -0.00000000000E+00 -0.00000000000E+00 -0.50000000000E+03  0.50000000000E+03  0.00000000000E+00 0.  1.
        -11    1    1    2    0    0 -0.13843849971E+02 -0.14642728107E+02  0.41825070545E+03  0.41873585263E+03  0.00000000000E+00 0. -1.
         11    1    1    2    0    0 -0.37404427307E+00  0.10130552102E+02 -0.49773128770E+03  0.49783451342E+03  0.00000000000E+00 0.  1.
        -15    1    1    2    0    0 -0.50661610068E+00 -0.42793676190E+01  0.44526814504E+01  0.64462196821E+01  0.17770000000E+01 0.  1.
         15    1    1    2    0    0  0.14724510345E+02  0.87915436240E+01  0.75027900800E+02  0.76983414263E+02  0.17770000000E+01 0. -1.
</event>
<event>
 6   1  0.1826851E-04  0.5001536E+03  0.7546771E-02  0.9399466E-01
        -11   -1    0    0    0    0  0.00000000000E+00  0.00000000000E+00  0.50000000000E+03  0.50000000000E+03  0.00000000000E+00 0. -1.
         11   -1    0    0    0    0 -0.00000000000E+00 -0.00000000000E+00 -0.50000000000E+03  0.50000000000E+03  0.00000000000E+00 0. -1.
        -11    1    1    2    0    0  0.14218213360E+01 -0.13319387597E+02  0.17500128691E+03  0.17551318492E+03  0.00000000000E+00 0. -1.
         11    1    1    2    0    0 -0.57426237429E+01  0.18848468665E+02 -0.49945789369E+03  0.49984640647E+03  0.00000000000E+00 0. -1.
        -15    1    1    2    0    0  0.44675708605E+01 -0.12522575869E+01  0.89264964932E+02  0.89403126521E+02  0.17770000000E+01 0. -1.
         15    1    1    2    0    0 -0.14676845370E+00 -0.42768234810E+01  0.23519164184E+03  0.23523728208E+03  0.17770000000E+01 0.  1.
</event>
<event>
 6   1  0.1826851E-04  0.5011937E+03  0.7546771E-02  0.9397143E-01
        -11   -1    0    0    0    0  0.00000000000E+00  0.00000000000E+00  0.50000000000E+03  0.50000000000E+03  0.00000000000E+00 0. -1.
         11   -1    0    0    0    0 -0.00000000000E+00 -0.00000000000E+00 -0.50000000000E+03  0.50000000000E+03  0.00000000000E+00 0. -1.
        -11    1    1    2    0    0 -0.12795803607E+02 -0.12309527393E+02  0.56129373938E+02  0.58870736985E+02  0.00000000000E+00 0. -1.
         11    1    1    2    0    0  0.11139774739E+02  0.16662881655E+02 -0.49840346037E+03  0.49880633067E+03  0.00000000000E+00 0. -1.
        -15    1    1    2    0    0  0.12987504480E+01 -0.41813389476E+00  0.15300610506E+03  0.15302250652E+03  0.17770000000E+01 0.  1.
         15    1    1    2    0    0  0.35727841925E+00 -0.39352203669E+01  0.28926798137E+03  0.28930042583E+03  0.17770000000E+01 0. -1.
</event>
<event>
 6   1  0.1826851E-04  0.5022970E+03  0.7546771E-02  0.9394685E-01
        -11   -1    0    0    0    0  0.00000000000E+00  0.00000000000E+00  0.50000000000E+03  0.50000000000E+03  0.00000000000E+00 0. -1.
         11   -1    0    0    0    0 -0.00000000000E+00 -0.00000000000E+00 -0.50000000000E+03  0.50000000000E+03  0.00000000000E+00 0.  1.
        -11    1    1    2    0    0 -0.13189033164E+02 -0.21858135538E+02  0.49704787251E+03  0.49770304023E+03  0.00000000000E+00 0. -1.
         11    1    1    2    0    0 -0.14200109039E+02  0.38881265838E+00 -0.33402130927E+03  0.33432324076E+03  0.00000000000E+00 0.  1.
        -15    1    1    2    0    0  0.17168800798E+02  0.12954433972E+02 -0.54450025281E+02  0.58570880670E+02  0.17770000000E+01 0. -1.
         15    1    1    2    0    0  0.10220341404E+02  0.85148889073E+01 -0.10857653796E+03  0.10940283834E+03  0.17770000000E+01 0.  1.
</event>
<event>
 6   1  0.1826851E-04  0.5004835E+03  0.7546771E-02  0.9398728E-01
        -11   -1    0    0    0    0  0.00000000000E+00  0.00000000000E+00  0.50000000000E+03  0.50000000000E+03  0.00000000000E+00 0.  1.
         11   -1    0    0    0    0 -0.00000000000E+00 -0.00000000000E+00 -0.50000000000E+03  0.50000000000E+03  0.00000000000E+00 0. -1.
        -11    1    1    2    0    0 -0.26697427744E+01 -0.79619254732E+01  0.33034754756E+03  0.33045426607E+03  0.00000000000E+00 0.  1.
         11    1    1    2    0    0 -0.76389128961E+01  0.17346747917E+01 -0.49945505315E+03  0.49951647841E+03  0.00000000000E+00 0. -1.
        -15    1    1    2    0    0  0.79066774005E+01 -0.20607072960E+01  0.10270936338E+03  0.10304917814E+03  0.17770000000E+01 0. -1.
         15    1    1    2    0    0  0.24019782700E+01  0.82879579774E+01  0.66398142215E+02  0.66980077378E+02  0.17770000000E+01 0.  1.
</event>
<event>
 6   1  0.1826851E-04  0.5024182E+03  0.7546771E-02  0.9394415E-01
        -11   -1    0    0    0    0  0.00000000000E+00  0.00000000000E+00  0.50000000000E+03  0.50000000000E+03  0.00000000000E+00 0.  1.
         11   -1    0    0    0    0 -0.00000000000E+00 -0.00000000000E+00 -0.50000000000E+03  0.50000000000E+03  0.00000000000E+00 0.  1.
        -11    1    1    2    0    0 -0.44210802410E+01 -0.35736215475E+02  0.29170458952E+03  0.29391868024E+03  0.00000000000E+00 0.  1.
         11    1    1    2    0    0  0.86364288856E+01  0.95357210187E+01 -0.49741547326E+03  0.49758182333E+03  0.00000000000E+00 0.  1.
        -15    1    1    2    0    0  0.72224733863E+01  0.18875038244E+02  0.12328472639E+03  0.12494283765E+03  0.17770000000E+01 0.  1.
         15    1    1    2    0    0 -0.11437822031E+02  0.73254562129E+01  0.82426157350E+02  0.83556658777E+02  0.17770000000E+01 0. -1.
</event>
<event>
 6   1  0.1826851E-04  0.5057816E+03  0.7546771E-02  0.9386965E-01
        -11   -1    0    0    0    0  0.00000000000E+00  0.00000000000E+00  0.50000000000E+03  0.50000000000E+03  0.00000000000E+00 0.  1.
         11   -1    0    0    0    0 -0.00000000000E+00 -0.00000000000E+00 -0.50000000000E+03  0.50000000000E+03  0.00000000000E+00 0.  1.
        -11    1    1    2    0    0 -0.10694095418E+02 -0.50154479430E+01  0.49407727898E+03  0.49421844968E+03  0.00000000000E+00 0.  1.
         11    1    1    2    0    0  0.71510203692E+01 -0.36260038712E+01 -0.48677681000E+03  0.48684283681E+03  0.00000000000E+00 0.  1.
        -15    1    1    2    0    0 -0.12486646769E+01 -0.91654974762E+00  0.31153061397E+01  0.39066722744E+01  0.17770000000E+01 0. -1.
         15    1    1    2    0    0  0.47917397256E+01  0.95580015618E+01 -0.10415775117E+02  0.15032041237E+02  0.17770000000E+01 0.  1.
</event>
<event>
 6   1  0.1826851E-04  0.4883766E+03  0.7546771E-02  0.9426200E-01
        -11   -1    0    0    0    0  0.00000000000E+00  0.00000000000E+00  0.50000000000E+03  0.50000000000E+03  0.00000000000E+00 0. -1.
         11   -1    0    0    0    0 -0.00000000000E+00 -0.00000000000E+00 -0.50000000000E+03  0.50000000000E+03  0.00000000000E+00 0. -1.
        -11    1    1    2    0    0 -0.11701796507E+02  0.15909008517E+00  0.48320272671E+03  0.48334442425E+03  0.00000000000E+00 0. -1.
         11    1    1    2    0    0 -0.63067163669E+01  0.75060692218E+01 -0.49356245913E+03  0.49365981891E+03  0.00000000000E+00 0. -1.
        -15    1    1    2    0    0  0.13253828508E+02 -0.38500423444E+01  0.53536926274E+01  0.14909948019E+02  0.17770000000E+01 0.  1.
         15    1    1    2    0    0  0.47546843664E+01 -0.38151169625E+01  0.50060397900E+01  0.80858088179E+01  0.17770000000E+01 0. -1.
</event>
<event>
 6   1  0.1826851E-04  0.5009299E+03  0.7546771E-02  0.9397731E-01
        -11   -1    0    0    0    0  0.00000000000E+00  0.00000000000E+00  0.50000000000E+03  0.50000000000E+03  0.00000000000E+00 0.  1.
         11   -1    0    0    0    0 -0.00000000000E+00 -0.00000000000E+00 -0.50000000000E+03  0.50000000000E+03  0.00000000000E+00 0. -1.
        -11    1    1    2    0    0  0.30330269873E+01  0.67855430772E+01  0.49901470392E+03  0.49907005277E+03  0.00000000000E+00 0.  1.
         11    1    1    2    0    0  0.70323937620E+01  0.14692376681E+01 -0.43971418151E+03  0.43977286711E+03  0.00000000000E+00 0. -1.
        -15    1    1    2    0    0 -0.65063020230E+01 -0.49330435270E+01 -0.48038182408E+02  0.48759528121E+02  0.17770000000E+01 0.  1.
         15    1    1    2    0    0 -0.35591187263E+01 -0.33217372183E+01 -0.11262339999E+02  0.12397551997E+02  0.17770000000E+01 0. -1.
</event>
<event>
 6   1  0.1826851E-04  0.5009840E+03  0.7546771E-02  0.9397611E-01
        -11   -1    0    0    0    0  0.00000000000E+00  0.00000000000E+00  0.50000000000E+03  0.50000000000E+03  0.00000000000E+00 0.  1.
         11   -1    0    0    0    0 -0.00000000000E+00 -0.00000000000E+00 -0.50000000000E+03  0.50000000000E+03  0.00000000000E+00 0.  1.
        -11    1    1    2    0    0  0.35958867846E+01 -0.19931594201E+02  0.10850244606E+03  0.11037653578E+03  0.00000000000E+00 0.  1.
         11    1    1    2    0    0 -0.43028338519E+01  0.95237649082E+01 -0.49890654765E+03  0.49901599149E+03  0.00000000000E+00 0.  1.
        -15    1    1    2    0    0 -0.25808117822E+01  0.63576656869E+01  0.22456650131E+03  0.22467832949E+03  0.17770000000E+01 0.  1.
         15    1    1    2    0    0  0.32877588495E+01  0.40501636062E+01  0.16583760027E+03  0.16592914324E+03  0.17770000000E+01 0.  1.
</event>
<event>
 6   1  0.1826851E-04  0.5027603E+03  0.7546771E-02  0.9393654E-01
        -11   -1    0    0    0    0  0.00000000000E+00  0.00000000000E+00  0.50000000000E+03  0.50000000000E+03  0.00000000000E+00 0. -1.
         11   -1    0    0    0    0 -0.00000000000E+00 -0.00000000000E+00 -0.50000000000E+03  0.50000000000E+03  0.00000000000E+00 0. -1.
        -11    1    1    2    0    0  0.77540805052E+01 -0.41458453631E+01  0.49716190785E+03  0.49723965692E+03  0.00000000000E+00 0. -1.
         11    1    1    2    0    0  0.61764506459E+01  0.76198080154E+01 -0.46610697237E+03  0.46621016689E+03  0.00000000000E+00 0. -1.
        -15    1    1    2    0    0 -0.37407712681E+01  0.14058289002E+01 -0.20585649640E+02  0.21045104530E+02  0.17770000000E+01 0. -1.
         15    1    1    2    0    0 -0.10189759883E+02 -0.48797915525E+01 -0.10469285845E+02  0.15505071660E+02  0.17770000000E+01 0.  1.
</event>
<event>
 6   1  0.1826851E-04  0.5006671E+03  0.7546771E-02  0.9398318E-01
        -11   -1    0    0    0    0  0.00000000000E+00  0.00000000000E+00  0.50000000000E+03  0.50000000000E+03  0.00000000000E+00 0.  1.
         11   -1    0    0    0    0 -0.00000000000E+00 -0.00000000000E+00 -0.50000000000E+03  0.50000000000E+03  0.00000000000E+00 0. -1.
        -11    1    1    2    0    0 -0.23438371432E+01  0.63943503038E+01  0.18937263346E+02  0.20124642392E+02  0.00000000000E+00 0.  1.
         11    1    1    2    0    0  0.16046376155E+02  0.84868912248E+01 -0.49900288352E+03  0.49933294631E+03  0.00000000000E+00 0. -1.
        -15    1    1    2    0    0 -0.15929197600E+01 -0.81965114767E+00  0.37842068338E+02  0.37926100333E+02  0.17770000000E+01 0.  1.
         15    1    1    2    0    0 -0.12109619252E+02 -0.14061590381E+02  0.44222355184E+03  0.44261631096E+03  0.17770000000E+01 0.  1.
</event>
<event>
 6   1  0.1826851E-04  0.4864284E+03  0.7546771E-02  0.9430700E-01
        -11   -1    0    0    0    0  0.00000000000E+00  0.00000000000E+00  0.50000000000E+03  0.50000000000E+03  0.00000000000E+00 0.  1.
         11   -1    0    0    0    0 -0.00000000000E+00 -0.00000000000E+00 -0.50000000000E+03  0.50000000000E+03  0.00000000000E+00 0. -1.
        -11    1    1    2    0    0  0.21285900389E+02 -0.51405129115E+01  0.48759069862E+03  0.48808216912E+03  0.00000000000E+00 0.  1.
         11    1    1    2    0    0 -0.44563498487E+01 -0.48401250580E+01 -0.48493037075E+03  0.48497499971E+03  0.00000000000E+00 0. -1.
        -15    1    1    2    0    0 -0.63005531335E+01  0.97464454210E+01 -0.87550325394E+01  0.14645767030E+02  0.17770000000E+01 0.  1.
         15    1    1    2    0    0 -0.10528997406E+02  0.23419254852E+00  0.60947046668E+01  0.12297064142E+02  0.17770000000E+01 0. -1.
</event>
<event>
 6   1  0.1826851E-04  0.5028157E+03  0.7546771E-02  0.9393531E-01
        -11   -1    0    0    0    0  0.00000000000E+00  0.00000000000E+00  0.50000000000E+03  0.50000000000E+03  0.00000000000E+00 0. -1.
         11   -1    0    0    0    0 -0.00000000000E+00 -0.00000000000E+00 -0.50000000000E+03  0.50000000000E+03  0.00000000000E+00 0. -1.
        -11    1    1    2    0    0  0.18936477286E+02  0.13854759292E+02  0.49663027927E+03  0.49718425037E+03  0.00000000000E+00 0. -1.
         11    1    1    2    0    0 -0.12269041754E+01  0.57496564180E+01 -0.42230673603E+03  0.42234765672E+03  0.00000000000E+00 0. -1.
        -15    1    1    2    0    0 -0.46485947481E+01 -0.13751393588E+02 -0.23869865028E+02  0.27993542902E+02  0.17770000000E+01 0. -1.
         15    1    1    2    0    0 -0.13060978363E+02 -0.58530221223E+01 -0.50453678218E+02  0.52474550007E+02  0.17770000000E+01 0.  1.
</event>
<event>
 6   1  0.1826851E-04  0.5074285E+03  0.7546771E-02  0.9383340E-01
        -11   -1    0    0    0    0  0.00000000000E+00  0.00000000000E+00  0.50000000000E+03  0.50000000000E+03  0.00000000000E+00 0.  1.
         11   -1    0    0    0    0 -0.00000000000E+00 -0.00000000000E+00 -0.50000000000E+03  0.50000000000E+03  0.00000000000E+00 0.  1.
        -11    1    1    2    0    0 -0.13783381953E+02 -0.13639081304E+02  0.49218968943E+03  0.49257151413E+03  0.00000000000E+00 0.  1.
         11    1    1    2    0    0 -0.99001272453E+01  0.12011616778E+01 -0.46995379505E+03  0.47005959706E+03  0.00000000000E+00 0.  1.
        -15    1    1    2    0    0  0.10091158154E+02  0.72390839015E+01 -0.25146049022E+01  0.12795185635E+02  0.17770000000E+01 0. -1.
         15    1    1    2    0    0  0.13592351044E+02  0.51988357248E+01 -0.19721289480E+02  0.24573703171E+02  0.17770000000E+01 0.  1.
</event>
<event>
 6   1  0.1826851E-04  0.5023568E+03  0.7546771E-02  0.9394552E-01
        -11   -1    0    0    0    0  0.00000000000E+00  0.00000000000E+00  0.50000000000E+03  0.50000000000E+03  0.00000000000E+00 0. -1.
         11   -1    0    0    0    0 -0.00000000000E+00 -0.00000000000E+00 -0.50000000000E+03  0.50000000000E+03  0.00000000000E+00 0.  1.
        -11    1    1    2    0    0 -0.18001241590E+02 -0.10640571124E+02  0.29286521192E+03  0.29361079477E+03  0.00000000000E+00 0. -1.
         11    1    1    2    0    0  0.12842081333E+02 -0.49486557026E+01 -0.49745282518E+03  0.49764316687E+03  0.00000000000E+00 0.  1.
        -15    1    1    2    0    0 -0.12571629770E+02  0.18061727530E+02  0.85367069002E+02  0.88175768074E+02  0.17770000000E+01 0. -1.
         15    1    1    2    0    0  0.17730790027E+02 -0.24725007031E+01  0.11922054426E+03  0.12057027029E+03  0.17770000000E+01 0.  1.
</event>
<event>
 6   1  0.1826851E-04  0.5026809E+03  0.7546771E-02  0.9393831E-01
        -11   -1    0    0    0    0  0.00000000000E+00  0.00000000000E+00  0.50000000000E+03  0.50000000000E+03  0.00000000000E+00 0. -1.
         11   -1    0    0    0    0 -0.00000000000E+00 -0.00000000000E+00 -0.50000000000E+03  0.50000000000E+03  0.00000000000E+00 0.  1.
        -11    1    1    2    0    0 -0.63748062409E+01 -0.16735231724E+02  0.40162805330E+03  0.40202711268E+03  0.00000000000E+00 0. -1.
         11    1    1    2    0    0  0.22180998489E+02 -0.59250926075E+01 -0.49678887954E+03  0.49731910707E+03  0.00000000000E+00 0.  1.
        -15    1    1    2    0    0 -0.12009579132E+02  0.28434977221E+01  0.39549298547E+02  0.41468303736E+02  0.17770000000E+01 0.  1.
         15    1    1    2    0    0 -0.37966131163E+01  0.19816826610E+02  0.55611527698E+02  0.59185476512E+02  0.17770000000E+01 0. -1.
</event>
<event>
 6   1  0.1826851E-04  0.5007214E+03  0.7546771E-02  0.9398197E-01
        -11   -1    0    0    0    0  0.00000000000E+00  0.00000000000E+00  0.50000000000E+03  0.50000000000E+03  0.00000000000E+00 0. -1.
         11   -1    0    0    0    0 -0.00000000000E+00 -0.00000000000E+00 -0.50000000000E+03  0.50000000000E+03  0.00000000000E+00 0.  1.
        -11    1    1    2    0    0 -0.20216558791E+02  0.36363034910E+02  0.49754214774E+03  0.49927864798E+03  0.00000000000E+00 0. -1.
         11    1    1    2    0    0  0.14120820527E+02 -0.35512624636E+02 -0.24913432222E+03  0.25204851634E+03  0.00000000000E+00 0.  1.
        -15    1    1    2    0    0  0.49971732135E+00 -0.42744308141E+01 -0.93092514547E+02  0.93208875488E+02  0.17770000000E+01 0.  1.
         15    1    1    2    0    0  0.55960209427E+01  0.34240205396E+01 -0.15531531097E+03  0.15546396019E+03  0.17770000000E+01 0. -1.
</event>
<event>
 6   1  0.1826851E-04  0.5001187E+03  0.7546771E-02  0.9399544E-01
        -11   -1    0    0    0    0  0.00000000000E+00  0.00000000000E+00  0.50000000000E+03  0.50000000000E+03  0.00000000000E+00 0. -1.
         11   -1    0    0    0    0 -0.00000000000E+00 -0.00000000000E+00 -0.50000000000E+03  0.50000000000E+03  0.00000000000E+00 0.  1.
        -11    1    1    2    0    0  0.47041354871E+01  0.37162948114E+01  0.58574450770E+02  0.58880438354E+02  0.00000000000E+00 0. -1.
         11    1    1    2    0    0 -0.22080352043E+02  0.25036897827E+01 -0.49938709540E+03  0.49988126737E+03  0.00000000000E+00 0.  1.
        -15    1    1    2    0    0  0.13212965107E+02 -0.61364488140E+01  0.30979302844E+03  0.31014047889E+03  0.17770000000E+01 0. -1.
         15    1    1    2    0    0  0.41632514492E+01 -0.83535780120E-01  0.13101961620E+03  0.13109781538E+03  0.17770000000E+01 0. -1.
</event>
<event>
 6   1  0.1826851E-04  0.5058631E+03  0.7546771E-02  0.9386785E-01
        -11   -1    0    0    0    0  0.00000000000E+00  0.00000000000E+00  0.50000000000E+03  0.50000000000E+03  0.00000000000E+00 0. -1.
         11   -1    0    0    0    0 -0.00000000000E+00 -0.00000000000E+00 -0.50000000000E+03  0.50000000000E+03  0.00000000000E+00 0.  1.
        -11    1    1    2    0    0 -0.18309162727E+02 -0.34299901031E+00  0.45416738263E+03  0.45453641717E+03  0.00000000000E+00 0. -1.
         11    1    1    2    0    0 -0.66969196984E+01 -0.12846065558E+02 -0.49392451778E+03  0.49413692374E+03  0.00000000000E+00 0.  1.
        -15    1    1    2    0    0  0.16038519550E+02  0.40969674375E+01  0.11404956009E+02  0.20180436123E+02  0.17770000000E+01 0. -1.
         15    1    1    2    0    0  0.89675628760E+01  0.90920971313E+01  0.28352179142E+02  0.31146222970E+02  0.17770000000E+01 0.  1.
</event>
<event>
 6   1  0.1826851E-04  0.5027014E+03  0.7546771E-02  0.9393785E-01
        -11   -1    0    0    0    0  0.00000000000E+00  0.00000000000E+00  0.50000000000E+03  0.50000000000E+03  0.00000000000E+00 0.  1.
         11   -1    0    0    0    0 -0.00000000000E+00 -0.00000000000E+00 -0.50000000000E+03  0.50000000000E+03  0.00000000000E+00 0.  1.
        -11    1    1    2    0    0  0.84801236533E+01  0.20441241156E+02  0.49680597708E+03  0.49729863834E+03  0.00000000000E+00 0.  1.
         11    1    1    2    0    0  0.46852779804E+01  0.42652764395E+01 -0.42292609596E+03  0.42297355362E+03  0.00000000000E+00 0.  1.
        -15    1    1    2    0    0 -0.14457205969E+02 -0.22667372610E+02 -0.65352100367E+02  0.70688579960E+02  0.17770000000E+01 0. -1.
         15    1    1    2    0    0  0.12918043358E+01 -0.20391449856E+01 -0.85277807516E+01  0.90392280789E+01  0.17770000000E+01 0. -1.
</event>
<event>
 6   1  0.1826851E-04  0.5004572E+03  0.7546771E-02  0.9398787E-01
        -11   -1    0    0    0    0  0.00000000000E+00  0.00000000000E+00  0.50000000000E+03  0.50000000000E+03  0.00000000000E+00 0.  1.
         11   -1    0    0    0    0 -0.00000000000E+00 -0.00000000000E+00 -0.50000000000E+03  0.50000000000E+03  0.00000000000E+00 0.  1.
        -11    1    1    2    0    0 -0.58787565871E+01 -0.44112535285E+01  0.38857258691E+03  0.38864209014E+03  0.00000000000E+00 0.  1.
         11    1    1    2    0    0  0.67209459222E+01 -0.63460742633E+01 -0.49945725712E+03  0.49954278642E+03  0.00000000000E+00 0.  1.
        -15    1    1    2    0    0 -0.31444686243E+01  0.10424316640E+02  0.96990839867E+02  0.97616263028E+02  0.17770000000E+01 0. -1.
         15    1    1    2    0    0  0.23022792891E+01  0.33301115160E+00  0.13893830345E+02  0.14198860413E+02  0.17770000000E+01 0. -1.
</event>
<event>
 6   1  0.1826851E-04  0.5010124E+03  0.7546771E-02  0.9397547E-01
        -11   -1    0    0    0    0  0.00000000000E+00  0.00000000000E+00  0.50000000000E+03  0.50000000000E+03  0.00000000000E+00 0. -1.
         11   -1    0    0    0    0 -0.00000000000E+00 -0.00000000000E+00 -0.50000000000E+03  0.50000000000E+03  0.00000000000E+00 0. -1.
        -11    1    1    2    0    0  0.92690301243E+01  0.13817351323E+02  0.26741847715E+03  0.26793558188E+03  0.00000000000E+00 0. -1.
         11    1    1    2    0    0  0.52627542811E+01  0.49654588077E+01 -0.49893514408E+03  0.49898760542E+03  0.00000000000E+00 0. -1.
        -15    1    1    2    0    0  0.44244018877E+00  0.96951305817E+00  0.18129236521E+02  0.18247264308E+02  0.17770000000E+01 0.  1.
         15    1    1    2    0    0 -0.14974224594E+02 -0.19752323189E+02  0.21338743041E+03  0.21482954839E+03  0.17770000000E+01 0. -1.
</event>
<event>
 6   1  0.1826851E-04  0.5004290E+03  0.7546771E-02  0.9398850E-01
        -11   -1    0    0    0    0  0.00000000000E+00  0.00000000000E+00  0.50000000000E+03  0.50000000000E+03  0.00000000000E+00 0.  1.
         11   -1    0    0    0    0 -0.00000000000E+00 -0.00000000000E+00 -0.50000000000E+03  0.50000000000E+03  0.00000000000E+00 0. -1.
        -11    1    1    2    0    0 -0.23741788319E+01 -0.87375684826E+01  0.49948897502E+03  0.49957103399E+03  0.00000000000E+00 0.  1.
         11    1    1    2    0    0  0.81075483900E+01  0.43249836706E+01 -0.41691806658E+03  0.41701931857E+03  0.00000000000E+00 0. -1.
        -15    1    1    2    0    0 -0.77917072004E+01  0.22022844705E+01 -0.59130559435E+02  0.59708806270E+02  0.17770000000E+01 0.  1.
         15    1    1    2    0    0  0.20583376423E+01  0.22103003415E+01 -0.23440349009E+02  0.23700841169E+02  0.17770000000E+01 0. -1.
</event>
<event>
 6   1  0.1826851E-04  0.5002983E+03  0.7546771E-02  0.9399143E-01
        -11   -1    0    0    0    0  0.00000000000E+00  0.00000000000E+00  0.50000000000E+03  0.50000000000E+03  0.00000000000E+00 0. -1.
         11   -1    0    0    0    0 -0.00000000000E+00 -0.00000000000E+00 -0.50000000000E+03  0.50000000000E+03  0.00000000000E+00 0. -1.
        -11    1    1    2    0    0  0.55487478131E+01  0.82085509111E+01  0.10613863720E+03  0.10660009014E+03  0.00000000000E+00 0. -1.
         11    1    1    2    0    0 -0.64092911858E+01 -0.11238493695E+02 -0.49953420614E+03  0.49970171689E+03  0.00000000000E+00 0. -1.
        -15    1    1    2    0    0  0.33555166466E+01 -0.51697167683E+01  0.13142736614E+03  0.13158379750E+03  0.17770000000E+01 0.  1.
         15    1    1    2    0    0 -0.24949732739E+01  0.81996595525E+01  0.26196820280E+03  0.26211439548E+03  0.17770000000E+01 0. -1.
</event>
<event>
 6   1  0.1826851E-04  0.4639348E+03  0.7546771E-02  0.9484334E-01
        -11   -1    0    0    0    0  0.00000000000E+00  0.00000000000E+00  0.50000000000E+03  0.50000000000E+03  0.00000000000E+00 0.  1.
         11   -1    0    0    0    0 -0.00000000000E+00 -0.00000000000E+00 -0.50000000000E+03  0.50000000000E+03  0.00000000000E+00 0. -1.
        -11    1    1    2    0    0  0.11624408124E+02  0.25921361314E+02  0.46587769198E+03  0.46674304250E+03  0.00000000000E+00 0.  1.
         11    1    1    2    0    0  0.61623797766E+01 -0.33091828075E+01 -0.46152957937E+03  0.46158258010E+03  0.00000000000E+00 0. -1.
        -15    1    1    2    0    0  0.14105924704E+02 -0.14314945990E+02 -0.25469280177E+02  0.32492102920E+02  0.17770000000E+01 0.  1.
         15    1    1    2    0    0 -0.31892712605E+02 -0.82972325164E+01  0.21121167566E+02  0.39182274476E+02  0.17770000000E+01 0. -1.
</event>
<event>
 6   1  0.1826851E-04  0.4376717E+03  0.7546771E-02  0.9551207E-01
        -11   -1    0    0    0    0  0.00000000000E+00  0.00000000000E+00  0.50000000000E+03  0.50000000000E+03  0.00000000000E+00 0. -1.
         11   -1    0    0    0    0 -0.00000000000E+00 -0.00000000000E+00 -0.50000000000E+03  0.50000000000E+03  0.00000000000E+00 0.  1.
        -11    1    1    2    0    0  0.55191073125E+02  0.50977813266E+02  0.46408243028E+03  0.47012476439E+03  0.00000000000E+00 0. -1.
         11    1    1    2    0    0  0.35535832540E+02 -0.12596502386E+01 -0.41135301098E+03  0.41288700846E+03  0.00000000000E+00 0.  1.
        -15    1    1    2    0    0 -0.73257622800E+01 -0.65011160288E+01 -0.87522823970E+01  0.13254866229E+02  0.17770000000E+01 0. -1.
         15    1    1    2    0    0 -0.83401143385E+02 -0.43217046998E+02 -0.43977136906E+02  0.10373336092E+03  0.17770000000E+01 0.  1.
</event>
<event>
 6   1  0.1826851E-04  0.4891357E+03  0.7546771E-02  0.9424453E-01
        -11   -1    0    0    0    0  0.00000000000E+00  0.00000000000E+00  0.50000000000E+03  0.50000000000E+03  0.00000000000E+00 0. -1.
         11   -1    0    0    0    0 -0.00000000000E+00 -0.00000000000E+00 -0.50000000000E+03  0.50000000000E+03  0.00000000000E+00 0. -1.
        -11    1    1    2    0    0 -0.17777691661E+02  0.27782484998E+01  0.48959812105E+03  0.48992865310E+03  0.00000000000E+00 0. -1.
         11    1    1    2    0    0 -0.67252895100E-01 -0.12356715092E+02 -0.48839680381E+03  0.48855309937E+03  0.00000000000E+00 0. -1.
        -15    1    1    2    0    0  0.27445288207E+01  0.55726629390E+00 -0.19048740032E+01  0.38248213210E+01  0.17770000000E+01 0.  1.
         15    1    1    2    0    0  0.15100415735E+02  0.90212002981E+01  0.70355675649E+00  0.17693426217E+02  0.17770000000E+01 0. -1.
</event>
<event>
 6   1  0.1826851E-04  0.5028333E+03  0.7546771E-02  0.9393492E-01
        -11   -1    0    0    0    0  0.00000000000E+00  0.00000000000E+00  0.50000000000E+03  0.50000000000E+03  0.00000000000E+00 0.  1.
         11   -1    0    0    0    0 -0.00000000000E+00 -0.00000000000E+00 -0.50000000000E+03  0.50000000000E+03  0.00000000000E+00 0. -1.
        -11    1    1    2    0    0  0.27616821653E+01  0.12330902899E+02  0.49700607278E+03  0.49716668677E+03  0.00000000000E+00 0.  1.
         11    1    1    2    0    0 -0.15359528364E+01  0.11820140053E+02 -0.44027813744E+03  0.44043945460E+03  0.00000000000E+00 0. -1.
        -15    1    1    2    0    0 -0.13714876454E+01 -0.21619310724E+02 -0.41427631547E+02  0.46783351303E+02  0.17770000000E+01 0.  1.
         15    1    1    2    0    0  0.14575831656E+00 -0.25317322276E+01 -0.15300303800E+02  0.15610507325E+02  0.17770000000E+01 0. -1.
</event>
<event>
 6   1  0.1826851E-04  0.5000340E+03  0.7546771E-02  0.9399734E-01
        -11   -1    0    0    0    0  0.00000000000E+00  0.00000000000E+00  0.50000000000E+03  0.50000000000E+03  0.00000000000E+00 0.  1.
         11   -1    0    0    0    0 -0.00000000000E+00 -0.00000000000E+00 -0.50000000000E+03  0.50000000000E+03  0.00000000000E+00 0. -1.
        -11    1    1    2    0    0 -0.76383839088E+01  0.11249984739E+02  0.49978103329E+03  0.49996598714E+03  0.00000000000E+00 0.  1.
         11    1    1    2    0    0  0.77391533601E+00 -0.13122316643E+01 -0.95661744717E+02  0.95673874695E+02  0.00000000000E+00 0. -1.
        -15    1    1    2    0    0  0.29486480471E+01 -0.42027013409E+00 -0.87754781797E+02  0.87823291953E+02  0.17770000000E+01 0.  1.
         15    1    1    2    0    0  0.39158205256E+01 -0.95174829402E+01 -0.31636450677E+03  0.31653684621E+03  0.17770000000E+01 0. -1.
</event>
<event>
 6   1  0.1826851E-04  0.5000864E+03  0.7546771E-02  0.9399616E-01
        -11   -1    0    0    0    0  0.00000000000E+00  0.00000000000E+00  0.50000000000E+03  0.50000000000E+03  0.00000000000E+00 0.  1.
         11   -1    0    0    0    0 -0.00000000000E+00 -0.00000000000E+00 -0.50000000000E+03  0.50000000000E+03  0.00000000000E+00 0.  1.
        -11    1    1    2    0    0  0.57910984015E+01 -0.43675379296E+01  0.73783563678E+02  0.74139237097E+02  0.00000000000E+00 0.  1.
         11    1    1    2    0    0 -0.26508569809E+02  0.12898266680E+02 -0.49904358072E+03  0.49991355754E+03  0.00000000000E+00 0.  1.
        -15    1    1    2    0    0  0.33677823295E+01 -0.91139560140E+00  0.34025181641E+02  0.34249719918E+02  0.17770000000E+01 0. -1.
         15    1    1    2    0    0  0.17349689078E+02 -0.76193331489E+01  0.39123483540E+03  0.39169748545E+03  0.17770000000E+01 0.  1.
</event>
<event>
 6   1  0.1826851E-04  0.5006353E+03  0.7546771E-02  0.9398389E-01
        -11   -1    0    0    0    0  0.00000000000E+00  0.00000000000E+00  0.50000000000E+03  0.50000000000E+03  0.00000000000E+00 0.  1.
         11   -1    0    0    0    0 -0.00000000000E+00 -0.00000000000E+00 -0.50000000000E+03  0.50000000000E+03  0.00000000000E+00 0.  1.
        -11    1    1    2    0    0  0.12174740606E+02  0.21570850357E+02  0.49874998397E+03  0.49936466875E+03  0.00000000000E+00 0.  1.
         11    1    1    2    0    0 -0.47587878117E+00 -0.20856829109E+02 -0.13373798132E+03  0.13535538936E+03  0.00000000000E+00 0.  1.
        -15    1    1    2    0    0 -0.10642673465E+02  0.14438471403E+01 -0.26551237793E+03  0.26573545446E+03  0.17770000000E+01 0.  1.
         15    1    1    2    0    0 -0.10561883602E+01 -0.21578683884E+01 -0.99499624716E+02  0.99544487428E+02  0.17770000000E+01 0. -1.
</event>
<event>
 6   1  0.1826851E-04  0.5029545E+03  0.7546771E-02  0.9393223E-01
        -11   -1    0    0    0    0  0.00000000000E+00  0.00000000000E+00  0.50000000000E+03  0.50000000000E+03  0.00000000000E+00 0.  1.
         11   -1    0    0    0    0 -0.00000000000E+00 -0.00000000000E+00 -0.50000000000E+03  0.50000000000E+03  0.00000000000E+00 0.  1.
        -11    1    1    2    0    0 -0.11207944042E+02 -0.45320880603E+01  0.43033896912E+03  0.43050875273E+03  0.00000000000E+00 0.  1.
         11    1    1    2    0    0 -0.22823228146E+01 -0.10449875889E+02 -0.49693043522E+03  0.49704553750E+03  0.00000000000E+00 0.  1.
        -15    1    1    2    0    0 -0.50068874506E+01  0.50123023328E+01  0.20403051656E+02  0.21671048487E+02  0.17770000000E+01 0.  1.
         15    1    1    2    0    0  0.18497154307E+02  0.99696616161E+01  0.46188414444E+02  0.50774661280E+02  0.17770000000E+01 0. -1.
</event>
<event>
 6   1  0.1826851E-04  0.4973901E+03  0.7546771E-02  0.9405668E-01
        -11   -1    0    0    0    0  0.00000000000E+00  0.00000000000E+00  0.50000000000E+03  0.50000000000E+03  0.00000000000E+00 0.  1.
         11   -1    0    0    0    0 -0.00000000000E+00 -0.00000000000E+00 -0.50000000000E+03  0.50000000000E+03  0.00000000000E+00 0.  1.
        -11    1    1    2    0    0  0.16555255670E+01  0.16436584391E+01  0.50001365574E+01  0.55175849391E+01  0.00000000000E+00 0.  1.
         11    1    1    2    0    0 -0.61699754172E+01 -0.50341475645E+01 -0.49953604912E+03  0.49959951522E+03  0.00000000000E+00 0.  1.
        -15    1    1    2    0    0 -0.59494830019E+01  0.47643281465E+01  0.20954212416E+03  0.20968823214E+03  0.17770000000E+01 0. -1.
         15    1    1    2    0    0  0.10463932852E+02 -0.13738390211E+01  0.28499378841E+03  0.28519466770E+03  0.17770000000E+01 0.  1.
</event>
<event>
 6   1  0.1826851E-04  0.5033779E+03  0.7546771E-02  0.9392283E-01
        -11   -1    0    0    0    0  0.00000000000E+00  0.00000000000E+00  0.50000000000E+03  0.50000000000E+03  0.00000000000E+00 0. -1.
         11   -1    0    0    0    0 -0.00000000000E+00 -0.00000000000E+00 -0.50000000000E+03  0.50000000000E+03  0.00000000000E+00 0.  1.
        -11    1    1    2    0    0 -0.73407776947E+01  0.21161916134E+01  0.49656330963E+03  0.49662207538E+03  0.00000000000E+00 0. -1.
         11    1    1    2    0    0 -0.41923662813E+01  0.80294272062E+01 -0.47729587911E+03  0.47738182187E+03  0.00000000000E+00 0.  1.
        -15    1    1    2    0    0  0.16446085254E+01 -0.18842888534E+01 -0.87384908699E+01  0.92614379751E+01  0.17770000000E+01 0.  1.
         15    1    1    2    0    0  0.98885354506E+01 -0.82613299663E+01 -0.10528939646E+02  0.16734664778E+02  0.17770000000E+01 0. -1.
</event>
<event>
 6   1  0.1826851E-04  0.5006477E+03  0.7546771E-02  0.9398362E-01
        -11   -1    0    0    0    0  0.00000000000E+00  0.00000000000E+00  0.50000000000E+03  0.50000000000E+03  0.00000000000E+00 0. -1.
         11   -1    0    0    0    0 -0.00000000000E+00 -0.00000000000E+00 -0.50000000000E+03  0.50000000000E+03  0.00000000000E+00 0.  1.
        -11    1    1    2    0    0  0.21173194643E+02 -0.96122338233E+01  0.37434854368E+03  0.37507003528E+03  0.00000000000E+00 0. -1.
         11    1    1    2    0    0 -0.15662546387E+02  0.62547201895E+01 -0.49906741064E+03  0.49935229773E+03  0.00000000000E+00 0.  1.
        -15    1    1    2    0    0 -0.41453313832E+01  0.18990823206E+01  0.12039154688E+03  0.12049096470E+03  0.17770000000E+01 0.  1.
         15    1    1    2    0    0 -0.13653168730E+01  0.14584313131E+01  0.43273200798E+01  0.50867022846E+01  0.17770000000E+01 0. -1.
</event>
<event>
 6   1  0.1826851E-04  0.5046772E+03  0.7546771E-02  0.9389405E-01
        -11   -1    0    0    0    0  0.00000000000E+00  0.00000000000E+00  0.50000000000E+03  0.50000000000E+03  0.00000000000E+00 0. -1.
         11   -1    0    0    0    0 -0.00000000000E+00 -0.00000000000E+00 -0.50000000000E+03  0.50000000000E+03  0.00000000000E+00 0.  1.
        -11    1    1    2    0    0  0.28136589043E+02 -0.12806492375E+02  0.49435716382E+03  0.49532280314E+03  0.00000000000E+00 0. -1.
         11    1    1    2    0    0 -0.86211050053E+01 -0.56289886806E+01 -0.45278029476E+03  0.45289734410E+03  0.00000000000E+00 0.  1.
        -15    1    1    2    0    0 -0.74168710209E+01  0.10154309142E+02 -0.77700944806E+01  0.14887983985E+02  0.17770000000E+01 0. -1.
         15    1    1    2    0    0 -0.12098613017E+02  0.82811719132E+01 -0.33806774579E+02  0.36891868774E+02  0.17770000000E+01 0.  1.
</event>
<event>
 6   1  0.1826851E-04  0.5005597E+03  0.7546771E-02  0.9398558E-01
        -11   -1    0    0    0    0  0.00000000000E+00  0.00000000000E+00  0.50000000000E+03  0.50000000000E+03  0.00000000000E+00 0. -1.
         11   -1    0    0    0    0 -0.00000000000E+00 -0.00000000000E+00 -0.50000000000E+03  0.50000000000E+03  0.00000000000E+00 0. -1.
        -11    1    1    2    0    0 -0.29098168949E+01  0.15959918242E+02  0.28196174882E+03  0.28242806841E+03  0.00000000000E+00 0. -1.
         11    1    1    2    0    0 -0.86069748721E+01 -0.58618044552E+01 -0.49933176939E+03  0.49944034348E+03  0.00000000000E+00 0. -1.
        -15    1    1    2    0    0  0.18362258062E+01 -0.53761936426E+01  0.12079111221E+03  0.12093769346E+03  0.17770000000E+01 0.  1.
         15    1    1    2    0    0  0.96805659607E+01 -0.47219201446E+01  0.96578908366E+02  0.97193894650E+02  0.17770000000E+01 0. -1.
</event>
<event>
 6   1  0.1826851E-04  0.5012898E+03  0.7546771E-02  0.9396928E-01
        -11   -1    0    0    0    0  0.00000000000E+00  0.00000000000E+00  0.50000000000E+03  0.50000000000E+03  0.00000000000E+00 0. -1.
         11   -1    0    0    0    0 -0.00000000000E+00 -0.00000000000E+00 -0.50000000000E+03  0.50000000000E+03  0.00000000000E+00 0.  1.
        -11    1    1    2    0    0 -0.23780011287E+00 -0.10188781380E+02  0.43256799248E+03  0.43268803535E+03  0.00000000000E+00 0. -1.
         11    1    1    2    0    0  0.50873737198E+01 -0.46405225037E+01 -0.49866266277E+03  0.49871020349E+03  0.00000000000E+00 0.  1.
        -15    1    1    2    0    0 -0.61572289940E+01  0.97318979575E+01  0.54675434042E+02  0.55903328376E+02  0.17770000000E+01 0.  1.
         15    1    1    2    0    0  0.13076553870E+01  0.50974059264E+01  0.11419236244E+02  0.12698432785E+02  0.17770000000E+01 0. -1.
</event>
<event>
 6   1  0.1826851E-04  0.5002642E+03  0.7546771E-02  0.9399219E-01
        -11   -1    0    0    0    0  0.00000000000E+00  0.00000000000E+00  0.50000000000E+03  0.50000000000E+03  0.00000000000E+00 0. -1.
         11   -1    0    0    0    0 -0.00000000000E+00 -0.00000000000E+00 -0.50000000000E+03  0.50000000000E+03  0.00000000000E+00 0.  1.
        -11    1    1    2    0    0 -0.57377262552E+02 -0.32906737088E+01  0.49642010567E+03  0.49973583032E+03  0.00000000000E+00 0. -1.
         11    1    1    2    0    0  0.49599386660E+02 -0.34693499401E+01 -0.41688651210E+03  0.41984104077E+03  0.00000000000E+00 0.  1.
        -15    1    1    2    0    0  0.29084705170E+01  0.44582146969E+01 -0.52621671193E+02  0.52920061292E+02  0.17770000000E+01 0.  1.
         15    1    1    2    0    0  0.48694053746E+01  0.23018089520E+01 -0.26911922378E+02  0.27503067615E+02  0.17770000000E+01 0. -1.
</event>
<event>
 6   1  0.1826851E-04  0.5031462E+03  0.7546771E-02  0.9392797E-01
        -11   -1    0    0    0    0  0.00000000000E+00  0.00000000000E+00  0.50000000000E+03  0.50000000000E+03  0.00000000000E+00 0. -1.
         11   -1    0    0    0    0 -0.00000000000E+00 -0.00000000000E+00 -0.50000000000E+03  0.50000000000E+03  0.00000000000E+00 0. -1.
        -11    1    1    2    0    0  0.11711349033E+02 -0.61278855170E+01  0.49667800566E+03  0.49685384972E+03  0.00000000000E+00 0. -1.
         11    1    1    2    0    0 -0.81960565175E+01 -0.34396140047E+01 -0.48976486802E+03  0.48984551874E+03  0.00000000000E+00 0. -1.
        -15    1    1    2    0    0 -0.17174834821E+00  0.41011004166E+01 -0.41437785088E+01  0.60973069016E+01  0.17770000000E+01 0. -1.
         15    1    1    2    0    0 -0.33435441668E+01  0.54663991051E+01 -0.27693591331E+01  0.72033246338E+01  0.17770000000E+01 0.  1.
</event>
<event>
 6   1  0.1826851E-04  0.4534894E+03  0.7546771E-02  0.9510352E-01
        -11   -1    0    0    0    0  0.00000000000E+00  0.00000000000E+00  0.50000000000E+03  0.50000000000E+03  0.00000000000E+00 0.  1.
         11   -1    0    0    0    0 -0.00000000000E+00 -0.00000000000E+00 -0.50000000000E+03  0.50000000000E+03  0.00000000000E+00 0. -1.
        -11    1    1    2    0    0  0.32165643371E+02  0.64451585618E+02  0.57940186399E+02  0.92442959181E+02  0.00000000000E+00 0.  1.
         11    1    1    2    0    0 -0.10652734417E+02  0.26940889578E+01 -0.47755820543E+03  0.47768460142E+03  0.00000000000E+00 0. -1.
        -15    1    1    2    0    0  0.17630409080E+01  0.11003338029E+02  0.67091560435E+02  0.68033939851E+02  0.17770000000E+01 0. -1.
         15    1    1    2    0    0 -0.23275949861E+02 -0.78149012605E+02  0.35252645859E+03  0.36183849954E+03  0.17770000000E+01 0.  1.
</event>
<event>
 6   1  0.1826851E-04  0.5085194E+03  0.7546771E-02  0.9380946E-01
        -11   -1    0    0    0    0  0.00000000000E+00  0.00000000000E+00  0.50000000000E+03  0.50000000000E+03  0.00000000000E+00 0. -1.
         11   -1    0    0    0    0 -0.00000000000E+00 -0.00000000000E+00 -0.50000000000E+03  0.50000000000E+03  0.00000000000E+00 0.  1.
        -11    1    1    2    0    0  0.44866904570E+01 -0.30215656065E+02  0.45063763689E+03  0.45167177911E+03  0.00000000000E+00 0. -1.
         11    1    1    2    0    0  0.11955142460E+02  0.11577578242E+01 -0.49133378690E+03  0.49148057539E+03  0.00000000000E+00 0.  1.
        -15    1    1    2    0    0 -0.51449147289E+01  0.25047689490E+01 -0.10346360573E+01  0.60804782563E+01  0.17770000000E+01 0.  1.
         15    1    1    2    0    0 -0.11296918188E+02  0.26553129292E+02  0.41730786067E+02  0.50767167249E+02  0.17770000000E+01 0. -1.
</event>
<event>
 6   1  0.1826851E-04  0.4925327E+03  0.7546771E-02  0.9416675E-01
        -11   -1    0    0    0    0  0.00000000000E+00  0.00000000000E+00  0.50000000000E+03  0.50000000000E+03  0.00000000000E+00 0. -1.
         11   -1    0    0    0    0 -0.00000000000E+00 -0.00000000000E+00 -0.50000000000E+03  0.50000000000E+03  0.00000000000E+00 0. -1.
        -11    1    1    2    0    0 -0.66160725427E+01 -0.47801184380E+01  0.49566679989E+03  0.49573399970E+03  0.00000000000E+00 0. -1.
         11    1    1    2    0    0 -0.47203488920E+01  0.47708542027E+01 -0.48937071967E+03  0.48941673859E+03  0.00000000000E+00 0. -1.
        -15    1    1    2    0    0  0.22684652298E+01  0.25622765596E+01 -0.20038467618E+01  0.43456100275E+01  0.17770000000E+01 0.  1.
         15    1    1    2    0    0  0.90679562048E+01 -0.25530123243E+01 -0.42922334563E+01  0.10503651684E+02  0.17770000000E+01 0. -1.
</event>
<event>
 6   1  0.1826851E-04  0.5001007E+03  0.7546771E-02  0.9399584E-01
        -11   -1    0    0    0    0  0.00000000000E+00  0.00000000000E+00  0.50000000000E+03  0.50000000000E+03  0.00000000000E+00 0.  1.
         11   -1    0    0    0    0 -0.00000000000E+00 -0.00000000000E+00 -0.50000000000E+03  0.50000000000E+03  0.00000000000E+00 0.  1.
        -11    1    1    2    0    0 -0.26876045478E+01 -0.14880113009E+02  0.27731581335E+03  0.27772774675E+03  0.00000000000E+00 0.  1.
         11    1    1    2    0    0  0.45186498475E+00  0.18077421096E+02 -0.49957212077E+03  0.49989929105E+03  0.00000000000E+00 0.  1.
        -15    1    1    2    0    0  0.75833040846E+00 -0.41823440486E+01  0.12699789777E+03  0.12708143387E+03  0.17770000000E+01 0.  1.
         15    1    1    2    0    0  0.14774091546E+01  0.98503596084E+00  0.95258409653E+02  0.95291528335E+02  0.17770000000E+01 0.  1.
</event>
<event>
 6   1  0.1826851E-04  0.5005946E+03  0.7546771E-02  0.9398480E-01
        -11   -1    0    0    0    0  0.00000000000E+00  0.00000000000E+00  0.50000000000E+03  0.50000000000E+03  0.00000000000E+00 0.  1.
         11   -1    0    0    0    0 -0.00000000000E+00 -0.00000000000E+00 -0.50000000000E+03  0.50000000000E+03  0.00000000000E+00 0.  1.
        -11    1    1    2    0    0  0.14678555581E+02 -0.22253160854E+01  0.10966952442E+03  0.11066985412E+03  0.00000000000E+00 0.  1.
         11    1    1    2    0    0 -0.62700310763E+01  0.26699302225E+01 -0.49935894974E+03  0.49940544901E+03  0.00000000000E+00 0.  1.
        -15    1    1    2    0    0  0.16258843571E-01 -0.38572212570E+01  0.10993979368E+03  0.11002179049E+03  0.17770000000E+01 0.  1.
         15    1    1    2    0    0 -0.84247833480E+01  0.34126071199E+01  0.27974963165E+03  0.27990290638E+03  0.17770000000E+01 0. -1.
</event>
<event>
 6   1  0.1826851E-04  0.5004427E+03  0.7546771E-02  0.9398820E-01
        -11   -1    0    0    0    0  0.00000000000E+00  0.00000000000E+00  0.50000000000E+03  0.50000000000E+03  0.00000000000E+00 0. -1.
         11   -1    0    0    0    0 -0.00000000000E+00 -0.00000000000E+00 -0.50000000000E+03  0.50000000000E+03  0.00000000000E+00 0.  1.
        -11    1    1    2    0    0 -0.59866830731E+01  0.34108996734E+01  0.41549780289E+03  0.41555492876E+03  0.00000000000E+00 0. -1.
         11    1    1    2    0    0  0.39046449140E+01  0.79702917600E+01 -0.49947842997E+03  0.49955727781E+03  0.00000000000E+00 0.  1.
        -15    1    1    2    0    0  0.17165100064E+01 -0.34693274961E+01  0.28468935389E+02  0.28785771677E+02  0.17770000000E+01 0. -1.
         15    1    1    2    0    0  0.36552815267E+00 -0.79118639373E+01  0.55511691693E+02  0.56102021759E+02  0.17770000000E+01 0.  1.
</event>
<event>
 6   1  0.1826851E-04  0.5001690E+03  0.7546771E-02  0.9399432E-01
        -11   -1    0    0    0    0  0.00000000000E+00  0.00000000000E+00  0.50000000000E+03  0.50000000000E+03  0.00000000000E+00 0.  1.
         11   -1    0    0    0    0 -0.00000000000E+00 -0.00000000000E+00 -0.50000000000E+03  0.50000000000E+03  0.00000000000E+00 0. -1.
        -11    1    1    2    0    0  0.74556856094E+01 -0.55218695757E+01  0.22877563868E+03  0.22896368957E+03  0.00000000000E+00 0.  1.
         11    1    1    2    0    0 -0.10371595696E+02 -0.14737559440E+01 -0.49972121654E+03  0.49983100765E+03  0.00000000000E+00 0. -1.
        -15    1    1    2    0    0  0.28467932730E+01  0.44022772558E+01  0.24600562361E+03  0.24606789481E+03  0.17770000000E+01 0.  1.
         15    1    1    2    0    0  0.69116813944E-01  0.25933482640E+01  0.24939954249E+02  0.25137407967E+02  0.17770000000E+01 0. -1.
</event>
<event>
 6   1  0.1826851E-04  0.5014028E+03  0.7546771E-02  0.9396676E-01
        -11   -1    0    0    0    0  0.00000000000E+00  0.00000000000E+00  0.50000000000E+03  0.50000000000E+03  0.00000000000E+00 0.  1.
         11   -1    0    0    0    0 -0.00000000000E+00 -0.00000000000E+00 -0.50000000000E+03  0.50000000000E+03  0.00000000000E+00 0. -1.
        -11    1    1    2    0    0 -0.11195419976E+02  0.76719010636E+01  0.37752455571E+03  0.37776842861E+03  0.00000000000E+00 0.  1.
         11    1    1    2    0    0 -0.65606131216E+01  0.26098279326E+01 -0.49854717518E+03  0.49859717080E+03  0.00000000000E+00 0. -1.
        -15    1    1    2    0    0  0.14373261989E+02 -0.13157502220E+02  0.10807007798E+03  0.10982718247E+03  0.17770000000E+01 0. -1.
         15    1    1    2    0    0  0.33827711084E+01  0.28757732237E+01  0.12952541499E+02  0.13807218123E+02  0.17770000000E+01 0.  1.
</event>
<event>
 6   1  0.1826851E-04  0.5000423E+03  0.7546771E-02  0.9399715E-01
        -11   -1    0    0    0    0  0.00000000000E+00  0.00000000000E+00  0.50000000000E+03  0.50000000000E+03  0.00000000000E+00 0.  1.
         11   -1    0    0    0    0 -0.00000000000E+00 -0.00000000000E+00 -0.50000000000E+03  0.50000000000E+03  0.00000000000E+00 0.  1.
        -11    1    1    2    0    0  0.69233537448E+01  0.32131324741E+01  0.31332074996E+03  0.31341370328E+03  0.00000000000E+00 0.  1.
         11    1    1    2    0    0 -0.79866686892E+01 -0.66400549967E+01 -0.49984982272E+03  0.49995772069E+03  0.00000000000E+00 0.  1.
        -15    1    1    2    0    0 -0.33353549047E+00  0.26141403558E+01  0.14131931644E+03  0.14135505617E+03  0.17770000000E+01 0.  1.
         15    1    1    2    0    0  0.13968504349E+01  0.81278216677E+00  0.45209756310E+02  0.45273519861E+02  0.17770000000E+01 0.  1.
</event>
<event>
 6   1  0.1826851E-04  0.5000367E+03  0.7546771E-02  0.9399727E-01
        -11   -1    0    0    0    0  0.00000000000E+00  0.00000000000E+00  0.50000000000E+03  0.50000000000E+03  0.00000000000E+00 0.  1.
         11   -1    0    0    0    0 -0.00000000000E+00 -0.00000000000E+00 -0.50000000000E+03  0.50000000000E+03  0.00000000000E+00 0. -1.
        -11    1    1    2    0    0 -0.17470627126E+01 -0.11227979302E+02  0.49983410647E+03  0.49996325239E+03  0.00000000000E+00 0.  1.
         11    1    1    2    0    0  0.12818717530E+01  0.43211434402E+01 -0.95909981457E+02  0.96015832126E+02  0.00000000000E+00 0. -1.
        -15    1    1    2    0    0 -0.10834328333E+01  0.80922938845E+00 -0.12706358868E+03  0.12708320887E+03  0.17770000000E+01 0. -1.
         15    1    1    2    0    0  0.15486237928E+01  0.60976064732E+01 -0.27686053633E+03  0.27693770662E+03  0.17770000000E+01 0. -1.
</event>
<event>
 6   1  0.1826851E-04  0.5076139E+03  0.7546771E-02  0.9382932E-01
        -11   -1    0    0    0    0  0.00000000000E+00  0.00000000000E+00  0.50000000000E+03  0.50000000000E+03  0.00000000000E+00 0. -1.
         11   -1    0    0    0    0 -0.00000000000E+00 -0.00000000000E+00 -0.50000000000E+03  0.50000000000E+03  0.00000000000E+00 0. -1.
        -11    1    1    2    0    0  0.33787826429E+02  0.34267246346E+02  0.49002874967E+03  0.49238606488E+03  0.00000000000E+00 0. -1.
         11    1    1    2    0    0 -0.98440764218E+01  0.12491260965E+00 -0.43306956051E+03  0.43318144660E+03  0.00000000000E+00 0. -1.
        -15    1    1    2    0    0 -0.27961266504E+02 -0.26880774843E+02 -0.42575720355E+02  0.57621681452E+02  0.17770000000E+01 0. -1.
         15    1    1    2    0    0  0.40175164963E+01 -0.75113841134E+01 -0.14383468809E+02  0.16810807062E+02  0.17770000000E+01 0.  1.
</event>
<event>
 6   1  0.1826851E-04  0.5015972E+03  0.7546771E-02  0.9396243E-01
        -11   -1    0    0    0    0  0.00000000000E+00  0.00000000000E+00  0.50000000000E+03  0.50000000000E+03  0.00000000000E+00 0. -1.
         11   -1    0    0    0    0 -0.00000000000E+00 -0.00000000000E+00 -0.50000000000E+03  0.50000000000E+03  0.00000000000E+00 0.  1.
        -11    1    1    2    0    0 -0.12180021463E+02 -0.34007795984E+01  0.47368420441E+03  0.47385297691E+03  0.00000000000E+00 0. -1.
         11    1    1    2    0    0  0.12420308571E+02 -0.14170611615E+01 -0.49824599825E+03  0.49840279584E+03  0.00000000000E+00 0.  1.
        -15    1    1    2    0    0 -0.49416311944E+01  0.72782213918E+00  0.16887593519E+02  0.17700225642E+02  0.17770000000E+01 0.  1.
         15    1    1    2    0    0  0.47013440870E+01  0.40900186207E+01  0.76742003267E+01  0.10044001603E+02  0.17770000000E+01 0. -1.
</event>
<event>
 6   1  0.1826851E-04  0.5046731E+03  0.7546771E-02  0.9389414E-01
        -11   -1    0    0    0    0  0.00000000000E+00  0.00000000000E+00  0.50000000000E+03  0.50000000000E+03  0.00000000000E+00 0.  1.
         11   -1    0    0    0    0 -0.00000000000E+00 -0.00000000000E+00 -0.50000000000E+03  0.50000000000E+03  0.00000000000E+00 0. -1.
        -11    1    1    2    0    0 -0.13034952038E+02 -0.48810954448E+01  0.49513129726E+03  0.49532689872E+03  0.00000000000E+00 0.  1.
         11    1    1    2    0    0 -0.30240621529E+00  0.12100723055E+02 -0.48207059144E+03  0.48222253585E+03  0.00000000000E+00 0. -1.
        -15    1    1    2    0    0  0.78103869070E+01  0.11295726675E+01 -0.56224207360E+01  0.98512649940E+01  0.17770000000E+01 0.  1.
         15    1    1    2    0    0  0.55269713459E+01 -0.83492002779E+01 -0.74382850824E+01  0.12599300437E+02  0.17770000000E+01 0. -1.
</event>
<event>
 6   1  0.1826851E-04  0.5038655E+03  0.7546771E-02  0.9391202E-01
        -11   -1    0    0    0    0  0.00000000000E+00  0.00000000000E+00  0.50000000000E+03  0.50000000000E+03  0.00000000000E+00 0.  1.
         11   -1    0    0    0    0 -0.00000000000E+00 -0.00000000000E+00 -0.50000000000E+03  0.50000000000E+03  0.00000000000E+00 0.  1.
        -11    1    1    2    0    0  0.63733053878E+01  0.20014121920E+02  0.49568967159E+03  0.49613449247E+03  0.00000000000E+00 0.  1.
         11    1    1    2    0    0  0.91618652608E+01  0.30544647648E+00 -0.43011565877E+03  0.43021333428E+03  0.00000000000E+00 0.  1.
        -15    1    1    2    0    0 -0.16545426215E+02 -0.96335918450E+01 -0.55824876932E+02  0.59043474101E+02  0.17770000000E+01 0. -1.
         15    1    1    2    0    0  0.10102555667E+01 -0.10685976551E+02 -0.97491358873E+01  0.14608699145E+02  0.17770000000E+01 0.  1.
</event>
<event>
 6   1  0.1826851E-04  0.5004480E+03  0.7546771E-02  0.9398808E-01
        -11   -1    0    0    0    0  0.00000000000E+00  0.00000000000E+00  0.50000000000E+03  0.50000000000E+03  0.00000000000E+00 0. -1.
         11   -1    0    0    0    0 -0.00000000000E+00 -0.00000000000E+00 -0.50000000000E+03  0.50000000000E+03  0.00000000000E+00 0. -1.
        -11    1    1    2    0    0  0.15729679762E+02  0.34385057653E+02  0.25728607944E+03  0.26004976772E+03  0.00000000000E+00 0. -1.
         11    1    1    2    0    0 -0.45275643444E+02 -0.45498046865E+02 -0.49541120693E+03  0.49955201943E+03  0.00000000000E+00 0. -1.
        -15    1    1    2    0    0  0.23122508048E+02  0.11703025269E+02  0.17460903891E+03  0.17653069245E+03  0.17770000000E+01 0.  1.
         15    1    1    2    0    0  0.64234556348E+01 -0.59003605739E+00  0.63516088584E+02  0.63867520406E+02  0.17770000000E+01 0. -1.
</event>
<event>
 6   1  0.1826851E-04  0.5000980E+03  0.7546771E-02  0.9399591E-01
        -11   -1    0    0    0    0  0.00000000000E+00  0.00000000000E+00  0.50000000000E+03  0.50000000000E+03  0.00000000000E+00 0.  1.
         11   -1    0    0    0    0 -0.00000000000E+00 -0.00000000000E+00 -0.50000000000E+03  0.50000000000E+03  0.00000000000E+00 0. -1.
        -11    1    1    2    0    0  0.42272619305E+01 -0.76805578947E+01  0.26698423232E+03  0.26712813596E+03  0.00000000000E+00 0.  1.
         11    1    1    2    0    0  0.13489775490E+00  0.86085996024E+01 -0.49982788069E+03  0.49990202690E+03  0.00000000000E+00 0. -1.
        -15    1    1    2    0    0 -0.32496410228E+01 -0.29350761608E+01  0.15533258176E+03  0.15540445143E+03  0.17770000000E+01 0.  1.
         15    1    1    2    0    0 -0.11125186627E+01  0.20070344531E+01  0.77511066607E+02  0.77565385712E+02  0.17770000000E+01 0.  1.
</event>
<event>
 6   1  0.1826851E-04  0.5066799E+03  0.7546771E-02  0.9384986E-01
        -11   -1    0    0    0    0  0.00000000000E+00  0.00000000000E+00  0.50000000000E+03  0.50000000000E+03  0.00000000000E+00 0.  1.
         11   -1    0    0    0    0 -0.00000000000E+00 -0.00000000000E+00 -0.50000000000E+03  0.50000000000E+03  0.00000000000E+00 0. -1.
        -11    1    1    2    0    0 -0.14593022757E+02  0.84212697899E+02  0.13156420553E+03  0.15688809699E+03  0.00000000000E+00 0.  1.
         11    1    1    2    0    0 -0.21900459006E+02 -0.12428308747E+03 -0.47690549698E+03  0.49332014857E+03  0.00000000000E+00 0. -1.
        -15    1    1    2    0    0  0.28547824448E+01  0.41256790544E+01  0.59407894501E+02  0.59645843682E+02  0.17770000000E+01 0.  1.
         15    1    1    2    0    0  0.33638699319E+02  0.35944710518E+02  0.28593339695E+03  0.29014591075E+03  0.17770000000E+01 0. -1.
</event>
<event>
 6   1  0.1826851E-04  0.5007400E+03  0.7546771E-02  0.9398155E-01
        -11   -1    0    0    0    0  0.00000000000E+00  0.00000000000E+00  0.50000000000E+03  0.50000000000E+03  0.00000000000E+00 0. -1.
         11   -1    0    0    0    0 -0.00000000000E+00 -0.00000000000E+00 -0.50000000000E+03  0.50000000000E+03  0.00000000000E+00 0. -1.
        -11    1    1    2    0    0 -0.48937578524E+01  0.69542907410E+01  0.24058939375E+02  0.25517515347E+02  0.00000000000E+00 0. -1.
         11    1    1    2    0    0 -0.63921507016E-01 -0.96488684063E+01 -0.49916673279E+03  0.49925998425E+03  0.00000000000E+00 0. -1.
        -15    1    1    2    0    0 -0.17610989710E+01  0.73798674012E+00  0.66848951565E+02  0.66899821737E+02  0.17770000000E+01 0.  1.
         15    1    1    2    0    0  0.67187783305E+01  0.19565909252E+01  0.40825884185E+03  0.40832267866E+03  0.17770000000E+01 0. -1.
</event>
<event>
 6   1  0.1826851E-04  0.4815371E+03  0.7546771E-02  0.9442097E-01
        -11   -1    0    0    0    0  0.00000000000E+00  0.00000000000E+00  0.50000000000E+03  0.50000000000E+03  0.00000000000E+00 0.  1.
         11   -1    0    0    0    0 -0.00000000000E+00 -0.00000000000E+00 -0.50000000000E+03  0.50000000000E+03  0.00000000000E+00 0. -1.
        -11    1    1    2    0    0 -0.17821728085E+02  0.17681376533E+02  0.48196683326E+03  0.48262021656E+03  0.00000000000E+00 0.  1.
         11    1    1    2    0    0 -0.94851249562E+01  0.12987589944E+01 -0.48093318250E+03  0.48102846111E+03  0.00000000000E+00 0. -1.
        -15    1    1    2    0    0  0.21369842788E+02 -0.20706967275E+02  0.15069030457E+00  0.29809882776E+02  0.17770000000E+01 0.  1.
         15    1    1    2    0    0  0.59370102526E+01  0.17268317475E+01 -0.11843410697E+01  0.65414395505E+01  0.17770000000E+01 0. -1.
</event>
<event>
 6   1  0.1826851E-04  0.4535649E+03  0.7546771E-02  0.9510161E-01
        -11   -1    0    0    0    0  0.00000000000E+00  0.00000000000E+00  0.50000000000E+03  0.50000000000E+03  0.00000000000E+00 0. -1.
         11   -1    0    0    0    0 -0.00000000000E+00 -0.00000000000E+00 -0.50000000000E+03  0.50000000000E+03  0.00000000000E+00 0. -1.
        -11    1    1    2    0    0  0.42651868923E+02  0.11838789883E+02  0.44457012820E+03  0.44676832672E+03  0.00000000000E+00 0. -1.
         11    1    1    2    0    0 -0.10049853004E+02  0.90365874228E+01 -0.46114028812E+03  0.46133829755E+03  0.00000000000E+00 0. -1.
        -15    1    1    2    0    0 -0.44702722342E+01  0.97776678669E+01 -0.28510587857E+02  0.30522081706E+02  0.17770000000E+01 0. -1.
         15    1    1    2    0    0 -0.28131743685E+02 -0.30653045172E+02  0.45080747780E+02  0.61371294027E+02  0.17770000000E+01 0.  1.
</event>
<event>
 6   1  0.1826851E-04  0.5004946E+03  0.7546771E-02  0.9398704E-01
        -11   -1    0    0    0    0  0.00000000000E+00  0.00000000000E+00  0.50000000000E+03  0.50000000000E+03  0.00000000000E+00 0. -1.
         11   -1    0    0    0    0 -0.00000000000E+00 -0.00000000000E+00 -0.50000000000E+03  0.50000000000E+03  0.00000000000E+00 0. -1.
        -11    1    1    2    0    0 -0.89339798148E+01 -0.15733459863E+02  0.40511887829E+03  0.40552270380E+03  0.00000000000E+00 0. -1.
         11    1    1    2    0    0  0.13505420609E+02  0.72632908536E+01 -0.49926994146E+03  0.49950538158E+03  0.00000000000E+00 0. -1.
        -15    1    1    2    0    0 -0.12322146775E+01  0.67418254862E+01  0.76959132843E+02  0.77284127872E+02  0.17770000000E+01 0. -1.
         15    1    1    2    0    0 -0.33392261168E+01  0.17283435228E+01  0.17191930332E+02  0.17687786745E+02  0.17770000000E+01 0.  1.
</event>
<event>
 6   1  0.1826851E-04  0.5001025E+03  0.7546771E-02  0.9399580E-01
        -11   -1    0    0    0    0  0.00000000000E+00  0.00000000000E+00  0.50000000000E+03  0.50000000000E+03  0.00000000000E+00 0. -1.
         11   -1    0    0    0    0 -0.00000000000E+00 -0.00000000000E+00 -0.50000000000E+03  0.50000000000E+03  0.00000000000E+00 0.  1.
        -11    1    1    2    0    0 -0.16022251283E+01 -0.87511722594E+01  0.27324965097E+03  0.27339444379E+03  0.00000000000E+00 0. -1.
         11    1    1    2    0    0  0.30866625408E+01  0.66169803744E+01 -0.49984415665E+03  0.49989748234E+03  0.00000000000E+00 0.  1.
        -15    1    1    2    0    0  0.93624326049E+00 -0.11952936841E+01  0.11463711137E+03  0.11466093629E+03  0.17770000000E+01 0. -1.
         15    1    1    2    0    0 -0.24206806730E+01  0.33294855691E+01  0.11195739431E+03  0.11204713758E+03  0.17770000000E+01 0.  1.
</event>
<event>
 6   1  0.1826851E-04  0.5003570E+03  0.7546771E-02  0.9399011E-01
        -11   -1    0    0    0    0  0.00000000000E+00  0.00000000000E+00  0.50000000000E+03  0.50000000000E+03  0.00000000000E+00 0. -1.
         11   -1    0    0    0    0 -0.00000000000E+00 -0.00000000000E+00 -0.50000000000E+03  0.50000000000E+03  0.00000000000E+00 0.  1.
        -11    1    1    2    0    0 -0.66599215391E+01  0.20717496494E+01  0.49959426720E+03  0.49964295103E+03  0.00000000000E+00 0. -1.
         11    1    1    2    0    0 -0.28507296030E+00  0.58382422117E+01 -0.40208785464E+03  0.40213033855E+03  0.00000000000E+00 0.  1.
        -15    1    1    2    0    0  0.20420099760E+01 -0.34978785868E+01 -0.54715403173E+02  0.54893879738E+02  0.17770000000E+01 0.  1.
         15    1    1    2    0    0  0.49029845234E+01 -0.44121132742E+01 -0.42791009388E+02  0.43332830674E+02  0.17770000000E+01 0. -1.
</event>
<event>
 6   1  0.1826851E-04  0.5090510E+03  0.7546771E-02  0.9379782E-01
        -11   -1    0    0    0    0  0.00000000000E+00  0.00000000000E+00  0.50000000000E+03  0.50000000000E+03  0.00000000000E+00 0. -1.
         11   -1    0    0    0    0 -0.00000000000E+00 -0.00000000000E+00 -0.50000000000E+03  0.50000000000E+03  0.00000000000E+00 0. -1.
        -11    1    1    2    0    0  0.97705538511E+01  0.57517873159E+02  0.11955396644E+03  0.13302977241E+03  0.00000000000E+00 0. -1.
         11    1    1    2    0    0  0.22649052131E+01 -0.90521898064E+01 -0.49086029849E+03  0.49094898368E+03  0.00000000000E+00 0. -1.
        -15    1    1    2    0    0 -0.17570657300E+01 -0.36879795506E+01  0.14619029624E+03  0.14625815846E+03  0.17770000000E+01 0. -1.
         15    1    1    2    0    0 -0.10278393334E+02 -0.44777703802E+02  0.22511603581E+03  0.22976308545E+03  0.17770000000E+01 0.  1.
</event>
<event>
 6   1  0.1826851E-04  0.5021209E+03  0.7546771E-02  0.9395077E-01
        -11   -1    0    0    0    0  0.00000000000E+00  0.00000000000E+00  0.50000000000E+03  0.50000000000E+03  0.00000000000E+00 0. -1.
         11   -1    0    0    0    0 -0.00000000000E+00 -0.00000000000E+00 -0.50000000000E+03  0.50000000000E+03  0.00000000000E+00 0. -1.
        -11    1    1    2    0    0  0.15745844498E+02  0.88148969082E+01  0.49755201826E+03  0.49787914688E+03  0.00000000000E+00 0. -1.
         11    1    1    2    0    0 -0.42279140325E+01  0.14013742098E+02 -0.33493706123E+03  0.33525676013E+03  0.00000000000E+00 0. -1.
        -15    1    1    2    0    0 -0.17324413520E+02 -0.43285765868E+01 -0.78306942603E+02  0.80336833818E+02  0.17770000000E+01 0.  1.
         15    1    1    2    0    0  0.58064830541E+01 -0.18500062420E+02 -0.84308014424E+02  0.86527259174E+02  0.17770000000E+01 0. -1.
</event>
<event>
 6   1  0.1826851E-04  0.5015482E+03  0.7546771E-02  0.9396352E-01
        -11   -1    0    0    0    0  0.00000000000E+00  0.00000000000E+00  0.50000000000E+03  0.50000000000E+03  0.00000000000E+00 0. -1.
         11   -1    0    0    0    0 -0.00000000000E+00 -0.00000000000E+00 -0.50000000000E+03  0.50000000000E+03  0.00000000000E+00 0. -1.
        -11    1    1    2    0    0  0.10407709016E+02 -0.45310953945E+01  0.45463523396E+03  0.45477692025E+03  0.00000000000E+00 0. -1.
         11    1    1    2    0    0 -0.87099338747E+01 -0.99402357653E+01 -0.49827658611E+03  0.49845183067E+03  0.00000000000E+00 0. -1.
        -15    1    1    2    0    0 -0.45543618001E+01  0.63540508458E+01  0.19738115663E+02  0.21304157164E+02  0.17770000000E+01 0. -1.
         15    1    1    2    0    0  0.28565866588E+01  0.81172803140E+01  0.23903236486E+02  0.25467091914E+02  0.17770000000E+01 0.  1.
</event>
<event>
 6   1  0.1826851E-04  0.5004357E+03  0.7546771E-02  0.9398835E-01
        -11   -1    0    0    0    0  0.00000000000E+00  0.00000000000E+00  0.50000000000E+03  0.50000000000E+03  0.00000000000E+00 0.  1.
         11   -1    0    0    0    0 -0.00000000000E+00 -0.00000000000E+00 -0.50000000000E+03  0.50000000000E+03  0.00000000000E+00 0.  1.
        -11    1    1    2    0    0 -0.19912362925E+02 -0.21318922265E+01  0.49916277263E+03  0.49956433094E+03  0.00000000000E+00 0.  1.
         11    1    1    2    0    0 -0.28250572517E+00  0.22593490891E+01 -0.95447517192E+02  0.95474672065E+02  0.00000000000E+00 0.  1.
        -15    1    1    2    0    0  0.74722214617E+01 -0.96858029683E+01 -0.90959380872E+02  0.91795509533E+02  0.17770000000E+01 0. -1.
         15    1    1    2    0    0  0.12722647188E+02  0.95583461057E+01 -0.31275587457E+03  0.31316548746E+03  0.17770000000E+01 0.  1.
</event>
<event>
 6   1  0.1826851E-04  0.4921806E+03  0.7546771E-02  0.9417478E-01
        -11   -1    0    0    0    0  0.00000000000E+00  0.00000000000E+00  0.50000000000E+03  0.50000000000E+03  0.00000000000E+00 0. -1.
         11   -1    0    0    0    0 -0.00000000000E+00 -0.00000000000E+00 -0.50000000000E+03  0.50000000000E+03  0.00000000000E+00 0. -1.
        -11    1    1    2    0    0  0.16039656973E+01  0.80584802368E+01  0.49103295777E+03  0.49110169764E+03  0.00000000000E+00 0. -1.
         11    1    1    2    0    0  0.83809199705E+01  0.23570930482E+01 -0.49329101064E+03  0.49336783122E+03  0.00000000000E+00 0. -1.
        -15    1    1    2    0    0 -0.55070844140E+01 -0.56602541146E+01 -0.73727813084E+00  0.81282078853E+01  0.17770000000E+01 0.  1.
         15    1    1    2    0    0 -0.44778012538E+01 -0.47553191704E+01  0.29953310037E+01  0.74022632554E+01  0.17770000000E+01 0. -1.
</event>
<event>
 6   1  0.1826851E-04  0.4833003E+03  0.7546771E-02  0.9437972E-01
        -11   -1    0    0    0    0  0.00000000000E+00  0.00000000000E+00  0.50000000000E+03  0.50000000000E+03  0.00000000000E+00 0.  1.
         11   -1    0    0    0    0 -0.00000000000E+00 -0.00000000000E+00 -0.50000000000E+03  0.50000000000E+03  0.00000000000E+00 0.  1.
        -11    1    1    2    0    0  0.34839444011E+01 -0.25000008975E+02  0.48870391284E+03  0.48935534405E+03  0.00000000000E+00 0.  1.
         11    1    1    2    0    0  0.70275933097E+01  0.31761492157E+01 -0.47755077843E+03  0.47761304523E+03  0.00000000000E+00 0.  1.
        -15    1    1    2    0    0 -0.44723435721E+00  0.15873245616E+02  0.10820038431E+01  0.16015255423E+02  0.17770000000E+01 0.  1.
         15    1    1    2    0    0 -0.10064303354E+02  0.59506141429E+01 -0.12235138257E+02  0.17016355304E+02  0.17770000000E+01 0. -1.
</event>
<event>
 6   1  0.1826851E-04  0.5004451E+03  0.7546771E-02  0.9398814E-01
        -11   -1    0    0    0    0  0.00000000000E+00  0.00000000000E+00  0.50000000000E+03  0.50000000000E+03  0.00000000000E+00 0. -1.
         11   -1    0    0    0    0 -0.00000000000E+00 -0.00000000000E+00 -0.50000000000E+03  0.50000000000E+03  0.00000000000E+00 0.  1.
        -11    1    1    2    0    0 -0.13685185338E+01 -0.63584276730E+01  0.30489193119E+03  0.30496129615E+03  0.00000000000E+00 0. -1.
         11    1    1    2    0    0 -0.57771046652E+01 -0.41529212809E+01 -0.49950422249E+03  0.49955489186E+03  0.00000000000E+00 0.  1.
        -15    1    1    2    0    0  0.66249469351E+01  0.66697469744E+01  0.56397480585E+02  0.57203225363E+02  0.17770000000E+01 0. -1.
         15    1    1    2    0    0  0.52067626393E+00  0.38416019795E+01  0.13821481071E+03  0.13828058663E+03  0.17770000000E+01 0.  1.
</event>
<event>
 6   1  0.1826851E-04  0.5017804E+03  0.7546771E-02  0.9395835E-01
        -11   -1    0    0    0    0  0.00000000000E+00  0.00000000000E+00  0.50000000000E+03  0.50000000000E+03  0.00000000000E+00 0.  1.
         11   -1    0    0    0    0 -0.00000000000E+00 -0.00000000000E+00 -0.50000000000E+03  0.50000000000E+03  0.00000000000E+00 0.  1.
        -11    1    1    2    0    0 -0.13333907006E+02  0.17873014938E+02  0.18957445354E+03  0.19088140604E+03  0.00000000000E+00 0.  1.
         11    1    1    2    0    0 -0.28635902810E+01 -0.16319086526E+02 -0.49794398071E+03  0.49821955066E+03  0.00000000000E+00 0.  1.
        -15    1    1    2    0    0 -0.13754728835E+01  0.85594254611E+01  0.22151385109E+03  0.22169054929E+03  0.17770000000E+01 0. -1.
         15    1    1    2    0    0  0.17572970171E+02 -0.10113353873E+02  0.86855676075E+02  0.89208494005E+02  0.17770000000E+01 0.  1.
</event>
<event>
 6   1  0.1826851E-04  0.5271152E+03  0.7546771E-02  0.9341101E-01
        -11   -1    0    0    0    0  0.00000000000E+00  0.00000000000E+00  0.50000000000E+03  0.50000000000E+03  0.00000000000E+00 0.  1.
         11   -1    0    0    0    0 -0.00000000000E+00 -0.00000000000E+00 -0.50000000000E+03  0.50000000000E+03  0.00000000000E+00 0.  1.
        -11    1    1    2    0    0  0.36261045625E+02 -0.31776782199E+02  0.47042044094E+03  0.47288478362E+03  0.00000000000E+00 0.  1.
         11    1    1    2    0    0  0.11279875168E+02  0.25733746584E+02 -0.43952928512E+03  0.44042644537E+03  0.00000000000E+00 0.  1.
        -15    1    1    2    0    0 -0.50511828835E+02  0.18383212997E+02 -0.58677504534E+00  0.53785587347E+02  0.17770000000E+01 0.  1.
         15    1    1    2    0    0  0.29709080424E+01 -0.12340177382E+02 -0.30304380776E+02  0.32903183670E+02  0.17770000000E+01 0. -1.
</event>
<event>
 6   1  0.1826851E-04  0.4899097E+03  0.7546771E-02  0.9422675E-01
        -11   -1    0    0    0    0  0.00000000000E+00  0.00000000000E+00  0.50000000000E+03  0.50000000000E+03  0.00000000000E+00 0.  1.
         11   -1    0    0    0    0 -0.00000000000E+00 -0.00000000000E+00 -0.50000000000E+03  0.50000000000E+03  0.00000000000E+00 0. -1.
        -11    1    1    2    0    0 -0.22062551544E+02 -0.14331473073E+02  0.49278326676E+03  0.49348505074E+03  0.00000000000E+00 0.  1.
         11    1    1    2    0    0  0.59124110836E+01  0.19155748519E+02 -0.48608904973E+03  0.48650227500E+03  0.00000000000E+00 0. -1.
        -15    1    1    2    0    0  0.13824546254E+02 -0.92528901567E+00 -0.46027460461E+01  0.14707727189E+02  0.17770000000E+01 0.  1.
         15    1    1    2    0    0  0.23255942063E+01 -0.38989864305E+01 -0.20914709830E+01  0.53049470752E+01  0.17770000000E+01 0. -1.
</event>
<event>
 6   1  0.1826851E-04  0.5000333E+03  0.7546771E-02  0.9399735E-01
        -11   -1    0    0    0    0  0.00000000000E+00  0.00000000000E+00  0.50000000000E+03  0.50000000000E+03  0.00000000000E+00 0.  1.
         11   -1    0    0    0    0 -0.00000000000E+00 -0.00000000000E+00 -0.50000000000E+03  0.50000000000E+03  0.00000000000E+00 0. -1.
        -11    1    1    2    0    0 -0.12916014548E+02 -0.93713695411E+01  0.49971197575E+03  0.49996670360E+03  0.00000000000E+00 0.  1.
         11    1    1    2    0    0  0.90020074988E+01  0.70567894186E+01 -0.32117947421E+03  0.32138308772E+03  0.00000000000E+00 0. -1.
        -15    1    1    2    0    0  0.88613083973E+00  0.20894702633E+01 -0.94852877728E+02  0.94896666201E+02  0.17770000000E+01 0. -1.
         15    1    1    2    0    0  0.30278762091E+01  0.22510985930E+00 -0.83679623809E+02  0.83753542483E+02  0.17770000000E+01 0.  1.
</event>
<event>
 6   1  0.1826851E-04  0.4701821E+03  0.7546771E-02  0.9469118E-01
        -11   -1    0    0    0    0  0.00000000000E+00  0.00000000000E+00  0.50000000000E+03  0.50000000000E+03  0.00000000000E+00 0. -1.
         11   -1    0    0    0    0 -0.00000000000E+00 -0.00000000000E+00 -0.50000000000E+03  0.50000000000E+03  0.00000000000E+00 0.  1.
        -11    1    1    2    0    0 -0.13832676390E+02  0.41745089956E+02  0.45949550534E+03  0.46159518509E+03  0.00000000000E+00 0. -1.
         11    1    1    2    0    0  0.82071341372E+01  0.94175221260E+01 -0.48024255915E+03  0.48040499830E+03  0.00000000000E+00 0.  1.
        -15    1    1    2    0    0 -0.41291281640E+01 -0.53829776337E+01  0.69599791278E+00  0.70475733196E+01  0.17770000000E+01 0.  1.
         15    1    1    2    0    0  0.97546704173E+01 -0.45779634448E+02  0.20051055893E+02  0.50952243293E+02  0.17770000000E+01 0. -1.
</event>
<event>
 6   1  0.1826851E-04  0.5038453E+03  0.7546771E-02  0.9391246E-01
        -11   -1    0    0    0    0  0.00000000000E+00  0.00000000000E+00  0.50000000000E+03  0.50000000000E+03  0.00000000000E+00 0. -1.
         11   -1    0    0    0    0 -0.00000000000E+00 -0.00000000000E+00 -0.50000000000E+03  0.50000000000E+03  0.00000000000E+00 0.  1.
        -11    1    1    2    0    0  0.22608516043E+02 -0.29509043852E+02  0.26886471969E+03  0.27142248647E+03  0.00000000000E+00 0. -1.
         11    1    1    2    0    0 -0.57347517433E+01 -0.15748435478E+02 -0.49587151739E+03  0.49615467584E+03  0.00000000000E+00 0.  1.
        -15    1    1    2    0    0 -0.14576385091E+02  0.42710672984E+02  0.21788629629E+03  0.22251801821E+03  0.17770000000E+01 0. -1.
         15    1    1    2    0    0 -0.22973792091E+01  0.25468063460E+01  0.91205014157E+01  0.99048194768E+01  0.17770000000E+01 0. -1.
</event>
<event>
 6   1  0.1826851E-04  0.5101160E+03  0.7546771E-02  0.9377455E-01
        -11   -1    0    0    0    0  0.00000000000E+00  0.00000000000E+00  0.50000000000E+03  0.50000000000E+03  0.00000000000E+00 0.  1.
         11   -1    0    0    0    0 -0.00000000000E+00 -0.00000000000E+00 -0.50000000000E+03  0.50000000000E+03  0.00000000000E+00 0.  1.
        -11    1    1    2    0    0 -0.16590811258E+02 -0.69674976738E+01  0.46294722836E+03  0.46329681338E+03  0.00000000000E+00 0.  1.
         11    1    1    2    0    0 -0.54820152458E+01 -0.67087184843E+01 -0.48980734819E+03  0.48988396354E+03  0.00000000000E+00 0.  1.
        -15    1    1    2    0    0  0.19354573453E+02  0.13292334444E+02  0.32599214782E+02  0.40213830978E+02  0.17770000000E+01 0.  1.
         15    1    1    2    0    0  0.27182530512E+01  0.38388171453E+00 -0.57390949587E+01  0.66053920978E+01  0.17770000000E+01 0. -1.
</event>
<event>
 6   1  0.1826851E-04  0.5001378E+03  0.7546771E-02  0.9399501E-01
        -11   -1    0    0    0    0  0.00000000000E+00  0.00000000000E+00  0.50000000000E+03  0.50000000000E+03  0.00000000000E+00 0. -1.
         11   -1    0    0    0    0 -0.00000000000E+00 -0.00000000000E+00 -0.50000000000E+03  0.50000000000E+03  0.00000000000E+00 0. -1.
        -11    1    1    2    0    0 -0.14393113140E+02  0.25618504262E+01  0.13309130086E+03  0.13389181882E+03  0.00000000000E+00 0. -1.
         11    1    1    2    0    0  0.36037247190E+02 -0.11031972409E+02 -0.49843937081E+03  0.49986217498E+03  0.00000000000E+00 0. -1.
        -15    1    1    2    0    0 -0.21915653598E+02  0.89072186491E+01  0.34459969891E+03  0.34541532195E+03  0.17770000000E+01 0. -1.
         15    1    1    2    0    0  0.27151954816E+00 -0.43709666575E+00  0.20748371045E+02  0.20830684251E+02  0.17770000000E+01 0.  1.
</event>
<event>
 6   1  0.1826851E-04  0.4844201E+03  0.7546771E-02  0.9435362E-01
        -11   -1    0    0    0    0  0.00000000000E+00  0.00000000000E+00  0.50000000000E+03  0.50000000000E+03  0.00000000000E+00 0.  1.
         11   -1    0    0    0    0 -0.00000000000E+00 -0.00000000000E+00 -0.50000000000E+03  0.50000000000E+03  0.00000000000E+00 0.  1.
        -11    1    1    2    0    0 -0.10544176667E+02 -0.17208404362E+02  0.47912790113E+03  0.47955276506E+03  0.00000000000E+00 0.  1.
         11    1    1    2    0    0  0.47630696809E+01 -0.95412182835E+01 -0.48961451376E+03  0.48973063388E+03  0.00000000000E+00 0.  1.
        -15    1    1    2    0    0  0.54457524048E+01  0.24561233661E+02  0.11478218529E+02  0.27709522692E+02  0.17770000000E+01 0.  1.
         15    1    1    2    0    0  0.33535458100E+00  0.21883889838E+01 -0.99160589812E+00  0.30070783655E+01  0.17770000000E+01 0.  1.
</event>
<event>
 6   1  0.1826851E-04  0.4684897E+03  0.7546771E-02  0.9473215E-01
        -11   -1    0    0    0    0  0.00000000000E+00  0.00000000000E+00  0.50000000000E+03  0.50000000000E+03  0.00000000000E+00 0. -1.
         11   -1    0    0    0    0 -0.00000000000E+00 -0.00000000000E+00 -0.50000000000E+03  0.50000000000E+03  0.00000000000E+00 0. -1.
        -11    1    1    2    0    0  0.10667881363E+01  0.37987943316E+02  0.45366511559E+03  0.45525405982E+03  0.00000000000E+00 0. -1.
         11    1    1    2    0    0 -0.30095831205E+01  0.74421791760E+01 -0.48322712279E+03  0.48329379866E+03  0.00000000000E+00 0. -1.
        -15    1    1    2    0    0 -0.16025208534E+01  0.71230956081E+00  0.11457979754E+02  0.11726827663E+02  0.17770000000E+01 0. -1.
         15    1    1    2    0    0  0.35453158376E+01 -0.46142432053E+02  0.18104027440E+02  0.49725313862E+02  0.17770000000E+01 0.  1.
</event>
<event>
 6   1  0.1826851E-04  0.5075595E+03  0.7546771E-02  0.9383052E-01
        -11   -1    0    0    0    0  0.00000000000E+00  0.00000000000E+00  0.50000000000E+03  0.50000000000E+03  0.00000000000E+00 0. -1.
         11   -1    0    0    0    0 -0.00000000000E+00 -0.00000000000E+00 -0.50000000000E+03  0.50000000000E+03  0.00000000000E+00 0. -1.
        -11    1    1    2    0    0  0.34561251657E+02  0.17781950709E+01  0.46989474216E+03  0.47116739149E+03  0.00000000000E+00 0. -1.
         11    1    1    2    0    0 -0.14587463283E+02 -0.13244712289E+02 -0.49204618154E+03  0.49244051545E+03  0.00000000000E+00 0. -1.
        -15    1    1    2    0    0 -0.13973505982E+02  0.30799985426E+01  0.21526687735E+02  0.25909482323E+02  0.17770000000E+01 0.  1.
         15    1    1    2    0    0 -0.60002823920E+01  0.83865186750E+01  0.62475164332E+00  0.10482610738E+02  0.17770000000E+01 0. -1.
</event>
<event>
 6   1  0.1826851E-04  0.4902071E+03  0.7546771E-02  0.9421993E-01
        -11   -1    0    0    0    0  0.00000000000E+00  0.00000000000E+00  0.50000000000E+03  0.50000000000E+03  0.00000000000E+00 0.  1.
         11   -1    0    0    0    0 -0.00000000000E+00 -0.00000000000E+00 -0.50000000000E+03  0.50000000000E+03  0.00000000000E+00 0. -1.
        -11    1    1    2    0    0 -0.34998693162E+01  0.64524448187E+01  0.49171688280E+03  0.49177167056E+03  0.00000000000E+00 0.  1.
         11    1    1    2    0    0  0.41774617784E+01  0.77858927170E+01 -0.48867092588E+03  0.48875080063E+03  0.00000000000E+00 0. -1.
        -15    1    1    2    0    0  0.31486541531E+01 -0.90433353201E+01  0.32719094891E+01  0.10274193759E+02  0.17770000000E+01 0. -1.
         15    1    1    2    0    0 -0.38262466154E+01 -0.51950022156E+01 -0.63178664125E+01  0.92033350579E+01  0.17770000000E+01 0.  1.
</event>
<event>
 6   1  0.1826851E-04  0.5008035E+03  0.7546771E-02  0.9398014E-01
        -11   -1    0    0    0    0  0.00000000000E+00  0.00000000000E+00  0.50000000000E+03  0.50000000000E+03  0.00000000000E+00 0.  1.
         11   -1    0    0    0    0 -0.00000000000E+00 -0.00000000000E+00 -0.50000000000E+03  0.50000000000E+03  0.00000000000E+00 0. -1.
        -11    1    1    2    0    0  0.13499233745E+01 -0.59822029169E+01 -0.82254341635E+01  0.10259961600E+02  0.00000000000E+00 0.  1.
         11    1    1    2    0    0  0.84760951971E+01  0.48721451682E+01 -0.49044610207E+03  0.49054353632E+03  0.00000000000E+00 0. -1.
        -15    1    1    2    0    0 -0.74181411662E+01  0.17604814914E+00  0.48834473207E+03  0.48840433544E+03  0.17770000000E+01 0.  1.
         15    1    1    2    0    0 -0.24078774054E+01  0.93400959963E+00  0.10326804163E+02  0.10792166638E+02  0.17770000000E+01 0.  1.
</event>
<event>
 6   1  0.1826851E-04  0.5001191E+03  0.7546771E-02  0.9399543E-01
        -11   -1    0    0    0    0  0.00000000000E+00  0.00000000000E+00  0.50000000000E+03  0.50000000000E+03  0.00000000000E+00 0.  1.
         11   -1    0    0    0    0 -0.00000000000E+00 -0.00000000000E+00 -0.50000000000E+03  0.50000000000E+03  0.00000000000E+00 0. -1.
        -11    1    1    2    0    0  0.24445354847E+01  0.29751613925E+01  0.26330973534E+02  0.26611041060E+02  0.00000000000E+00 0.  1.
         11    1    1    2    0    0 -0.87925877941E+01 -0.71252313057E+01 -0.49975274495E+03  0.49988087041E+03  0.00000000000E+00 0. -1.
        -15    1    1    2    0    0  0.37823397607E+01  0.34462122290E+01  0.36156429463E+03  0.36160486633E+03  0.17770000000E+01 0.  1.
         15    1    1    2    0    0  0.25657125487E+01  0.70385768416E+00  0.11185747678E+03  0.11190322220E+03  0.17770000000E+01 0.  1.
</event>
<event>
 6   1  0.1826851E-04  0.5007901E+03  0.7546771E-02  0.9398043E-01
        -11   -1    0    0    0    0  0.00000000000E+00  0.00000000000E+00  0.50000000000E+03  0.50000000000E+03  0.00000000000E+00 0.  1.
         11   -1    0    0    0    0 -0.00000000000E+00 -0.00000000000E+00 -0.50000000000E+03  0.50000000000E+03  0.00000000000E+00 0.  1.
        -11    1    1    2    0    0  0.18812887241E+02  0.52698857973E+01  0.49882743140E+03  0.49920987845E+03  0.00000000000E+00 0.  1.
         11    1    1    2    0    0  0.22798789303E+01 -0.38199602156E+01 -0.30737976387E+03  0.30741195354E+03  0.00000000000E+00 0.  1.
        -15    1    1    2    0    0 -0.50322149006E+01  0.40038389347E+01 -0.10798831860E+03  0.10819421702E+03  0.17770000000E+01 0. -1.
         15    1    1    2    0    0 -0.16060551270E+02 -0.54537645164E+01 -0.83459348925E+02  0.85183950991E+02  0.17770000000E+01 0.  1.
</event>
<event>
 6   1  0.1826851E-04  0.5003856E+03  0.7546771E-02  0.9398947E-01
        -11   -1    0    0    0    0  0.00000000000E+00  0.00000000000E+00  0.50000000000E+03  0.50000000000E+03  0.00000000000E+00 0. -1.
         11   -1    0    0    0    0 -0.00000000000E+00 -0.00000000000E+00 -0.50000000000E+03  0.50000000000E+03  0.00000000000E+00 0.  1.
        -11    1    1    2    0    0  0.38677430799E+01 -0.27862316542E+01  0.19106124501E+02  0.19691788055E+02  0.00000000000E+00 0. -1.
         11    1    1    2    0    0 -0.66329959025E+01  0.38995169537E+01 -0.49955517018E+03  0.49961442225E+03  0.00000000000E+00 0.  1.
        -15    1    1    2    0    0 -0.24787298205E+01  0.56002866960E+01  0.16101043440E+03  0.16113666568E+03  0.17770000000E+01 0.  1.
         15    1    1    2    0    0  0.52439826431E+01 -0.67135719955E+01  0.31943861128E+03  0.31955712402E+03  0.17770000000E+01 0. -1.
</event>
<event>
 6   1  0.1826851E-04  0.5026000E+03  0.7546771E-02  0.9394011E-01
        -11   -1    0    0    0    0  0.00000000000E+00  0.00000000000E+00  0.50000000000E+03  0.50000000000E+03  0.00000000000E+00 0. -1.
         11   -1    0    0    0    0 -0.00000000000E+00 -0.00000000000E+00 -0.50000000000E+03  0.50000000000E+03  0.00000000000E+00 0.  1.
        -11    1    1    2    0    0 -0.23287291995E+02 -0.10020816238E+02  0.42466187457E+03  0.42541793855E+03  0.00000000000E+00 0. -1.
         11    1    1    2    0    0  0.62312356921E+01  0.30141847637E+01 -0.49735186415E+03  0.49740003054E+03  0.00000000000E+00 0.  1.
        -15    1    1    2    0    0 -0.10424668822E+00 -0.46507826928E+01  0.11046612506E+02  0.12117178875E+02  0.17770000000E+01 0.  1.
         15    1    1    2    0    0  0.17160302991E+02  0.11657414167E+02  0.61643377077E+02  0.65064852035E+02  0.17770000000E+01 0. -1.
</event>
<event>
 6   1  0.1826851E-04  0.5008516E+03  0.7546771E-02  0.9397906E-01
        -11   -1    0    0    0    0  0.00000000000E+00  0.00000000000E+00  0.50000000000E+03  0.50000000000E+03  0.00000000000E+00 0. -1.
         11   -1    0    0    0    0 -0.00000000000E+00 -0.00000000000E+00 -0.50000000000E+03  0.50000000000E+03  0.00000000000E+00 0.  1.
        -11    1    1    2    0    0  0.62548016865E+01 -0.92482185447E+01  0.26104300364E+03  0.26128165232E+03  0.00000000000E+00 0. -1.
         11    1    1    2    0    0 -0.15341460459E+02 -0.42395687710E+01 -0.49889453378E+03  0.49914836490E+03  0.00000000000E+00 0.  1.
        -15    1    1    2    0    0  0.87396479810E+01 -0.48304045860E+01  0.75484542249E+02  0.76162905031E+02  0.17770000000E+01 0.  1.
         15    1    1    2    0    0  0.34701079115E+00  0.18318191902E+02  0.16236698789E+03  0.16340707774E+03  0.17770000000E+01 0. -1.
</event>
<event>
 6   1  0.1826851E-04  0.5002722E+03  0.7546771E-02  0.9399201E-01
        -11   -1    0    0    0    0  0.00000000000E+00  0.00000000000E+00  0.50000000000E+03  0.50000000000E+03  0.00000000000E+00 0.  1.
         11   -1    0    0    0    0 -0.00000000000E+00 -0.00000000000E+00 -0.50000000000E+03  0.50000000000E+03  0.00000000000E+00 0.  1.
        -11    1    1    2    0    0  0.33955007014E+01  0.92759869051E+01  0.31223085364E+03  0.31238706651E+03  0.00000000000E+00 0.  1.
         11    1    1    2    0    0  0.60015418928E+01 -0.49892365777E+01 -0.49966684399E+03  0.49972779188E+03  0.00000000000E+00 0.  1.
        -15    1    1    2    0    0 -0.22081874817E+01 -0.45014273428E+01  0.97254333209E+02  0.97399702243E+02  0.17770000000E+01 0. -1.
         15    1    1    2    0    0 -0.71888551125E+01  0.21467701537E+00  0.90181657146E+02  0.90485439374E+02  0.17770000000E+01 0.  1.
</event>
<event>
 6   1  0.1826851E-04  0.5073357E+03  0.7546771E-02  0.9383544E-01
        -11   -1    0    0    0    0  0.00000000000E+00  0.00000000000E+00  0.50000000000E+03  0.50000000000E+03  0.00000000000E+00 0.  1.
         11   -1    0    0    0    0 -0.00000000000E+00 -0.00000000000E+00 -0.50000000000E+03  0.50000000000E+03  0.00000000000E+00 0.  1.
        -11    1    1    2    0    0  0.16744675689E+02 -0.20739151789E+02  0.49194270471E+03  0.49266430893E+03  0.00000000000E+00 0.  1.
         11    1    1    2    0    0 -0.70253177093E+01 -0.59717035319E+01 -0.46577064865E+03  0.46586190387E+03  0.00000000000E+00 0.  1.
        -15    1    1    2    0    0 -0.69130083133E+01  0.15937765899E+02 -0.61840232761E+01  0.18525710207E+02  0.17770000000E+01 0.  1.
         15    1    1    2    0    0 -0.28063496662E+01  0.10773089422E+02 -0.19988032785E+02  0.22948076995E+02  0.17770000000E+01 0. -1.
</event>
<event>
 6   1  0.1826851E-04  0.5002677E+03  0.7546771E-02  0.9399211E-01
        -11   -1    0    0    0    0  0.00000000000E+00  0.00000000000E+00  0.50000000000E+03  0.50000000000E+03  0.00000000000E+00 0. -1.
         11   -1    0    0    0    0 -0.00000000000E+00 -0.00000000000E+00 -0.50000000000E+03  0.50000000000E+03  0.00000000000E+00 0. -1.
        -11    1    1    2    0    0 -0.11583516416E+01 -0.12168617977E+02  0.12869302742E+03  0.12927224121E+03  0.00000000000E+00 0. -1.
         11    1    1    2    0    0 -0.31864938455E+01  0.11686773443E+02 -0.49958544633E+03  0.49973228093E+03  0.00000000000E+00 0. -1.
        -15    1    1    2    0    0  0.47322424084E+01  0.28041770796E+01  0.25520757787E+03  0.25527303629E+03  0.17770000000E+01 0.  1.
         15    1    1    2    0    0 -0.38739692131E+00 -0.23223325455E+01  0.11568484105E+03  0.11572244156E+03  0.17770000000E+01 0. -1.
</event>
<event>
 6   1  0.1826851E-04  0.5003401E+03  0.7546771E-02  0.9399049E-01
        -11   -1    0    0    0    0  0.00000000000E+00  0.00000000000E+00  0.50000000000E+03  0.50000000000E+03  0.00000000000E+00 0. -1.
         11   -1    0    0    0    0 -0.00000000000E+00 -0.00000000000E+00 -0.50000000000E+03  0.50000000000E+03  0.00000000000E+00 0.  1.
        -11    1    1    2    0    0 -0.13914942216E+01  0.18095416616E+02  0.49933014803E+03  0.49965986140E+03  0.00000000000E+00 0. -1.
         11    1    1    2    0    0  0.98045261877E+00 -0.79424601878E+01 -0.31606193799E+03  0.31616323728E+03  0.00000000000E+00 0.  1.
        -15    1    1    2    0    0  0.56038194577E+00  0.33702953180E+01 -0.22146441863E+02  0.22478779652E+02  0.17770000000E+01 0.  1.
         15    1    1    2    0    0 -0.14934034289E+00 -0.13523251746E+02 -0.16112176818E+03  0.16169812167E+03  0.17770000000E+01 0.  1.
</event>
<event>
 6   1  0.1826851E-04  0.5002336E+03  0.7546771E-02  0.9399287E-01
        -11   -1    0    0    0    0  0.00000000000E+00  0.00000000000E+00  0.50000000000E+03  0.50000000000E+03  0.00000000000E+00 0.  1.
         11   -1    0    0    0    0 -0.00000000000E+00 -0.00000000000E+00 -0.50000000000E+03  0.50000000000E+03  0.00000000000E+00 0. -1.
        -11    1    1    2    0    0 -0.14647331790E+01  0.15451905583E+02  0.49952534720E+03  0.49976642477E+03  0.00000000000E+00 0.  1.
         11    1    1    2    0    0  0.65612199744E+00 -0.11419103957E+01 -0.44585111645E+02  0.44604558464E+02  0.00000000000E+00 0. -1.
        -15    1    1    2    0    0  0.95509387287E+00 -0.32973265519E+01 -0.13362543291E+02  0.13910422671E+02  0.17770000000E+01 0.  1.
         15    1    1    2    0    0 -0.14648269133E+00 -0.11012668635E+02 -0.44157769227E+03  0.44171859409E+03  0.17770000000E+01 0. -1.
</event>
<event>
 6   1  0.1826851E-04  0.5038793E+03  0.7546771E-02  0.9391171E-01
        -11   -1    0    0    0    0  0.00000000000E+00  0.00000000000E+00  0.50000000000E+03  0.50000000000E+03  0.00000000000E+00 0.  1.
         11   -1    0    0    0    0 -0.00000000000E+00 -0.00000000000E+00 -0.50000000000E+03  0.50000000000E+03  0.00000000000E+00 0.  1.
        -11    1    1    2    0    0  0.95557237274E+01 -0.21459571694E+02  0.47052551409E+03  0.47111154145E+03  0.00000000000E+00 0.  1.
         11    1    1    2    0    0 -0.56072592941E+01  0.41425947856E+01 -0.49607168349E+03  0.49612066840E+03  0.00000000000E+00 0.  1.
        -15    1    1    2    0    0 -0.54300748581E+01  0.17178697291E+02  0.23581238321E+02  0.29729209262E+02  0.17770000000E+01 0. -1.
         15    1    1    2    0    0  0.14816104249E+01  0.13827961733E+00  0.19649310788E+01  0.30385808938E+01  0.17770000000E+01 0.  1.
</event>
<event>
 6   1  0.1826851E-04  0.5090736E+03  0.7546771E-02  0.9379733E-01
        -11   -1    0    0    0    0  0.00000000000E+00  0.00000000000E+00  0.50000000000E+03  0.50000000000E+03  0.00000000000E+00 0. -1.
         11   -1    0    0    0    0 -0.00000000000E+00 -0.00000000000E+00 -0.50000000000E+03  0.50000000000E+03  0.00000000000E+00 0. -1.
        -11    1    1    2    0    0  0.38147738995E+02 -0.34601016387E+01  0.48942978419E+03  0.49092640584E+03  0.00000000000E+00 0. -1.
         11    1    1    2    0    0  0.59810287569E+01 -0.38383175864E+01 -0.43462902824E+03  0.43468712608E+03  0.00000000000E+00 0. -1.
        -15    1    1    2    0    0 -0.45999101066E+02  0.92006843550E+01 -0.49726531842E+02  0.68384615152E+02  0.17770000000E+01 0.  1.
         15    1    1    2    0    0  0.18703333140E+01 -0.19022651299E+01 -0.50742241083E+01  0.60018529332E+01  0.17770000000E+01 0.  1.
</event>
<event>
 6   1  0.1826851E-04  0.5017583E+03  0.7546771E-02  0.9395884E-01
        -11   -1    0    0    0    0  0.00000000000E+00  0.00000000000E+00  0.50000000000E+03  0.50000000000E+03  0.00000000000E+00 0.  1.
         11   -1    0    0    0    0 -0.00000000000E+00 -0.00000000000E+00 -0.50000000000E+03  0.50000000000E+03  0.00000000000E+00 0. -1.
        -11    1    1    2    0    0  0.14093328034E+02 -0.10085910364E+02  0.28292801086E+03  0.28345829819E+03  0.00000000000E+00 0.  1.
         11    1    1    2    0    0  0.68756222349E+01 -0.10082015351E+02 -0.49809221096E+03  0.49824168015E+03  0.00000000000E+00 0. -1.
        -15    1    1    2    0    0 -0.19660853218E+02  0.19594512047E+02  0.21388468544E+03  0.21568567511E+03  0.17770000000E+01 0.  1.
         15    1    1    2    0    0 -0.13080970509E+01  0.57341366838E+00  0.12795146630E+01  0.26143465536E+01  0.17770000000E+01 0. -1.
</event>
<event>
 6   1  0.1826851E-04  0.4861530E+03  0.7546771E-02  0.9431338E-01
        -11   -1    0    0    0    0  0.00000000000E+00  0.00000000000E+00  0.50000000000E+03  0.50000000000E+03  0.00000000000E+00 0. -1.
         11   -1    0    0    0    0 -0.00000000000E+00 -0.00000000000E+00 -0.50000000000E+03  0.50000000000E+03  0.00000000000E+00 0.  1.
        -11    1    1    2    0    0 -0.78039569700E+00 -0.79935425035E+01  0.48123768148E+03  0.48130469748E+03  0.00000000000E+00 0. -1.
         11    1    1    2    0    0  0.34090749906E+01 -0.10695270259E+02 -0.49110623446E+03  0.49123451031E+03  0.00000000000E+00 0.  1.
        -15    1    1    2    0    0 -0.55380463409E+01  0.68697667359E+01  0.11975126620E+02  0.14980822369E+02  0.17770000000E+01 0. -1.
         15    1    1    2    0    0  0.29093670473E+01  0.11819046027E+02 -0.21065736495E+01  0.12479969837E+02  0.17770000000E+01 0.  1.
</event>
<event>
 6   1  0.1826851E-04  0.5084220E+03  0.7546771E-02  0.9381160E-01
        -11   -1    0    0    0    0  0.00000000000E+00  0.00000000000E+00  0.50000000000E+03  0.50000000000E+03  0.00000000000E+00 0. -1.
         11   -1    0    0    0    0 -0.00000000000E+00 -0.00000000000E+00 -0.50000000000E+03  0.50000000000E+03  0.00000000000E+00 0. -1.
        -11    1    1    2    0    0  0.32415815358E+02  0.37761157620E+02  0.39002335429E+03  0.39318558850E+03  0.00000000000E+00 0. -1.
         11    1    1    2    0    0  0.91963779241E+01 -0.11974089520E+02 -0.49134606612E+03  0.49157797843E+03  0.00000000000E+00 0. -1.
        -15    1    1    2    0    0 -0.40445813807E+02 -0.26747763685E+02  0.10187395634E+03  0.11283956498E+03  0.17770000000E+01 0. -1.
         15    1    1    2    0    0 -0.11663794753E+01  0.96069558450E+00 -0.55124451165E+00  0.23968680811E+01  0.17770000000E+01 0.  1.
</event>
<event>
 6   1  0.1826851E-04  0.5082061E+03  0.7546771E-02  0.9381633E-01
        -11   -1    0    0    0    0  0.00000000000E+00  0.00000000000E+00  0.50000000000E+03  0.50000000000E+03  0.00000000000E+00 0.  1.
         11   -1    0    0    0    0 -0.00000000000E+00 -0.00000000000E+00 -0.50000000000E+03  0.50000000000E+03  0.00000000000E+00 0.  1.
        -11    1    1    2    0    0 -0.59152590468E+01 -0.21049403588E+02  0.49130761945E+03  0.49179390461E+03  0.00000000000E+00 0.  1.
         11    1    1    2    0    0 -0.16707560918E+02 -0.58682120511E+01 -0.45298453379E+03  0.45333052662E+03  0.00000000000E+00 0.  1.
        -15    1    1    2    0    0  0.14820880522E+02  0.23467060325E+02 -0.19011888731E+02  0.33689331573E+02  0.17770000000E+01 0. -1.
         15    1    1    2    0    0  0.78019394425E+01  0.34505553145E+01 -0.19311196926E+02  0.21186237201E+02  0.17770000000E+01 0.  1.
</event>
<event>
 6   1  0.1826851E-04  0.5103748E+03  0.7546771E-02  0.9376890E-01
        -11   -1    0    0    0    0  0.00000000000E+00  0.00000000000E+00  0.50000000000E+03  0.50000000000E+03  0.00000000000E+00 0. -1.
         11   -1    0    0    0    0 -0.00000000000E+00 -0.00000000000E+00 -0.50000000000E+03  0.50000000000E+03  0.00000000000E+00 0.  1.
        -11    1    1    2    0    0  0.10454448467E+02  0.33020290413E+02  0.48839858994E+03  0.48962518085E+03  0.00000000000E+00 0. -1.
         11    1    1    2    0    0 -0.44416660785E+01 -0.82001722512E+01 -0.47352542406E+03  0.47361724890E+03  0.00000000000E+00 0.  1.
        -15    1    1    2    0    0  0.26304340532E+01  0.28364186373E+01 -0.28077123958E+00  0.42662648163E+01  0.17770000000E+01 0.  1.
         15    1    1    2    0    0 -0.86432164414E+01 -0.27656536799E+02 -0.14592394638E+02  0.32491305429E+02  0.17770000000E+01 0. -1.
</event>
<event>
 6   1  0.1826851E-04  0.4776026E+03  0.7546771E-02  0.9451369E-01
        -11   -1    0    0    0    0  0.00000000000E+00  0.00000000000E+00  0.50000000000E+03  0.50000000000E+03  0.00000000000E+00 0. -1.
         11   -1    0    0    0    0 -0.00000000000E+00 -0.00000000000E+00 -0.50000000000E+03  0.50000000000E+03  0.00000000000E+00 0. -1.
        -11    1    1    2    0    0  0.17980903153E+02  0.20699967442E+02  0.47119245303E+03  0.47198954366E+03  0.00000000000E+00 0. -1.
         11    1    1    2    0    0  0.19722412993E+02 -0.19678107817E+02 -0.48323334707E+03  0.48403581399E+03  0.00000000000E+00 0. -1.
        -15    1    1    2    0    0 -0.10751642382E+02 -0.88952573514E+01  0.53943864992E+01  0.15065873754E+02  0.17770000000E+01 0.  1.
         15    1    1    2    0    0 -0.26951673764E+02  0.78733977269E+01  0.66465075470E+01  0.28908768601E+02  0.17770000000E+01 0. -1.
</event>
<event>
 6   1  0.1826851E-04  0.5005812E+03  0.7546771E-02  0.9398510E-01
        -11   -1    0    0    0    0  0.00000000000E+00  0.00000000000E+00  0.50000000000E+03  0.50000000000E+03  0.00000000000E+00 0. -1.
         11   -1    0    0    0    0 -0.00000000000E+00 -0.00000000000E+00 -0.50000000000E+03  0.50000000000E+03  0.00000000000E+00 0.  1.
        -11    1    1    2    0    0  0.48578037201E+01 -0.61060317323E+01  0.29118177784E+02  0.30145483210E+02  0.00000000000E+00 0. -1.
         11    1    1    2    0    0 -0.43355398764E+01  0.62935487910E+01 -0.49936029428E+03  0.49941877134E+03  0.00000000000E+00 0.  1.
        -15    1    1    2    0    0 -0.67651727873E+01  0.81275993998E-01  0.23778342030E+03  0.23788628978E+03  0.17770000000E+01 0. -1.
         15    1    1    2    0    0  0.62429089436E+01 -0.26879305268E+00  0.23245869620E+03  0.23254945567E+03  0.17770000000E+01 0.  1.
</event>
<event>
 6   1  0.1826851E-04  0.5000513E+03  0.7546771E-02  0.9399695E-01
        -11   -1    0    0    0    0  0.00000000000E+00  0.00000000000E+00  0.50000000000E+03  0.50000000000E+03  0.00000000000E+00 0.  1.
         11   -1    0    0    0    0 -0.00000000000E+00 -0.00000000000E+00 -0.50000000000E+03  0.50000000000E+03  0.00000000000E+00 0.  1.
        -11    1    1    2    0    0 -0.23048858618E+01  0.10826732653E+02  0.49982610002E+03  0.49994865826E+03  0.00000000000E+00 0.  1.
         11    1    1    2    0    0 -0.86870166601E+00 -0.76562093298E+01 -0.17734841148E+03  0.17751572111E+03  0.00000000000E+00 0.  1.
        -15    1    1    2    0    0  0.25705312843E+01 -0.12971685032E+01 -0.15483825721E+03  0.15487522043E+03  0.17770000000E+01 0. -1.
         15    1    1    2    0    0  0.60305624351E+00 -0.18733548195E+01 -0.16763943132E+03  0.16766040020E+03  0.17770000000E+01 0. -1.
</event>
<event>
 6   1  0.1826851E-04  0.5057141E+03  0.7546771E-02  0.9387114E-01
        -11   -1    0    0    0    0  0.00000000000E+00  0.00000000000E+00  0.50000000000E+03  0.50000000000E+03  0.00000000000E+00 0.  1.
         11   -1    0    0    0    0 -0.00000000000E+00 -0.00000000000E+00 -0.50000000000E+03  0.50000000000E+03  0.00000000000E+00 0. -1.
        -11    1    1    2    0    0 -0.40867471764E+02  0.35633138459E+02  0.10263285491E+03  0.11607486253E+03  0.00000000000E+00 0.  1.
         11    1    1    2    0    0  0.30714529198E+02 -0.38309468749E+02 -0.49184099254E+03  0.49428590880E+03  0.00000000000E+00 0. -1.
        -15    1    1    2    0    0 -0.22652038904E+01  0.46821948716E+01  0.97847419065E+02  0.98001679802E+02  0.17770000000E+01 0. -1.
         15    1    1    2    0    0  0.12418146457E+02 -0.20058645814E+01  0.29136071857E+03  0.29163754886E+03  0.17770000000E+01 0.  1.
</event>
<event>
 6   1  0.1826851E-04  0.3991752E+03  0.7546771E-02  0.9658841E-01
        -11   -1    0    0    0    0  0.00000000000E+00  0.00000000000E+00  0.50000000000E+03  0.50000000000E+03  0.00000000000E+00 0. -1.
         11   -1    0    0    0    0 -0.00000000000E+00 -0.00000000000E+00 -0.50000000000E+03  0.50000000000E+03  0.00000000000E+00 0. -1.
        -11    1    1    2    0    0  0.16353433102E+02  0.11200564347E+03  0.40809609147E+03  0.42350338702E+03  0.00000000000E+00 0. -1.
         11    1    1    2    0    0 -0.27437366075E+02  0.37057650914E+02 -0.38627045100E+03  0.38901277596E+03  0.00000000000E+00 0. -1.
        -15    1    1    2    0    0  0.38946391221E+02 -0.29660018261E+02  0.26483258847E+02  0.55687151126E+02  0.17770000000E+01 0. -1.
         15    1    1    2    0    0 -0.27862458248E+02 -0.11940327612E+03 -0.48308899325E+02  0.13179668589E+03  0.17770000000E+01 0.  1.
</event>
<event>
 6   1  0.1826851E-04  0.5056189E+03  0.7546771E-02  0.9387324E-01
        -11   -1    0    0    0    0  0.00000000000E+00  0.00000000000E+00  0.50000000000E+03  0.50000000000E+03  0.00000000000E+00 0.  1.
         11   -1    0    0    0    0 -0.00000000000E+00 -0.00000000000E+00 -0.50000000000E+03  0.50000000000E+03  0.00000000000E+00 0. -1.
        -11    1    1    2    0    0 -0.14394401647E+02  0.60812750850E+01  0.49413408217E+03  0.49438109983E+03  0.00000000000E+00 0.  1.
         11    1    1    2    0    0  0.18581227404E+01 -0.96470299034E+01 -0.48407743138E+03  0.48417711364E+03  0.00000000000E+00 0. -1.
        -15    1    1    2    0    0 -0.28616490645E+00  0.45015595436E+01 -0.62625837348E+01  0.79198240330E+01  0.17770000000E+01 0. -1.
         15    1    1    2    0    0  0.12822443813E+02 -0.93580472527E+00 -0.37940670567E+01  0.13521962493E+02  0.17770000000E+01 0.  1.
</event>
<event>
 6   1  0.1826851E-04  0.5003400E+03  0.7546771E-02  0.9399049E-01
        -11   -1    0    0    0    0  0.00000000000E+00  0.00000000000E+00  0.50000000000E+03  0.50000000000E+03  0.00000000000E+00 0. -1.
         11   -1    0    0    0    0 -0.00000000000E+00 -0.00000000000E+00 -0.50000000000E+03  0.50000000000E+03  0.00000000000E+00 0.  1.
        -11    1    1    2    0    0  0.52744804815E+01 -0.40298800255E+01  0.35872646015E+03  0.35878786670E+03  0.00000000000E+00 0. -1.
         11    1    1    2    0    0  0.67413356069E+00 -0.70001704668E+01 -0.49961047793E+03  0.49965997088E+03  0.00000000000E+00 0.  1.
        -15    1    1    2    0    0 -0.57819830487E+01  0.66795979906E+01  0.88585421174E+02  0.89042590545E+02  0.17770000000E+01 0. -1.
         15    1    1    2    0    0 -0.16663099348E+00  0.43504525016E+01  0.52298596602E+02  0.52509571874E+02  0.17770000000E+01 0.  1.
</event>
<event>
 6   1  0.1826851E-04  0.5118541E+03  0.7546771E-02  0.9373669E-01
        -11   -1    0    0    0    0  0.00000000000E+00  0.00000000000E+00  0.50000000000E+03  0.50000000000E+03  0.00000000000E+00 0. -1.
         11   -1    0    0    0    0 -0.00000000000E+00 -0.00000000000E+00 -0.50000000000E+03  0.50000000000E+03  0.00000000000E+00 0.  1.
        -11    1    1    2    0    0 -0.17647156997E+02 -0.14901888749E+02  0.46760347528E+03  0.46817357736E+03  0.00000000000E+00 0. -1.
         11    1    1    2    0    0  0.49674170864E+01  0.14812011968E+02 -0.48789585810E+03  0.48814592007E+03  0.00000000000E+00 0.  1.
        -15    1    1    2    0    0  0.65753881312E+01 -0.17762289238E+02  0.60087557935E+01  0.19949875269E+02  0.17770000000E+01 0.  1.
         15    1    1    2    0    0  0.61043517792E+01  0.17852166019E+02  0.14283627025E+02  0.23730627303E+02  0.17770000000E+01 0. -1.
</event>
<event>
 6   1  0.1826851E-04  0.5005278E+03  0.7546771E-02  0.9398630E-01
        -11   -1    0    0    0    0  0.00000000000E+00  0.00000000000E+00  0.50000000000E+03  0.50000000000E+03  0.00000000000E+00 0.  1.
         11   -1    0    0    0    0 -0.00000000000E+00 -0.00000000000E+00 -0.50000000000E+03  0.50000000000E+03  0.00000000000E+00 0.  1.
        -11    1    1    2    0    0  0.69371406424E+01 -0.39946576747E+01  0.77156305476E+02  0.77570462710E+02  0.00000000000E+00 0.  1.
         11    1    1    2    0    0 -0.88315617958E+01  0.12096389234E+02 -0.49924760076E+03  0.49947220741E+03  0.00000000000E+00 0.  1.
        -15    1    1    2    0    0  0.10603977333E+02 -0.55004228732E+01  0.35765113662E+03  0.35785498773E+03  0.17770000000E+01 0.  1.
         15    1    1    2    0    0 -0.87095561800E+01 -0.26013086858E+01  0.64440158659E+02  0.65102342145E+02  0.17770000000E+01 0. -1.
</event>
<event>
 6   1  0.1826851E-04  0.5029768E+03  0.7546771E-02  0.9393173E-01
        -11   -1    0    0    0    0  0.00000000000E+00  0.00000000000E+00  0.50000000000E+03  0.50000000000E+03  0.00000000000E+00 0. -1.
         11   -1    0    0    0    0 -0.00000000000E+00 -0.00000000000E+00 -0.50000000000E+03  0.50000000000E+03  0.00000000000E+00 0.  1.
        -11    1    1    2    0    0  0.17667677669E+02  0.52832912066E+01  0.42829694844E+03  0.42869375554E+03  0.00000000000E+00 0. -1.
         11    1    1    2    0    0 -0.25099576348E+00  0.10175814404E+02 -0.49691897342E+03  0.49702321509E+03  0.00000000000E+00 0.  1.
        -15    1    1    2    0    0  0.71548372040E+00 -0.86934530823E+01  0.18676981177E+02  0.20689983044E+02  0.17770000000E+01 0.  1.
         15    1    1    2    0    0 -0.18132165626E+02 -0.67656525284E+01  0.49945043805E+02  0.53593046322E+02  0.17770000000E+01 0. -1.
</event>
<event>
 6   1  0.1826851E-04  0.5000768E+03  0.7546771E-02  0.9399638E-01
        -11   -1    0    0    0    0  0.00000000000E+00  0.00000000000E+00  0.50000000000E+03  0.50000000000E+03  0.00000000000E+00 0.  1.
         11   -1    0    0    0    0 -0.00000000000E+00 -0.00000000000E+00 -0.50000000000E+03  0.50000000000E+03  0.00000000000E+00 0. -1.
        -11    1    1    2    0    0 -0.88089817293E+01 -0.66174743642E+01  0.49980180492E+03  0.49992322743E+03  0.00000000000E+00 0.  1.
         11    1    1    2    0    0  0.44013705971E+00 -0.16063772259E+01 -0.32252350039E+02  0.32295328632E+02  0.00000000000E+00 0. -1.
        -15    1    1    2    0    0  0.37072867670E+01  0.87940403119E+01 -0.30482545640E+03  0.30497999232E+03  0.17770000000E+01 0. -1.
         15    1    1    2    0    0  0.46615579027E+01 -0.57018872176E+00 -0.16272399848E+03  0.16280145162E+03  0.17770000000E+01 0.  1.
</event>
<event>
 6   1  0.1826851E-04  0.4892025E+03  0.7546771E-02  0.9424299E-01
        -11   -1    0    0    0    0  0.00000000000E+00  0.00000000000E+00  0.50000000000E+03  0.50000000000E+03  0.00000000000E+00 0. -1.
         11   -1    0    0    0    0 -0.00000000000E+00 -0.00000000000E+00 -0.50000000000E+03  0.50000000000E+03  0.00000000000E+00 0.  1.
        -11    1    1    2    0    0 -0.10644226705E+02  0.60730986324E+01  0.48776430792E+03  0.48791823308E+03  0.00000000000E+00 0. -1.
         11    1    1    2    0    0 -0.64877893521E+01 -0.29011925934E+01 -0.49059448030E+03  0.49064595426E+03  0.00000000000E+00 0.  1.
        -15    1    1    2    0    0  0.15808330838E+01 -0.33079458957E+01  0.40380606387E+01  0.57363056063E+01  0.17770000000E+01 0.  1.
         15    1    1    2    0    0  0.15551182973E+02  0.13603985671E+00 -0.12078882629E+01  0.15699507055E+02  0.17770000000E+01 0. -1.
</event>
<event>
 6   1  0.1826851E-04  0.5006834E+03  0.7546771E-02  0.9398282E-01
        -11   -1    0    0    0    0  0.00000000000E+00  0.00000000000E+00  0.50000000000E+03  0.50000000000E+03  0.00000000000E+00 0. -1.
         11   -1    0    0    0    0 -0.00000000000E+00 -0.00000000000E+00 -0.50000000000E+03  0.50000000000E+03  0.00000000000E+00 0.  1.
        -11    1    1    2    0    0 -0.50073707575E+01  0.69627142914E+01  0.37683065512E+02  0.38646689103E+02  0.00000000000E+00 0. -1.
         11    1    1    2    0    0 -0.33913646455E+00 -0.70754635339E+01 -0.49926634060E+03  0.49931658901E+03  0.00000000000E+00 0.  1.
        -15    1    1    2    0    0  0.71997697337E+01  0.81400343366E+01  0.33010161121E+03  0.33028522265E+03  0.17770000000E+01 0. -1.
         15    1    1    2    0    0 -0.18532625117E+01 -0.80272850941E+01  0.13148166388E+03  0.13175149924E+03  0.17770000000E+01 0.  1.
</event>
<event>
 6   1  0.1826851E-04  0.5002219E+03  0.7546771E-02  0.9399313E-01
        -11   -1    0    0    0    0  0.00000000000E+00  0.00000000000E+00  0.50000000000E+03  0.50000000000E+03  0.00000000000E+00 0. -1.
         11   -1    0    0    0    0 -0.00000000000E+00 -0.00000000000E+00 -0.50000000000E+03  0.50000000000E+03  0.00000000000E+00 0.  1.
        -11    1    1    2    0    0  0.30111832304E+02  0.13630042200E+02  0.49868394331E+03  0.49977812658E+03  0.00000000000E+00 0. -1.
         11    1    1    2    0    0 -0.24450272023E+02 -0.14500179985E+02 -0.30995006210E+03  0.31125088276E+03  0.00000000000E+00 0.  1.
        -15    1    1    2    0    0 -0.41790435273E+01  0.36286209599E+01 -0.12573832473E+03  0.12587261549E+03  0.17770000000E+01 0. -1.
         15    1    1    2    0    0 -0.14825167534E+01 -0.27584831750E+01 -0.62995556475E+02  0.63098375177E+02  0.17770000000E+01 0.  1.
</event>
<event>
 6   1  0.1826851E-04  0.5010154E+03  0.7546771E-02  0.9397540E-01
        -11   -1    0    0    0    0  0.00000000000E+00  0.00000000000E+00  0.50000000000E+03  0.50000000000E+03  0.00000000000E+00 0.  1.
         11   -1    0    0    0    0 -0.00000000000E+00 -0.00000000000E+00 -0.50000000000E+03  0.50000000000E+03  0.00000000000E+00 0. -1.
        -11    1    1    2    0    0 -0.29195176425E+02  0.56984274096E+01  0.49809714253E+03  0.49898456269E+03  0.00000000000E+00 0.  1.
         11    1    1    2    0    0 -0.71306772717E+01 -0.12996452391E+01 -0.23285429086E+03  0.23296707151E+03  0.00000000000E+00 0. -1.
        -15    1    1    2    0    0  0.97011302479E+01  0.38519889442E+01 -0.62467322950E+02  0.63358297897E+02  0.17770000000E+01 0.  1.
         15    1    1    2    0    0  0.26624723449E+02 -0.82507711148E+01 -0.20277552872E+03  0.20469006791E+03  0.17770000000E+01 0. -1.
</event>
<event>
 6   1  0.1826851E-04  0.5003892E+03  0.7546771E-02  0.9398939E-01
        -11   -1    0    0    0    0  0.00000000000E+00  0.00000000000E+00  0.50000000000E+03  0.50000000000E+03  0.00000000000E+00 0. -1.
         11   -1    0    0    0    0 -0.00000000000E+00 -0.00000000000E+00 -0.50000000000E+03  0.50000000000E+03  0.00000000000E+00 0.  1.
        -11    1    1    2    0    0 -0.18356840917E+01 -0.49360954417E+01  0.34862156329E+03  0.34866133879E+03  0.00000000000E+00 0. -1.
         11    1    1    2    0    0  0.92750148062E+01 -0.39680040703E+01 -0.49950891517E+03  0.49961077579E+03  0.00000000000E+00 0.  1.
        -15    1    1    2    0    0 -0.55584664720E+01  0.23840329574E+01  0.30943050063E+02  0.31578635798E+02  0.17770000000E+01 0. -1.
         15    1    1    2    0    0 -0.18808642424E+01  0.65200665546E+01  0.11994430181E+03  0.12014924962E+03  0.17770000000E+01 0.  1.
</event>
<event>
 6   1  0.1826851E-04  0.5164045E+03  0.7546771E-02  0.9363834E-01
        -11   -1    0    0    0    0  0.00000000000E+00  0.00000000000E+00  0.50000000000E+03  0.50000000000E+03  0.00000000000E+00 0. -1.
         11   -1    0    0    0    0 -0.00000000000E+00 -0.00000000000E+00 -0.50000000000E+03  0.50000000000E+03  0.00000000000E+00 0.  1.
        -11    1    1    2    0    0  0.52424919654E+02 -0.59622642542E+02  0.47703398592E+03  0.48359554943E+03  0.00000000000E+00 0. -1.
         11    1    1    2    0    0  0.38736492284E+01 -0.36626599274E+01 -0.38605932608E+03  0.38609613244E+03  0.00000000000E+00 0.  1.
        -15    1    1    2    0    0 -0.45479426582E+02  0.50939232106E+02 -0.91012711010E+02  0.11379655049E+03  0.17770000000E+01 0. -1.
         15    1    1    2    0    0 -0.10819142300E+02  0.12346070363E+02  0.38051166824E-01  0.16511767634E+02  0.17770000000E+01 0.  1.
</event>
<event>
 6   1  0.1826851E-04  0.5003547E+03  0.7546771E-02  0.9399016E-01
        -11   -1    0    0    0    0  0.00000000000E+00  0.00000000000E+00  0.50000000000E+03  0.50000000000E+03  0.00000000000E+00 0.  1.
         11   -1    0    0    0    0 -0.00000000000E+00 -0.00000000000E+00 -0.50000000000E+03  0.50000000000E+03  0.00000000000E+00 0. -1.
        -11    1    1    2    0    0  0.12764358417E+02 -0.10597156798E+02  0.17435896698E+03  0.17514644714E+03  0.00000000000E+00 0.  1.
         11    1    1    2    0    0 -0.10982766787E+02  0.10145583599E+02 -0.49942149798E+03  0.49964526083E+03  0.00000000000E+00 0. -1.
        -15    1    1    2    0    0  0.12883356029E+01  0.37248573663E+01  0.99165377851E+02  0.99259580214E+02  0.17770000000E+01 0.  1.
         15    1    1    2    0    0 -0.30699272323E+01 -0.32732841674E+01  0.22589715314E+03  0.22594871181E+03  0.17770000000E+01 0. -1.
</event>
<event>
 6   1  0.1826851E-04  0.5097727E+03  0.7546771E-02  0.9378204E-01
        -11   -1    0    0    0    0  0.00000000000E+00  0.00000000000E+00  0.50000000000E+03  0.50000000000E+03  0.00000000000E+00 0.  1.
         11   -1    0    0    0    0 -0.00000000000E+00 -0.00000000000E+00 -0.50000000000E+03  0.50000000000E+03  0.00000000000E+00 0.  1.
        -11    1    1    2    0    0  0.15457560055E+02  0.24458839922E+02  0.46585144779E+03  0.46674912150E+03  0.00000000000E+00 0.  1.
         11    1    1    2    0    0  0.72091618137E+01  0.16280964066E+01 -0.49017163168E+03  0.49022734645E+03  0.00000000000E+00 0.  1.
        -15    1    1    2    0    0 -0.20990790907E+02 -0.21271847325E+02  0.21974475147E+02  0.37136775285E+02  0.17770000000E+01 0.  1.
         15    1    1    2    0    0 -0.16759309614E+01 -0.48150890032E+01  0.23457087427E+01  0.58867567643E+01  0.17770000000E+01 0. -1.
</event>
<event>
 6   1  0.1826851E-04  0.5021801E+03  0.7546771E-02  0.9394945E-01
        -11   -1    0    0    0    0  0.00000000000E+00  0.00000000000E+00  0.50000000000E+03  0.50000000000E+03  0.00000000000E+00 0. -1.
         11   -1    0    0    0    0 -0.00000000000E+00 -0.00000000000E+00 -0.50000000000E+03  0.50000000000E+03  0.00000000000E+00 0.  1.
        -11    1    1    2    0    0 -0.13868558787E+02 -0.15070375147E+02  0.49739844542E+03  0.49781991387E+03  0.00000000000E+00 0. -1.
         11    1    1    2    0    0 -0.10640030700E+02  0.46352646105E+01 -0.39683561791E+03  0.39700529413E+03  0.00000000000E+00 0.  1.
        -15    1    1    2    0    0  0.20501403322E+02  0.34342333453E+01 -0.85364149278E+02  0.87876602164E+02  0.17770000000E+01 0. -1.
         15    1    1    2    0    0  0.40071861655E+01  0.70008771913E+01 -0.15198678241E+02  0.17298189839E+02  0.17770000000E+01 0.  1.
</event>
<event>
 6   1  0.1826851E-04  0.5072319E+03  0.7546771E-02  0.9383772E-01
        -11   -1    0    0    0    0  0.00000000000E+00  0.00000000000E+00  0.50000000000E+03  0.50000000000E+03  0.00000000000E+00 0.  1.
         11   -1    0    0    0    0 -0.00000000000E+00 -0.00000000000E+00 -0.50000000000E+03  0.50000000000E+03  0.00000000000E+00 0. -1.
        -11    1    1    2    0    0 -0.63531642067E+01 -0.18151905171E+02  0.49239268039E+03  0.49276810577E+03  0.00000000000E+00 0.  1.
         11    1    1    2    0    0  0.14405250444E+01 -0.17021256561E+02 -0.43715705882E+03  0.43749067689E+03  0.00000000000E+00 0. -1.
        -15    1    1    2    0    0  0.71933923494E+01  0.33563690770E+01 -0.22827404569E+02  0.24233411548E+02  0.17770000000E+01 0.  1.
         15    1    1    2    0    0 -0.22807531872E+01  0.31816792655E+02 -0.32408217006E+02  0.45507805797E+02  0.17770000000E+01 0. -1.
</event>
<event>
 6   1  0.1826851E-04  0.5145023E+03  0.7546771E-02  0.9367932E-01
        -11   -1    0    0    0    0  0.00000000000E+00  0.00000000000E+00  0.50000000000E+03  0.50000000000E+03  0.00000000000E+00 0. -1.
         11   -1    0    0    0    0 -0.00000000000E+00 -0.00000000000E+00 -0.50000000000E+03  0.50000000000E+03  0.00000000000E+00 0.  1.
        -11    1    1    2    0    0  0.16382109772E+02  0.43856073256E+01  0.46991443848E+03  0.47022035958E+03  0.00000000000E+00 0. -1.
         11    1    1    2    0    0  0.80632658486E+01 -0.20328085816E+01 -0.48542651729E+03  0.48549773662E+03  0.00000000000E+00 0.  1.
        -15    1    1    2    0    0 -0.16803362777E+02  0.31815530217E+00  0.25941174228E+02  0.30960563185E+02  0.17770000000E+01 0. -1.
         15    1    1    2    0    0 -0.76420128431E+01 -0.26709540462E+01 -0.10429095411E+02  0.13321340620E+02  0.17770000000E+01 0.  1.
</event>
<event>
 6   1  0.1826851E-04  0.5000871E+03  0.7546771E-02  0.9399615E-01
        -11   -1    0    0    0    0  0.00000000000E+00  0.00000000000E+00  0.50000000000E+03  0.50000000000E+03  0.00000000000E+00 0. -1.
         11   -1    0    0    0    0 -0.00000000000E+00 -0.00000000000E+00 -0.50000000000E+03  0.50000000000E+03  0.00000000000E+00 0.  1.
        -11    1    1    2    0    0  0.39304250989E+01 -0.16938471221E+02  0.49961044209E+03  0.49991294632E+03  0.00000000000E+00 0. -1.
         11    1    1    2    0    0  0.18598029453E+01  0.85202676928E+01 -0.15930669503E+03  0.15954521901E+03  0.00000000000E+00 0.  1.
        -15    1    1    2    0    0 -0.79727901098E+00 -0.47446985993E+00 -0.92858978781E+02  0.92880613933E+02  0.17770000000E+01 0.  1.
         15    1    1    2    0    0 -0.49929490332E+01  0.88926733880E+01 -0.24744476828E+03  0.24766122074E+03  0.17770000000E+01 0.  1.
</event>
<event>
 6   1  0.1826851E-04  0.5020033E+03  0.7546771E-02  0.9395338E-01
        -11   -1    0    0    0    0  0.00000000000E+00  0.00000000000E+00  0.50000000000E+03  0.50000000000E+03  0.00000000000E+00 0. -1.
         11   -1    0    0    0    0 -0.00000000000E+00 -0.00000000000E+00 -0.50000000000E+03  0.50000000000E+03  0.00000000000E+00 0.  1.
        -11    1    1    2    0    0 -0.15279416329E+02  0.15065232770E+01  0.49775998350E+03  0.49799671821E+03  0.00000000000E+00 0. -1.
         11    1    1    2    0    0 -0.79066303264E+01 -0.77824280711E+00 -0.42669661371E+03  0.42677057140E+03  0.00000000000E+00 0.  1.
        -15    1    1    2    0    0  0.12590507993E+02  0.24687857841E+01 -0.30214732937E+02  0.32874056796E+02  0.17770000000E+01 0.  1.
         15    1    1    2    0    0  0.10595538663E+02 -0.31970662540E+01 -0.40848636854E+02  0.42358653590E+02  0.17770000000E+01 0. -1.
</event>
<event>
 6   1  0.1826851E-04  0.5086680E+03  0.7546771E-02  0.9380621E-01
        -11   -1    0    0    0    0  0.00000000000E+00  0.00000000000E+00  0.50000000000E+03  0.50000000000E+03  0.00000000000E+00 0. -1.
         11   -1    0    0    0    0 -0.00000000000E+00 -0.00000000000E+00 -0.50000000000E+03  0.50000000000E+03  0.00000000000E+00 0. -1.
        -11    1    1    2    0    0 -0.11853670023E+02 -0.15449988468E+02  0.47271692449E+03  0.47311785248E+03  0.00000000000E+00 0. -1.
         11    1    1    2    0    0  0.45661513698E+01 -0.50187364815E+01 -0.49128511461E+03  0.49133196649E+03  0.00000000000E+00 0. -1.
        -15    1    1    2    0    0  0.17000420382E+01  0.82169171397E+01 -0.37999831077E+01  0.93811231114E+01  0.17770000000E+01 0. -1.
         15    1    1    2    0    0  0.55874766148E+01  0.12251807810E+02  0.22368173229E+02  0.26169057914E+02  0.17770000000E+01 0.  1.
</event>
<event>
 6   1  0.1826851E-04  0.5046391E+03  0.7546771E-02  0.9389489E-01
        -11   -1    0    0    0    0  0.00000000000E+00  0.00000000000E+00  0.50000000000E+03  0.50000000000E+03  0.00000000000E+00 0. -1.
         11   -1    0    0    0    0 -0.00000000000E+00 -0.00000000000E+00 -0.50000000000E+03  0.50000000000E+03  0.00000000000E+00 0. -1.
        -11    1    1    2    0    0 -0.15083413869E+02  0.22594529213E+01  0.48351913957E+03  0.48375962299E+03  0.00000000000E+00 0. -1.
         11    1    1    2    0    0  0.20163504364E+01  0.73381965770E+01 -0.49530239002E+03  0.49536085065E+03  0.00000000000E+00 0. -1.
        -15    1    1    2    0    0  0.10272550831E+02 -0.53164353562E+01  0.91800247932E+01  0.14873478735E+02  0.17770000000E+01 0. -1.
         15    1    1    2    0    0  0.27945126015E+01 -0.42812141420E+01  0.26032256560E+01  0.60060476210E+01  0.17770000000E+01 0.  1.
</event>
<event>
 6   1  0.1826851E-04  0.5001937E+03  0.7546771E-02  0.9399376E-01
        -11   -1    0    0    0    0  0.00000000000E+00  0.00000000000E+00  0.50000000000E+03  0.50000000000E+03  0.00000000000E+00 0.  1.
         11   -1    0    0    0    0 -0.00000000000E+00 -0.00000000000E+00 -0.50000000000E+03  0.50000000000E+03  0.00000000000E+00 0. -1.
        -11    1    1    2    0    0  0.21014616683E+02  0.17484809006E+02  0.49905810863E+03  0.49980629092E+03  0.00000000000E+00 0.  1.
         11    1    1    2    0    0 -0.60809407303E+01 -0.16466490384E+02 -0.23878982351E+03  0.23943413073E+03  0.00000000000E+00 0. -1.
        -15    1    1    2    0    0 -0.14867863208E+01 -0.67584065577E+00 -0.35114279704E+02  0.35197125767E+02  0.17770000000E+01 0.  1.
         15    1    1    2    0    0 -0.13446889632E+02 -0.34247796575E+00 -0.22515400541E+03  0.22556245258E+03  0.17770000000E+01 0. -1.
</event>
<event>
 6   1  0.1826851E-04  0.5011305E+03  0.7546771E-02  0.9397284E-01
        -11   -1    0    0    0    0  0.00000000000E+00  0.00000000000E+00  0.50000000000E+03  0.50000000000E+03  0.00000000000E+00 0.  1.
         11   -1    0    0    0    0 -0.00000000000E+00 -0.00000000000E+00 -0.50000000000E+03  0.50000000000E+03  0.00000000000E+00 0.  1.
        -11    1    1    2    0    0  0.11605363504E+02 -0.16278162498E+02  0.49846877020E+03  0.49886949987E+03  0.00000000000E+00 0.  1.
         11    1    1    2    0    0 -0.80674391945E+01  0.90879652263E+01 -0.46169548901E+03  0.46185538782E+03  0.00000000000E+00 0.  1.
        -15    1    1    2    0    0 -0.60913398887E+01  0.83145380658E+01 -0.26860544012E+02  0.28825032844E+02  0.17770000000E+01 0. -1.
         15    1    1    2    0    0  0.25534155793E+01 -0.11243407944E+01 -0.99127371845E+01  0.10450079465E+02  0.17770000000E+01 0.  1.
</event>
<event>
 6   1  0.1826851E-04  0.5028370E+03  0.7546771E-02  0.9393484E-01
        -11   -1    0    0    0    0  0.00000000000E+00  0.00000000000E+00  0.50000000000E+03  0.50000000000E+03  0.00000000000E+00 0.  1.
         11   -1    0    0    0    0 -0.00000000000E+00 -0.00000000000E+00 -0.50000000000E+03  0.50000000000E+03  0.00000000000E+00 0. -1.
        -11    1    1    2    0    0 -0.15377811679E+02 -0.47129108388E+01  0.49690274164E+03  0.49716297456E+03  0.00000000000E+00 0.  1.
         11    1    1    2    0    0 -0.18763581886E+01  0.84508090546E+01 -0.46882850375E+03  0.46890841624E+03  0.00000000000E+00 0. -1.
        -15    1    1    2    0    0  0.54440110946E+01  0.15735899023E+01 -0.98423442617E+01  0.11495343037E+02  0.17770000000E+01 0. -1.
         15    1    1    2    0    0  0.11810158773E+02 -0.53114881181E+01 -0.18231893637E+02  0.22433266166E+02  0.17770000000E+01 0.  1.
</event>
<event>
 6   1  0.1826851E-04  0.5048220E+03  0.7546771E-02  0.9389084E-01
        -11   -1    0    0    0    0  0.00000000000E+00  0.00000000000E+00  0.50000000000E+03  0.50000000000E+03  0.00000000000E+00 0. -1.
         11   -1    0    0    0    0 -0.00000000000E+00 -0.00000000000E+00 -0.50000000000E+03  0.50000000000E+03  0.00000000000E+00 0. -1.
        -11    1    1    2    0    0 -0.15250461662E+02 -0.26522045446E+02  0.49423203586E+03  0.49517804954E+03  0.00000000000E+00 0. -1.
         11    1    1    2    0    0 -0.78792983148E+01  0.48370495530E+01 -0.43946725964E+03  0.43956450344E+03  0.00000000000E+00 0. -1.
        -15    1    1    2    0    0  0.24854666289E+02  0.20196656664E+02 -0.46396112681E+02  0.56404045756E+02  0.17770000000E+01 0. -1.
         15    1    1    2    0    0 -0.17249063124E+01  0.14883392290E+01 -0.83686635454E+01  0.88534012664E+01  0.17770000000E+01 0. -1.
</event>
<event>
 6   1  0.1826851E-04  0.5013782E+03  0.7546771E-02  0.9396731E-01
        -11   -1    0    0    0    0  0.00000000000E+00  0.00000000000E+00  0.50000000000E+03  0.50000000000E+03  0.00000000000E+00 0.  1.
         11   -1    0    0    0    0 -0.00000000000E+00 -0.00000000000E+00 -0.50000000000E+03  0.50000000000E+03  0.00000000000E+00 0. -1.
        -11    1    1    2    0    0  0.82073499402E+00 -0.69541960621E+01  0.45465077308E+03  0.45470469529E+03  0.00000000000E+00 0.  1.
         11    1    1    2    0    0  0.70398075957E+01 -0.51417061265E+01 -0.49854556785E+03  0.49862177977E+03  0.00000000000E+00 0. -1.
        -15    1    1    2    0    0 -0.14508158174E+01  0.20250841914E+01  0.42824203514E+01  0.52633340749E+01  0.17770000000E+01 0.  1.
         15    1    1    2    0    0 -0.64097267724E+01  0.10070817997E+02  0.39612374415E+02  0.41410190874E+02  0.17770000000E+01 0. -1.
</event>
<event>
 6   1  0.1826851E-04  0.5076988E+03  0.7546771E-02  0.9382746E-01
        -11   -1    0    0    0    0  0.00000000000E+00  0.00000000000E+00  0.50000000000E+03  0.50000000000E+03  0.00000000000E+00 0. -1.
         11   -1    0    0    0    0 -0.00000000000E+00 -0.00000000000E+00 -0.50000000000E+03  0.50000000000E+03  0.00000000000E+00 0.  1.
        -11    1    1    2    0    0  0.47928055842E+01  0.49905028953E+02  0.37073984094E+03  0.37411430414E+03  0.00000000000E+00 0. -1.
         11    1    1    2    0    0  0.71090049905E+01  0.11808295435E+01 -0.49224848609E+03  0.49230123336E+03  0.00000000000E+00 0.  1.
        -15    1    1    2    0    0 -0.17367720581E+00  0.85979931678E+00  0.24835703836E+01  0.31773053815E+01  0.17770000000E+01 0. -1.
         15    1    1    2    0    0 -0.11728133369E+02 -0.51945657813E+02  0.11902507476E+03  0.13040715712E+03  0.17770000000E+01 0.  1.
</event>
<event>
 6   1  0.1826851E-04  0.5101914E+03  0.7546771E-02  0.9377290E-01
        -11   -1    0    0    0    0  0.00000000000E+00  0.00000000000E+00  0.50000000000E+03  0.50000000000E+03  0.00000000000E+00 0. -1.
         11   -1    0    0    0    0 -0.00000000000E+00 -0.00000000000E+00 -0.50000000000E+03  0.50000000000E+03  0.00000000000E+00 0.  1.
        -11    1    1    2    0    0  0.36261823334E+02  0.34392685144E+02  0.40164401868E+03  0.40474151549E+03  0.00000000000E+00 0. -1.
         11    1    1    2    0    0 -0.61806166274E+01  0.30288694063E+01 -0.48976022805E+03  0.48980859022E+03  0.00000000000E+00 0.  1.
        -15    1    1    2    0    0  0.23184985543E+01 -0.86396336766E+01  0.24727703190E+01  0.94493929785E+01  0.17770000000E+01 0.  1.
         15    1    1    2    0    0 -0.32399705260E+02 -0.28781920874E+02  0.85643439051E+02  0.96000501309E+02  0.17770000000E+01 0. -1.
</event>
<event>
 6   1  0.1826851E-04  0.5024712E+03  0.7546771E-02  0.9394297E-01
        -11   -1    0    0    0    0  0.00000000000E+00  0.00000000000E+00  0.50000000000E+03  0.50000000000E+03  0.00000000000E+00 0. -1.
         11   -1    0    0    0    0 -0.00000000000E+00 -0.00000000000E+00 -0.50000000000E+03  0.50000000000E+03  0.00000000000E+00 0. -1.
        -11    1    1    2    0    0 -0.14125959828E+02 -0.11724401255E+02  0.49719000506E+03  0.49752879862E+03  0.00000000000E+00 0. -1.
         11    1    1    2    0    0 -0.63703561213E+01  0.91836069836E+00 -0.42487158483E+03  0.42492033185E+03  0.00000000000E+00 0. -1.
        -15    1    1    2    0    0  0.73252377765E+01  0.99370567048E+01 -0.20054857373E+02  0.23616926931E+02  0.17770000000E+01 0. -1.
         15    1    1    2    0    0  0.13171078173E+02  0.86898385229E+00 -0.52263562850E+02  0.53933942596E+02  0.17770000000E+01 0.  1.
</event>
<event>
 6   1  0.1826851E-04  0.5010081E+03  0.7546771E-02  0.9397557E-01
        -11   -1    0    0    0    0  0.00000000000E+00  0.00000000000E+00  0.50000000000E+03  0.50000000000E+03  0.00000000000E+00 0. -1.
         11   -1    0    0    0    0 -0.00000000000E+00 -0.00000000000E+00 -0.50000000000E+03  0.50000000000E+03  0.00000000000E+00 0.  1.
        -11    1    1    2    0    0 -0.19113610785E+02 -0.98080312157E+02  0.45039461479E+03  0.46134627643E+03  0.00000000000E+00 0. -1.
         11    1    1    2    0    0  0.13315448104E+02  0.10187282011E+03 -0.48830063738E+03  0.49899186878E+03  0.00000000000E+00 0.  1.
        -15    1    1    2    0    0  0.71817942958E+01 -0.43508422714E+01  0.22488290208E+02  0.24070499024E+02  0.17770000000E+01 0. -1.
         15    1    1    2    0    0 -0.13836316145E+01  0.55833431986E+00  0.15417732388E+02  0.15591355767E+02  0.17770000000E+01 0.  1.
</event>
<event>
 6   1  0.1826851E-04  0.5036236E+03  0.7546771E-02  0.9391738E-01
        -11   -1    0    0    0    0  0.00000000000E+00  0.00000000000E+00  0.50000000000E+03  0.50000000000E+03  0.00000000000E+00 0. -1.
         11   -1    0    0    0    0 -0.00000000000E+00 -0.00000000000E+00 -0.50000000000E+03  0.50000000000E+03  0.00000000000E+00 0.  1.
        -11    1    1    2    0    0  0.96346306925E+01  0.10081781686E+02  0.49618043558E+03  0.49637636233E+03  0.00000000000E+00 0. -1.
         11    1    1    2    0    0 -0.56089910123E+01  0.36533647333E+01 -0.48392125588E+03  0.48396755030E+03  0.00000000000E+00 0.  1.
        -15    1    1    2    0    0 -0.25647410310E+01 -0.43908871027E+01 -0.64970293349E+01  0.84396033843E+01  0.17770000000E+01 0.  1.
         15    1    1    2    0    0 -0.14608986492E+01 -0.93442593166E+01 -0.57621503680E+01  0.11216483981E+02  0.17770000000E+01 0. -1.
</event>
<event>
 6   1  0.1826851E-04  0.4898676E+03  0.7546771E-02  0.9422772E-01
        -11   -1    0    0    0    0  0.00000000000E+00  0.00000000000E+00  0.50000000000E+03  0.50000000000E+03  0.00000000000E+00 0. -1.
         11   -1    0    0    0    0 -0.00000000000E+00 -0.00000000000E+00 -0.50000000000E+03  0.50000000000E+03  0.00000000000E+00 0. -1.
        -11    1    1    2    0    0 -0.52572573342E+01  0.12088559171E+02  0.49330513594E+03  0.49348123486E+03  0.00000000000E+00 0. -1.
         11    1    1    2    0    0 -0.69527074142E+01 -0.24219965122E+01 -0.48634663194E+03  0.48640235670E+03  0.00000000000E+00 0. -1.
        -15    1    1    2    0    0  0.72904076284E+01 -0.42713580541E+01  0.15416304962E+01  0.87709119595E+01  0.17770000000E+01 0. -1.
         15    1    1    2    0    0  0.49195571200E+01 -0.53952046045E+01 -0.85001344931E+01  0.11345496480E+02  0.17770000000E+01 0.  1.
</event>
<event>
 6   1  0.1826851E-04  0.5004926E+03  0.7546771E-02  0.9398708E-01
        -11   -1    0    0    0    0  0.00000000000E+00  0.00000000000E+00  0.50000000000E+03  0.50000000000E+03  0.00000000000E+00 0. -1.
         11   -1    0    0    0    0 -0.00000000000E+00 -0.00000000000E+00 -0.50000000000E+03  0.50000000000E+03  0.00000000000E+00 0. -1.
        -11    1    1    2    0    0 -0.86517278454E+01  0.12751495061E+02  0.49926966603E+03  0.49950740980E+03  0.00000000000E+00 0. -1.
         11    1    1    2    0    0  0.44901766172E+01  0.37355409081E+01 -0.34450490122E+03  0.34455441213E+03  0.00000000000E+00 0. -1.
        -15    1    1    2    0    0  0.61724452764E+01 -0.12627549992E+02 -0.10490548364E+03  0.10585779294E+03  0.17770000000E+01 0. -1.
         15    1    1    2    0    0 -0.20108940483E+01 -0.38594859765E+01 -0.49859281170E+02  0.50080385129E+02  0.17770000000E+01 0.  1.
</event>
<event>
 6   1  0.1826851E-04  0.5004934E+03  0.7546771E-02  0.9398706E-01
        -11   -1    0    0    0    0  0.00000000000E+00  0.00000000000E+00  0.50000000000E+03  0.50000000000E+03  0.00000000000E+00 0.  1.
         11   -1    0    0    0    0 -0.00000000000E+00 -0.00000000000E+00 -0.50000000000E+03  0.50000000000E+03  0.00000000000E+00 0. -1.
        -11    1    1    2    0    0  0.81537060117E+01 -0.17868085111E+01  0.39155218857E+03  0.39164115205E+03  0.00000000000E+00 0.  1.
         11    1    1    2    0    0 -0.44655777367E+01 -0.58420083496E+01 -0.49945252217E+03  0.49950664895E+03  0.00000000000E+00 0. -1.
        -15    1    1    2    0    0 -0.10720815464E+01  0.50734262826E+01  0.17019076753E+02  0.17880036790E+02  0.17770000000E+01 0. -1.
         15    1    1    2    0    0 -0.26160467286E+01  0.25553905781E+01  0.90881256849E+02  0.90972162209E+02  0.17770000000E+01 0.  1.
</event>
<event>
 6   1  0.1826851E-04  0.5014890E+03  0.7546771E-02  0.9396484E-01
        -11   -1    0    0    0    0  0.00000000000E+00  0.00000000000E+00  0.50000000000E+03  0.50000000000E+03  0.00000000000E+00 0.  1.
         11   -1    0    0    0    0 -0.00000000000E+00 -0.00000000000E+00 -0.50000000000E+03  0.50000000000E+03  0.00000000000E+00 0.  1.
        -11    1    1    2    0    0  0.16300088606E+01  0.63090158152E+01  0.48020704151E+03  0.48025125020E+03  0.00000000000E+00 0.  1.
         11    1    1    2    0    0 -0.74851859134E+01  0.93087527982E+00 -0.49845396465E+03  0.49851103239E+03  0.00000000000E+00 0.  1.
        -15    1    1    2    0    0  0.28674954057E+01 -0.51361511534E+01  0.14338878173E+02  0.15600119705E+02  0.17770000000E+01 0. -1.
         15    1    1    2    0    0  0.29876816470E+01 -0.21037399416E+01  0.39080449710E+01  0.56375977030E+01  0.17770000000E+01 0.  1.
</event>
<event>
 6   1  0.1826851E-04  0.5010418E+03  0.7546771E-02  0.9397482E-01
        -11   -1    0    0    0    0  0.00000000000E+00  0.00000000000E+00  0.50000000000E+03  0.50000000000E+03  0.00000000000E+00 0. -1.
         11   -1    0    0    0    0 -0.00000000000E+00 -0.00000000000E+00 -0.50000000000E+03  0.50000000000E+03  0.00000000000E+00 0. -1.
        -11    1    1    2    0    0 -0.24755145772E+01 -0.69123020676E+01  0.31333056841E+03  0.31341658091E+03  0.00000000000E+00 0. -1.
         11    1    1    2    0    0 -0.74706235133E+01 -0.12159456496E+02 -0.49875407170E+03  0.49895820129E+03  0.00000000000E+00 0. -1.
        -15    1    1    2    0    0  0.43866940776E+01  0.48213571759E+01  0.12783310646E+03  0.12801152060E+03  0.17770000000E+01 0. -1.
         15    1    1    2    0    0  0.55594440129E+01  0.14250401387E+02  0.57590396830E+02  0.59613697197E+02  0.17770000000E+01 0.  1.
</event>
<event>
 6   1  0.1826851E-04  0.5085989E+03  0.7546771E-02  0.9380772E-01
        -11   -1    0    0    0    0  0.00000000000E+00  0.00000000000E+00  0.50000000000E+03  0.50000000000E+03  0.00000000000E+00 0. -1.
         11   -1    0    0    0    0 -0.00000000000E+00 -0.00000000000E+00 -0.50000000000E+03  0.50000000000E+03  0.00000000000E+00 0.  1.
        -11    1    1    2    0    0 -0.32036562133E+02  0.86656910101E+01  0.47383324453E+03  0.47499408326E+03  0.00000000000E+00 0. -1.
         11    1    1    2    0    0  0.78709586075E+01 -0.41845261308E+00 -0.49133784342E+03  0.49140106173E+03  0.00000000000E+00 0.  1.
        -15    1    1    2    0    0  0.22892364719E+02 -0.60678345324E+01  0.18767433863E+02  0.30269675934E+02  0.17770000000E+01 0.  1.
         15    1    1    2    0    0  0.12732388064E+01 -0.21794038646E+01 -0.12628349691E+01  0.33351790690E+01  0.17770000000E+01 0. -1.
</event>
<event>
 6   1  0.1826851E-04  0.5074389E+03  0.7546771E-02  0.9383317E-01
        -11   -1    0    0    0    0  0.00000000000E+00  0.00000000000E+00  0.50000000000E+03  0.50000000000E+03  0.00000000000E+00 0. -1.
         11   -1    0    0    0    0 -0.00000000000E+00 -0.00000000000E+00 -0.50000000000E+03  0.50000000000E+03  0.00000000000E+00 0.  1.
        -11    1    1    2    0    0  0.53568018483E+01 -0.32545768456E+02  0.47659072959E+03  0.47773072531E+03  0.00000000000E+00 0. -1.
         11    1    1    2    0    0 -0.17038851301E+02  0.12127505397E+02 -0.49211693417E+03  0.49256113908E+03  0.00000000000E+00 0.  1.
        -15    1    1    2    0    0  0.12534843809E+02  0.15420616181E+02  0.12445276095E+02  0.23515108735E+02  0.17770000000E+01 0.  1.
         15    1    1    2    0    0 -0.85279435635E+00  0.49976468783E+01  0.30809284805E+01  0.61930268719E+01  0.17770000000E+01 0. -1.
</event>
<event>
 6   1  0.1826851E-04  0.5000930E+03  0.7546771E-02  0.9399602E-01
        -11   -1    0    0    0    0  0.00000000000E+00  0.00000000000E+00  0.50000000000E+03  0.50000000000E+03  0.00000000000E+00 0.  1.
         11   -1    0    0    0    0 -0.00000000000E+00 -0.00000000000E+00 -0.50000000000E+03  0.50000000000E+03  0.00000000000E+00 0. -1.
        -11    1    1    2    0    0  0.19091537768E+00  0.34766550664E+01  0.60822424972E+02  0.60922007178E+02  0.00000000000E+00 0.  1.
         11    1    1    2    0    0 -0.68511088062E+01  0.44071436290E+01 -0.49984067024E+03  0.49990704759E+03  0.00000000000E+00 0. -1.
        -15    1    1    2    0    0  0.11063975641E+01 -0.97473694579E+00  0.12988432461E+03  0.12990484878E+03  0.17770000000E+01 0. -1.
         15    1    1    2    0    0  0.55537958644E+01 -0.69090617496E+01  0.30913392066E+03  0.30926609645E+03  0.17770000000E+01 0.  1.
</event>
<event>
 6   1  0.1826851E-04  0.5041417E+03  0.7546771E-02  0.9390590E-01
        -11   -1    0    0    0    0  0.00000000000E+00  0.00000000000E+00  0.50000000000E+03  0.50000000000E+03  0.00000000000E+00 0.  1.
         11   -1    0    0    0    0 -0.00000000000E+00 -0.00000000000E+00 -0.50000000000E+03  0.50000000000E+03  0.00000000000E+00 0. -1.
        -11    1    1    2    0    0  0.11310731300E+02 -0.39492287084E+01  0.49571356969E+03  0.49585831870E+03  0.00000000000E+00 0.  1.
         11    1    1    2    0    0  0.16841234172E+02 -0.55072475675E+01 -0.43871851525E+03  0.43907618082E+03  0.00000000000E+00 0. -1.
        -15    1    1    2    0    0 -0.36034657203E+01  0.41703413370E+01 -0.69567950190E+01  0.90515986434E+01  0.17770000000E+01 0.  1.
         15    1    1    2    0    0 -0.24548499752E+02  0.52861349389E+01 -0.50038259425E+02  0.56013901828E+02  0.17770000000E+01 0. -1.
</event>
<event>
 6   1  0.1826851E-04  0.5465110E+03  0.7546771E-02  0.9301359E-01
        -11   -1    0    0    0    0  0.00000000000E+00  0.00000000000E+00  0.50000000000E+03  0.50000000000E+03  0.00000000000E+00 0. -1.
         11   -1    0    0    0    0 -0.00000000000E+00 -0.00000000000E+00 -0.50000000000E+03  0.50000000000E+03  0.00000000000E+00 0.  1.
        -11    1    1    2    0    0  0.34066627199E+02 -0.11465519395E+03  0.25726194993E+03  0.28370770076E+03  0.00000000000E+00 0. -1.
         11    1    1    2    0    0 -0.25964916097E+01 -0.72794236899E+01 -0.45342316373E+03  0.45348902654E+03  0.00000000000E+00 0.  1.
        -15    1    1    2    0    0 -0.49101374986E+02  0.14071438814E+03  0.16869785399E+03  0.22510799125E+03  0.17770000000E+01 0. -1.
         15    1    1    2    0    0  0.17631239396E+02 -0.18779770495E+02  0.27463359809E+02  0.37695281449E+02  0.17770000000E+01 0.  1.
</event>
<event>
 6   1  0.1826851E-04  0.4865230E+03  0.7546771E-02  0.9430481E-01
        -11   -1    0    0    0    0  0.00000000000E+00  0.00000000000E+00  0.50000000000E+03  0.50000000000E+03  0.00000000000E+00 0. -1.
         11   -1    0    0    0    0 -0.00000000000E+00 -0.00000000000E+00 -0.50000000000E+03  0.50000000000E+03  0.00000000000E+00 0. -1.
        -11    1    1    2    0    0  0.13072743422E+02 -0.86863407717E+01  0.48212565818E+03  0.48238107282E+03  0.00000000000E+00 0. -1.
         11    1    1    2    0    0 -0.55981169700E+01 -0.41766802528E+01 -0.49076724535E+03  0.49081694416E+03  0.00000000000E+00 0. -1.
        -15    1    1    2    0    0 -0.96208483746E+01  0.64377190796E+01  0.13802980379E+02  0.18102070233E+02  0.17770000000E+01 0.  1.
         15    1    1    2    0    0  0.21462219222E+01  0.64253019449E+01 -0.51613932120E+01  0.86999127876E+01  0.17770000000E+01 0. -1.
</event>
<event>
 6   1  0.1826851E-04  0.5016987E+03  0.7546771E-02  0.9396017E-01
        -11   -1    0    0    0    0  0.00000000000E+00  0.00000000000E+00  0.50000000000E+03  0.50000000000E+03  0.00000000000E+00 0. -1.
         11   -1    0    0    0    0 -0.00000000000E+00 -0.00000000000E+00 -0.50000000000E+03  0.50000000000E+03  0.00000000000E+00 0. -1.
        -11    1    1    2    0    0 -0.87487523402E+01  0.17537191386E+02  0.60210809805E+02  0.63320102389E+02  0.00000000000E+00 0. -1.
         11    1    1    2    0    0 -0.13208165910E+02 -0.15432256094E+02 -0.49788706609E+03  0.49830125502E+03  0.00000000000E+00 0. -1.
        -15    1    1    2    0    0 -0.58804812652E-01  0.15651741314E+01  0.50497219171E+02  0.50552745733E+02  0.17770000000E+01 0.  1.
         15    1    1    2    0    0  0.22015723063E+02 -0.36701094236E+01  0.38717903711E+03  0.38782589686E+03  0.17770000000E+01 0. -1.
</event>
<event>
 6   1  0.1826851E-04  0.5001190E+03  0.7546771E-02  0.9399544E-01
        -11   -1    0    0    0    0  0.00000000000E+00  0.00000000000E+00  0.50000000000E+03  0.50000000000E+03  0.00000000000E+00 0.  1.
         11   -1    0    0    0    0 -0.00000000000E+00 -0.00000000000E+00 -0.50000000000E+03  0.50000000000E+03  0.00000000000E+00 0.  1.
        -11    1    1    2    0    0  0.80640508429E+00  0.56380210369E+01  0.25523760306E+03  0.25530113902E+03  0.00000000000E+00 0.  1.
         11    1    1    2    0    0  0.67989071636E+01 -0.30153857437E+01 -0.49982569308E+03  0.49988102700E+03  0.00000000000E+00 0.  1.
        -15    1    1    2    0    0 -0.55097248245E+00 -0.17900120435E+01  0.11034588551E+03  0.11037608388E+03  0.17770000000E+01 0.  1.
         15    1    1    2    0    0 -0.70543397654E+01 -0.83262324969E+00  0.13424220451E+03  0.13444175010E+03  0.17770000000E+01 0. -1.
</event>
<event>
 6   1  0.1826851E-04  0.5022243E+03  0.7546771E-02  0.9394846E-01
        -11   -1    0    0    0    0  0.00000000000E+00  0.00000000000E+00  0.50000000000E+03  0.50000000000E+03  0.00000000000E+00 0.  1.
         11   -1    0    0    0    0 -0.00000000000E+00 -0.00000000000E+00 -0.50000000000E+03  0.50000000000E+03  0.00000000000E+00 0.  1.
        -11    1    1    2    0    0 -0.13361426675E+01 -0.23331659799E+02  0.74806039756E+02  0.78371520402E+02  0.00000000000E+00 0.  1.
         11    1    1    2    0    0  0.11523046938E+02  0.47339352167E+01 -0.49761974324E+03  0.49777565189E+03  0.00000000000E+00 0.  1.
        -15    1    1    2    0    0  0.28411095506E+01  0.11599882308E+02  0.28094947889E+03  0.28120881314E+03  0.17770000000E+01 0.  1.
         15    1    1    2    0    0 -0.13028013821E+02  0.69978422736E+01  0.14186422460E+03  0.14264401456E+03  0.17770000000E+01 0. -1.
</event>
<event>
 6   1  0.1826851E-04  0.5001254E+03  0.7546771E-02  0.9399529E-01
        -11   -1    0    0    0    0  0.00000000000E+00  0.00000000000E+00  0.50000000000E+03  0.50000000000E+03  0.00000000000E+00 0. -1.
         11   -1    0    0    0    0 -0.00000000000E+00 -0.00000000000E+00 -0.50000000000E+03  0.50000000000E+03  0.00000000000E+00 0.  1.
        -11    1    1    2    0    0  0.10714443326E+01 -0.50160683832E+01  0.53856311787E+02  0.54100011592E+02  0.00000000000E+00 0. -1.
         11    1    1    2    0    0  0.50686983560E+01  0.59123796395E+01 -0.49981391353E+03  0.49987458036E+03  0.00000000000E+00 0.  1.
        -15    1    1    2    0    0 -0.33467592231E+01  0.75861155735E+00  0.17591153026E+03  0.17595397267E+03  0.17770000000E+01 0. -1.
         15    1    1    2    0    0 -0.27933834655E+01 -0.16549228137E+01  0.27004607148E+03  0.27007143538E+03  0.17770000000E+01 0. -1.
</event>
<event>
 6   1  0.1826851E-04  0.4895325E+03  0.7546771E-02  0.9423541E-01
        -11   -1    0    0    0    0  0.00000000000E+00  0.00000000000E+00  0.50000000000E+03  0.50000000000E+03  0.00000000000E+00 0. -1.
         11   -1    0    0    0    0 -0.00000000000E+00 -0.00000000000E+00 -0.50000000000E+03  0.50000000000E+03  0.00000000000E+00 0.  1.
        -11    1    1    2    0    0 -0.34998930639E+01  0.10754086493E+02  0.49212611664E+03  0.49225604548E+03  0.00000000000E+00 0. -1.
         11    1    1    2    0    0  0.52401309999E+01  0.42768393205E+01 -0.48689280089E+03  0.48693978055E+03  0.00000000000E+00 0.  1.
        -15    1    1    2    0    0  0.39753273975E+01 -0.18421167109E+01  0.13174803313E+01  0.49081672055E+01  0.17770000000E+01 0.  1.
         15    1    1    2    0    0 -0.57155653335E+01 -0.13188809103E+02 -0.65507960896E+01  0.15896006764E+02  0.17770000000E+01 0. -1.
</event>
<event>
 6   1  0.1826851E-04  0.5023475E+03  0.7546771E-02  0.9394572E-01
        -11   -1    0    0    0    0  0.00000000000E+00  0.00000000000E+00  0.50000000000E+03  0.50000000000E+03  0.00000000000E+00 0.  1.
         11   -1    0    0    0    0 -0.00000000000E+00 -0.00000000000E+00 -0.50000000000E+03  0.50000000000E+03  0.00000000000E+00 0. -1.
        -11    1    1    2    0    0  0.16285733682E+02  0.55011871203E+01  0.34776551739E+03  0.34819009645E+03  0.00000000000E+00 0.  1.
         11    1    1    2    0    0  0.54149388387E+01  0.45935130564E+01 -0.49760180762E+03  0.49765246997E+03  0.00000000000E+00 0. -1.
        -15    1    1    2    0    0  0.56188187448E+01 -0.51417686347E+01  0.22602733565E+02  0.23917570997E+02  0.17770000000E+01 0. -1.
         15    1    1    2    0    0 -0.27319491265E+02 -0.49529315419E+01  0.12723355667E+03  0.13023986258E+03  0.17770000000E+01 0.  1.
</event>
<event>
 6   1  0.1826851E-04  0.5045206E+03  0.7546771E-02  0.9389751E-01
        -11   -1    0    0    0    0  0.00000000000E+00  0.00000000000E+00  0.50000000000E+03  0.50000000000E+03  0.00000000000E+00 0. -1.
         11   -1    0    0    0    0 -0.00000000000E+00 -0.00000000000E+00 -0.50000000000E+03  0.50000000000E+03  0.00000000000E+00 0.  1.
        -11    1    1    2    0    0 -0.82363277686E+01  0.98452684040E+01  0.49531308207E+03  0.49547937967E+03  0.00000000000E+00 0. -1.
         11    1    1    2    0    0 -0.53755492830E+01 -0.81273264711E+01 -0.48334668044E+03  0.48344489185E+03  0.00000000000E+00 0.  1.
        -15    1    1    2    0    0  0.41582749050E+01 -0.46256338010E+01 -0.79610892555E+01  0.10257894978E+02  0.17770000000E+01 0.  1.
         15    1    1    2    0    0  0.94536021466E+01  0.29076918681E+01 -0.40053123782E+01  0.10817833507E+02  0.17770000000E+01 0. -1.
</event>
<event>
 6   1  0.1826851E-04  0.5001167E+03  0.7546771E-02  0.9399549E-01
        -11   -1    0    0    0    0  0.00000000000E+00  0.00000000000E+00  0.50000000000E+03  0.50000000000E+03  0.00000000000E+00 0.  1.
         11   -1    0    0    0    0 -0.00000000000E+00 -0.00000000000E+00 -0.50000000000E+03  0.50000000000E+03  0.00000000000E+00 0.  1.
        -11    1    1    2    0    0  0.11137782221E+02  0.14382978363E+02  0.49955223774E+03  0.49988334489E+03  0.00000000000E+00 0.  1.
         11    1    1    2    0    0 -0.57119337964E+01 -0.85262627562E+01 -0.15576066852E+03  0.15609839590E+03  0.00000000000E+00 0.  1.
        -15    1    1    2    0    0 -0.42753634935E+01 -0.78797653376E+01 -0.21618428277E+03  0.21637738163E+03  0.17770000000E+01 0. -1.
         15    1    1    2    0    0 -0.11504849314E+01  0.20230497310E+01 -0.12760728645E+03  0.12764087759E+03  0.17770000000E+01 0.  1.
</event>
<event>
 6   1  0.1826851E-04  0.5001117E+03  0.7546771E-02  0.9399560E-01
        -11   -1    0    0    0    0  0.00000000000E+00  0.00000000000E+00  0.50000000000E+03  0.50000000000E+03  0.00000000000E+00 0.  1.
         11   -1    0    0    0    0 -0.00000000000E+00 -0.00000000000E+00 -0.50000000000E+03  0.50000000000E+03  0.00000000000E+00 0. -1.
        -11    1    1    2    0    0  0.36790207155E+01 -0.57243091131E+01  0.10951468590E+03  0.10972588271E+03  0.00000000000E+00 0.  1.
         11    1    1    2    0    0 -0.48311666079E+01  0.62898092917E+01 -0.49982538825E+03  0.49988830814E+03  0.00000000000E+00 0. -1.
        -15    1    1    2    0    0 -0.26358199770E+01 -0.95810787351E+00  0.13684138940E+03  0.13688166093E+03  0.17770000000E+01 0. -1.
         15    1    1    2    0    0  0.37879658694E+01  0.39260769489E+00  0.25346931295E+03  0.25350414822E+03  0.17770000000E+01 0.  1.
</event>
<event>
 6   1  0.1826851E-04  0.5018094E+03  0.7546771E-02  0.9395770E-01
        -11   -1    0    0    0    0  0.00000000000E+00  0.00000000000E+00  0.50000000000E+03  0.50000000000E+03  0.00000000000E+00 0.  1.
         11   -1    0    0    0    0 -0.00000000000E+00 -0.00000000000E+00 -0.50000000000E+03  0.50000000000E+03  0.00000000000E+00 0. -1.
        -11    1    1    2    0    0 -0.14776736801E+02  0.48029267435E+01  0.49794822860E+03  0.49819058443E+03  0.00000000000E+00 0.  1.
         11    1    1    2    0    0  0.14416875068E+02 -0.11599725933E+02 -0.45892045967E+03  0.45929335749E+03  0.00000000000E+00 0. -1.
        -15    1    1    2    0    0 -0.64162508136E+01  0.54640990875E+01 -0.13520655550E+02  0.16030923518E+02  0.17770000000E+01 0.  1.
         15    1    1    2    0    0  0.67761125465E+01  0.13327001024E+01 -0.25507113373E+02  0.26485134556E+02  0.17770000000E+01 0. -1.
</event>
<event>
 6   1  0.1826851E-04  0.5005616E+03  0.7546771E-02  0.9398554E-01
        -11   -1    0    0    0    0  0.00000000000E+00  0.00000000000E+00  0.50000000000E+03  0.50000000000E+03  0.00000000000E+00 0. -1.
         11   -1    0    0    0    0 -0.00000000000E+00 -0.00000000000E+00 -0.50000000000E+03  0.50000000000E+03  0.00000000000E+00 0. -1.
        -11    1    1    2    0    0 -0.48159427565E+01  0.90613000566E+01  0.21871071950E+03  0.21895131717E+03  0.00000000000E+00 0. -1.
         11    1    1    2    0    0  0.72782199572E+01  0.14213050547E+01 -0.49938336258E+03  0.49943842004E+03  0.00000000000E+00 0. -1.
        -15    1    1    2    0    0  0.27028499970E+01 -0.57675914042E+01  0.25048229618E+03  0.25056956906E+03  0.17770000000E+01 0.  1.
         15    1    1    2    0    0 -0.51651271977E+01 -0.47150137071E+01  0.30190346893E+02  0.31040693738E+02  0.17770000000E+01 0. -1.
</event>
<event>
 6   1  0.1826851E-04  0.5004430E+03  0.7546771E-02  0.9398819E-01
        -11   -1    0    0    0    0  0.00000000000E+00  0.00000000000E+00  0.50000000000E+03  0.50000000000E+03  0.00000000000E+00 0. -1.
         11   -1    0    0    0    0 -0.00000000000E+00 -0.00000000000E+00 -0.50000000000E+03  0.50000000000E+03  0.00000000000E+00 0.  1.
        -11    1    1    2    0    0 -0.25947128824E+02 -0.12051629092E+01  0.34130954323E+03  0.34229652381E+03  0.00000000000E+00 0. -1.
         11    1    1    2    0    0  0.19814172105E+02  0.61562856513E+01 -0.49912591333E+03  0.49955698236E+03  0.00000000000E+00 0.  1.
        -15    1    1    2    0    0  0.35801197311E+01 -0.53026946397E+01  0.83230565442E+02  0.83495033268E+02  0.17770000000E+01 0.  1.
         15    1    1    2    0    0  0.25528369871E+01  0.35157189751E+00  0.74585804653E+02  0.74651460563E+02  0.17770000000E+01 0.  1.
</event>
<event>
 6   1  0.1826851E-04  0.5028021E+03  0.7546771E-02  0.9393562E-01
        -11   -1    0    0    0    0  0.00000000000E+00  0.00000000000E+00  0.50000000000E+03  0.50000000000E+03  0.00000000000E+00 0.  1.
         11   -1    0    0    0    0 -0.00000000000E+00 -0.00000000000E+00 -0.50000000000E+03  0.50000000000E+03  0.00000000000E+00 0. -1.
        -11    1    1    2    0    0  0.48590159126E+01 -0.69600771944E+01  0.49712544051E+03  0.49719790457E+03  0.00000000000E+00 0.  1.
         11    1    1    2    0    0 -0.63531911504E+01 -0.20250461250E+01 -0.48826399751E+03  0.48830952798E+03  0.00000000000E+00 0. -1.
        -15    1    1    2    0    0  0.33910216330E+01  0.29621503746E+01 -0.45454397941E+01  0.66401893406E+01  0.17770000000E+01 0. -1.
         15    1    1    2    0    0 -0.18968463953E+01  0.60229729447E+01 -0.43160032038E+01  0.78523781108E+01  0.17770000000E+01 0.  1.
</event>
<event>
 6   1  0.1826851E-04  0.5014385E+03  0.7546771E-02  0.9396597E-01
        -11   -1    0    0    0    0  0.00000000000E+00  0.00000000000E+00  0.50000000000E+03  0.50000000000E+03  0.00000000000E+00 0. -1.
         11   -1    0    0    0    0 -0.00000000000E+00 -0.00000000000E+00 -0.50000000000E+03  0.50000000000E+03  0.00000000000E+00 0. -1.
        -11    1    1    2    0    0  0.25404583187E+02  0.76435365164E+01  0.49785511014E+03  0.49856145779E+03  0.00000000000E+00 0. -1.
         11    1    1    2    0    0  0.11604897918E+01  0.72313469463E+01 -0.31082763148E+03  0.31091390385E+03  0.00000000000E+00 0. -1.
        -15    1    1    2    0    0 -0.12612641974E+02 -0.23951562536E+01 -0.34706984994E+02  0.37047915561E+02  0.17770000000E+01 0. -1.
         15    1    1    2    0    0 -0.13952431004E+02 -0.12479727209E+02 -0.15232049366E+03  0.15347672280E+03  0.17770000000E+01 0.  1.
</event>
<event>
 6   1  0.1826851E-04  0.5009721E+03  0.7546771E-02  0.9397637E-01
        -11   -1    0    0    0    0  0.00000000000E+00  0.00000000000E+00  0.50000000000E+03  0.50000000000E+03  0.00000000000E+00 0. -1.
         11   -1    0    0    0    0 -0.00000000000E+00 -0.00000000000E+00 -0.50000000000E+03  0.50000000000E+03  0.00000000000E+00 0.  1.
        -11    1    1    2    0    0 -0.72921242212E+01  0.45050171139E+01  0.49895423121E+03  0.49902785003E+03  0.00000000000E+00 0. -1.
         11    1    1    2    0    0  0.86740137057E+01  0.61104412462E+00 -0.43185776729E+03  0.43194530100E+03  0.00000000000E+00 0.  1.
        -15    1    1    2    0    0  0.64031820909E+01 -0.29236438555E+01 -0.21725815142E+02  0.22906706592E+02  0.17770000000E+01 0.  1.
         15    1    1    2    0    0 -0.77850715754E+01 -0.21924173831E+01 -0.45370648782E+02  0.46120142381E+02  0.17770000000E+01 0. -1.
</event>
<event>
 6   1  0.1826851E-04  0.5009996E+03  0.7546771E-02  0.9397576E-01
        -11   -1    0    0    0    0  0.00000000000E+00  0.00000000000E+00  0.50000000000E+03  0.50000000000E+03  0.00000000000E+00 0.  1.
         11   -1    0    0    0    0 -0.00000000000E+00 -0.00000000000E+00 -0.50000000000E+03  0.50000000000E+03  0.00000000000E+00 0. -1.
        -11    1    1    2    0    0 -0.13472710337E+02  0.70366173274E+01  0.49876881347E+03  0.49900035792E+03  0.00000000000E+00 0.  1.
         11    1    1    2    0    0  0.91793562596E+01 -0.13022872254E-01 -0.38020026060E+03  0.38031105546E+03  0.00000000000E+00 0. -1.
        -15    1    1    2    0    0  0.52287374001E+01 -0.10049450236E+02 -0.31132066843E+02  0.33176715626E+02  0.17770000000E+01 0.  1.
         15    1    1    2    0    0 -0.93538332283E+00  0.30258557807E+01 -0.87436486035E+02  0.87511870991E+02  0.17770000000E+01 0. -1.
</event>
<event>
 6   1  0.1826851E-04  0.5042349E+03  0.7546771E-02  0.9390383E-01
        -11   -1    0    0    0    0  0.00000000000E+00  0.00000000000E+00  0.50000000000E+03  0.50000000000E+03  0.00000000000E+00 0. -1.
         11   -1    0    0    0    0 -0.00000000000E+00 -0.00000000000E+00 -0.50000000000E+03  0.50000000000E+03  0.00000000000E+00 0. -1.
        -11    1    1    2    0    0  0.17991817788E+02 -0.11524356627E+02 -0.17738886142E+02  0.27770206779E+02  0.00000000000E+00 0. -1.
         11    1    1    2    0    0 -0.18940363531E+01  0.65542753200E+01 -0.47641582713E+03  0.47646467471E+03  0.00000000000E+00 0. -1.
        -15    1    1    2    0    0 -0.11364694801E+02  0.10934999649E+02  0.47207578832E+03  0.47234250089E+03  0.17770000000E+01 0. -1.
         15    1    1    2    0    0 -0.47330866345E+01 -0.59649183420E+01  0.22078924957E+02  0.23422617620E+02  0.17770000000E+01 0.  1.
</event>
<event>
 6   1  0.1826851E-04  0.5011122E+03  0.7546771E-02  0.9397324E-01
        -11   -1    0    0    0    0  0.00000000000E+00  0.00000000000E+00  0.50000000000E+03  0.50000000000E+03  0.00000000000E+00 0. -1.
         11   -1    0    0    0    0 -0.00000000000E+00 -0.00000000000E+00 -0.50000000000E+03  0.50000000000E+03  0.00000000000E+00 0.  1.
        -11    1    1    2    0    0 -0.16843238266E+02  0.12229843857E+01  0.49860185103E+03  0.49888775914E+03  0.00000000000E+00 0. -1.
         11    1    1    2    0    0 -0.51916645261E+01 -0.12917314167E+02 -0.33634552314E+03  0.33663351189E+03  0.00000000000E+00 0.  1.
        -15    1    1    2    0    0  0.12833347827E+02  0.53185985421E+01 -0.60848840517E+02  0.62439742377E+02  0.17770000000E+01 0.  1.
         15    1    1    2    0    0  0.92015549647E+01  0.63757312393E+01 -0.10140748737E+03  0.10203898660E+03  0.17770000000E+01 0. -1.
</event>
<event>
 6   1  0.1826851E-04  0.5006148E+03  0.7546771E-02  0.9398435E-01
        -11   -1    0    0    0    0  0.00000000000E+00  0.00000000000E+00  0.50000000000E+03  0.50000000000E+03  0.00000000000E+00 0. -1.
         11   -1    0    0    0    0 -0.00000000000E+00 -0.00000000000E+00 -0.50000000000E+03  0.50000000000E+03  0.00000000000E+00 0.  1.
        -11    1    1    2    0    0  0.99324246728E+01 -0.38139675984E+01  0.46997219509E+02  0.48186492405E+02  0.00000000000E+00 0. -1.
         11    1    1    2    0    0 -0.60280220525E+01  0.51694434627E+01 -0.49932202556E+03  0.49938516739E+03  0.00000000000E+00 0.  1.
        -15    1    1    2    0    0 -0.41170199945E+01  0.24983083105E+01  0.19087875223E+03  0.19094776034E+03  0.17770000000E+01 0.  1.
         15    1    1    2    0    0  0.21261737420E+00 -0.38537841748E+01  0.26144605382E+03  0.26148057986E+03  0.17770000000E+01 0. -1.
</event>
<event>
 6   1  0.1826851E-04  0.5089904E+03  0.7546771E-02  0.9379915E-01
        -11   -1    0    0    0    0  0.00000000000E+00  0.00000000000E+00  0.50000000000E+03  0.50000000000E+03  0.00000000000E+00 0. -1.
         11   -1    0    0    0    0 -0.00000000000E+00 -0.00000000000E+00 -0.50000000000E+03  0.50000000000E+03  0.00000000000E+00 0. -1.
        -11    1    1    2    0    0  0.11827920309E+02 -0.27635915285E+02  0.49008852650E+03  0.49100957966E+03  0.00000000000E+00 0. -1.
         11    1    1    2    0    0  0.71857464348E+01 -0.67880537020E+01 -0.45348325266E+03  0.45359097551E+03  0.00000000000E+00 0. -1.
        -15    1    1    2    0    0 -0.11938239957E+02  0.31207729779E+02 -0.31337543670E+02  0.45843683790E+02  0.17770000000E+01 0.  1.
         15    1    1    2    0    0 -0.70754267871E+01  0.32162392089E+01 -0.52677301739E+01  0.95557610400E+01  0.17770000000E+01 0. -1.
</event>
<event>
 6   1  0.1826851E-04  0.5038208E+03  0.7546771E-02  0.9391301E-01
        -11   -1    0    0    0    0  0.00000000000E+00  0.00000000000E+00  0.50000000000E+03  0.50000000000E+03  0.00000000000E+00 0.  1.
         11   -1    0    0    0    0 -0.00000000000E+00 -0.00000000000E+00 -0.50000000000E+03  0.50000000000E+03  0.00000000000E+00 0. -1.
        -11    1    1    2    0    0 -0.16971443427E+02 -0.15129429041E+02  0.45219198944E+03  0.45276321055E+03  0.00000000000E+00 0.  1.
         11    1    1    2    0    0 -0.43488108917E+01  0.51317945067E+01 -0.49613362444E+03  0.49617922243E+03  0.00000000000E+00 0. -1.
        -15    1    1    2    0    0  0.16065706053E+02  0.27254851099E+01  0.23382751182E+02  0.28556014461E+02  0.17770000000E+01 0.  1.
         15    1    1    2    0    0  0.52545482657E+01  0.72721494247E+01  0.20558883816E+02  0.22501552558E+02  0.17770000000E+01 0. -1.
</event>
<event>
 6   1  0.1826851E-04  0.5010593E+03  0.7546771E-02  0.9397443E-01
        -11   -1    0    0    0    0  0.00000000000E+00  0.00000000000E+00  0.50000000000E+03  0.50000000000E+03  0.00000000000E+00 0.  1.
         11   -1    0    0    0    0 -0.00000000000E+00 -0.00000000000E+00 -0.50000000000E+03  0.50000000000E+03  0.00000000000E+00 0.  1.
        -11    1    1    2    0    0 -0.20408393536E+02  0.35855449606E+01  0.49851024239E+03  0.49894069831E+03  0.00000000000E+00 0.  1.
         11    1    1    2    0    0  0.84511899888E+01  0.45405272165E+01 -0.37961256090E+03  0.37973376910E+03  0.00000000000E+00 0.  1.
        -15    1    1    2    0    0  0.27771738028E+01 -0.13134580549E+02 -0.66227846247E+02  0.67598189680E+02  0.17770000000E+01 0.  1.
         15    1    1    2    0    0  0.91800297440E+01  0.50085083722E+01 -0.52669835249E+02  0.53727342912E+02  0.17770000000E+01 0. -1.
</event>
<event>
 6   1  0.1826851E-04  0.5015342E+03  0.7546771E-02  0.9396383E-01
        -11   -1    0    0    0    0  0.00000000000E+00  0.00000000000E+00  0.50000000000E+03  0.50000000000E+03  0.00000000000E+00 0. -1.
         11   -1    0    0    0    0 -0.00000000000E+00 -0.00000000000E+00 -0.50000000000E+03  0.50000000000E+03  0.00000000000E+00 0. -1.
        -11    1    1    2    0    0  0.11192317452E+02 -0.11436019719E+02  0.49820885193E+03  0.49846575675E+03  0.00000000000E+00 0. -1.
         11    1    1    2    0    0 -0.57812643569E+01 -0.30030728931E+01 -0.44018827544E+03  0.44023648111E+03  0.00000000000E+00 0. -1.
        -15    1    1    2    0    0  0.29497502674E+01  0.13593726527E+01 -0.17085260100E+02  0.17481783729E+02  0.17770000000E+01 0. -1.
         15    1    1    2    0    0 -0.83608033622E+01  0.13079719960E+02 -0.40935316383E+02  0.43815978404E+02  0.17770000000E+01 0.  1.
</event>
<event>
 6   1  0.1826851E-04  0.5015758E+03  0.7546771E-02  0.9396291E-01
        -11   -1    0    0    0    0  0.00000000000E+00  0.00000000000E+00  0.50000000000E+03  0.50000000000E+03  0.00000000000E+00 0. -1.
         11   -1    0    0    0    0 -0.00000000000E+00 -0.00000000000E+00 -0.50000000000E+03  0.50000000000E+03  0.00000000000E+00 0. -1.
        -11    1    1    2    0    0 -0.65989663113E+01  0.21753066007E+02  0.44264349654E+03  0.44322681244E+03  0.00000000000E+00 0. -1.
         11    1    1    2    0    0  0.82441345237E+01 -0.78950299659E+01 -0.49829348354E+03  0.49842420988E+03  0.00000000000E+00 0. -1.
        -15    1    1    2    0    0  0.12451380646E+01 -0.82635391644E+01  0.45341048380E+02  0.46138973174E+02  0.17770000000E+01 0. -1.
         15    1    1    2    0    0 -0.28903062769E+01 -0.55944968771E+01  0.10308938623E+02  0.12210004513E+02  0.17770000000E+01 0.  1.
</event>
<event>
 6   1  0.1826851E-04  0.5005535E+03  0.7546771E-02  0.9398572E-01
        -11   -1    0    0    0    0  0.00000000000E+00  0.00000000000E+00  0.50000000000E+03  0.50000000000E+03  0.00000000000E+00 0. -1.
         11   -1    0    0    0    0 -0.00000000000E+00 -0.00000000000E+00 -0.50000000000E+03  0.50000000000E+03  0.00000000000E+00 0.  1.
        -11    1    1    2    0    0  0.91351920065E+01 -0.62141797765E+00  0.40126170984E+03  0.40136616409E+03  0.00000000000E+00 0. -1.
         11    1    1    2    0    0  0.27273461588E-01  0.84799896366E+01 -0.49937450138E+03  0.49944649723E+03  0.00000000000E+00 0.  1.
        -15    1    1    2    0    0 -0.36344923878E+01  0.68802853337E+00  0.22405861542E+02  0.22778570601E+02  0.17770000000E+01 0.  1.
         15    1    1    2    0    0 -0.55279730803E+01 -0.85466001923E+01  0.75706929991E+02  0.76408768076E+02  0.17770000000E+01 0.  1.
</event>
<event>
 6   1  0.1826851E-04  0.5005624E+03  0.7546771E-02  0.9398552E-01
        -11   -1    0    0    0    0  0.00000000000E+00  0.00000000000E+00  0.50000000000E+03  0.50000000000E+03  0.00000000000E+00 0. -1.
         11   -1    0    0    0    0 -0.00000000000E+00 -0.00000000000E+00 -0.50000000000E+03  0.50000000000E+03  0.00000000000E+00 0.  1.
        -11    1    1    2    0    0 -0.11062396335E+02  0.10305119484E+02  0.49920867797E+03  0.49943755992E+03  0.00000000000E+00 0. -1.
         11    1    1    2    0    0  0.69134288423E+01 -0.11156618276E+02 -0.36469115905E+03  0.36492726278E+03  0.00000000000E+00 0.  1.
        -15    1    1    2    0    0  0.71031787326E+01 -0.44145654398E+01 -0.39762294306E+02  0.40671136124E+02  0.17770000000E+01 0.  1.
         15    1    1    2    0    0 -0.29542112396E+01  0.52660642319E+01 -0.94755224613E+02  0.94964041179E+02  0.17770000000E+01 0. -1.
</event>
<event>
 6   1  0.1826851E-04  0.5051326E+03  0.7546771E-02  0.9388398E-01
        -11   -1    0    0    0    0  0.00000000000E+00  0.00000000000E+00  0.50000000000E+03  0.50000000000E+03  0.00000000000E+00 0. -1.
         11   -1    0    0    0    0 -0.00000000000E+00 -0.00000000000E+00 -0.50000000000E+03  0.50000000000E+03  0.00000000000E+00 0.  1.
        -11    1    1    2    0    0  0.60733549838E+01  0.19598921184E+02  0.46821155674E+03  0.46866092777E+03  0.00000000000E+00 0. -1.
         11    1    1    2    0    0  0.11023430157E+02 -0.28644125677E+01 -0.49473631639E+03  0.49486740005E+03  0.00000000000E+00 0.  1.
        -15    1    1    2    0    0 -0.14575750144E+02 -0.11058789830E+02  0.21505320186E+02  0.28291091355E+02  0.17770000000E+01 0.  1.
         15    1    1    2    0    0 -0.25210349972E+01 -0.56757187855E+01  0.50194394676E+01  0.81805808326E+01  0.17770000000E+01 0. -1.
</event>
<event>
 6   1  0.1826851E-04  0.5008363E+03  0.7546771E-02  0.9397940E-01
        -11   -1    0    0    0    0  0.00000000000E+00  0.00000000000E+00  0.50000000000E+03  0.50000000000E+03  0.00000000000E+00 0. -1.
         11   -1    0    0    0    0 -0.00000000000E+00 -0.00000000000E+00 -0.50000000000E+03  0.50000000000E+03  0.00000000000E+00 0.  1.
        -11    1    1    2    0    0 -0.21638279449E+01  0.91814189871E+01  0.49907458493E+03  0.49916372257E+03  0.00000000000E+00 0. -1.
         11    1    1    2    0    0 -0.40167531465E+01  0.98721742765E+01 -0.26961081131E+03  0.26982139223E+03  0.00000000000E+00 0.  1.
        -15    1    1    2    0    0  0.39249733653E+01 -0.50599508426E+01 -0.15787134873E+03  0.15801116732E+03  0.17770000000E+01 0. -1.
         15    1    1    2    0    0  0.22556077260E+01 -0.13993642421E+02 -0.71592424886E+02  0.73003717881E+02  0.17770000000E+01 0.  1.
</event>
<event>
 6   1  0.1826851E-04  0.5004630E+03  0.7546771E-02  0.9398774E-01
        -11   -1    0    0    0    0  0.00000000000E+00  0.00000000000E+00  0.50000000000E+03  0.50000000000E+03  0.00000000000E+00 0.  1.
         11   -1    0    0    0    0 -0.00000000000E+00 -0.00000000000E+00 -0.50000000000E+03  0.50000000000E+03  0.00000000000E+00 0.  1.
        -11    1    1    2    0    0  0.47601406567E+01  0.36835446200E+01  0.41491117389E+03  0.41495482846E+03  0.00000000000E+00 0.  1.
         11    1    1    2    0    0 -0.58595435011E+01  0.54019725832E+01 -0.49947338106E+03  0.49953695954E+03  0.00000000000E+00 0.  1.
        -15    1    1    2    0    0  0.44952364381E+01 -0.37705279671E+01  0.40338068014E+02  0.40801243755E+02  0.17770000000E+01 0. -1.
         15    1    1    2    0    0 -0.33958335936E+01 -0.53149892361E+01  0.44224139159E+02  0.44706968246E+02  0.17770000000E+01 0.  1.
</event>
<event>
 6   1  0.1826851E-04  0.5072453E+03  0.7546771E-02  0.9383742E-01
        -11   -1    0    0    0    0  0.00000000000E+00  0.00000000000E+00  0.50000000000E+03  0.50000000000E+03  0.00000000000E+00 0. -1.
         11   -1    0    0    0    0 -0.00000000000E+00 -0.00000000000E+00 -0.50000000000E+03  0.50000000000E+03  0.00000000000E+00 0. -1.
        -11    1    1    2    0    0 -0.30818568197E+02 -0.91732004294E+01  0.38943732836E+03  0.39076254231E+03  0.00000000000E+00 0. -1.
         11    1    1    2    0    0 -0.45831441578E+00  0.99310216488E+01 -0.49265442594E+03  0.49275472463E+03  0.00000000000E+00 0. -1.
        -15    1    1    2    0    0  0.29185450311E+02  0.16103555447E+02  0.46446249788E+02  0.57197262664E+02  0.17770000000E+01 0.  1.
         15    1    1    2    0    0  0.20914323013E+01 -0.16861376666E+02  0.56770847796E+02  0.59285470400E+02  0.17770000000E+01 0. -1.
</event>
<event>
 6   1  0.1826851E-04  0.5036640E+03  0.7546771E-02  0.9391648E-01
        -11   -1    0    0    0    0  0.00000000000E+00  0.00000000000E+00  0.50000000000E+03  0.50000000000E+03  0.00000000000E+00 0.  1.
         11   -1    0    0    0    0 -0.00000000000E+00 -0.00000000000E+00 -0.50000000000E+03  0.50000000000E+03  0.00000000000E+00 0. -1.
        -11    1    1    2    0    0  0.12070283373E+02 -0.62021850467E+02  0.49229769124E+03  0.49633599353E+03  0.00000000000E+00 0.  1.
         11    1    1    2    0    0 -0.35118681035E+02  0.40310481098E+02 -0.29506221725E+03  0.29986658482E+03  0.00000000000E+00 0. -1.
        -15    1    1    2    0    0 -0.48675683002E+01  0.18246068755E+01 -0.10875393997E+03  0.10889260581E+03  0.17770000000E+01 0. -1.
         15    1    1    2    0    0  0.27915965962E+02  0.19886762494E+02 -0.88481534018E+02  0.94904815838E+02  0.17770000000E+01 0.  1.
</event>
<event>
 6   1  0.1826851E-04  0.5036006E+03  0.7546771E-02  0.9391789E-01
        -11   -1    0    0    0    0  0.00000000000E+00  0.00000000000E+00  0.50000000000E+03  0.50000000000E+03  0.00000000000E+00 0.  1.
         11   -1    0    0    0    0 -0.00000000000E+00 -0.00000000000E+00 -0.50000000000E+03  0.50000000000E+03  0.00000000000E+00 0. -1.
        -11    1    1    2    0    0 -0.10186481940E+02  0.78383029558E+01  0.48119398352E+03  0.48136561280E+03  0.00000000000E+00 0.  1.
         11    1    1    2    0    0  0.55857327343E+01  0.47241927286E+01 -0.49634553711E+03  0.49639944664E+03  0.00000000000E+00 0. -1.
        -15    1    1    2    0    0  0.55557894149E+01 -0.10164579022E+02  0.73649969291E+01  0.13841472880E+02  0.17770000000E+01 0.  1.
         15    1    1    2    0    0 -0.95504020883E+00 -0.23979166627E+01  0.77865566655E+01  0.83934676878E+01  0.17770000000E+01 0. -1.
</event>
<event>
 6   1  0.1826851E-04  0.5009963E+03  0.7546771E-02  0.9397583E-01
        -11   -1    0    0    0    0  0.00000000000E+00  0.00000000000E+00  0.50000000000E+03  0.50000000000E+03  0.00000000000E+00 0.  1.
         11   -1    0    0    0    0 -0.00000000000E+00 -0.00000000000E+00 -0.50000000000E+03  0.50000000000E+03  0.00000000000E+00 0. -1.
        -11    1    1    2    0    0 -0.50682240210E+01 -0.15109914752E+02  0.49874917677E+03  0.49900374523E+03  0.00000000000E+00 0.  1.
         11    1    1    2    0    0 -0.10382190070E+01 -0.31591819727E+01 -0.87100948865E+02  0.87164405709E+02  0.00000000000E+00 0. -1.
        -15    1    1    2    0    0  0.11032374895E+02  0.14482246805E+02 -0.77816037225E+02  0.79937113700E+02  0.17770000000E+01 0.  1.
         15    1    1    2    0    0 -0.49259318670E+01  0.37868499201E+01 -0.33383219068E+03  0.33389473536E+03  0.17770000000E+01 0. -1.
</event>
<event>
 6   1  0.1826851E-04  0.5027868E+03  0.7546771E-02  0.9393596E-01
        -11   -1    0    0    0    0  0.00000000000E+00  0.00000000000E+00  0.50000000000E+03  0.50000000000E+03  0.00000000000E+00 0. -1.
         11   -1    0    0    0    0 -0.00000000000E+00 -0.00000000000E+00 -0.50000000000E+03  0.50000000000E+03  0.00000000000E+00 0. -1.
        -11    1    1    2    0    0  0.54008909941E-01  0.87647949073E+01  0.60298202843E+01  0.10638763057E+02  0.00000000000E+00 0. -1.
         11    1    1    2    0    0 -0.30109958736E+01 -0.79071937701E+01 -0.49714119294E+03  0.49721318921E+03  0.00000000000E+00 0. -1.
        -15    1    1    2    0    0 -0.12507487412E+00  0.77794545650E+01  0.44639981444E+03  0.44647114981E+03  0.17770000000E+01 0. -1.
         15    1    1    2    0    0  0.30820618378E+01 -0.86370557022E+01  0.44711558218E+02  0.45676897921E+02  0.17770000000E+01 0.  1.
</event>
<event>
 6   1  0.1826851E-04  0.5003908E+03  0.7546771E-02  0.9398936E-01
        -11   -1    0    0    0    0  0.00000000000E+00  0.00000000000E+00  0.50000000000E+03  0.50000000000E+03  0.00000000000E+00 0. -1.
         11   -1    0    0    0    0 -0.00000000000E+00 -0.00000000000E+00 -0.50000000000E+03  0.50000000000E+03  0.00000000000E+00 0. -1.
        -11    1    1    2    0    0  0.31297045287E+02 -0.62439294434E+01  0.49858884983E+03  0.49960918014E+03  0.00000000000E+00 0. -1.
         11    1    1    2    0    0 -0.27044024073E+01  0.42600455731E+00 -0.13241085034E+03  0.13243915040E+03  0.00000000000E+00 0. -1.
        -15    1    1    2    0    0  0.76625104171E+00 -0.30466883444E+01 -0.14814523158E+02  0.15247861356E+02  0.17770000000E+01 0.  1.
         15    1    1    2    0    0 -0.29358893921E+02  0.88646132305E+01 -0.35136347634E+03  0.35270380811E+03  0.17770000000E+01 0. -1.
</event>
<event>
 6   1  0.1826851E-04  0.5017766E+03  0.7546771E-02  0.9395843E-01
        -11   -1    0    0    0    0  0.00000000000E+00  0.00000000000E+00  0.50000000000E+03  0.50000000000E+03  0.00000000000E+00 0. -1.
         11   -1    0    0    0    0 -0.00000000000E+00 -0.00000000000E+00 -0.50000000000E+03  0.50000000000E+03  0.00000000000E+00 0. -1.
        -11    1    1    2    0    0  0.14258944760E+02 -0.15851592405E+02  0.20540314539E+03  0.20650676169E+03  0.00000000000E+00 0. -1.
         11    1    1    2    0    0  0.92370717659E+01  0.83800757883E+01 -0.49806731069E+03  0.49822343897E+03  0.00000000000E+00 0. -1.
        -15    1    1    2    0    0 -0.13390304497E+02 -0.37769577192E+01  0.24102805923E+03  0.24143580665E+03  0.17770000000E+01 0. -1.
         15    1    1    2    0    0 -0.10105712029E+02  0.11248474336E+02  0.51636106062E+02  0.53833992689E+02  0.17770000000E+01 0.  1.
</event>
<event>
 6   1  0.1826851E-04  0.5005215E+03  0.7546771E-02  0.9398644E-01
        -11   -1    0    0    0    0  0.00000000000E+00  0.00000000000E+00  0.50000000000E+03  0.50000000000E+03  0.00000000000E+00 0.  1.
         11   -1    0    0    0    0 -0.00000000000E+00 -0.00000000000E+00 -0.50000000000E+03  0.50000000000E+03  0.00000000000E+00 0.  1.
        -11    1    1    2    0    0  0.50526408238E+01  0.28545439292E+01  0.40036706577E+03  0.40040912197E+03  0.00000000000E+00 0.  1.
         11    1    1    2    0    0  0.35280999840E+01  0.65274373061E+01 -0.49942339321E+03  0.49947850866E+03  0.00000000000E+00 0.  1.
        -15    1    1    2    0    0 -0.46659181771E+01 -0.19900940274E+01  0.52747843521E+02  0.53020976903E+02  0.17770000000E+01 0. -1.
         15    1    1    2    0    0 -0.39148226307E+01 -0.73918872078E+01  0.46308483916E+02  0.47091392465E+02  0.17770000000E+01 0.  1.
</event>
<event>
 6   1  0.1826851E-04  0.5160725E+03  0.7546771E-02  0.9364547E-01
        -11   -1    0    0    0    0  0.00000000000E+00  0.00000000000E+00  0.50000000000E+03  0.50000000000E+03  0.00000000000E+00 0.  1.
         11   -1    0    0    0    0 -0.00000000000E+00 -0.00000000000E+00 -0.50000000000E+03  0.50000000000E+03  0.00000000000E+00 0. -1.
        -11    1    1    2    0    0  0.21315482358E+02  0.28707845828E+02  0.48260474430E+03  0.48392750430E+03  0.00000000000E+00 0.  1.
         11    1    1    2    0    0  0.11644579843E+02 -0.10598688479E+02 -0.42849112693E+03  0.42878033339E+03  0.00000000000E+00 0. -1.
        -15    1    1    2    0    0  0.14703669594E+02  0.41607097959E+01 -0.16733238377E+02  0.22730340980E+02  0.17770000000E+01 0.  1.
         15    1    1    2    0    0 -0.47663731794E+02 -0.22269867145E+02 -0.37380378990E+02  0.64561821331E+02  0.17770000000E+01 0. -1.
</event>
<event>
 6   1  0.1826851E-04  0.5173414E+03  0.7546771E-02  0.9361822E-01
        -11   -1    0    0    0    0  0.00000000000E+00  0.00000000000E+00  0.50000000000E+03  0.50000000000E+03  0.00000000000E+00 0.  1.
         11   -1    0    0    0    0 -0.00000000000E+00 -0.00000000000E+00 -0.50000000000E+03  0.50000000000E+03  0.00000000000E+00 0. -1.
        -11    1    1    2    0    0 -0.58592758761E+02  0.24424656616E+02  0.37836444343E+03  0.38365261277E+03  0.00000000000E+00 0.  1.
         11    1    1    2    0    0  0.52415474720E+01  0.10615071688E+02 -0.48251342153E+03  0.48265863250E+03  0.00000000000E+00 0. -1.
        -15    1    1    2    0    0 -0.10022818125E+02 -0.13158746445E+02  0.17997442861E+02  0.24508675397E+02  0.17770000000E+01 0. -1.
         15    1    1    2    0    0  0.63374029414E+02 -0.21880981859E+02  0.86151535236E+02  0.10918007934E+03  0.17770000000E+01 0.  1.
</event>
<event>
 6   1  0.1826851E-04  0.5095726E+03  0.7546771E-02  0.9378642E-01
        -11   -1    0    0    0    0  0.00000000000E+00  0.00000000000E+00  0.50000000000E+03  0.50000000000E+03  0.00000000000E+00 0.  1.
         11   -1    0    0    0    0 -0.00000000000E+00 -0.00000000000E+00 -0.50000000000E+03  0.50000000000E+03  0.00000000000E+00 0. -1.
        -11    1    1    2    0    0 -0.40393648549E+02  0.26624547169E+01  0.30974767506E+02  0.50972264324E+02  0.00000000000E+00 0.  1.
         11    1    1    2    0    0  0.33534492547E+02  0.22373050765E+02 -0.48876780208E+03  0.49042744615E+03  0.00000000000E+00 0. -1.
        -15    1    1    2    0    0  0.61431265267E+01 -0.24144339055E+02  0.40945028958E+03  0.41021138999E+03  0.17770000000E+01 0.  1.
         15    1    1    2    0    0  0.71602947580E+00 -0.89116642665E+00  0.48342744995E+02  0.48388899538E+02  0.17770000000E+01 0.  1.
</event>
<event>
 6   1  0.1826851E-04  0.5013256E+03  0.7546771E-02  0.9396848E-01
        -11   -1    0    0    0    0  0.00000000000E+00  0.00000000000E+00  0.50000000000E+03  0.50000000000E+03  0.00000000000E+00 0. -1.
         11   -1    0    0    0    0 -0.00000000000E+00 -0.00000000000E+00 -0.50000000000E+03  0.50000000000E+03  0.00000000000E+00 0. -1.
        -11    1    1    2    0    0 -0.67283620943E+01 -0.62072030944E+01  0.49859032938E+03  0.49867435946E+03  0.00000000000E+00 0. -1.
         11    1    1    2    0    0 -0.18884362860E+00  0.71672116433E+01 -0.47515463281E+03  0.47520872221E+03  0.00000000000E+00 0. -1.
        -15    1    1    2    0    0  0.39229010101E+00 -0.23672301103E+01 -0.19949941039E+01  0.35910166238E+01  0.17770000000E+01 0. -1.
         15    1    1    2    0    0  0.65249156219E+01  0.14072215614E+01 -0.21440702467E+02  0.22525901706E+02  0.17770000000E+01 0.  1.
</event>
<event>
 6   1  0.1826851E-04  0.4740816E+03  0.7546771E-02  0.9459748E-01
        -11   -1    0    0    0    0  0.00000000000E+00  0.00000000000E+00  0.50000000000E+03  0.50000000000E+03  0.00000000000E+00 0. -1.
         11   -1    0    0    0    0 -0.00000000000E+00 -0.00000000000E+00 -0.50000000000E+03  0.50000000000E+03  0.00000000000E+00 0.  1.
        -11    1    1    2    0    0  0.39378791667E+02  0.92199276838E+01  0.47756494712E+03  0.47927442559E+03  0.00000000000E+00 0. -1.
         11    1    1    2    0    0 -0.72739531613E+01  0.83085146100E+01 -0.46949846710E+03  0.46962831305E+03  0.00000000000E+00 0.  1.
        -15    1    1    2    0    0 -0.34237669197E+02 -0.55281241459E+01  0.25720921609E+01  0.34821710695E+02  0.17770000000E+01 0.  1.
         15    1    1    2    0    0  0.21328306908E+01 -0.12000318148E+02 -0.10638572184E+02  0.16275550667E+02  0.17770000000E+01 0. -1.
</event>
<event>
 6   1  0.1826851E-04  0.5055342E+03  0.7546771E-02  0.9387511E-01
        -11   -1    0    0    0    0  0.00000000000E+00  0.00000000000E+00  0.50000000000E+03  0.50000000000E+03  0.00000000000E+00 0.  1.
         11   -1    0    0    0    0 -0.00000000000E+00 -0.00000000000E+00 -0.50000000000E+03  0.50000000000E+03  0.00000000000E+00 0. -1.
        -11    1    1    2    0    0 -0.46021294385E+02  0.20590886586E+01  0.12515776418E+03  0.13336665744E+03  0.00000000000E+00 0.  1.
         11    1    1    2    0    0  0.30875083321E+01  0.16304790420E+02 -0.49418730311E+03  0.49446584255E+03  0.00000000000E+00 0. -1.
        -15    1    1    2    0    0  0.36554108243E+02 -0.19048820233E+02  0.33074224110E+03  0.33330563775E+03  0.17770000000E+01 0.  1.
         15    1    1    2    0    0  0.63796778099E+01  0.68494115446E+00  0.38287297830E+02  0.38861862249E+02  0.17770000000E+01 0.  1.
</event>
<event>
 6   1  0.1826851E-04  0.5019620E+03  0.7546771E-02  0.9395430E-01
        -11   -1    0    0    0    0  0.00000000000E+00  0.00000000000E+00  0.50000000000E+03  0.50000000000E+03  0.00000000000E+00 0.  1.
         11   -1    0    0    0    0 -0.00000000000E+00 -0.00000000000E+00 -0.50000000000E+03  0.50000000000E+03  0.00000000000E+00 0. -1.
        -11    1    1    2    0    0 -0.41431842642E+01 -0.15508743101E+02  0.38469376851E+03  0.38502854780E+03  0.00000000000E+00 0.  1.
         11    1    1    2    0    0  0.57389001425E+01 -0.11713147396E+02 -0.49786718848E+03  0.49803802080E+03  0.00000000000E+00 0. -1.
        -15    1    1    2    0    0 -0.13571758430E+01  0.18936378228E+02  0.56532179529E+02  0.59661322462E+02  0.17770000000E+01 0. -1.
         15    1    1    2    0    0 -0.23854003527E+00  0.82855122698E+01  0.56641240438E+02  0.57272108939E+02  0.17770000000E+01 0.  1.
</event>
<event>
 6   1  0.1826851E-04  0.5020629E+03  0.7546771E-02  0.9395206E-01
        -11   -1    0    0    0    0  0.00000000000E+00  0.00000000000E+00  0.50000000000E+03  0.50000000000E+03  0.00000000000E+00 0. -1.
         11   -1    0    0    0    0 -0.00000000000E+00 -0.00000000000E+00 -0.50000000000E+03  0.50000000000E+03  0.00000000000E+00 0. -1.
        -11    1    1    2    0    0 -0.68949516138E+01  0.69310298430E+01  0.46117675587E+03  0.46128036994E+03  0.00000000000E+00 0. -1.
         11    1    1    2    0    0 -0.12381390682E+01  0.70227741063E+01 -0.49788601910E+03  0.49793708474E+03  0.00000000000E+00 0. -1.
        -15    1    1    2    0    0  0.68007260496E+01 -0.54454287965E+01  0.20404715315E+02  0.22257868399E+02  0.17770000000E+01 0. -1.
         15    1    1    2    0    0  0.13323646324E+01 -0.85083751528E+01  0.16304547917E+02  0.18524676921E+02  0.17770000000E+01 0.  1.
</event>
<event>
 6   1  0.1826851E-04  0.5008851E+03  0.7546771E-02  0.9397831E-01
        -11   -1    0    0    0    0  0.00000000000E+00  0.00000000000E+00  0.50000000000E+03  0.50000000000E+03  0.00000000000E+00 0. -1.
         11   -1    0    0    0    0 -0.00000000000E+00 -0.00000000000E+00 -0.50000000000E+03  0.50000000000E+03  0.00000000000E+00 0.  1.
        -11    1    1    2    0    0 -0.58457007109E+01  0.18656257338E+01  0.36668555538E+03  0.36673689383E+03  0.00000000000E+00 0. -1.
         11    1    1    2    0    0 -0.12976654042E+01 -0.76753256552E+01 -0.49905417436E+03  0.49911488007E+03  0.00000000000E+00 0.  1.
        -15    1    1    2    0    0 -0.19558025732E+01  0.81307350137E+01  0.26406772449E+02  0.27756249310E+02  0.17770000000E+01 0. -1.
         15    1    1    2    0    0  0.90991686883E+01 -0.23210350923E+01  0.10596184654E+03  0.10639197679E+03  0.17770000000E+01 0.  1.
</event>
<event>
 6   1  0.1826851E-04  0.5031890E+03  0.7546771E-02  0.9392702E-01
        -11   -1    0    0    0    0  0.00000000000E+00  0.00000000000E+00  0.50000000000E+03  0.50000000000E+03  0.00000000000E+00 0. -1.
         11   -1    0    0    0    0 -0.00000000000E+00 -0.00000000000E+00 -0.50000000000E+03  0.50000000000E+03  0.00000000000E+00 0.  1.
        -11    1    1    2    0    0  0.99564040294E+01  0.25249592425E+02  0.16201817668E+03  0.16427587003E+03  0.00000000000E+00 0. -1.
         11    1    1    2    0    0  0.84128083236E+01  0.14182339404E+02 -0.49653726877E+03  0.49681100368E+03  0.00000000000E+00 0.  1.
        -15    1    1    2    0    0  0.41801167698E+01  0.71643372864E+00  0.88251650804E+02  0.88371365567E+02  0.17770000000E+01 0.  1.
         15    1    1    2    0    0 -0.22549329123E+02 -0.40148365558E+02  0.24626744129E+03  0.25054176073E+03  0.17770000000E+01 0. -1.
</event>
<event>
 6   1  0.1826851E-04  0.5018025E+03  0.7546771E-02  0.9395786E-01
        -11   -1    0    0    0    0  0.00000000000E+00  0.00000000000E+00  0.50000000000E+03  0.50000000000E+03  0.00000000000E+00 0. -1.
         11   -1    0    0    0    0 -0.00000000000E+00 -0.00000000000E+00 -0.50000000000E+03  0.50000000000E+03  0.00000000000E+00 0. -1.
        -11    1    1    2    0    0  0.10102662750E+01  0.10427106028E+02  0.49808737261E+03  0.49819752702E+03  0.00000000000E+00 0. -1.
         11    1    1    2    0    0 -0.62644325126E+01 -0.86156733131E+01 -0.46551413738E+03  0.46563600058E+03  0.00000000000E+00 0. -1.
        -15    1    1    2    0    0  0.21624394739E+01  0.61132995286E+01 -0.10784779965E+02  0.12708964690E+02  0.17770000000E+01 0.  1.
         15    1    1    2    0    0  0.30917267637E+01 -0.79247322430E+01 -0.21788455270E+02  0.23457507701E+02  0.17770000000E+01 0. -1.
</event>
<event>
 6   1  0.1826851E-04  0.5005153E+03  0.7546771E-02  0.9398657E-01
        -11   -1    0    0    0    0  0.00000000000E+00  0.00000000000E+00  0.50000000000E+03  0.50000000000E+03  0.00000000000E+00 0.  1.
         11   -1    0    0    0    0 -0.00000000000E+00 -0.00000000000E+00 -0.50000000000E+03  0.50000000000E+03  0.00000000000E+00 0. -1.
        -11    1    1    2    0    0  0.26839064974E+01  0.81599177846E+01  0.47807775520E+02  0.48573357024E+02  0.00000000000E+00 0.  1.
         11    1    1    2    0    0  0.33564833469E+01  0.65186349594E+01 -0.49943089096E+03  0.49948470790E+03  0.00000000000E+00 0. -1.
        -15    1    1    2    0    0 -0.18190917065E+01 -0.66799710060E+01  0.25876023876E+03  0.25885893842E+03  0.17770000000E+01 0. -1.
         15    1    1    2    0    0 -0.42212981379E+01 -0.79985817379E+01  0.19286287668E+03  0.19308299666E+03  0.17770000000E+01 0.  1.
</event>
<event>
 6   1  0.1826851E-04  0.5031579E+03  0.7546771E-02  0.9392771E-01
        -11   -1    0    0    0    0  0.00000000000E+00  0.00000000000E+00  0.50000000000E+03  0.50000000000E+03  0.00000000000E+00 0.  1.
         11   -1    0    0    0    0 -0.00000000000E+00 -0.00000000000E+00 -0.50000000000E+03  0.50000000000E+03  0.00000000000E+00 0.  1.
        -11    1    1    2    0    0  0.88957808396E+01  0.46545098996E+01  0.49674067629E+03  0.49684212670E+03  0.00000000000E+00 0.  1.
         11    1    1    2    0    0  0.24403870139E+01  0.74790634177E+01 -0.45940255950E+03  0.45946991583E+03  0.00000000000E+00 0.  1.
        -15    1    1    2    0    0 -0.10857962991E+02 -0.10995762872E+02 -0.16271301344E+02  0.22510334024E+02  0.17770000000E+01 0. -1.
         15    1    1    2    0    0 -0.47820486246E+00 -0.11378104455E+01 -0.21066815449E+02  0.21177623442E+02  0.17770000000E+01 0.  1.
</event>
<event>
 6   1  0.1826851E-04  0.5017307E+03  0.7546771E-02  0.9395945E-01
        -11   -1    0    0    0    0  0.00000000000E+00  0.00000000000E+00  0.50000000000E+03  0.50000000000E+03  0.00000000000E+00 0.  1.
         11   -1    0    0    0    0 -0.00000000000E+00 -0.00000000000E+00 -0.50000000000E+03  0.50000000000E+03  0.00000000000E+00 0. -1.
        -11    1    1    2    0    0  0.28616549006E+02  0.29439046143E+00  0.35895766289E+03  0.36009664993E+03  0.00000000000E+00 0.  1.
         11    1    1    2    0    0 -0.37105016590E+02  0.11342472696E+02 -0.49675636014E+03  0.49826932003E+03  0.00000000000E+00 0. -1.
        -15    1    1    2    0    0 -0.80401503129E+01  0.31711657462E+01  0.62287130670E+02  0.62909019109E+02  0.17770000000E+01 0.  1.
         15    1    1    2    0    0  0.16528617897E+02 -0.14808028904E+02  0.75511566582E+02  0.78725010933E+02  0.17770000000E+01 0. -1.
</event>
<event>
 6   1  0.1826851E-04  0.5028181E+03  0.7546771E-02  0.9393526E-01
        -11   -1    0    0    0    0  0.00000000000E+00  0.00000000000E+00  0.50000000000E+03  0.50000000000E+03  0.00000000000E+00 0.  1.
         11   -1    0    0    0    0 -0.00000000000E+00 -0.00000000000E+00 -0.50000000000E+03  0.50000000000E+03  0.00000000000E+00 0.  1.
        -11    1    1    2    0    0  0.13336028925E+02 -0.59367507655E+01  0.49696752551E+03  0.49718187425E+03  0.00000000000E+00 0.  1.
         11    1    1    2    0    0  0.13034688095E+02  0.64520250682E+01 -0.42716613542E+03  0.42741366259E+03  0.00000000000E+00 0.  1.
        -15    1    1    2    0    0 -0.17763322872E+02 -0.42720848292E+01 -0.52809587373E+02  0.55908823952E+02  0.17770000000E+01 0.  1.
         15    1    1    2    0    0 -0.86073941483E+01  0.37568105265E+01 -0.16991802715E+02  0.19495639201E+02  0.17770000000E+01 0. -1.
</event>
<event>
 6   1  0.1826851E-04  0.5002308E+03  0.7546771E-02  0.9399293E-01
        -11   -1    0    0    0    0  0.00000000000E+00  0.00000000000E+00  0.50000000000E+03  0.50000000000E+03  0.00000000000E+00 0. -1.
         11   -1    0    0    0    0 -0.00000000000E+00 -0.00000000000E+00 -0.50000000000E+03  0.50000000000E+03  0.00000000000E+00 0.  1.
        -11    1    1    2    0    0  0.80070737549E+01 -0.70706611223E+01  0.49965502558E+03  0.49976919879E+03  0.00000000000E+00 0. -1.
         11    1    1    2    0    0  0.90260668476E+00 -0.40920947787E+01 -0.23230396672E+03  0.23234175882E+03  0.00000000000E+00 0.  1.
        -15    1    1    2    0    0 -0.80886381949E+01  0.75624484502E+01 -0.13187330575E+03  0.13234932260E+03  0.17770000000E+01 0. -1.
         15    1    1    2    0    0 -0.82104224475E+00  0.36003074508E+01 -0.13547775311E+03  0.13553971979E+03  0.17770000000E+01 0.  1.
</event>
<event>
 6   1  0.1826851E-04  0.5008434E+03  0.7546771E-02  0.9397925E-01
        -11   -1    0    0    0    0  0.00000000000E+00  0.00000000000E+00  0.50000000000E+03  0.50000000000E+03  0.00000000000E+00 0. -1.
         11   -1    0    0    0    0 -0.00000000000E+00 -0.00000000000E+00 -0.50000000000E+03  0.50000000000E+03  0.00000000000E+00 0.  1.
        -11    1    1    2    0    0 -0.24160222722E+01 -0.12751225364E+02  0.49898785320E+03  0.49915659722E+03  0.00000000000E+00 0. -1.
         11    1    1    2    0    0 -0.14448605732E+01 -0.81739458805E+01 -0.35478065278E+03  0.35487774317E+03  0.00000000000E+00 0.  1.
        -15    1    1    2    0    0  0.26165881526E+01  0.19044435004E+02 -0.13312864685E+03  0.13452111871E+03  0.17770000000E+01 0.  1.
         15    1    1    2    0    0  0.12442946928E+01  0.18807362411E+01 -0.11078553572E+02  0.11444540897E+02  0.17770000000E+01 0. -1.
</event>
<event>
 6   1  0.1826851E-04  0.5003251E+03  0.7546771E-02  0.9399083E-01
        -11   -1    0    0    0    0  0.00000000000E+00  0.00000000000E+00  0.50000000000E+03  0.50000000000E+03  0.00000000000E+00 0. -1.
         11   -1    0    0    0    0 -0.00000000000E+00 -0.00000000000E+00 -0.50000000000E+03  0.50000000000E+03  0.00000000000E+00 0.  1.
        -11    1    1    2    0    0 -0.49078117569E+01  0.81972715461E+01  0.49958352660E+03  0.49967487623E+03  0.00000000000E+00 0. -1.
         11    1    1    2    0    0 -0.57959619567E+01 -0.19291362042E+01 -0.35602062775E+03  0.35607302921E+03  0.00000000000E+00 0.  1.
        -15    1    1    2    0    0  0.55244244696E+01 -0.11991527297E+01 -0.42072751672E+02  0.42488014725E+02  0.17770000000E+01 0. -1.
         15    1    1    2    0    0  0.51793492439E+01 -0.50689826122E+01 -0.10149014718E+03  0.10176407984E+03  0.17770000000E+01 0.  1.
</event>
<event>
 6   1  0.1826851E-04  0.5006918E+03  0.7546771E-02  0.9398263E-01
        -11   -1    0    0    0    0  0.00000000000E+00  0.00000000000E+00  0.50000000000E+03  0.50000000000E+03  0.00000000000E+00 0.  1.
         11   -1    0    0    0    0 -0.00000000000E+00 -0.00000000000E+00 -0.50000000000E+03  0.50000000000E+03  0.00000000000E+00 0. -1.
        -11    1    1    2    0    0 -0.30651902806E+01  0.94956263170E+01  0.42361263784E+03  0.42373013729E+03  0.00000000000E+00 0.  1.
         11    1    1    2    0    0 -0.81941366054E+01 -0.19745982073E+01 -0.49923703762E+03  0.49930818404E+03  0.00000000000E+00 0. -1.
        -15    1    1    2    0    0  0.64043632918E+01 -0.26958755606E+01  0.35180354096E+02  0.35904020074E+02  0.17770000000E+01 0.  1.
         15    1    1    2    0    0  0.48549635943E+01 -0.48251525490E+01  0.40444045691E+02  0.41057658597E+02  0.17770000000E+01 0. -1.
</event>
<event>
 6   1  0.1826851E-04  0.5000391E+03  0.7546771E-02  0.9399722E-01
        -11   -1    0    0    0    0  0.00000000000E+00  0.00000000000E+00  0.50000000000E+03  0.50000000000E+03  0.00000000000E+00 0.  1.
         11   -1    0    0    0    0 -0.00000000000E+00 -0.00000000000E+00 -0.50000000000E+03  0.50000000000E+03  0.00000000000E+00 0.  1.
        -11    1    1    2    0    0 -0.63252564413E+01  0.59381870968E+01  0.49988557983E+03  0.49996086233E+03  0.00000000000E+00 0.  1.
         11    1    1    2    0    0  0.40049358049E+01 -0.56396553591E+00 -0.24594244991E+03  0.24597570253E+03  0.00000000000E+00 0.  1.
        -15    1    1    2    0    0  0.18686334731E+01 -0.33930956951E+01 -0.92920414328E+02  0.93018095107E+02  0.17770000000E+01 0. -1.
         15    1    1    2    0    0  0.45168716332E+00 -0.19811258658E+01 -0.16102271560E+03  0.16104534004E+03  0.17770000000E+01 0.  1.
</event>
<event>
 6   1  0.1826851E-04  0.5023338E+03  0.7546771E-02  0.9394603E-01
        -11   -1    0    0    0    0  0.00000000000E+00  0.00000000000E+00  0.50000000000E+03  0.50000000000E+03  0.00000000000E+00 0. -1.
         11   -1    0    0    0    0 -0.00000000000E+00 -0.00000000000E+00 -0.50000000000E+03  0.50000000000E+03  0.00000000000E+00 0. -1.
        -11    1    1    2    0    0 -0.47474617049E+02  0.57968745139E+02  0.49199328579E+03  0.49766616113E+03  0.00000000000E+00 0. -1.
         11    1    1    2    0    0  0.48639050105E+02 -0.52826202766E+02 -0.28204912564E+03  0.29104651547E+03  0.00000000000E+00 0. -1.
        -15    1    1    2    0    0 -0.46347843754E+01 -0.96353395582E+01 -0.46958675373E+02  0.48193318172E+02  0.17770000000E+01 0. -1.
         15    1    1    2    0    0  0.34703513195E+01  0.44927971847E+01 -0.16298548477E+03  0.16309400522E+03  0.17770000000E+01 0.  1.
</event>
<event>
 6   1  0.1826851E-04  0.5011820E+03  0.7546771E-02  0.9397169E-01
        -11   -1    0    0    0    0  0.00000000000E+00  0.00000000000E+00  0.50000000000E+03  0.50000000000E+03  0.00000000000E+00 0. -1.
         11   -1    0    0    0    0 -0.00000000000E+00 -0.00000000000E+00 -0.50000000000E+03  0.50000000000E+03  0.00000000000E+00 0. -1.
        -11    1    1    2    0    0  0.53074521402E+01  0.43028935776E+01  0.46011912749E+03  0.46016985497E+03  0.00000000000E+00 0. -1.
         11    1    1    2    0    0 -0.82348614805E+01  0.72810939191E+01 -0.49869687556E+03  0.49881800386E+03  0.00000000000E+00 0. -1.
        -15    1    1    2    0    0 -0.90689167975E+00 -0.26733419856E+01  0.16470939426E+02  0.16805320124E+02  0.17770000000E+01 0. -1.
         15    1    1    2    0    0  0.38343010201E+01 -0.89106455111E+01  0.22106808653E+02  0.24206821055E+02  0.17770000000E+01 0.  1.
</event>
<event>
 6   1  0.1826851E-04  0.4693544E+03  0.7546771E-02  0.9471120E-01
        -11   -1    0    0    0    0  0.00000000000E+00  0.00000000000E+00  0.50000000000E+03  0.50000000000E+03  0.00000000000E+00 0. -1.
         11   -1    0    0    0    0 -0.00000000000E+00 -0.00000000000E+00 -0.50000000000E+03  0.50000000000E+03  0.00000000000E+00 0.  1.
        -11    1    1    2    0    0 -0.16083966895E+02  0.46618482185E+02  0.45621264874E+03  0.45887030602E+03  0.00000000000E+00 0. -1.
         11    1    1    2    0    0  0.50284311104E+01  0.43545851571E+01 -0.48158273117E+03  0.48162866868E+03  0.00000000000E+00 0.  1.
        -15    1    1    2    0    0  0.13388105884E+02 -0.46141584206E+02  0.23737602571E+02  0.53618268128E+02  0.17770000000E+01 0. -1.
         15    1    1    2    0    0 -0.23325700995E+01 -0.48314831354E+01  0.16324798558E+01  0.58827571798E+01  0.17770000000E+01 0.  1.
</event>
<event>
 6   1  0.1826851E-04  0.5005427E+03  0.7546771E-02  0.9398596E-01
        -11   -1    0    0    0    0  0.00000000000E+00  0.00000000000E+00  0.50000000000E+03  0.50000000000E+03  0.00000000000E+00 0. -1.
         11   -1    0    0    0    0 -0.00000000000E+00 -0.00000000000E+00 -0.50000000000E+03  0.50000000000E+03  0.00000000000E+00 0. -1.
        -11    1    1    2    0    0 -0.63552857735E+01 -0.38491043907E+01  0.49940198730E+03  0.49945725560E+03  0.00000000000E+00 0. -1.
         11    1    1    2    0    0  0.19477388894E+01 -0.54218991539E+01 -0.41556576819E+03  0.41560570059E+03  0.00000000000E+00 0. -1.
        -15    1    1    2    0    0  0.10450248847E+01  0.77746467848E+01 -0.34210877268E+02  0.35143691640E+02  0.17770000000E+01 0.  1.
         15    1    1    2    0    0  0.33625219994E+01  0.14963567598E+01 -0.49625341840E+02  0.49793352162E+02  0.17770000000E+01 0. -1.
</event>
<event>
 6   1  0.1826851E-04  0.5029281E+03  0.7546771E-02  0.9393282E-01
        -11   -1    0    0    0    0  0.00000000000E+00  0.00000000000E+00  0.50000000000E+03  0.50000000000E+03  0.00000000000E+00 0.  1.
         11   -1    0    0    0    0 -0.00000000000E+00 -0.00000000000E+00 -0.50000000000E+03  0.50000000000E+03  0.00000000000E+00 0.  1.
        -11    1    1    2    0    0  0.21826316582E+02  0.52349700573E+01  0.49656488666E+03  0.49707190594E+03  0.00000000000E+00 0.  1.
         11    1    1    2    0    0 -0.12456124404E+02 -0.34652817757E+01 -0.32371647442E+03  0.32397456540E+03  0.00000000000E+00 0.  1.
        -15    1    1    2    0    0  0.15712833433E+02 -0.72814163968E+01 -0.10405626050E+03  0.10550248924E+03  0.17770000000E+01 0. -1.
         15    1    1    2    0    0 -0.25083025611E+02  0.55117281152E+01 -0.68792151746E+02  0.73451039417E+02  0.17770000000E+01 0.  1.
</event>
<event>
 6   1  0.1826851E-04  0.5000337E+03  0.7546771E-02  0.9399734E-01
        -11   -1    0    0    0    0  0.00000000000E+00  0.00000000000E+00  0.50000000000E+03  0.50000000000E+03  0.00000000000E+00 0. -1.
         11   -1    0    0    0    0 -0.00000000000E+00 -0.00000000000E+00 -0.50000000000E+03  0.50000000000E+03  0.00000000000E+00 0. -1.
        -11    1    1    2    0    0  0.86540569239E+00  0.46957155301E+01  0.12819834158E+03  0.12828723029E+03  0.00000000000E+00 0. -1.
         11    1    1    2    0    0  0.37136355308E+01 -0.93863029686E+01 -0.49986440076E+03  0.49996631178E+03  0.00000000000E+00 0. -1.
        -15    1    1    2    0    0 -0.15224118725E+01  0.28250112155E+01  0.20204443432E+03  0.20207773157E+03  0.17770000000E+01 0. -1.
         15    1    1    2    0    0 -0.30566293507E+01  0.18655762229E+01  0.16962162486E+03  0.16966872636E+03  0.17770000000E+01 0. -1.
</event>
<event>
 6   1  0.1826851E-04  0.5019233E+03  0.7546771E-02  0.9395516E-01
        -11   -1    0    0    0    0  0.00000000000E+00  0.00000000000E+00  0.50000000000E+03  0.50000000000E+03  0.00000000000E+00 0.  1.
         11   -1    0    0    0    0 -0.00000000000E+00 -0.00000000000E+00 -0.50000000000E+03  0.50000000000E+03  0.00000000000E+00 0.  1.
        -11    1    1    2    0    0 -0.97064146253E+01  0.81331124846E+01  0.46290469440E+03  0.46307787477E+03  0.00000000000E+00 0.  1.
         11    1    1    2    0    0 -0.43863688101E+01 -0.71663736525E+01 -0.49800584637E+03  0.49807672116E+03  0.00000000000E+00 0.  1.
        -15    1    1    2    0    0  0.27112946053E+01 -0.32023556277E+01  0.13706053903E+02  0.14443678292E+02  0.17770000000E+01 0.  1.
         15    1    1    2    0    0  0.11381488830E+02  0.22356167956E+01  0.21395098072E+02  0.24401725778E+02  0.17770000000E+01 0. -1.
</event>
<event>
 6   1  0.1826851E-04  0.5151145E+03  0.7546771E-02  0.9366611E-01
        -11   -1    0    0    0    0  0.00000000000E+00  0.00000000000E+00  0.50000000000E+03  0.50000000000E+03  0.00000000000E+00 0.  1.
         11   -1    0    0    0    0 -0.00000000000E+00 -0.00000000000E+00 -0.50000000000E+03  0.50000000000E+03  0.00000000000E+00 0.  1.
        -11    1    1    2    0    0  0.46828865985E+02 -0.13047742929E+00  0.44680208997E+03  0.44924944887E+03  0.00000000000E+00 0.  1.
         11    1    1    2    0    0  0.49642654647E+01 -0.51901579824E+01 -0.48483226445E+03  0.48488545691E+03  0.00000000000E+00 0.  1.
        -15    1    1    2    0    0 -0.46554264846E+02  0.80432633129E+00  0.33817939869E+02  0.57573929015E+02  0.17770000000E+01 0. -1.
         15    1    1    2    0    0 -0.52388666031E+01  0.45163090804E+01  0.42122346104E+01  0.82911652020E+01  0.17770000000E+01 0.  1.
</event>
<event>
 6   1  0.1826851E-04  0.5004834E+03  0.7546771E-02  0.9398729E-01
        -11   -1    0    0    0    0  0.00000000000E+00  0.00000000000E+00  0.50000000000E+03  0.50000000000E+03  0.00000000000E+00 0. -1.
         11   -1    0    0    0    0 -0.00000000000E+00 -0.00000000000E+00 -0.50000000000E+03  0.50000000000E+03  0.00000000000E+00 0. -1.
        -11    1    1    2    0    0  0.15427635839E+02 -0.15242881715E-01  0.49927828623E+03  0.49951658559E+03  0.00000000000E+00 0. -1.
         11    1    1    2    0    0  0.41732034247E+01 -0.46394896468E+00 -0.25288824616E+03  0.25292310278E+03  0.00000000000E+00 0. -1.
        -15    1    1    2    0    0 -0.12949918956E+02  0.77124607566E+00 -0.83128661114E+02  0.84153593203E+02  0.17770000000E+01 0. -1.
         15    1    1    2    0    0 -0.66509203081E+01 -0.29205422927E+00 -0.16326137896E+03  0.16340671842E+03  0.17770000000E+01 0. -1.
</event>
<event>
 6   1  0.1826851E-04  0.5001257E+03  0.7546771E-02  0.9399529E-01
        -11   -1    0    0    0    0  0.00000000000E+00  0.00000000000E+00  0.50000000000E+03  0.50000000000E+03  0.00000000000E+00 0. -1.
         11   -1    0    0    0    0 -0.00000000000E+00 -0.00000000000E+00 -0.50000000000E+03  0.50000000000E+03  0.00000000000E+00 0.  1.
        -11    1    1    2    0    0 -0.45129413071E+01  0.12867327509E+02  0.49968830157E+03  0.49987431768E+03  0.00000000000E+00 0. -1.
         11    1    1    2    0    0 -0.35743691063E+01 -0.65708825038E+01 -0.27517648724E+03  0.27527813524E+03  0.00000000000E+00 0.  1.
        -15    1    1    2    0    0  0.63344628304E+01 -0.70712278397E+01 -0.18043578324E+03  0.18069409864E+03  0.17770000000E+01 0.  1.
         15    1    1    2    0    0  0.17528475829E+01  0.77478283502E+00 -0.44076031090E+02  0.44153448436E+02  0.17770000000E+01 0. -1.
</event>
<event>
 6   1  0.1826851E-04  0.5033898E+03  0.7546771E-02  0.9392257E-01
        -11   -1    0    0    0    0  0.00000000000E+00  0.00000000000E+00  0.50000000000E+03  0.50000000000E+03  0.00000000000E+00 0.  1.
         11   -1    0    0    0    0 -0.00000000000E+00 -0.00000000000E+00 -0.50000000000E+03  0.50000000000E+03  0.00000000000E+00 0.  1.
        -11    1    1    2    0    0 -0.54673099584E+01  0.97050216635E+01  0.49648530469E+03  0.49661024626E+03  0.00000000000E+00 0.  1.
         11    1    1    2    0    0 -0.22611680284E+02  0.43175042772E+01 -0.40225501118E+03  0.40291317048E+03  0.00000000000E+00 0.  1.
        -15    1    1    2    0    0  0.21811819563E+02 -0.53342539178E+01 -0.48511115138E+02  0.53485472406E+02  0.17770000000E+01 0.  1.
         15    1    1    2    0    0  0.62671706797E+01 -0.86882720229E+01 -0.45719178369E+02  0.46991110849E+02  0.17770000000E+01 0. -1.
</event>
<event>
 6   1  0.1826851E-04  0.5004949E+03  0.7546771E-02  0.9398703E-01
        -11   -1    0    0    0    0  0.00000000000E+00  0.00000000000E+00  0.50000000000E+03  0.50000000000E+03  0.00000000000E+00 0.  1.
         11   -1    0    0    0    0 -0.00000000000E+00 -0.00000000000E+00 -0.50000000000E+03  0.50000000000E+03  0.00000000000E+00 0.  1.
        -11    1    1    2    0    0  0.83597772554E+01 -0.77199336492E+01  0.10880895614E+03  0.10940234087E+03  0.00000000000E+00 0.  1.
         11    1    1    2    0    0  0.97805097441E+01  0.40760191456E+01 -0.49939268222E+03  0.49950507841E+03  0.00000000000E+00 0.  1.
        -15    1    1    2    0    0 -0.22986595688E+01  0.52937419722E+00  0.30481021342E+02  0.30623756528E+02  0.17770000000E+01 0.  1.
         15    1    1    2    0    0 -0.15841627431E+02  0.31145403064E+01  0.36010270474E+03  0.36046882419E+03  0.17770000000E+01 0.  1.
</event>
<event>
 6   1  0.1826851E-04  0.5001123E+03  0.7546771E-02  0.9399559E-01
        -11   -1    0    0    0    0  0.00000000000E+00  0.00000000000E+00  0.50000000000E+03  0.50000000000E+03  0.00000000000E+00 0. -1.
         11   -1    0    0    0    0 -0.00000000000E+00 -0.00000000000E+00 -0.50000000000E+03  0.50000000000E+03  0.00000000000E+00 0.  1.
        -11    1    1    2    0    0  0.99075196473E+00 -0.23758137072E+01  0.28980988158E+02  0.29095081283E+02  0.00000000000E+00 0. -1.
         11    1    1    2    0    0  0.43936523971E+01 -0.53997681430E+01 -0.49983924558E+03  0.49988772049E+03  0.00000000000E+00 0.  1.
        -15    1    1    2    0    0 -0.67449872212E+01  0.51745323501E+01  0.30594671688E+03  0.30606996249E+03  0.17770000000E+01 0. -1.
         15    1    1    2    0    0  0.13605828593E+01  0.26010495000E+01  0.16491154054E+03  0.16494723573E+03  0.17770000000E+01 0.  1.
</event>
<event>
 6   1  0.1826851E-04  0.5001071E+03  0.7546771E-02  0.9399570E-01
        -11   -1    0    0    0    0  0.00000000000E+00  0.00000000000E+00  0.50000000000E+03  0.50000000000E+03  0.00000000000E+00 0. -1.
         11   -1    0    0    0    0 -0.00000000000E+00 -0.00000000000E+00 -0.50000000000E+03  0.50000000000E+03  0.00000000000E+00 0. -1.
        -11    1    1    2    0    0  0.27384733279E-01 -0.31816585713E+01  0.24041568048E+02  0.24251199876E+02  0.00000000000E+00 0. -1.
         11    1    1    2    0    0 -0.73174526946E+01  0.42553516897E+01 -0.49982119588E+03  0.49989286951E+03  0.00000000000E+00 0. -1.
        -15    1    1    2    0    0  0.24581031013E+01 -0.14302782351E+01  0.19699496501E+03  0.19702350605E+03  0.17770000000E+01 0. -1.
         15    1    1    2    0    0  0.48319648601E+01  0.35658511668E+00  0.27878466282E+03  0.27883242457E+03  0.17770000000E+01 0.  1.
</event>
<event>
 6   1  0.1826851E-04  0.5004549E+03  0.7546771E-02  0.9398792E-01
        -11   -1    0    0    0    0  0.00000000000E+00  0.00000000000E+00  0.50000000000E+03  0.50000000000E+03  0.00000000000E+00 0. -1.
         11   -1    0    0    0    0 -0.00000000000E+00 -0.00000000000E+00 -0.50000000000E+03  0.50000000000E+03  0.00000000000E+00 0. -1.
        -11    1    1    2    0    0  0.71080548615E+01  0.23918806297E+01  0.49948881874E+03  0.49954511866E+03  0.00000000000E+00 0. -1.
         11    1    1    2    0    0  0.51119337650E+01 -0.15096348925E+01 -0.38174127775E+03  0.38177848813E+03  0.00000000000E+00 0. -1.
        -15    1    1    2    0    0 -0.69324632898E+01  0.29876721516E+01 -0.51292411489E+02  0.51875374095E+02  0.17770000000E+01 0. -1.
         15    1    1    2    0    0 -0.52875253367E+01 -0.38699178887E+01 -0.66455129501E+02  0.66801019114E+02  0.17770000000E+01 0.  1.
</event>
<event>
 6   1  0.1826851E-04  0.5000897E+03  0.7546771E-02  0.9399609E-01
        -11   -1    0    0    0    0  0.00000000000E+00  0.00000000000E+00  0.50000000000E+03  0.50000000000E+03  0.00000000000E+00 0. -1.
         11   -1    0    0    0    0 -0.00000000000E+00 -0.00000000000E+00 -0.50000000000E+03  0.50000000000E+03  0.00000000000E+00 0.  1.
        -11    1    1    2    0    0  0.93480439487E+01 -0.25742099808E+02  0.37007510312E+03  0.37108708355E+03  0.00000000000E+00 0. -1.
         11    1    1    2    0    0 -0.14443457361E+02  0.28696641508E+02 -0.49887694661E+03  0.49991031051E+03  0.00000000000E+00 0.  1.
        -15    1    1    2    0    0  0.23827570545E+01 -0.17687673636E+01  0.82350902386E+02  0.82423509522E+02  0.17770000000E+01 0. -1.
         15    1    1    2    0    0  0.27126563577E+01 -0.11857743371E+01  0.46450941098E+02  0.46579096419E+02  0.17770000000E+01 0. -1.
</event>
<event>
 6   1  0.1826851E-04  0.5008357E+03  0.7546771E-02  0.9397942E-01
        -11   -1    0    0    0    0  0.00000000000E+00  0.00000000000E+00  0.50000000000E+03  0.50000000000E+03  0.00000000000E+00 0.  1.
         11   -1    0    0    0    0 -0.00000000000E+00 -0.00000000000E+00 -0.50000000000E+03  0.50000000000E+03  0.00000000000E+00 0. -1.
        -11    1    1    2    0    0  0.11870184338E+02  0.52617226203E+01  0.42206544453E+03  0.42226511396E+03  0.00000000000E+00 0.  1.
         11    1    1    2    0    0 -0.68855466691E+01  0.92020655757E+00 -0.49911600227E+03  0.49916434293E+03  0.00000000000E+00 0. -1.
        -15    1    1    2    0    0 -0.75403252270E+01 -0.81441747728E+01  0.48591970077E+02  0.49875057616E+02  0.17770000000E+01 0.  1.
         15    1    1    2    0    0  0.25556875576E+01  0.19622455949E+01  0.28458587668E+02  0.28695485494E+02  0.17770000000E+01 0. -1.
</event>
<event>
 6   1  0.1826851E-04  0.5178331E+03  0.7546771E-02  0.9360768E-01
        -11   -1    0    0    0    0  0.00000000000E+00  0.00000000000E+00  0.50000000000E+03  0.50000000000E+03  0.00000000000E+00 0. -1.
         11   -1    0    0    0    0 -0.00000000000E+00 -0.00000000000E+00 -0.50000000000E+03  0.50000000000E+03  0.00000000000E+00 0.  1.
        -11    1    1    2    0    0  0.34659188493E+01  0.53488129064E+02  0.42352209734E+03  0.42690040932E+03  0.00000000000E+00 0. -1.
         11    1    1    2    0    0  0.87898855798E+01 -0.20897180836E+01 -0.48208223768E+03  0.48216689320E+03  0.00000000000E+00 0.  1.
        -15    1    1    2    0    0  0.20335483041E+01 -0.42539799852E+02  0.60400524298E+02  0.73926659296E+02  0.17770000000E+01 0.  1.
         15    1    1    2    0    0 -0.14289352733E+02 -0.88586111276E+01 -0.18403839508E+01  0.17006038184E+02  0.17770000000E+01 0. -1.
</event>
<event>
 6   1  0.1826851E-04  0.5045822E+03  0.7546771E-02  0.9389615E-01
        -11   -1    0    0    0    0  0.00000000000E+00  0.00000000000E+00  0.50000000000E+03  0.50000000000E+03  0.00000000000E+00 0.  1.
         11   -1    0    0    0    0 -0.00000000000E+00 -0.00000000000E+00 -0.50000000000E+03  0.50000000000E+03  0.00000000000E+00 0. -1.
        -11    1    1    2    0    0 -0.43625489276E+01  0.14059473959E+02  0.49519901823E+03  0.49541777148E+03  0.00000000000E+00 0.  1.
         11    1    1    2    0    0  0.15038198192E+01 -0.20591401507E+02 -0.48052641794E+03  0.48096975542E+03  0.00000000000E+00 0. -1.
        -15    1    1    2    0    0  0.34268203238E+01 -0.24918614572E+01 -0.13576507857E+02  0.14332891043E+02  0.17770000000E+01 0. -1.
         15    1    1    2    0    0 -0.56809121543E+00  0.90237890057E+01 -0.10960924318E+01  0.92795820632E+01  0.17770000000E+01 0.  1.
</event>
<event>
 6   1  0.1826851E-04  0.5091886E+03  0.7546771E-02  0.9379481E-01
        -11   -1    0    0    0    0  0.00000000000E+00  0.00000000000E+00  0.50000000000E+03  0.50000000000E+03  0.00000000000E+00 0. -1.
         11   -1    0    0    0    0 -0.00000000000E+00 -0.00000000000E+00 -0.50000000000E+03  0.50000000000E+03  0.00000000000E+00 0.  1.
        -11    1    1    2    0    0  0.20733107697E+02  0.68436011460E+01  0.47896837309E+03  0.47946574336E+03  0.00000000000E+00 0. -1.
         11    1    1    2    0    0 -0.68717291694E+01  0.24604503915E+01 -0.49075712757E+03  0.49081140241E+03  0.00000000000E+00 0.  1.
        -15    1    1    2    0    0 -0.17961207784E+02 -0.85416799356E+01  0.14281585996E+02  0.24549678384E+02  0.17770000000E+01 0.  1.
         15    1    1    2    0    0  0.40998292567E+01 -0.76237160190E+00 -0.24928315160E+01  0.51731758486E+01  0.17770000000E+01 0. -1.
</event>
<event>
 6   1  0.1826851E-04  0.5004194E+03  0.7546771E-02  0.9398872E-01
        -11   -1    0    0    0    0  0.00000000000E+00  0.00000000000E+00  0.50000000000E+03  0.50000000000E+03  0.00000000000E+00 0. -1.
         11   -1    0    0    0    0 -0.00000000000E+00 -0.00000000000E+00 -0.50000000000E+03  0.50000000000E+03  0.00000000000E+00 0. -1.
        -11    1    1    2    0    0  0.93806118842E+01 -0.29860189507E+01  0.49948359782E+03  0.49958060078E+03  0.00000000000E+00 0. -1.
         11    1    1    2    0    0 -0.37482478849E+01  0.47568642800E+01 -0.44931103071E+03  0.44935184370E+03  0.00000000000E+00 0. -1.
        -15    1    1    2    0    0  0.45005793454E-01 -0.11290073171E+01 -0.28692605010E+02  0.28769775708E+02  0.17770000000E+01 0.  1.
         15    1    1    2    0    0 -0.56773697927E+01 -0.64183801225E+00 -0.21479962100E+02  0.22297779813E+02  0.17770000000E+01 0. -1.
</event>
<event>
 6   1  0.1826851E-04  0.5020676E+03  0.7546771E-02  0.9395195E-01
        -11   -1    0    0    0    0  0.00000000000E+00  0.00000000000E+00  0.50000000000E+03  0.50000000000E+03  0.00000000000E+00 0.  1.
         11   -1    0    0    0    0 -0.00000000000E+00 -0.00000000000E+00 -0.50000000000E+03  0.50000000000E+03  0.00000000000E+00 0. -1.
        -11    1    1    2    0    0 -0.28173439958E+02 -0.89966589728E+01 -0.50071068477E+02  0.58153198452E+02  0.00000000000E+00 0.  1.
         11    1    1    2    0    0  0.34978275519E+00  0.89442510855E+01 -0.43968811408E+03  0.43977921693E+03  0.00000000000E+00 0. -1.
        -15    1    1    2    0    0  0.67198913304E+00 -0.51849504998E+02  0.23176101340E+03  0.23749767956E+03  0.17770000000E+01 0.  1.
         15    1    1    2    0    0  0.27151668070E+02  0.51901912886E+02  0.25799816916E+03  0.26456990506E+03  0.17770000000E+01 0. -1.
</event>
<event>
 6   1  0.1826851E-04  0.5001851E+03  0.7546771E-02  0.9399396E-01
        -11   -1    0    0    0    0  0.00000000000E+00  0.00000000000E+00  0.50000000000E+03  0.50000000000E+03  0.00000000000E+00 0. -1.
         11   -1    0    0    0    0 -0.00000000000E+00 -0.00000000000E+00 -0.50000000000E+03  0.50000000000E+03  0.00000000000E+00 0. -1.
        -11    1    1    2    0    0  0.80691638091E+01  0.18158173553E+01  0.49974648428E+03  0.49981492289E+03  0.00000000000E+00 0. -1.
         11    1    1    2    0    0 -0.68607232730E+01  0.18890171300E+01 -0.43859770971E+03  0.43865543297E+03  0.00000000000E+00 0. -1.
        -15    1    1    2    0    0 -0.75539129704E+00 -0.41867786453E+01 -0.33479693981E+02  0.33795670869E+02  0.17770000000E+01 0. -1.
         15    1    1    2    0    0 -0.45304923907E+00  0.48194416008E+00 -0.27669080591E+02  0.27733973273E+02  0.17770000000E+01 0.  1.
</event>
<event>
 6   1  0.1826851E-04  0.5003112E+03  0.7546771E-02  0.9399114E-01
        -11   -1    0    0    0    0  0.00000000000E+00  0.00000000000E+00  0.50000000000E+03  0.50000000000E+03  0.00000000000E+00 0.  1.
         11   -1    0    0    0    0 -0.00000000000E+00 -0.00000000000E+00 -0.50000000000E+03  0.50000000000E+03  0.00000000000E+00 0.  1.
        -11    1    1    2    0    0 -0.41426443593E+01  0.10875236374E+02  0.89274485518E+02  0.90029806359E+02  0.00000000000E+00 0.  1.
         11    1    1    2    0    0  0.16994057998E+02 -0.12839039690E+02 -0.49923464321E+03  0.49968877107E+03  0.00000000000E+00 0.  1.
        -15    1    1    2    0    0  0.16521080783E+00  0.23689607990E+01  0.57762051963E+02  0.57838150436E+02  0.17770000000E+01 0. -1.
         15    1    1    2    0    0 -0.13016624446E+02 -0.40515748246E+00  0.35219810573E+03  0.35244327214E+03  0.17770000000E+01 0.  1.
</event>
<event>
 6   1  0.1826851E-04  0.5001038E+03  0.7546771E-02  0.9399577E-01
        -11   -1    0    0    0    0  0.00000000000E+00  0.00000000000E+00  0.50000000000E+03  0.50000000000E+03  0.00000000000E+00 0. -1.
         11   -1    0    0    0    0 -0.00000000000E+00 -0.00000000000E+00 -0.50000000000E+03  0.50000000000E+03  0.00000000000E+00 0. -1.
        -11    1    1    2    0    0  0.15300559221E+01  0.99923001805E+01  0.49979393257E+03  0.49989615138E+03  0.00000000000E+00 0. -1.
         11    1    1    2    0    0 -0.20363447308E+01  0.57117272717E+00 -0.15424451374E+03  0.15425901256E+03  0.00000000000E+00 0. -1.
        -15    1    1    2    0    0  0.31807215053E+01 -0.10382966884E+02 -0.28097278433E+03  0.28118816876E+03  0.17770000000E+01 0. -1.
         15    1    1    2    0    0 -0.26744326966E+01 -0.18050602407E+00 -0.64576634500E+02  0.64656667290E+02  0.17770000000E+01 0.  1.
</event>
<event>
 6   1  0.1826851E-04  0.5029656E+03  0.7546771E-02  0.9393198E-01
        -11   -1    0    0    0    0  0.00000000000E+00  0.00000000000E+00  0.50000000000E+03  0.50000000000E+03  0.00000000000E+00 0.  1.
         11   -1    0    0    0    0 -0.00000000000E+00 -0.00000000000E+00 -0.50000000000E+03  0.50000000000E+03  0.00000000000E+00 0. -1.
        -11    1    1    2    0    0  0.35167548897E+01  0.35697728962E+02  0.49573831985E+03  0.49703438230E+03  0.00000000000E+00 0.  1.
         11    1    1    2    0    0 -0.11838095300E+01  0.29286086784E+01 -0.22060752536E+03  0.22063013937E+03  0.00000000000E+00 0. -1.
        -15    1    1    2    0    0 -0.62031843562E+01 -0.29846049802E+01 -0.18754315879E+03  0.18767786630E+03  0.17770000000E+01 0.  1.
         15    1    1    2    0    0  0.38702389965E+01 -0.35641732661E+02 -0.87587635708E+02  0.94657612028E+02  0.17770000000E+01 0. -1.
</event>
<event>
 6   1  0.1826851E-04  0.5010485E+03  0.7546771E-02  0.9397467E-01
        -11   -1    0    0    0    0  0.00000000000E+00  0.00000000000E+00  0.50000000000E+03  0.50000000000E+03  0.00000000000E+00 0.  1.
         11   -1    0    0    0    0 -0.00000000000E+00 -0.00000000000E+00 -0.50000000000E+03  0.50000000000E+03  0.00000000000E+00 0.  1.
        -11    1    1    2    0    0 -0.67462134347E+01 -0.12820951141E+02  0.49874107704E+03  0.49895145065E+03  0.00000000000E+00 0.  1.
         11    1    1    2    0    0 -0.55345286836E+01  0.30595876704E+01 -0.39379986484E+03  0.39385063874E+03  0.00000000000E+00 0.  1.
        -15    1    1    2    0    0  0.25282639838E+01  0.49532300549E+00 -0.29268664315E+01  0.42850600648E+01  0.17770000000E+01 0.  1.
         15    1    1    2    0    0  0.97524781345E+01  0.92660404655E+01 -0.10201434577E+03  0.10291285054E+03  0.17770000000E+01 0. -1.
</event>
<event>
 6   1  0.1826851E-04  0.5024151E+03  0.7546771E-02  0.9394422E-01
        -11   -1    0    0    0    0  0.00000000000E+00  0.00000000000E+00  0.50000000000E+03  0.50000000000E+03  0.00000000000E+00 0.  1.
         11   -1    0    0    0    0 -0.00000000000E+00 -0.00000000000E+00 -0.50000000000E+03  0.50000000000E+03  0.00000000000E+00 0. -1.
        -11    1    1    2    0    0  0.88414274818E+00  0.14095282866E+02  0.44255344011E+03  0.44277873262E+03  0.00000000000E+00 0.  1.
         11    1    1    2    0    0 -0.61444446890E+01  0.47799739563E+01 -0.49752400780E+03  0.49758490802E+03  0.00000000000E+00 0. -1.
        -15    1    1    2    0    0  0.34688227354E+01 -0.17410425102E+02  0.53444175529E+02  0.56343529001E+02  0.17770000000E+01 0.  1.
         15    1    1    2    0    0  0.17914792054E+01 -0.14648317204E+01  0.15263921623E+01  0.32928303548E+01  0.17770000000E+01 0. -1.
</event>
<event>
 6   1  0.1826851E-04  0.5108291E+03  0.7546771E-02  0.9375900E-01
        -11   -1    0    0    0    0  0.00000000000E+00  0.00000000000E+00  0.50000000000E+03  0.50000000000E+03  0.00000000000E+00 0. -1.
         11   -1    0    0    0    0 -0.00000000000E+00 -0.00000000000E+00 -0.50000000000E+03  0.50000000000E+03  0.00000000000E+00 0.  1.
        -11    1    1    2    0    0 -0.60403331404E+01  0.87551263992E+02  0.48123428996E+03  0.48917088148E+03  0.00000000000E+00 0. -1.
         11    1    1    2    0    0  0.58026038265E+01 -0.59722061548E+01 -0.35530726537E+03  0.35540482591E+03  0.00000000000E+00 0.  1.
        -15    1    1    2    0    0 -0.10050724585E+01 -0.79524449824E+00 -0.29630256235E+02  0.29711149389E+02  0.17770000000E+01 0. -1.
         15    1    1    2    0    0  0.12428017725E+01 -0.80783813339E+02 -0.96296768358E+02  0.12571314322E+03  0.17770000000E+01 0.  1.
</event>
<event>
 6   1  0.1826851E-04  0.5001415E+03  0.7546771E-02  0.9399493E-01
        -11   -1    0    0    0    0  0.00000000000E+00  0.00000000000E+00  0.50000000000E+03  0.50000000000E+03  0.00000000000E+00 0.  1.
         11   -1    0    0    0    0 -0.00000000000E+00 -0.00000000000E+00 -0.50000000000E+03  0.50000000000E+03  0.00000000000E+00 0.  1.
        -11    1    1    2    0    0  0.10185356754E+02 -0.26898515959E+01  0.49974751815E+03  0.49985853868E+03  0.00000000000E+00 0.  1.
         11    1    1    2    0    0  0.12857296401E+01  0.44179657289E+01 -0.24058449932E+03  0.24062849548E+03  0.00000000000E+00 0.  1.
        -15    1    1    2    0    0 -0.10245703999E+02  0.28421793649E+00 -0.21495055455E+03  0.21520212328E+03  0.17770000000E+01 0.  1.
         15    1    1    2    0    0 -0.12253823943E+01 -0.20123320695E+01 -0.44212464277E+02  0.44310842565E+02  0.17770000000E+01 0. -1.
</event>
<event>
 6   1  0.1826851E-04  0.5002721E+03  0.7546771E-02  0.9399201E-01
        -11   -1    0    0    0    0  0.00000000000E+00  0.00000000000E+00  0.50000000000E+03  0.50000000000E+03  0.00000000000E+00 0. -1.
         11   -1    0    0    0    0 -0.00000000000E+00 -0.00000000000E+00 -0.50000000000E+03  0.50000000000E+03  0.00000000000E+00 0.  1.
        -11    1    1    2    0    0 -0.13076246681E+01  0.39701386928E+01  0.16269338440E+02  0.16797715821E+02  0.00000000000E+00 0. -1.
         11    1    1    2    0    0 -0.80031135144E+01 -0.70436650858E+01 -0.49961411617E+03  0.49972785406E+03  0.00000000000E+00 0.  1.
        -15    1    1    2    0    0  0.35288831141E+01  0.25888052873E+01  0.14979439884E+03  0.14986885794E+03  0.17770000000E+01 0. -1.
         15    1    1    2    0    0  0.57818550684E+01  0.48472110567E+00  0.33355037889E+03  0.33360557218E+03  0.17770000000E+01 0. -1.
</event>
<event>
 6   1  0.1826851E-04  0.5008443E+03  0.7546771E-02  0.9397923E-01
        -11   -1    0    0    0    0  0.00000000000E+00  0.00000000000E+00  0.50000000000E+03  0.50000000000E+03  0.00000000000E+00 0. -1.
         11   -1    0    0    0    0 -0.00000000000E+00 -0.00000000000E+00 -0.50000000000E+03  0.50000000000E+03  0.00000000000E+00 0. -1.
        -11    1    1    2    0    0  0.31999350034E+01 -0.10951464954E+02  0.49902531468E+03  0.49915572606E+03  0.00000000000E+00 0. -1.
         11    1    1    2    0    0 -0.64903463644E+01  0.10307034012E+00 -0.41825885528E+03  0.41830922203E+03  0.00000000000E+00 0. -1.
        -15    1    1    2    0    0  0.44613915002E+01  0.18840270081E+01 -0.10847373966E+02  0.12011528747E+02  0.17770000000E+01 0.  1.
         15    1    1    2    0    0 -0.11709801391E+01  0.89643676061E+01 -0.69919085436E+02  0.70523523156E+02  0.17770000000E+01 0. -1.
</event>
<event>
 6   1  0.1826851E-04  0.5003316E+03  0.7546771E-02  0.9399068E-01
        -11   -1    0    0    0    0  0.00000000000E+00  0.00000000000E+00  0.50000000000E+03  0.50000000000E+03  0.00000000000E+00 0. -1.
         11   -1    0    0    0    0 -0.00000000000E+00 -0.00000000000E+00 -0.50000000000E+03  0.50000000000E+03  0.00000000000E+00 0.  1.
        -11    1    1    2    0    0 -0.83471615524E+01  0.77720796502E+01  0.31769458956E+03  0.31789924907E+03  0.00000000000E+00 0. -1.
         11    1    1    2    0    0 -0.41517583513E+01 -0.57014528021E+01 -0.49961859256E+03  0.49966837172E+03  0.00000000000E+00 0.  1.
        -15    1    1    2    0    0  0.46940236416E+01  0.75188154089E+00  0.75574796935E+02  0.75745012011E+02  0.17770000000E+01 0.  1.
         15    1    1    2    0    0  0.78048962621E+01 -0.28225083890E+01  0.10634920607E+03  0.10668736720E+03  0.17770000000E+01 0.  1.
</event>
<event>
 6   1  0.1826851E-04  0.5006957E+03  0.7546771E-02  0.9398254E-01
        -11   -1    0    0    0    0  0.00000000000E+00  0.00000000000E+00  0.50000000000E+03  0.50000000000E+03  0.00000000000E+00 0.  1.
         11   -1    0    0    0    0 -0.00000000000E+00 -0.00000000000E+00 -0.50000000000E+03  0.50000000000E+03  0.00000000000E+00 0. -1.
        -11    1    1    2    0    0  0.15226041898E+02 -0.76006136252E+01  0.49901416951E+03  0.49930425899E+03  0.00000000000E+00 0.  1.
         11    1    1    2    0    0 -0.50480409936E+01 -0.54976314301E+01 -0.35324695453E+03  0.35332579520E+03  0.00000000000E+00 0. -1.
        -15    1    1    2    0    0 -0.12142332789E+02  0.12536146517E+02 -0.10033157100E+03  0.10185368468E+03  0.17770000000E+01 0.  1.
         15    1    1    2    0    0  0.19643318846E+01  0.56209853848E+00 -0.45435643976E+02  0.45516261128E+02  0.17770000000E+01 0. -1.
</event>
<event>
 6   1  0.1826851E-04  0.4917373E+03  0.7546771E-02  0.9418490E-01
        -11   -1    0    0    0    0  0.00000000000E+00  0.00000000000E+00  0.50000000000E+03  0.50000000000E+03  0.00000000000E+00 0. -1.
         11   -1    0    0    0    0 -0.00000000000E+00 -0.00000000000E+00 -0.50000000000E+03  0.50000000000E+03  0.00000000000E+00 0. -1.
        -11    1    1    2    0    0  0.55822671812E+01  0.63589900325E+01  0.49241098576E+03  0.49248368233E+03  0.00000000000E+00 0. -1.
         11    1    1    2    0    0 -0.33520901017E+01  0.60651579526E+01 -0.49102399434E+03  0.49107289242E+03  0.00000000000E+00 0. -1.
        -15    1    1    2    0    0 -0.39526626378E+01 -0.88102185706E+01  0.29776068765E+01  0.10259988543E+02  0.17770000000E+01 0.  1.
         15    1    1    2    0    0  0.17224855582E+01 -0.36139294146E+01 -0.43645982946E+01  0.61834367131E+01  0.17770000000E+01 0.  1.
</event>
<event>
 6   1  0.1826851E-04  0.5008348E+03  0.7546771E-02  0.9397944E-01
        -11   -1    0    0    0    0  0.00000000000E+00  0.00000000000E+00  0.50000000000E+03  0.50000000000E+03  0.00000000000E+00 0. -1.
         11   -1    0    0    0    0 -0.00000000000E+00 -0.00000000000E+00 -0.50000000000E+03  0.50000000000E+03  0.00000000000E+00 0.  1.
        -11    1    1    2    0    0  0.78401490721E+01 -0.17862277711E+02  0.49878384350E+03  0.49916515447E+03  0.00000000000E+00 0. -1.
         11    1    1    2    0    0 -0.26044010870E+01 -0.45993567175E+01 -0.30215230623E+03  0.30219853267E+03  0.00000000000E+00 0.  1.
        -15    1    1    2    0    0  0.94256985397E+00  0.46465324980E+01 -0.10213752082E+03  0.10226294339E+03  0.17770000000E+01 0. -1.
         15    1    1    2    0    0 -0.61783178390E+01  0.17815101931E+02 -0.94494016451E+02  0.96373369466E+02  0.17770000000E+01 0.  1.
</event>
<event>
 6   1  0.1826851E-04  0.5017997E+03  0.7546771E-02  0.9395792E-01
        -11   -1    0    0    0    0  0.00000000000E+00  0.00000000000E+00  0.50000000000E+03  0.50000000000E+03  0.00000000000E+00 0.  1.
         11   -1    0    0    0    0 -0.00000000000E+00 -0.00000000000E+00 -0.50000000000E+03  0.50000000000E+03  0.00000000000E+00 0.  1.
        -11    1    1    2    0    0  0.11248964026E+01  0.23885478263E+02  0.12774402498E+03  0.12996275382E+03  0.00000000000E+00 0.  1.
         11    1    1    2    0    0  0.32587039411E+01  0.69273755894E+01 -0.49814152040E+03  0.49820034327E+03  0.00000000000E+00 0.  1.
        -15    1    1    2    0    0 -0.19169818417E+01 -0.28274674505E+02  0.33976192658E+03  0.34094641297E+03  0.17770000000E+01 0.  1.
         15    1    1    2    0    0 -0.24666185020E+01 -0.25381793477E+01  0.30635568844E+02  0.30890489938E+02  0.17770000000E+01 0.  1.
</event>
<event>
 6   1  0.1826851E-04  0.4617839E+03  0.7546771E-02  0.9489631E-01
        -11   -1    0    0    0    0  0.00000000000E+00  0.00000000000E+00  0.50000000000E+03  0.50000000000E+03  0.00000000000E+00 0. -1.
         11   -1    0    0    0    0 -0.00000000000E+00 -0.00000000000E+00 -0.50000000000E+03  0.50000000000E+03  0.00000000000E+00 0.  1.
        -11    1    1    2    0    0 -0.33133534840E+02  0.85074074414E+01  0.44559963766E+03  0.44691077878E+03  0.00000000000E+00 0. -1.
         11    1    1    2    0    0 -0.80913039154E+01  0.29684208830E+02 -0.47794081723E+03  0.47893010579E+03  0.00000000000E+00 0.  1.
        -15    1    1    2    0    0  0.21407577094E+02  0.92660324384E+00  0.38734955102E+01  0.21847302970E+02  0.17770000000E+01 0.  1.
         15    1    1    2    0    0  0.19817261662E+02 -0.39118219516E+02  0.28467684062E+02  0.52311812459E+02  0.17770000000E+01 0. -1.
</event>
<event>
 6   1  0.1826851E-04  0.5117310E+03  0.7546771E-02  0.9373937E-01
        -11   -1    0    0    0    0  0.00000000000E+00  0.00000000000E+00  0.50000000000E+03  0.50000000000E+03  0.00000000000E+00 0.  1.
         11   -1    0    0    0    0 -0.00000000000E+00 -0.00000000000E+00 -0.50000000000E+03  0.50000000000E+03  0.00000000000E+00 0.  1.
        -11    1    1    2    0    0 -0.30102980828E+02  0.15000959036E+02  0.11827863158E+03  0.12296769054E+03  0.00000000000E+00 0.  1.
         11    1    1    2    0    0 -0.22172354033E+02 -0.20260735564E+02 -0.48734437050E+03  0.48826903050E+03  0.00000000000E+00 0.  1.
        -15    1    1    2    0    0  0.35487036954E+02 -0.26919357415E+01  0.23479158268E+02  0.42673234138E+02  0.17770000000E+01 0. -1.
         15    1    1    2    0    0  0.16788297908E+02  0.79517122689E+01  0.34558658065E+03  0.34609004482E+03  0.17770000000E+01 0.  1.
</event>
<event>
 6   1  0.1826851E-04  0.5011411E+03  0.7546771E-02  0.9397260E-01
        -11   -1    0    0    0    0  0.00000000000E+00  0.00000000000E+00  0.50000000000E+03  0.50000000000E+03  0.00000000000E+00 0. -1.
         11   -1    0    0    0    0 -0.00000000000E+00 -0.00000000000E+00 -0.50000000000E+03  0.50000000000E+03  0.00000000000E+00 0.  1.
        -11    1    1    2    0    0  0.89535216152E+02  0.15807106884E+03  0.45705923945E+03  0.49183957354E+03  0.00000000000E+00 0. -1.
         11    1    1    2    0    0 -0.92866973229E+02 -0.15808030869E+03 -0.46394665488E+03  0.49885885507E+03  0.00000000000E+00 0.  1.
        -15    1    1    2    0    0  0.18591267183E+00  0.11799105938E+01  0.11765352580E+01  0.24430957296E+01  0.17770000000E+01 0. -1.
         15    1    1    2    0    0  0.31458444051E+01 -0.11706707384E+01  0.57108801661E+01  0.68584756521E+01  0.17770000000E+01 0. -1.
</event>
<event>
 6   1  0.1826851E-04  0.5016391E+03  0.7546771E-02  0.9396150E-01
        -11   -1    0    0    0    0  0.00000000000E+00  0.00000000000E+00  0.50000000000E+03  0.50000000000E+03  0.00000000000E+00 0. -1.
         11   -1    0    0    0    0 -0.00000000000E+00 -0.00000000000E+00 -0.50000000000E+03  0.50000000000E+03  0.00000000000E+00 0. -1.
        -11    1    1    2    0    0 -0.58125156334E+01 -0.55822621437E+01  0.49829573590E+03  0.49836090076E+03  0.00000000000E+00 0. -1.
         11    1    1    2    0    0 -0.83672601579E+01  0.34377174921E+00 -0.45111997954E+03  0.45119770075E+03  0.00000000000E+00 0. -1.
        -15    1    1    2    0    0  0.80642280757E+01  0.35101986219E+01 -0.14093363618E+02  0.16707300677E+02  0.17770000000E+01 0. -1.
         15    1    1    2    0    0  0.61155477156E+01  0.17282917726E+01 -0.33082392748E+02  0.33734097813E+02  0.17770000000E+01 0.  1.
</event>
<event>
 6   1  0.1826851E-04  0.4851430E+03  0.7546771E-02  0.9433681E-01
        -11   -1    0    0    0    0  0.00000000000E+00  0.00000000000E+00  0.50000000000E+03  0.50000000000E+03  0.00000000000E+00 0.  1.
         11   -1    0    0    0    0 -0.00000000000E+00 -0.00000000000E+00 -0.50000000000E+03  0.50000000000E+03  0.00000000000E+00 0.  1.
        -11    1    1    2    0    0  0.13493795946E+02  0.33192267783E+01  0.48161504572E+03  0.48181547511E+03  0.00000000000E+00 0.  1.
         11    1    1    2    0    0  0.61824294716E+01 -0.25245226680E+01 -0.48865012290E+03  0.48869575224E+03  0.00000000000E+00 0.  1.
        -15    1    1    2    0    0 -0.18725932190E+02 -0.60597494610E+01 -0.86791749967E+00  0.19781104865E+02  0.17770000000E+01 0.  1.
         15    1    1    2    0    0 -0.95029322772E+00  0.52650453507E+01  0.79029946856E+01  0.97076677819E+01  0.17770000000E+01 0. -1.
</event>
<event>
 6   1  0.1826851E-04  0.5009242E+03  0.7546771E-02  0.9397744E-01
        -11   -1    0    0    0    0  0.00000000000E+00  0.00000000000E+00  0.50000000000E+03  0.50000000000E+03  0.00000000000E+00 0. -1.
         11   -1    0    0    0    0 -0.00000000000E+00 -0.00000000000E+00 -0.50000000000E+03  0.50000000000E+03  0.00000000000E+00 0.  1.
        -11    1    1    2    0    0  0.10901937382E+02  0.46230493902E+01  0.49893530217E+03  0.49907580644E+03  0.00000000000E+00 0. -1.
         11    1    1    2    0    0 -0.23962138550E+01  0.64827299902E+01 -0.42438457638E+03  0.42444085135E+03  0.00000000000E+00 0.  1.
        -15    1    1    2    0    0 -0.92487637646E+01 -0.55787028746E+01 -0.41555847357E+02  0.42973337495E+02  0.17770000000E+01 0. -1.
         15    1    1    2    0    0  0.74304023761E+00 -0.55270765058E+01 -0.32994878436E+02  0.33510004708E+02  0.17770000000E+01 0.  1.
</event>
<event>
 6   1  0.1826851E-04  0.5027224E+03  0.7546771E-02  0.9393739E-01
        -11   -1    0    0    0    0  0.00000000000E+00  0.00000000000E+00  0.50000000000E+03  0.50000000000E+03  0.00000000000E+00 0. -1.
         11   -1    0    0    0    0 -0.00000000000E+00 -0.00000000000E+00 -0.50000000000E+03  0.50000000000E+03  0.00000000000E+00 0. -1.
        -11    1    1    2    0    0 -0.60087508439E+01  0.62143546141E+01  0.49720243141E+03  0.49727756946E+03  0.00000000000E+00 0. -1.
         11    1    1    2    0    0  0.87283420386E+01 -0.18165314978E+01 -0.44975308059E+03  0.44984143566E+03  0.00000000000E+00 0. -1.
        -15    1    1    2    0    0  0.68431264383E+01 -0.91689625087E+01 -0.31845802731E+02  0.33885264253E+02  0.17770000000E+01 0. -1.
         15    1    1    2    0    0 -0.95627176330E+01  0.47711393924E+01 -0.15603548096E+02  0.18995730620E+02  0.17770000000E+01 0. -1.
</event>
<event>
 6   1  0.1826851E-04  0.5020316E+03  0.7546771E-02  0.9395275E-01
        -11   -1    0    0    0    0  0.00000000000E+00  0.00000000000E+00  0.50000000000E+03  0.50000000000E+03  0.00000000000E+00 0.  1.
         11   -1    0    0    0    0 -0.00000000000E+00 -0.00000000000E+00 -0.50000000000E+03  0.50000000000E+03  0.00000000000E+00 0.  1.
        -11    1    1    2    0    0  0.25996188512E+02 -0.38810450726E+02  0.33908947363E+03  0.34229186965E+03  0.00000000000E+00 0.  1.
         11    1    1    2    0    0 -0.39109392988E+02  0.22122269181E+02 -0.49593709517E+03  0.49796841443E+03  0.00000000000E+00 0.  1.
        -15    1    1    2    0    0  0.54380721140E+01  0.24433350778E+01  0.10941273630E+03  0.10958944798E+03  0.17770000000E+01 0. -1.
         15    1    1    2    0    0  0.76751323619E+01  0.14244846467E+02  0.47434885231E+02  0.50150267931E+02  0.17770000000E+01 0.  1.
</event>
<event>
 6   1  0.1826851E-04  0.4828062E+03  0.7546771E-02  0.9439126E-01
        -11   -1    0    0    0    0  0.00000000000E+00  0.00000000000E+00  0.50000000000E+03  0.50000000000E+03  0.00000000000E+00 0.  1.
         11   -1    0    0    0    0 -0.00000000000E+00 -0.00000000000E+00 -0.50000000000E+03  0.50000000000E+03  0.00000000000E+00 0. -1.
        -11    1    1    2    0    0  0.14480806647E+02  0.21863603770E+02  0.48570753454E+03  0.48641496692E+03  0.00000000000E+00 0.  1.
         11    1    1    2    0    0 -0.12340214337E+02  0.85061582951E+01 -0.47946327672E+03  0.47969747689E+03  0.00000000000E+00 0. -1.
        -15    1    1    2    0    0 -0.44573575954E+01 -0.31426858793E+01  0.26203622598E+00  0.57420295413E+01  0.17770000000E+01 0.  1.
         15    1    1    2    0    0  0.23167652850E+01 -0.27227076186E+02 -0.65062940515E+01  0.28145526648E+02  0.17770000000E+01 0. -1.
</event>
<event>
 6   1  0.1826851E-04  0.5000779E+03  0.7546771E-02  0.9399635E-01
        -11   -1    0    0    0    0  0.00000000000E+00  0.00000000000E+00  0.50000000000E+03  0.50000000000E+03  0.00000000000E+00 0. -1.
         11   -1    0    0    0    0 -0.00000000000E+00 -0.00000000000E+00 -0.50000000000E+03  0.50000000000E+03  0.00000000000E+00 0. -1.
        -11    1    1    2    0    0 -0.27587194062E+01  0.70417964263E+01  0.49986486682E+03  0.49992207644E+03  0.00000000000E+00 0. -1.
         11    1    1    2    0    0  0.54125417181E+01 -0.68736545977E+00 -0.25954876182E+03  0.25960610132E+03  0.00000000000E+00 0. -1.
        -15    1    1    2    0    0 -0.16813466837E+01 -0.28761902703E+01 -0.16903130067E+03  0.16907346845E+03  0.17770000000E+01 0.  1.
         15    1    1    2    0    0 -0.97247562822E+00 -0.34782406962E+01 -0.71284804329E+02  0.71398353793E+02  0.17770000000E+01 0.  1.
</event>
<event>
 6   1  0.1826851E-04  0.5010259E+03  0.7546771E-02  0.9397517E-01
        -11   -1    0    0    0    0  0.00000000000E+00  0.00000000000E+00  0.50000000000E+03  0.50000000000E+03  0.00000000000E+00 0. -1.
         11   -1    0    0    0    0 -0.00000000000E+00 -0.00000000000E+00 -0.50000000000E+03  0.50000000000E+03  0.00000000000E+00 0.  1.
        -11    1    1    2    0    0  0.12900747513E+02 -0.18198189484E+02  0.49847522320E+03  0.49897409906E+03  0.00000000000E+00 0. -1.
         11    1    1    2    0    0  0.46073229826E+01  0.58715256120E+00 -0.33760950640E+03  0.33764145329E+03  0.00000000000E+00 0.  1.
        -15    1    1    2    0    0 -0.96899043502E+00 -0.13978594005E+01 -0.30174892095E+02  0.30274986298E+02  0.17770000000E+01 0. -1.
         15    1    1    2    0    0 -0.16539080061E+02  0.19008896323E+02 -0.13069082471E+03  0.13310946135E+03  0.17770000000E+01 0.  1.
</event>
<event>
 6   1  0.1826851E-04  0.5001707E+03  0.7546771E-02  0.9399428E-01
        -11   -1    0    0    0    0  0.00000000000E+00  0.00000000000E+00  0.50000000000E+03  0.50000000000E+03  0.00000000000E+00 0. -1.
         11   -1    0    0    0    0 -0.00000000000E+00 -0.00000000000E+00 -0.50000000000E+03  0.50000000000E+03  0.00000000000E+00 0.  1.
        -11    1    1    2    0    0 -0.33118108787E+00  0.55340121936E+01  0.57638077191E+02  0.57904083743E+02  0.00000000000E+00 0. -1.
         11    1    1    2    0    0  0.47849732145E+01 -0.49072873838E+01 -0.49978227327E+03  0.49982926897E+03  0.00000000000E+00 0.  1.
        -15    1    1    2    0    0 -0.18998119728E+01  0.40090828993E+01  0.22440303625E+03  0.22445392053E+03  0.17770000000E+01 0.  1.
         15    1    1    2    0    0 -0.25539801538E+01 -0.46358077091E+01  0.21774115983E+03  0.21781272676E+03  0.17770000000E+01 0. -1.
</event>
<event>
 6   1  0.1826851E-04  0.5003346E+03  0.7546771E-02  0.9399061E-01
        -11   -1    0    0    0    0  0.00000000000E+00  0.00000000000E+00  0.50000000000E+03  0.50000000000E+03  0.00000000000E+00 0.  1.
         11   -1    0    0    0    0 -0.00000000000E+00 -0.00000000000E+00 -0.50000000000E+03  0.50000000000E+03  0.00000000000E+00 0.  1.
        -11    1    1    2    0    0  0.19114574502E+01 -0.61905157585E+01  0.28964529784E+03  0.28971775009E+03  0.00000000000E+00 0.  1.
         11    1    1    2    0    0  0.14507344329E+01 -0.95320448467E+01 -0.49957240804E+03  0.49966544346E+03  0.00000000000E+00 0.  1.
        -15    1    1    2    0    0 -0.36514235304E+01  0.94888503754E+01  0.14475560177E+03  0.14512309654E+03  0.17770000000E+01 0.  1.
         15    1    1    2    0    0  0.28923164723E+00  0.62337102297E+01  0.65171508429E+02  0.65493709912E+02  0.17770000000E+01 0. -1.
</event>
<event>
 6   1  0.1826851E-04  0.5014254E+03  0.7546771E-02  0.9396626E-01
        -11   -1    0    0    0    0  0.00000000000E+00  0.00000000000E+00  0.50000000000E+03  0.50000000000E+03  0.00000000000E+00 0.  1.
         11   -1    0    0    0    0 -0.00000000000E+00 -0.00000000000E+00 -0.50000000000E+03  0.50000000000E+03  0.00000000000E+00 0. -1.
        -11    1    1    2    0    0  0.13183366339E+02 -0.41751767283E+01  0.42448271717E+03  0.42470791189E+03  0.00000000000E+00 0.  1.
         11    1    1    2    0    0  0.45003149605E+01  0.57223240934E+01 -0.49852146741E+03  0.49857461959E+03  0.00000000000E+00 0. -1.
        -15    1    1    2    0    0 -0.15124159301E+02  0.16578601949E+01  0.62324125090E+02  0.64178991830E+02  0.17770000000E+01 0. -1.
         15    1    1    2    0    0 -0.25595219983E+01 -0.32050075600E+01  0.11714625148E+02  0.12538476689E+02  0.17770000000E+01 0.  1.
</event>
<event>
 6   1  0.1826851E-04  0.5009815E+03  0.7546771E-02  0.9397616E-01
        -11   -1    0    0    0    0  0.00000000000E+00  0.00000000000E+00  0.50000000000E+03  0.50000000000E+03  0.00000000000E+00 0. -1.
         11   -1    0    0    0    0 -0.00000000000E+00 -0.00000000000E+00 -0.50000000000E+03  0.50000000000E+03  0.00000000000E+00 0. -1.
        -11    1    1    2    0    0  0.24960068664E+02 -0.17066459863E+01  0.49839091547E+03  0.49901845886E+03  0.00000000000E+00 0. -1.
         11    1    1    2    0    0 -0.54486345907E+01  0.54787850170E+01 -0.40178544682E+03  0.40185973919E+03  0.00000000000E+00 0. -1.
        -15    1    1    2    0    0 -0.49709996604E+01 -0.48075549130E+01 -0.40598568790E+02  0.41221656185E+02  0.17770000000E+01 0.  1.
         15    1    1    2    0    0 -0.14540434412E+02  0.10354158823E+01 -0.56006899854E+02  0.57900145761E+02  0.17770000000E+01 0. -1.
</event>
<event>
 6   1  0.1826851E-04  0.4994609E+03  0.7546771E-02  0.9401017E-01
        -11   -1    0    0    0    0  0.00000000000E+00  0.00000000000E+00  0.50000000000E+03  0.50000000000E+03  0.00000000000E+00 0. -1.
         11   -1    0    0    0    0 -0.00000000000E+00 -0.00000000000E+00 -0.50000000000E+03  0.50000000000E+03  0.00000000000E+00 0.  1.
        -11    1    1    2    0    0 -0.81049888599E+00  0.70565433671E+00  0.23594362664E+00  0.11002390113E+01  0.00000000000E+00 0. -1.
         11    1    1    2    0    0  0.44257152523E+01  0.97626866410E+01 -0.49943757583E+03  0.49955258899E+03  0.00000000000E+00 0.  1.
        -15    1    1    2    0    0 -0.33811624318E+01 -0.80463037506E+01  0.33773150361E+03  0.33784893299E+03  0.17770000000E+01 0. -1.
         15    1    1    2    0    0 -0.23405393447E+00 -0.24220372271E+01  0.16147012860E+03  0.16149823902E+03  0.17770000000E+01 0. -1.
</event>
<event>
 6   1  0.1826851E-04  0.5008726E+03  0.7546771E-02  0.9397859E-01
        -11   -1    0    0    0    0  0.00000000000E+00  0.00000000000E+00  0.50000000000E+03  0.50000000000E+03  0.00000000000E+00 0. -1.
         11   -1    0    0    0    0 -0.00000000000E+00 -0.00000000000E+00 -0.50000000000E+03  0.50000000000E+03  0.00000000000E+00 0.  1.
        -11    1    1    2    0    0 -0.16320863379E+02 -0.21075544117E+02  0.49841508586E+03  0.49912738549E+03  0.00000000000E+00 0. -1.
         11    1    1    2    0    0 -0.35853453666E+01  0.13606521004E+01 -0.24269933234E+03  0.24272962735E+03  0.00000000000E+00 0.  1.
        -15    1    1    2    0    0  0.36901875349E+01  0.10630048109E+01 -0.12661655600E+03  0.12668724263E+03  0.17770000000E+01 0. -1.
         15    1    1    2    0    0  0.16216021210E+02  0.18651887206E+02 -0.12909919752E+03  0.13145574453E+03  0.17770000000E+01 0.  1.
</event>
<event>
 6   1  0.1826851E-04  0.4885685E+03  0.7546771E-02  0.9425758E-01
        -11   -1    0    0    0    0  0.00000000000E+00  0.00000000000E+00  0.50000000000E+03  0.50000000000E+03  0.00000000000E+00 0. -1.
         11   -1    0    0    0    0 -0.00000000000E+00 -0.00000000000E+00 -0.50000000000E+03  0.50000000000E+03  0.00000000000E+00 0. -1.
        -11    1    1    2    0    0  0.84690546053E+01 -0.16465146339E+01  0.49391708337E+03  0.49399243025E+03  0.00000000000E+00 0. -1.
         11    1    1    2    0    0  0.10236117751E+02  0.51114756285E-01 -0.48327447408E+03  0.48338286898E+03  0.00000000000E+00 0. -1.
        -15    1    1    2    0    0 -0.15292218234E+02 -0.66134969544E+00 -0.73031147061E+01  0.17052346916E+02  0.17770000000E+01 0.  1.
         15    1    1    2    0    0 -0.34129541220E+01  0.22567495730E+01 -0.33394945828E+01  0.55723538602E+01  0.17770000000E+01 0.  1.
</event>
<event>
 6   1  0.1826851E-04  0.5001934E+03  0.7546771E-02  0.9399377E-01
        -11   -1    0    0    0    0  0.00000000000E+00  0.00000000000E+00  0.50000000000E+03  0.50000000000E+03  0.00000000000E+00 0. -1.
         11   -1    0    0    0    0 -0.00000000000E+00 -0.00000000000E+00 -0.50000000000E+03  0.50000000000E+03  0.00000000000E+00 0.  1.
        -11    1    1    2    0    0 -0.10049120363E+02 -0.55007412642E+01  0.12949150054E+03  0.12999727569E+03  0.00000000000E+00 0. -1.
         11    1    1    2    0    0  0.13718748074E+02  0.61184132692E+01 -0.49958078771E+03  0.49980656506E+03  0.00000000000E+00 0.  1.
        -15    1    1    2    0    0  0.62433081751E+00  0.19065595288E+01  0.57802015452E+02  0.57864112173E+02  0.17770000000E+01 0. -1.
         15    1    1    2    0    0 -0.42939585290E+01 -0.25242315339E+01  0.31228727171E+03  0.31233204707E+03  0.17770000000E+01 0. -1.
</event>
<event>
 6   1  0.1826851E-04  0.5004504E+03  0.7546771E-02  0.9398802E-01
        -11   -1    0    0    0    0  0.00000000000E+00  0.00000000000E+00  0.50000000000E+03  0.50000000000E+03  0.00000000000E+00 0. -1.
         11   -1    0    0    0    0 -0.00000000000E+00 -0.00000000000E+00 -0.50000000000E+03  0.50000000000E+03  0.00000000000E+00 0. -1.
        -11    1    1    2    0    0 -0.96329843731E+00 -0.51156419157E+01  0.18368248289E+02  0.19091628566E+02  0.00000000000E+00 0. -1.
         11    1    1    2    0    0  0.10614532204E+01  0.92388816424E+01 -0.49946301689E+03  0.49954958599E+03  0.00000000000E+00 0. -1.
        -15    1    1    2    0    0  0.44358564489E+01  0.13463719075E+01  0.36473614409E+03  0.36476993033E+03  0.17770000000E+01 0. -1.
         15    1    1    2    0    0 -0.45340112319E+01 -0.54696116342E+01  0.11635862452E+03  0.11658885512E+03  0.17770000000E+01 0.  1.
</event>
<event>
 6   1  0.1826851E-04  0.5028459E+03  0.7546771E-02  0.9393464E-01
        -11   -1    0    0    0    0  0.00000000000E+00  0.00000000000E+00  0.50000000000E+03  0.50000000000E+03  0.00000000000E+00 0.  1.
         11   -1    0    0    0    0 -0.00000000000E+00 -0.00000000000E+00 -0.50000000000E+03  0.50000000000E+03  0.00000000000E+00 0.  1.
        -11    1    1    2    0    0  0.52196070664E+01  0.11785427049E+02  0.48011287320E+03  0.48028586446E+03  0.00000000000E+00 0.  1.
         11    1    1    2    0    0  0.34334285308E+00 -0.84411019887E+01 -0.49708232243E+03  0.49715410625E+03  0.00000000000E+00 0.  1.
        -15    1    1    2    0    0 -0.45574041652E+01 -0.65206839562E+01  0.16922833952E+02  0.18783750689E+02  0.17770000000E+01 0.  1.
         15    1    1    2    0    0 -0.10055457543E+01  0.31763588962E+01  0.46615278339E-01  0.37762786027E+01  0.17770000000E+01 0. -1.
</event>
<event>
 6   1  0.1826851E-04  0.5011859E+03  0.7546771E-02  0.9397160E-01
        -11   -1    0    0    0    0  0.00000000000E+00  0.00000000000E+00  0.50000000000E+03  0.50000000000E+03  0.00000000000E+00 0. -1.
         11   -1    0    0    0    0 -0.00000000000E+00 -0.00000000000E+00 -0.50000000000E+03  0.50000000000E+03  0.00000000000E+00 0.  1.
        -11    1    1    2    0    0 -0.64336962831E+01  0.11894993470E+02  0.49863075207E+03  0.49881410388E+03  0.00000000000E+00 0. -1.
         11    1    1    2    0    0  0.30853216256E+01  0.49623112012E+01 -0.41486312382E+03  0.41490427239E+03  0.00000000000E+00 0.  1.
        -15    1    1    2    0    0  0.61039757173E+01 -0.14701769650E+02 -0.56265718184E+02  0.58501190776E+02  0.17770000000E+01 0.  1.
         15    1    1    2    0    0 -0.27556010598E+01 -0.21555350212E+01 -0.27501910074E+02  0.27780432955E+02  0.17770000000E+01 0. -1.
</event>
<event>
 6   1  0.1826851E-04  0.5014142E+03  0.7546771E-02  0.9396651E-01
        -11   -1    0    0    0    0  0.00000000000E+00  0.00000000000E+00  0.50000000000E+03  0.50000000000E+03  0.00000000000E+00 0.  1.
         11   -1    0    0    0    0 -0.00000000000E+00 -0.00000000000E+00 -0.50000000000E+03  0.50000000000E+03  0.00000000000E+00 0. -1.
        -11    1    1    2    0    0 -0.18328593451E+02  0.12536297288E+02  0.49809106044E+03  0.49858580062E+03  0.00000000000E+00 0.  1.
         11    1    1    2    0    0  0.12627187742E+02 -0.99158725510E+00 -0.42422267541E+03  0.42441171927E+03  0.00000000000E+00 0. -1.
        -15    1    1    2    0    0  0.67925734865E+01 -0.92674389185E+01 -0.20678451233E+02  0.23722996292E+02  0.17770000000E+01 0.  1.
         15    1    1    2    0    0 -0.10911677767E+01 -0.22772711148E+01 -0.53189933792E+02  0.53279483825E+02  0.17770000000E+01 0. -1.
</event>
<event>
 6   1  0.1826851E-04  0.5001303E+03  0.7546771E-02  0.9399518E-01
        -11   -1    0    0    0    0  0.00000000000E+00  0.00000000000E+00  0.50000000000E+03  0.50000000000E+03  0.00000000000E+00 0.  1.
         11   -1    0    0    0    0 -0.00000000000E+00 -0.00000000000E+00 -0.50000000000E+03  0.50000000000E+03  0.00000000000E+00 0. -1.
        -11    1    1    2    0    0 -0.34917893465E+01 -0.19021316306E+01  0.45822054377E+02  0.45994253608E+02  0.00000000000E+00 0.  1.
         11    1    1    2    0    0  0.10425530582E+02 -0.46540081062E+01 -0.49973930785E+03  0.49986971032E+03  0.00000000000E+00 0. -1.
        -15    1    1    2    0    0  0.20333159925E+01  0.95071925153E+00  0.15514721004E+03  0.15517362132E+03  0.17770000000E+01 0.  1.
         15    1    1    2    0    0 -0.89670572285E+01  0.56054204853E+01  0.29877004343E+03  0.29896241476E+03  0.17770000000E+01 0. -1.
</event>
<event>
 6   1  0.1826851E-04  0.5018924E+03  0.7546771E-02  0.9395585E-01
        -11   -1    0    0    0    0  0.00000000000E+00  0.00000000000E+00  0.50000000000E+03  0.50000000000E+03  0.00000000000E+00 0. -1.
         11   -1    0    0    0    0 -0.00000000000E+00 -0.00000000000E+00 -0.50000000000E+03  0.50000000000E+03  0.00000000000E+00 0. -1.
        -11    1    1    2    0    0 -0.13665175194E+02 -0.14631573943E+02  0.46942629236E+02  0.51033620376E+02  0.00000000000E+00 0. -1.
         11    1    1    2    0    0  0.13309308391E+02  0.15973686009E+02 -0.49767348171E+03  0.49810760959E+03  0.00000000000E+00 0. -1.
        -15    1    1    2    0    0  0.14166280698E+01  0.40675667523E+01  0.15068731794E+03  0.15075933620E+03  0.17770000000E+01 0.  1.
         15    1    1    2    0    0 -0.10607612659E+01 -0.54096788183E+01  0.30004353454E+03  0.30009943383E+03  0.17770000000E+01 0. -1.
</event>
<event>
 6   1  0.1826851E-04  0.5010273E+03  0.7546771E-02  0.9397514E-01
        -11   -1    0    0    0    0  0.00000000000E+00  0.00000000000E+00  0.50000000000E+03  0.50000000000E+03  0.00000000000E+00 0. -1.
         11   -1    0    0    0    0 -0.00000000000E+00 -0.00000000000E+00 -0.50000000000E+03  0.50000000000E+03  0.00000000000E+00 0.  1.
        -11    1    1    2    0    0  0.60511666647E+01  0.18432957254E+02  0.23998158555E+03  0.24076451552E+03  0.00000000000E+00 0. -1.
         11    1    1    2    0    0  0.25126037822E+01 -0.83614556438E+01 -0.49889635640E+03  0.49897274629E+03  0.00000000000E+00 0.  1.
        -15    1    1    2    0    0 -0.13371169379E+01  0.39443922740E+01  0.11800388817E+02  0.12639344024E+02  0.17770000000E+01 0.  1.
         15    1    1    2    0    0 -0.72266535091E+01 -0.14015893884E+02  0.24711438203E+03  0.24762339417E+03  0.17770000000E+01 0. -1.
</event>
<event>
 6   1  0.1826851E-04  0.5008959E+03  0.7546771E-02  0.9397807E-01
        -11   -1    0    0    0    0  0.00000000000E+00  0.00000000000E+00  0.50000000000E+03  0.50000000000E+03  0.00000000000E+00 0. -1.
         11   -1    0    0    0    0 -0.00000000000E+00 -0.00000000000E+00 -0.50000000000E+03  0.50000000000E+03  0.00000000000E+00 0. -1.
        -11    1    1    2    0    0  0.15414766485E+02 -0.66695097088E+01  0.79932110459E+02  0.81677657092E+02  0.00000000000E+00 0. -1.
         11    1    1    2    0    0 -0.48418122837E+01  0.12555392538E+02 -0.49892266888E+03  0.49910410793E+03  0.00000000000E+00 0. -1.
        -15    1    1    2    0    0 -0.90913577058E-01 -0.75027449743E+00  0.45157371283E+02  0.45198640325E+02  0.17770000000E+01 0. -1.
         15    1    1    2    0    0 -0.10482040624E+02 -0.51356083314E+01  0.37383318714E+03  0.37401959465E+03  0.17770000000E+01 0. -1.
</event>
<event>
 6   1  0.1826851E-04  0.5000671E+03  0.7546771E-02  0.9399660E-01
        -11   -1    0    0    0    0  0.00000000000E+00  0.00000000000E+00  0.50000000000E+03  0.50000000000E+03  0.00000000000E+00 0. -1.
         11   -1    0    0    0    0 -0.00000000000E+00 -0.00000000000E+00 -0.50000000000E+03  0.50000000000E+03  0.00000000000E+00 0. -1.
        -11    1    1    2    0    0 -0.10553697731E+02 -0.38449382219E+01  0.49980670566E+03  0.49993290260E+03  0.00000000000E+00 0. -1.
         11    1    1    2    0    0  0.33297480907E+01 -0.29636622732E+01 -0.20270683909E+03  0.20275584611E+03  0.00000000000E+00 0. -1.
        -15    1    1    2    0    0  0.42944022620E+01  0.15496531340E+01 -0.11893500723E+03  0.11903586430E+03  0.17770000000E+01 0.  1.
         15    1    1    2    0    0  0.29295473784E+01  0.52589473612E+01 -0.17816485933E+03  0.17827538698E+03  0.17770000000E+01 0. -1.
</event>
<event>
 6   1  0.1826851E-04  0.5001400E+03  0.7546771E-02  0.9399497E-01
        -11   -1    0    0    0    0  0.00000000000E+00  0.00000000000E+00  0.50000000000E+03  0.50000000000E+03  0.00000000000E+00 0.  1.
         11   -1    0    0    0    0 -0.00000000000E+00 -0.00000000000E+00 -0.50000000000E+03  0.50000000000E+03  0.00000000000E+00 0. -1.
        -11    1    1    2    0    0  0.56436658423E+01  0.15239789732E+02  0.49959579514E+03  0.49986004109E+03  0.00000000000E+00 0.  1.
         11    1    1    2    0    0 -0.77256099044E+01 -0.13456375071E+02 -0.23996577024E+03  0.24046689994E+03  0.00000000000E+00 0. -1.
        -15    1    1    2    0    0  0.17985295491E+01 -0.92616848537E+00 -0.16582852235E+03  0.16585038152E+03  0.17770000000E+01 0.  1.
         15    1    1    2    0    0  0.28341451291E+00 -0.85724617528E+00 -0.93801502548E+02  0.93822677451E+02  0.17770000000E+01 0. -1.
</event>
<event>
 6   1  0.1826851E-04  0.5002132E+03  0.7546771E-02  0.9399333E-01
        -11   -1    0    0    0    0  0.00000000000E+00  0.00000000000E+00  0.50000000000E+03  0.50000000000E+03  0.00000000000E+00 0. -1.
         11   -1    0    0    0    0 -0.00000000000E+00 -0.00000000000E+00 -0.50000000000E+03  0.50000000000E+03  0.00000000000E+00 0. -1.
        -11    1    1    2    0    0  0.17873176731E+02  0.70401249303E+01  0.49941749098E+03  0.49978679865E+03  0.00000000000E+00 0. -1.
         11    1    1    2    0    0  0.16637278785E+01 -0.34936424727E+01 -0.10186359142E+03  0.10193706286E+03  0.00000000000E+00 0. -1.
        -15    1    1    2    0    0 -0.66948007439E+01 -0.74855276924E+01 -0.19828378120E+03  0.19854588663E+03  0.17770000000E+01 0.  1.
         15    1    1    2    0    0 -0.12842103866E+02  0.39390452348E+01 -0.19927011836E+03  0.19973025186E+03  0.17770000000E+01 0. -1.
</event>
<event>
 6   1  0.1826851E-04  0.5025870E+03  0.7546771E-02  0.9394040E-01
        -11   -1    0    0    0    0  0.00000000000E+00  0.00000000000E+00  0.50000000000E+03  0.50000000000E+03  0.00000000000E+00 0. -1.
         11   -1    0    0    0    0 -0.00000000000E+00 -0.00000000000E+00 -0.50000000000E+03  0.50000000000E+03  0.00000000000E+00 0. -1.
        -11    1    1    2    0    0  0.11207895968E+02 -0.48540411952E+01  0.44404919976E+03  0.44421714336E+03  0.00000000000E+00 0. -1.
         11    1    1    2    0    0  0.57894794656E+01  0.19726198503E+02 -0.49698800679E+03  0.49741302744E+03  0.00000000000E+00 0. -1.
        -15    1    1    2    0    0 -0.94810372148E+01 -0.56542895703E+01  0.35245095466E+02  0.36976148267E+02  0.17770000000E+01 0. -1.
         15    1    1    2    0    0 -0.75163382184E+01 -0.92178677378E+01  0.17693711563E+02  0.21393680930E+02  0.17770000000E+01 0.  1.
</event>
<event>
 6   1  0.1826851E-04  0.4911229E+03  0.7546771E-02  0.9419895E-01
        -11   -1    0    0    0    0  0.00000000000E+00  0.00000000000E+00  0.50000000000E+03  0.50000000000E+03  0.00000000000E+00 0. -1.
         11   -1    0    0    0    0 -0.00000000000E+00 -0.00000000000E+00 -0.50000000000E+03  0.50000000000E+03  0.00000000000E+00 0.  1.
        -11    1    1    2    0    0  0.16427942467E+02 -0.67542146982E+01 -0.17764722168E+01  0.17850842093E+02  0.00000000000E+00 0. -1.
         11    1    1    2    0    0  0.80930563321E+01 -0.51280310714E-02 -0.48969488010E+03  0.48976175145E+03  0.00000000000E+00 0.  1.
        -15    1    1    2    0    0 -0.24501567706E+02  0.16757352576E+01  0.40866465760E+03  0.40940578282E+03  0.17770000000E+01 0. -1.
         15    1    1    2    0    0 -0.19431092658E-01  0.50836074716E+01  0.82806694715E+02  0.82981623635E+02  0.17770000000E+01 0.  1.
</event>
<event>
 6   1  0.1826851E-04  0.5018903E+03  0.7546771E-02  0.9395590E-01
        -11   -1    0    0    0    0  0.00000000000E+00  0.00000000000E+00  0.50000000000E+03  0.50000000000E+03  0.00000000000E+00 0.  1.
         11   -1    0    0    0    0 -0.00000000000E+00 -0.00000000000E+00 -0.50000000000E+03  0.50000000000E+03  0.00000000000E+00 0.  1.
        -11    1    1    2    0    0  0.86263843341E+01 -0.37833276630E+02  0.49659591853E+03  0.49810970441E+03  0.00000000000E+00 0.  1.
         11    1    1    2    0    0 -0.94190213849E+00  0.92328515650E+01 -0.34759190924E+03  0.34771578638E+03  0.00000000000E+00 0.  1.
        -15    1    1    2    0    0 -0.15362095514E+02  0.21828759003E+02 -0.12769745342E+03  0.13046948316E+03  0.17770000000E+01 0.  1.
         15    1    1    2    0    0  0.76776133181E+01  0.67716660616E+01 -0.21306555876E+02  0.23705026045E+02  0.17770000000E+01 0. -1.
</event>
<event>
 6   1  0.1826851E-04  0.5003504E+03  0.7546771E-02  0.9399026E-01
        -11   -1    0    0    0    0  0.00000000000E+00  0.00000000000E+00  0.50000000000E+03  0.50000000000E+03  0.00000000000E+00 0.  1.
         11   -1    0    0    0    0 -0.00000000000E+00 -0.00000000000E+00 -0.50000000000E+03  0.50000000000E+03  0.00000000000E+00 0.  1.
        -11    1    1    2    0    0  0.50757304646E+01  0.19422866206E+02  0.49924610653E+03  0.49964956285E+03  0.00000000000E+00 0.  1.
         11    1    1    2    0    0  0.37127057260E+01 -0.16072258079E+01 -0.29221677015E+03  0.29224477432E+03  0.00000000000E+00 0.  1.
        -15    1    1    2    0    0 -0.74079561877E+01 -0.15506066657E+02 -0.15131072804E+03  0.15229382806E+03  0.17770000000E+01 0.  1.
         15    1    1    2    0    0 -0.13804800029E+01 -0.23095737418E+01 -0.55718608338E+02  0.55811834767E+02  0.17770000000E+01 0. -1.
</event>
<event>
 6   1  0.1826851E-04  0.4354907E+03  0.7546771E-02  0.9556985E-01
        -11   -1    0    0    0    0  0.00000000000E+00  0.00000000000E+00  0.50000000000E+03  0.50000000000E+03  0.00000000000E+00 0. -1.
         11   -1    0    0    0    0 -0.00000000000E+00 -0.00000000000E+00 -0.50000000000E+03  0.50000000000E+03  0.00000000000E+00 0. -1.
        -11    1    1    2    0    0  0.36157368144E+02 -0.43454000980E+02  0.46273737731E+03  0.46617752609E+03  0.00000000000E+00 0. -1.
         11    1    1    2    0    0  0.24428182824E+02 -0.37812495618E+02 -0.40981312869E+03  0.41227820872E+03  0.00000000000E+00 0. -1.
        -15    1    1    2    0    0 -0.57158757472E+02  0.79283233273E+02 -0.36162380141E+02  0.10422969874E+03  0.17770000000E+01 0.  1.
         15    1    1    2    0    0 -0.34267934957E+01  0.19832633249E+01 -0.16761868482E+02  0.17314566442E+02  0.17770000000E+01 0. -1.
</event>
<event>
 6   1  0.1826851E-04  0.5003138E+03  0.7546771E-02  0.9399108E-01
        -11   -1    0    0    0    0  0.00000000000E+00  0.00000000000E+00  0.50000000000E+03  0.50000000000E+03  0.00000000000E+00 0.  1.
         11   -1    0    0    0    0 -0.00000000000E+00 -0.00000000000E+00 -0.50000000000E+03  0.50000000000E+03  0.00000000000E+00 0.  1.
        -11    1    1    2    0    0  0.21332620250E+01  0.74688817988E+01  0.33130668316E+03  0.33139772677E+03  0.00000000000E+00 0.  1.
         11    1    1    2    0    0 -0.15397198308E+02 -0.23967893626E+01 -0.49944317982E+03  0.49968620971E+03  0.00000000000E+00 0.  1.
        -15    1    1    2    0    0  0.81819346933E+01 -0.50628819451E+01  0.13409299729E+03  0.13444949416E+03  0.17770000000E+01 0.  1.
         15    1    1    2    0    0  0.50820015895E+01 -0.92104910461E-02  0.34043499363E+02  0.34466569351E+02  0.17770000000E+01 0. -1.
</event>
<event>
 6   1  0.1826851E-04  0.5002200E+03  0.7546771E-02  0.9399317E-01
        -11   -1    0    0    0    0  0.00000000000E+00  0.00000000000E+00  0.50000000000E+03  0.50000000000E+03  0.00000000000E+00 0. -1.
         11   -1    0    0    0    0 -0.00000000000E+00 -0.00000000000E+00 -0.50000000000E+03  0.50000000000E+03  0.00000000000E+00 0. -1.
        -11    1    1    2    0    0  0.11417586636E-01  0.27183491171E+02  0.49904014093E+03  0.49977995616E+03  0.00000000000E+00 0. -1.
         11    1    1    2    0    0 -0.24351726683E+01 -0.20255075785E+02 -0.23352030720E+03  0.23440975244E+03  0.00000000000E+00 0. -1.
        -15    1    1    2    0    0  0.48991657193E+01 -0.62811009048E+01 -0.13076376164E+03  0.13101821682E+03  0.17770000000E+01 0.  1.
         15    1    1    2    0    0 -0.24754106376E+01 -0.64731448132E+00 -0.13475607209E+03  0.13479207458E+03  0.17770000000E+01 0. -1.
</event>
<event>
 6   1  0.1826851E-04  0.5054578E+03  0.7546771E-02  0.9387680E-01
        -11   -1    0    0    0    0  0.00000000000E+00  0.00000000000E+00  0.50000000000E+03  0.50000000000E+03  0.00000000000E+00 0.  1.
         11   -1    0    0    0    0 -0.00000000000E+00 -0.00000000000E+00 -0.50000000000E+03  0.50000000000E+03  0.00000000000E+00 0.  1.
        -11    1    1    2    0    0  0.18697681593E+02  0.88174746301E+01  0.46743346403E+03  0.46789036585E+03  0.00000000000E+00 0.  1.
         11    1    1    2    0    0 -0.14016188384E+02  0.80980770170E+01 -0.49427715647E+03  0.49454215168E+03  0.00000000000E+00 0.  1.
        -15    1    1    2    0    0 -0.12211736259E+02 -0.11166520201E+02  0.17024981253E+02  0.23808095084E+02  0.17770000000E+01 0.  1.
         15    1    1    2    0    0  0.75302430507E+01 -0.57490314460E+01  0.98187111799E+01  0.13759387385E+02  0.17770000000E+01 0. -1.
</event>
<event>
 6   1  0.1826851E-04  0.5018384E+03  0.7546771E-02  0.9395706E-01
        -11   -1    0    0    0    0  0.00000000000E+00  0.00000000000E+00  0.50000000000E+03  0.50000000000E+03  0.00000000000E+00 0.  1.
         11   -1    0    0    0    0 -0.00000000000E+00 -0.00000000000E+00 -0.50000000000E+03  0.50000000000E+03  0.00000000000E+00 0. -1.
        -11    1    1    2    0    0 -0.13261735511E+02 -0.11600571147E+02  0.41675352057E+02  0.45246898775E+02  0.00000000000E+00 0.  1.
         11    1    1    2    0    0  0.20439800976E+01  0.37083034065E+02 -0.49677529464E+03  0.49816164308E+03  0.00000000000E+00 0. -1.
        -15    1    1    2    0    0  0.39894112929E+01 -0.28367528640E+02  0.33556066499E+03  0.33678591078E+03  0.17770000000E+01 0.  1.
         15    1    1    2    0    0  0.72283441201E+01  0.28850657222E+01  0.11953927760E+03  0.11980554737E+03  0.17770000000E+01 0. -1.
</event>
<event>
 6   1  0.1826851E-04  0.5002604E+03  0.7546771E-02  0.9399227E-01
        -11   -1    0    0    0    0  0.00000000000E+00  0.00000000000E+00  0.50000000000E+03  0.50000000000E+03  0.00000000000E+00 0. -1.
         11   -1    0    0    0    0 -0.00000000000E+00 -0.00000000000E+00 -0.50000000000E+03  0.50000000000E+03  0.00000000000E+00 0.  1.
        -11    1    1    2    0    0 -0.60957252250E+01 -0.16374027791E+02  0.49943407196E+03  0.49973959108E+03  0.00000000000E+00 0. -1.
         11    1    1    2    0    0  0.81376334399E+01  0.39214602509E+00 -0.26037037990E+03  0.26049781110E+03  0.00000000000E+00 0.  1.
        -15    1    1    2    0    0 -0.43863675451E+01  0.79284252210E+01 -0.96292620671E+02  0.96734309691E+02  0.17770000000E+01 0. -1.
         15    1    1    2    0    0  0.23444593301E+01  0.80534565452E+01 -0.14277107139E+03  0.14302828813E+03  0.17770000000E+01 0.  1.
</event>
<event>
 6   1  0.1826851E-04  0.5007225E+03  0.7546771E-02  0.9398194E-01
        -11   -1    0    0    0    0  0.00000000000E+00  0.00000000000E+00  0.50000000000E+03  0.50000000000E+03  0.00000000000E+00 0. -1.
         11   -1    0    0    0    0 -0.00000000000E+00 -0.00000000000E+00 -0.50000000000E+03  0.50000000000E+03  0.00000000000E+00 0.  1.
        -11    1    1    2    0    0  0.28425124614E+02  0.16607320628E+02  0.49819094802E+03  0.49927748948E+03  0.00000000000E+00 0. -1.
         11    1    1    2    0    0 -0.30972867836E+02 -0.16058290618E+02 -0.28741782494E+03  0.28952753467E+03  0.00000000000E+00 0.  1.
        -15    1    1    2    0    0 -0.85460779686E+00  0.25717884713E+01 -0.17980533654E+03  0.17983453848E+03  0.17770000000E+01 0.  1.
         15    1    1    2    0    0  0.34023510188E+01 -0.31208184810E+01 -0.30967786540E+02  0.31360437380E+02  0.17770000000E+01 0. -1.
</event>
<event>
 6   1  0.1826851E-04  0.5016734E+03  0.7546771E-02  0.9396073E-01
        -11   -1    0    0    0    0  0.00000000000E+00  0.00000000000E+00  0.50000000000E+03  0.50000000000E+03  0.00000000000E+00 0.  1.
         11   -1    0    0    0    0 -0.00000000000E+00 -0.00000000000E+00 -0.50000000000E+03  0.50000000000E+03  0.00000000000E+00 0. -1.
        -11    1    1    2    0    0 -0.12334465757E+02  0.29658227442E+01  0.34722137621E+03  0.34745304610E+03  0.00000000000E+00 0.  1.
         11    1    1    2    0    0 -0.11102216848E+02 -0.69866187191E+01 -0.49815394108E+03  0.49832662088E+03  0.00000000000E+00 0. -1.
        -15    1    1    2    0    0  0.91340331744E+01  0.78551614791E+00  0.16344703830E+02  0.18824310610E+02  0.17770000000E+01 0. -1.
         15    1    1    2    0    0  0.14302649430E+02  0.32352798269E+01  0.13458786104E+03  0.13539602241E+03  0.17770000000E+01 0.  1.
</event>
<event>
 6   1  0.1826851E-04  0.5006187E+03  0.7546771E-02  0.9398426E-01
        -11   -1    0    0    0    0  0.00000000000E+00  0.00000000000E+00  0.50000000000E+03  0.50000000000E+03  0.00000000000E+00 0.  1.
         11   -1    0    0    0    0 -0.00000000000E+00 -0.00000000000E+00 -0.50000000000E+03  0.50000000000E+03  0.00000000000E+00 0. -1.
        -11    1    1    2    0    0  0.83731599365E+01 -0.57169247935E+01  0.34326168083E+03  0.34341137803E+03  0.00000000000E+00 0.  1.
         11    1    1    2    0    0 -0.38911234695E+01 -0.80728723615E+01 -0.49930087305E+03  0.49938129114E+03  0.00000000000E+00 0. -1.
        -15    1    1    2    0    0  0.65273070790E+00  0.84668343968E+01  0.12292394272E+03  0.12322973166E+03  0.17770000000E+01 0. -1.
         15    1    1    2    0    0 -0.51347671749E+01  0.53229627582E+01  0.33115249504E+02  0.33977599167E+02  0.17770000000E+01 0.  1.
</event>
<event>
 6   1  0.1826851E-04  0.5003309E+03  0.7546771E-02  0.9399070E-01
        -11   -1    0    0    0    0  0.00000000000E+00  0.00000000000E+00  0.50000000000E+03  0.50000000000E+03  0.00000000000E+00 0.  1.
         11   -1    0    0    0    0 -0.00000000000E+00 -0.00000000000E+00 -0.50000000000E+03  0.50000000000E+03  0.00000000000E+00 0.  1.
        -11    1    1    2    0    0  0.59910525423E+01 -0.71460773833E+01  0.49958207105E+03  0.49966909535E+03  0.00000000000E+00 0.  1.
         11    1    1    2    0    0 -0.61062536243E+01  0.18003854540E+00 -0.40295870981E+03  0.40300501307E+03  0.00000000000E+00 0.  1.
        -15    1    1    2    0    0 -0.41447447538E+01  0.25360365584E+01 -0.36925070719E+02  0.37285774326E+02  0.17770000000E+01 0. -1.
         15    1    1    2    0    0  0.42599458358E+01  0.44300022795E+01 -0.59698290529E+02  0.60040117253E+02  0.17770000000E+01 0.  1.
</event>
<event>
 6   1  0.1826851E-04  0.5006885E+03  0.7546771E-02  0.9398270E-01
        -11   -1    0    0    0    0  0.00000000000E+00  0.00000000000E+00  0.50000000000E+03  0.50000000000E+03  0.00000000000E+00 0. -1.
         11   -1    0    0    0    0 -0.00000000000E+00 -0.00000000000E+00 -0.50000000000E+03  0.50000000000E+03  0.00000000000E+00 0.  1.
        -11    1    1    2    0    0 -0.13079610078E+02 -0.12135097204E+02  0.49899260737E+03  0.49931148495E+03  0.00000000000E+00 0. -1.
         11    1    1    2    0    0  0.10650064048E+01 -0.56981585217E+01 -0.34851172005E+03  0.34855992635E+03  0.00000000000E+00 0.  1.
        -15    1    1    2    0    0  0.74060796734E+01  0.97116733475E+01 -0.68999709031E+02  0.70094822853E+02  0.17770000000E+01 0.  1.
         15    1    1    2    0    0  0.46085239994E+01  0.81215823780E+01 -0.81481178297E+02  0.82033765849E+02  0.17770000000E+01 0. -1.
</event>
<event>
 6   1  0.1826851E-04  0.5054640E+03  0.7546771E-02  0.9387666E-01
        -11   -1    0    0    0    0  0.00000000000E+00  0.00000000000E+00  0.50000000000E+03  0.50000000000E+03  0.00000000000E+00 0. -1.
         11   -1    0    0    0    0 -0.00000000000E+00 -0.00000000000E+00 -0.50000000000E+03  0.50000000000E+03  0.00000000000E+00 0.  1.
        -11    1    1    2    0    0 -0.49544657613E+01 -0.34888601714E+02  0.32853007461E+03  0.33041454445E+03  0.00000000000E+00 0. -1.
         11    1    1    2    0    0 -0.14989608393E+02  0.98951745994E+00 -0.49430782490E+03  0.49453603839E+03  0.00000000000E+00 0.  1.
        -15    1    1    2    0    0  0.82037146479E+01  0.15739497663E+02  0.14096141229E+03  0.14208557353E+03  0.17770000000E+01 0. -1.
         15    1    1    2    0    0  0.11740359506E+02  0.18159586592E+02  0.24816337999E+02  0.32963843635E+02  0.17770000000E+01 0.  1.
</event>
<event>
 6   1  0.1826851E-04  0.5002746E+03  0.7546771E-02  0.9399196E-01
        -11   -1    0    0    0    0  0.00000000000E+00  0.00000000000E+00  0.50000000000E+03  0.50000000000E+03  0.00000000000E+00 0.  1.
         11   -1    0    0    0    0 -0.00000000000E+00 -0.00000000000E+00 -0.50000000000E+03  0.50000000000E+03  0.00000000000E+00 0. -1.
        -11    1    1    2    0    0  0.19965970546E+02  0.56410209500E+01  0.43800512474E+03  0.43849623760E+03  0.00000000000E+00 0.  1.
         11    1    1    2    0    0 -0.19286174867E+02 -0.21103302636E+01 -0.49934866953E+03  0.49972542841E+03  0.00000000000E+00 0. -1.
        -15    1    1    2    0    0 -0.89713517003E+00 -0.62326695386E+00  0.64543075545E+01  0.67830028908E+01  0.17770000000E+01 0. -1.
         15    1    1    2    0    0  0.21733949175E+00 -0.29074237326E+01  0.54889237239E+02  0.54995331101E+02  0.17770000000E+01 0.  1.
</event>
<event>
 6   1  0.1826851E-04  0.5012510E+03  0.7546771E-02  0.9397015E-01
        -11   -1    0    0    0    0  0.00000000000E+00  0.00000000000E+00  0.50000000000E+03  0.50000000000E+03  0.00000000000E+00 0. -1.
         11   -1    0    0    0    0 -0.00000000000E+00 -0.00000000000E+00 -0.50000000000E+03  0.50000000000E+03  0.00000000000E+00 0.  1.
        -11    1    1    2    0    0  0.26549706033E+02  0.34306727463E+01  0.49803001939E+03  0.49874899160E+03  0.00000000000E+00 0. -1.
         11    1    1    2    0    0 -0.67436315331E+01  0.26082860855E+01 -0.33075914049E+03  0.33083816095E+03  0.00000000000E+00 0.  1.
        -15    1    1    2    0    0 -0.22602044274E+02  0.22939741893E+01 -0.10104698933E+03  0.10358458623E+03  0.17770000000E+01 0.  1.
         15    1    1    2    0    0  0.27959697746E+01 -0.83329330210E+01 -0.66223889567E+02  0.66828261223E+02  0.17770000000E+01 0. -1.
</event>
<event>
 6   1  0.1826851E-04  0.4970224E+03  0.7546771E-02  0.9406497E-01
        -11   -1    0    0    0    0  0.00000000000E+00  0.00000000000E+00  0.50000000000E+03  0.50000000000E+03  0.00000000000E+00 0. -1.
         11   -1    0    0    0    0 -0.00000000000E+00 -0.00000000000E+00 -0.50000000000E+03  0.50000000000E+03  0.00000000000E+00 0.  1.
        -11    1    1    2    0    0  0.27339794612E+01  0.89322475735E+00  0.52911374188E+01  0.60223441737E+01  0.00000000000E+00 0. -1.
         11    1    1    2    0    0  0.25614585470E+02 -0.20791918400E+02 -0.49843874272E+03  0.49952936961E+03  0.00000000000E+00 0.  1.
        -15    1    1    2    0    0 -0.13898268710E+02  0.49570780660E+01  0.22504294136E+03  0.22553318532E+03  0.17770000000E+01 0. -1.
         15    1    1    2    0    0 -0.14450296221E+02  0.14941615577E+02  0.26810466393E+03  0.26891510090E+03  0.17770000000E+01 0. -1.
</event>
<event>
 6   1  0.1826851E-04  0.4667570E+03  0.7546771E-02  0.9477429E-01
        -11   -1    0    0    0    0  0.00000000000E+00  0.00000000000E+00  0.50000000000E+03  0.50000000000E+03  0.00000000000E+00 0.  1.
         11   -1    0    0    0    0 -0.00000000000E+00 -0.00000000000E+00 -0.50000000000E+03  0.50000000000E+03  0.00000000000E+00 0.  1.
        -11    1    1    2    0    0  0.23262529834E+02 -0.62526527755E+02  0.21705307859E+02  0.70155772084E+02  0.00000000000E+00 0.  1.
         11    1    1    2    0    0 -0.55130567723E+01  0.87789583594E+02 -0.46789109604E+03  0.47608768366E+03  0.00000000000E+00 0.  1.
        -15    1    1    2    0    0 -0.26417470216E+02  0.13971471275E+02  0.80870095750E+02  0.86233490350E+02  0.17770000000E+01 0. -1.
         15    1    1    2    0    0  0.86679971542E+01 -0.39234527114E+02  0.36531569243E+03  0.36752305391E+03  0.17770000000E+01 0.  1.
</event>
<event>
 6   1  0.1826851E-04  0.5005630E+03  0.7546771E-02  0.9398551E-01
        -11   -1    0    0    0    0  0.00000000000E+00  0.00000000000E+00  0.50000000000E+03  0.50000000000E+03  0.00000000000E+00 0.  1.
         11   -1    0    0    0    0 -0.00000000000E+00 -0.00000000000E+00 -0.50000000000E+03  0.50000000000E+03  0.00000000000E+00 0. -1.
        -11    1    1    2    0    0  0.18065519513E+01  0.11394181524E+02  0.25416965887E+03  0.25443133945E+03  0.00000000000E+00 0.  1.
         11    1    1    2    0    0  0.11961647229E+02  0.18679359099E+01 -0.49929028049E+03  0.49943703745E+03  0.00000000000E+00 0. -1.
        -15    1    1    2    0    0 -0.17213354216E+01 -0.66351924850E+00  0.88781511024E+01  0.92402678221E+01  0.17770000000E+01 0. -1.
         15    1    1    2    0    0 -0.12046863759E+02 -0.12598598185E+02  0.23624247051E+03  0.23689135528E+03  0.17770000000E+01 0.  1.
</event>
<event>
 6   1  0.1826851E-04  0.5028799E+03  0.7546771E-02  0.9393389E-01
        -11   -1    0    0    0    0  0.00000000000E+00  0.00000000000E+00  0.50000000000E+03  0.50000000000E+03  0.00000000000E+00 0.  1.
         11   -1    0    0    0    0 -0.00000000000E+00 -0.00000000000E+00 -0.50000000000E+03  0.50000000000E+03  0.00000000000E+00 0. -1.
        -11    1    1    2    0    0  0.30351913916E+02  0.10415024619E+02  0.30375137733E+03  0.30544166488E+03  0.00000000000E+00 0.  1.
         11    1    1    2    0    0 -0.52360863102E-01  0.93897011550E+01 -0.49703140255E+03  0.49712009047E+03  0.00000000000E+00 0. -1.
        -15    1    1    2    0    0 -0.24403977260E+02 -0.60057599618E+01  0.11983675785E+03  0.12245664343E+03  0.17770000000E+01 0. -1.
         15    1    1    2    0    0 -0.58955757936E+01 -0.13798965812E+02  0.73443267374E+02  0.74981601230E+02  0.17770000000E+01 0.  1.
</event>
<event>
 6   1  0.1826851E-04  0.5004588E+03  0.7546771E-02  0.9398784E-01
        -11   -1    0    0    0    0  0.00000000000E+00  0.00000000000E+00  0.50000000000E+03  0.50000000000E+03  0.00000000000E+00 0. -1.
         11   -1    0    0    0    0 -0.00000000000E+00 -0.00000000000E+00 -0.50000000000E+03  0.50000000000E+03  0.00000000000E+00 0.  1.
        -11    1    1    2    0    0  0.41103000439E+01  0.13441908628E+02  0.11437364458E+03  0.11523415313E+03  0.00000000000E+00 0. -1.
         11    1    1    2    0    0 -0.18470911634E+01 -0.16405631673E+02 -0.49926830143E+03  0.49954118279E+03  0.00000000000E+00 0.  1.
        -15    1    1    2    0    0  0.45369683830E+01 -0.15930466555E+01  0.25945791131E+03  0.25950854966E+03  0.17770000000E+01 0.  1.
         15    1    1    2    0    0 -0.68001772636E+01  0.45567696999E+01  0.12543674554E+03  0.12571611441E+03  0.17770000000E+01 0. -1.
</event>
<event>
 6   1  0.1826851E-04  0.5021323E+03  0.7546771E-02  0.9395051E-01
        -11   -1    0    0    0    0  0.00000000000E+00  0.00000000000E+00  0.50000000000E+03  0.50000000000E+03  0.00000000000E+00 0. -1.
         11   -1    0    0    0    0 -0.00000000000E+00 -0.00000000000E+00 -0.50000000000E+03  0.50000000000E+03  0.00000000000E+00 0. -1.
        -11    1    1    2    0    0  0.23643591929E+02  0.10332646179E+02  0.49719859069E+03  0.49786767479E+03  0.00000000000E+00 0. -1.
         11    1    1    2    0    0  0.36310769078E+01 -0.61914344245E+01 -0.40750229818E+03  0.40756550591E+03  0.00000000000E+00 0. -1.
        -15    1    1    2    0    0 -0.10794874239E+02 -0.70929259238E+01 -0.35684399806E+02  0.37991749453E+02  0.17770000000E+01 0. -1.
         15    1    1    2    0    0 -0.16479794598E+02  0.29517141696E+01 -0.54011892701E+02  0.56575069851E+02  0.17770000000E+01 0.  1.
</event>
<event>
 6   1  0.1826851E-04  0.5065892E+03  0.7546771E-02  0.9385185E-01
        -11   -1    0    0    0    0  0.00000000000E+00  0.00000000000E+00  0.50000000000E+03  0.50000000000E+03  0.00000000000E+00 0. -1.
         11   -1    0    0    0    0 -0.00000000000E+00 -0.00000000000E+00 -0.50000000000E+03  0.50000000000E+03  0.00000000000E+00 0.  1.
        -11    1    1    2    0    0  0.25590061547E+02  0.15339300701E+02  0.43031601488E+03  0.43134906753E+03  0.00000000000E+00 0. -1.
         11    1    1    2    0    0 -0.11562964079E+02  0.19814256860E+02 -0.49287718149E+03  0.49341080546E+03  0.00000000000E+00 0.  1.
        -15    1    1    2    0    0  0.26781616326E+01 -0.11809703406E+02  0.12426503994E+02  0.17441828310E+02  0.17770000000E+01 0.  1.
         15    1    1    2    0    0 -0.16705259101E+02 -0.23343854156E+02  0.50134662610E+02  0.57798298699E+02  0.17770000000E+01 0. -1.
</event>
<event>
 6   1  0.1826851E-04  0.5026243E+03  0.7546771E-02  0.9393957E-01
        -11   -1    0    0    0    0  0.00000000000E+00  0.00000000000E+00  0.50000000000E+03  0.50000000000E+03  0.00000000000E+00 0.  1.
         11   -1    0    0    0    0 -0.00000000000E+00 -0.00000000000E+00 -0.50000000000E+03  0.50000000000E+03  0.00000000000E+00 0. -1.
        -11    1    1    2    0    0  0.10137499461E+02  0.14165813599E-02  0.46185481013E+03  0.46196605345E+03  0.00000000000E+00 0.  1.
         11    1    1    2    0    0  0.25427874995E+01  0.74114207272E+01 -0.49731394110E+03  0.49737566379E+03  0.00000000000E+00 0. -1.
        -15    1    1    2    0    0 -0.25297380833E+01 -0.61627784678E+00  0.43164042940E-01  0.31526124546E+01  0.17770000000E+01 0. -1.
         15    1    1    2    0    0 -0.10150548877E+02 -0.67965594618E+01  0.35415966923E+02  0.37505670306E+02  0.17770000000E+01 0.  1.
</event>
<event>
 6   1  0.1826851E-04  0.5001667E+03  0.7546771E-02  0.9399437E-01
        -11   -1    0    0    0    0  0.00000000000E+00  0.00000000000E+00  0.50000000000E+03  0.50000000000E+03  0.00000000000E+00 0.  1.
         11   -1    0    0    0    0 -0.00000000000E+00 -0.00000000000E+00 -0.50000000000E+03  0.50000000000E+03  0.00000000000E+00 0. -1.
        -11    1    1    2    0    0 -0.92337456514E+01 -0.13012851642E+01  0.14536387504E+03  0.14566266361E+03  0.00000000000E+00 0.  1.
         11    1    1    2    0    0  0.15677279168E+02 -0.28329170219E+01 -0.49957930787E+03  0.49983325956E+03  0.00000000000E+00 0. -1.
        -15    1    1    2    0    0 -0.27836676665E+01  0.79814238572E+01  0.19798619495E+03  0.19817452675E+03  0.17770000000E+01 0.  1.
         15    1    1    2    0    0 -0.36598658499E+01 -0.38472216710E+01  0.15622923788E+03  0.15632955008E+03  0.17770000000E+01 0. -1.
</event>
<event>
 6   1  0.1826851E-04  0.5037083E+03  0.7546771E-02  0.9391550E-01
        -11   -1    0    0    0    0  0.00000000000E+00  0.00000000000E+00  0.50000000000E+03  0.50000000000E+03  0.00000000000E+00 0. -1.
         11   -1    0    0    0    0 -0.00000000000E+00 -0.00000000000E+00 -0.50000000000E+03  0.50000000000E+03  0.00000000000E+00 0. -1.
        -11    1    1    2    0    0 -0.50534328929E+01  0.24887612662E+02  0.40851247439E+02  0.48101505853E+02  0.00000000000E+00 0. -1.
         11    1    1    2    0    0  0.76516229792E+01 -0.11819101641E+02 -0.49609193910E+03  0.49629169904E+03  0.00000000000E+00 0. -1.
        -15    1    1    2    0    0  0.39961327302E+01 -0.40225417777E+01  0.23452141817E+03  0.23459668205E+03  0.17770000000E+01 0. -1.
         15    1    1    2    0    0 -0.65943228165E+01 -0.90459692437E+01  0.22071927349E+03  0.22101011305E+03  0.17770000000E+01 0.  1.
</event>
<event>
 6   1  0.1826851E-04  0.5001279E+03  0.7546771E-02  0.9399524E-01
        -11   -1    0    0    0    0  0.00000000000E+00  0.00000000000E+00  0.50000000000E+03  0.50000000000E+03  0.00000000000E+00 0.  1.
         11   -1    0    0    0    0 -0.00000000000E+00 -0.00000000000E+00 -0.50000000000E+03  0.50000000000E+03  0.00000000000E+00 0. -1.
        -11    1    1    2    0    0 -0.25659144656E+01  0.15986292491E+02  0.49960979696E+03  0.49987207832E+03  0.00000000000E+00 0.  1.
         11    1    1    2    0    0  0.11619757965E+00  0.11734016519E+01 -0.68048149326E+02  0.68058364659E+02  0.00000000000E+00 0. -1.
        -15    1    1    2    0    0  0.15408156694E+01 -0.30902134866E+00 -0.13635806337E+03  0.13637869622E+03  0.17770000000E+01 0. -1.
         15    1    1    2    0    0  0.90890121655E+00 -0.16850672794E+02 -0.29520358426E+03  0.29569086080E+03  0.17770000000E+01 0. -1.
</event>
<event>
 6   1  0.1826851E-04  0.4934430E+03  0.7546771E-02  0.9414602E-01
        -11   -1    0    0    0    0  0.00000000000E+00  0.00000000000E+00  0.50000000000E+03  0.50000000000E+03  0.00000000000E+00 0.  1.
         11   -1    0    0    0    0 -0.00000000000E+00 -0.00000000000E+00 -0.50000000000E+03  0.50000000000E+03  0.00000000000E+00 0.  1.
        -11    1    1    2    0    0 -0.24416447226E+01  0.78168603108E+01  0.49199792891E+03  0.49206607990E+03  0.00000000000E+00 0.  1.
         11    1    1    2    0    0 -0.71286026215E+01 -0.67344085696E+01 -0.49477371971E+03  0.49487089524E+03  0.00000000000E+00 0.  1.
        -15    1    1    2    0    0  0.10217309086E+02 -0.20554373874E+01  0.27970609870E+01  0.10936155951E+02  0.17770000000E+01 0.  1.
         15    1    1    2    0    0 -0.64706174215E+00  0.97298564624E+00 -0.21270185368E-01  0.21268689162E+01  0.17770000000E+01 0. -1.
</event>
<event>
 6   1  0.1826851E-04  0.5001675E+03  0.7546771E-02  0.9399435E-01
        -11   -1    0    0    0    0  0.00000000000E+00  0.00000000000E+00  0.50000000000E+03  0.50000000000E+03  0.00000000000E+00 0. -1.
         11   -1    0    0    0    0 -0.00000000000E+00 -0.00000000000E+00 -0.50000000000E+03  0.50000000000E+03  0.00000000000E+00 0. -1.
        -11    1    1    2    0    0 -0.29365711927E+01 -0.88763341252E+01  0.49974501777E+03  0.49983246748E+03  0.00000000000E+00 0. -1.
         11    1    1    2    0    0 -0.29104807023E+01  0.46266534071E+01 -0.27508637000E+03  0.27514066908E+03  0.00000000000E+00 0. -1.
        -15    1    1    2    0    0  0.30721474303E+01  0.43908976636E+01 -0.20610748795E+03  0.20618480155E+03  0.17770000000E+01 0.  1.
         15    1    1    2    0    0  0.27749044647E+01 -0.14121694547E+00 -0.18551159823E+02  0.18842061904E+02  0.17770000000E+01 0. -1.
</event>
<event>
 6   1  0.1826851E-04  0.5006517E+03  0.7546771E-02  0.9398353E-01
        -11   -1    0    0    0    0  0.00000000000E+00  0.00000000000E+00  0.50000000000E+03  0.50000000000E+03  0.00000000000E+00 0. -1.
         11   -1    0    0    0    0 -0.00000000000E+00 -0.00000000000E+00 -0.50000000000E+03  0.50000000000E+03  0.00000000000E+00 0. -1.
        -11    1    1    2    0    0  0.77783014598E+01 -0.46024060436E+01  0.38280915776E+03  0.38291583329E+03  0.00000000000E+00 0. -1.
         11    1    1    2    0    0  0.55962068976E+01  0.62274780302E+01 -0.49927806589E+03  0.49934826133E+03  0.00000000000E+00 0. -1.
        -15    1    1    2    0    0 -0.12461058849E+02 -0.47906171330E+01  0.89072096990E+02  0.90084539136E+02  0.17770000000E+01 0. -1.
         15    1    1    2    0    0 -0.91344950828E+00  0.31655451464E+01  0.27396811132E+02  0.27651366246E+02  0.17770000000E+01 0.  1.
</event>
<event>
 6   1  0.1826851E-04  0.4984196E+03  0.7546771E-02  0.9403353E-01
        -11   -1    0    0    0    0  0.00000000000E+00  0.00000000000E+00  0.50000000000E+03  0.50000000000E+03  0.00000000000E+00 0. -1.
         11   -1    0    0    0    0 -0.00000000000E+00 -0.00000000000E+00 -0.50000000000E+03  0.50000000000E+03  0.00000000000E+00 0.  1.
        -11    1    1    2    0    0 -0.21096662831E+01 -0.77515877499E+00  0.26918985874E+01  0.35068334659E+01  0.00000000000E+00 0. -1.
         11    1    1    2    0    0 -0.97188402378E+01  0.62422227394E+01 -0.49926373189E+03  0.49939733197E+03  0.00000000000E+00 0.  1.
        -15    1    1    2    0    0  0.12007956803E+02  0.20899683906E+01  0.17624286610E+03  0.17667276127E+03  0.17770000000E+01 0.  1.
         15    1    1    2    0    0 -0.17945028200E+00 -0.75570323550E+01  0.32032896720E+03  0.32042307329E+03  0.17770000000E+01 0. -1.
</event>
<event>
 6   1  0.1826851E-04  0.4075024E+03  0.7546771E-02  0.9634490E-01
        -11   -1    0    0    0    0  0.00000000000E+00  0.00000000000E+00  0.50000000000E+03  0.50000000000E+03  0.00000000000E+00 0.  1.
         11   -1    0    0    0    0 -0.00000000000E+00 -0.00000000000E+00 -0.50000000000E+03  0.50000000000E+03  0.00000000000E+00 0. -1.
        -11    1    1    2    0    0 -0.40811385348E+02  0.11608309314E+03  0.13023351795E+03  0.17916925764E+03  0.00000000000E+00 0.  1.
         11    1    1    2    0    0  0.11006542675E+02  0.67346045757E+01 -0.45577098818E+03  0.45595360789E+03  0.00000000000E+00 0. -1.
        -15    1    1    2    0    0  0.94219309534E+01 -0.10888942197E+03  0.32178309143E+03  0.33984289702E+03  0.17770000000E+01 0.  1.
         15    1    1    2    0    0  0.20382911720E+02 -0.13928275741E+02  0.37543788090E+01  0.25034237447E+02  0.17770000000E+01 0. -1.
</event>
<event>
 6   1  0.1826851E-04  0.5043230E+03  0.7546771E-02  0.9390188E-01
        -11   -1    0    0    0    0  0.00000000000E+00  0.00000000000E+00  0.50000000000E+03  0.50000000000E+03  0.00000000000E+00 0. -1.
         11   -1    0    0    0    0 -0.00000000000E+00 -0.00000000000E+00 -0.50000000000E+03  0.50000000000E+03  0.00000000000E+00 0. -1.
        -11    1    1    2    0    0  0.19002571566E+02 -0.16051768108E+01  0.49531004117E+03  0.49567702308E+03  0.00000000000E+00 0. -1.
         11    1    1    2    0    0 -0.11776968967E+01 -0.90232856674E+01 -0.46865954495E+03  0.46874788077E+03  0.00000000000E+00 0. -1.
        -15    1    1    2    0    0 -0.18862419863E+01  0.65080037309E+01 -0.81550892028E+01  0.10750592091E+02  0.17770000000E+01 0. -1.
         15    1    1    2    0    0 -0.15938632683E+02  0.41204587474E+01 -0.18495407018E+02  0.24824504061E+02  0.17770000000E+01 0.  1.
</event>
<event>
 6   1  0.1826851E-04  0.5002793E+03  0.7546771E-02  0.9399185E-01
        -11   -1    0    0    0    0  0.00000000000E+00  0.00000000000E+00  0.50000000000E+03  0.50000000000E+03  0.00000000000E+00 0.  1.
         11   -1    0    0    0    0 -0.00000000000E+00 -0.00000000000E+00 -0.50000000000E+03  0.50000000000E+03  0.00000000000E+00 0.  1.
        -11    1    1    2    0    0  0.15310413343E+02 -0.14211823397E+01  0.49948406689E+03  0.49972068358E+03  0.00000000000E+00 0.  1.
         11    1    1    2    0    0 -0.25850447578E+01  0.29376154376E+01 -0.26415060006E+03  0.26417958202E+03  0.00000000000E+00 0.  1.
        -15    1    1    2    0    0 -0.12781238670E+02  0.28617275230E+01 -0.13247048239E+03  0.13312826890E+03  0.17770000000E+01 0.  1.
         15    1    1    2    0    0  0.55870085069E-01 -0.43781606209E+01 -0.10286298444E+03  0.10297146551E+03  0.17770000000E+01 0. -1.
</event>
<event>
 6   1  0.1826851E-04  0.5001889E+03  0.7546771E-02  0.9399387E-01
        -11   -1    0    0    0    0  0.00000000000E+00  0.00000000000E+00  0.50000000000E+03  0.50000000000E+03  0.00000000000E+00 0. -1.
         11   -1    0    0    0    0 -0.00000000000E+00 -0.00000000000E+00 -0.50000000000E+03  0.50000000000E+03  0.00000000000E+00 0. -1.
        -11    1    1    2    0    0 -0.40812226259E+01  0.41145832903E+01  0.50306139242E+02  0.50638856812E+02  0.00000000000E+00 0. -1.
         11    1    1    2    0    0 -0.41426107208E+01 -0.83015138747E+01 -0.49972501792E+03  0.49981113422E+03  0.00000000000E+00 0. -1.
        -15    1    1    2    0    0  0.55000049814E+01  0.47845455262E+01  0.29184385013E+03  0.29194028930E+03  0.17770000000E+01 0. -1.
         15    1    1    2    0    0  0.27238283652E+01 -0.59761494183E+00  0.15757502854E+03  0.15760971967E+03  0.17770000000E+01 0. -1.
</event>
<event>
 6   1  0.1826851E-04  0.5000452E+03  0.7546771E-02  0.9399709E-01
        -11   -1    0    0    0    0  0.00000000000E+00  0.00000000000E+00  0.50000000000E+03  0.50000000000E+03  0.00000000000E+00 0. -1.
         11   -1    0    0    0    0 -0.00000000000E+00 -0.00000000000E+00 -0.50000000000E+03  0.50000000000E+03  0.00000000000E+00 0.  1.
        -11    1    1    2    0    0  0.83670155258E+01  0.80423310794E+01  0.49982004977E+03  0.49995476614E+03  0.00000000000E+00 0. -1.
         11    1    1    2    0    0 -0.53531989705E+01 -0.48338868393E+01 -0.38017711553E+03  0.38024552906E+03  0.00000000000E+00 0.  1.
        -15    1    1    2    0    0 -0.67005850460E+00 -0.68435466331E+00 -0.26806946417E+02  0.26882846295E+02  0.17770000000E+01 0.  1.
         15    1    1    2    0    0 -0.23437580507E+01 -0.25240895768E+01 -0.92835987822E+02  0.92916858502E+02  0.17770000000E+01 0.  1.
</event>
<event>
 6   1  0.1826851E-04  0.5002807E+03  0.7546771E-02  0.9399182E-01
        -11   -1    0    0    0    0  0.00000000000E+00  0.00000000000E+00  0.50000000000E+03  0.50000000000E+03  0.00000000000E+00 0. -1.
         11   -1    0    0    0    0 -0.00000000000E+00 -0.00000000000E+00 -0.50000000000E+03  0.50000000000E+03  0.00000000000E+00 0. -1.
        -11    1    1    2    0    0  0.83218995540E+00  0.97520728583E+01  0.16499166691E+03  0.16528171592E+03  0.00000000000E+00 0. -1.
         11    1    1    2    0    0 -0.11727563566E+02  0.16536687961E+01 -0.49957897018E+03  0.49971933904E+03  0.00000000000E+00 0. -1.
        -15    1    1    2    0    0  0.66709783743E+01 -0.91410371113E+01  0.24113390282E+03  0.24140583533E+03  0.17770000000E+01 0. -1.
         15    1    1    2    0    0  0.42243952367E+01 -0.22647045431E+01  0.93453400448E+02  0.93593109715E+02  0.17770000000E+01 0. -1.
</event>
<event>
 6   1  0.1826851E-04  0.5072413E+03  0.7546771E-02  0.9383751E-01
        -11   -1    0    0    0    0  0.00000000000E+00  0.00000000000E+00  0.50000000000E+03  0.50000000000E+03  0.00000000000E+00 0.  1.
         11   -1    0    0    0    0 -0.00000000000E+00 -0.00000000000E+00 -0.50000000000E+03  0.50000000000E+03  0.00000000000E+00 0. -1.
        -11    1    1    2    0    0 -0.19002492348E+02 -0.61210629263E+01  0.49235415785E+03  0.49275874308E+03  0.00000000000E+00 0.  1.
         11    1    1    2    0    0  0.66992613743E+01  0.46357392725E+01 -0.45549289431E+03  0.45556574383E+03  0.00000000000E+00 0. -1.
        -15    1    1    2    0    0 -0.10369743370E+02  0.66504253632E+00 -0.22278588222E+02  0.24646847289E+02  0.17770000000E+01 0.  1.
         15    1    1    2    0    0  0.22672974343E+02  0.82028111743E+00 -0.14582675321E+02  0.27028665805E+02  0.17770000000E+01 0. -1.
</event>
<event>
 6   1  0.1826851E-04  0.5011431E+03  0.7546771E-02  0.9397256E-01
        -11   -1    0    0    0    0  0.00000000000E+00  0.00000000000E+00  0.50000000000E+03  0.50000000000E+03  0.00000000000E+00 0. -1.
         11   -1    0    0    0    0 -0.00000000000E+00 -0.00000000000E+00 -0.50000000000E+03  0.50000000000E+03  0.00000000000E+00 0. -1.
        -11    1    1    2    0    0  0.19809962395E+02 -0.51577023413E+01  0.12049153499E+03  0.12221802857E+03  0.00000000000E+00 0. -1.
         11    1    1    2    0    0 -0.56786500796E+01  0.53860997605E+01 -0.49879551601E+03  0.49885691729E+03  0.00000000000E+00 0. -1.
        -15    1    1    2    0    0 -0.70620865738E+01 -0.57002395615E+01  0.29093561456E+03  0.29108255761E+03  0.17770000000E+01 0.  1.
         15    1    1    2    0    0 -0.70692257413E+01  0.54718421423E+01  0.87368366457E+02  0.87842496523E+02  0.17770000000E+01 0. -1.
</event>
<event>
 6   1  0.1826851E-04  0.5005155E+03  0.7546771E-02  0.9398657E-01
        -11   -1    0    0    0    0  0.00000000000E+00  0.00000000000E+00  0.50000000000E+03  0.50000000000E+03  0.00000000000E+00 0. -1.
         11   -1    0    0    0    0 -0.00000000000E+00 -0.00000000000E+00 -0.50000000000E+03  0.50000000000E+03  0.00000000000E+00 0. -1.
        -11    1    1    2    0    0  0.11143490694E+02  0.33400503050E+00  0.61972198771E+02  0.62966994249E+02  0.00000000000E+00 0. -1.
         11    1    1    2    0    0 -0.14452497592E+02 -0.16303382604E+02 -0.49900910834E+03  0.49948449944E+03  0.00000000000E+00 0. -1.
        -15    1    1    2    0    0  0.25749034770E+01  0.12524298876E+02  0.41203985963E+03  0.41224203066E+03  0.17770000000E+01 0. -1.
         15    1    1    2    0    0  0.73410342089E+00  0.34450786977E+01  0.24997049946E+02  0.25306475654E+02  0.17770000000E+01 0.  1.
</event>
<event>
 6   1  0.1826851E-04  0.5025762E+03  0.7546771E-02  0.9394064E-01
        -11   -1    0    0    0    0  0.00000000000E+00  0.00000000000E+00  0.50000000000E+03  0.50000000000E+03  0.00000000000E+00 0.  1.
         11   -1    0    0    0    0 -0.00000000000E+00 -0.00000000000E+00 -0.50000000000E+03  0.50000000000E+03  0.00000000000E+00 0.  1.
        -11    1    1    2    0    0  0.15009450944E+02  0.97925310950E+01  0.43998481904E+03  0.44034965455E+03  0.00000000000E+00 0.  1.
         11    1    1    2    0    0 -0.11198481543E+01  0.76219494288E+01 -0.49736418073E+03  0.49742383985E+03  0.00000000000E+00 0.  1.
        -15    1    1    2    0    0 -0.14575034152E+02 -0.15705067410E+02  0.50477674925E+02  0.54865600860E+02  0.17770000000E+01 0. -1.
         15    1    1    2    0    0  0.68543136151E+00 -0.17094131134E+01  0.69016867682E+01  0.73609047399E+01  0.17770000000E+01 0.  1.
</event>
<event>
 6   1  0.1826851E-04  0.5023607E+03  0.7546771E-02  0.9394543E-01
        -11   -1    0    0    0    0  0.00000000000E+00  0.00000000000E+00  0.50000000000E+03  0.50000000000E+03  0.00000000000E+00 0. -1.
         11   -1    0    0    0    0 -0.00000000000E+00 -0.00000000000E+00 -0.50000000000E+03  0.50000000000E+03  0.00000000000E+00 0. -1.
        -11    1    1    2    0    0 -0.19613019097E+02 -0.16892210364E+02  0.36321411375E+03  0.36413529040E+03  0.00000000000E+00 0. -1.
         11    1    1    2    0    0  0.19262251920E+02 -0.11350507262E+02 -0.49713680503E+03  0.49763929836E+03  0.00000000000E+00 0. -1.
        -15    1    1    2    0    0  0.77042236511E+01  0.14624937297E+02  0.92251657297E+02  0.93737771768E+02  0.17770000000E+01 0. -1.
         15    1    1    2    0    0 -0.73534564749E+01  0.13617780328E+02  0.41671033978E+02  0.44487639463E+02  0.17770000000E+01 0.  1.
</event>
<event>
 6   1  0.1826851E-04  0.5003347E+03  0.7546771E-02  0.9399061E-01
        -11   -1    0    0    0    0  0.00000000000E+00  0.00000000000E+00  0.50000000000E+03  0.50000000000E+03  0.00000000000E+00 0.  1.
         11   -1    0    0    0    0 -0.00000000000E+00 -0.00000000000E+00 -0.50000000000E+03  0.50000000000E+03  0.00000000000E+00 0. -1.
        -11    1    1    2    0    0  0.15433664758E+02  0.11393213933E+02  0.49929690040E+03  0.49966528605E+03  0.00000000000E+00 0.  1.
         11    1    1    2    0    0  0.96834634688E+00 -0.57810483109E+01 -0.26835481612E+03  0.26841882488E+03  0.00000000000E+00 0. -1.
        -15    1    1    2    0    0 -0.12695662983E+02 -0.15050313889E+01 -0.97931542605E+02  0.98778488266E+02  0.17770000000E+01 0.  1.
         15    1    1    2    0    0 -0.37063481216E+01 -0.41071342337E+01 -0.13301054167E+03  0.13313740080E+03  0.17770000000E+01 0. -1.
</event>
<event>
 6   1  0.1826851E-04  0.5005528E+03  0.7546771E-02  0.9398574E-01
        -11   -1    0    0    0    0  0.00000000000E+00  0.00000000000E+00  0.50000000000E+03  0.50000000000E+03  0.00000000000E+00 0. -1.
         11   -1    0    0    0    0 -0.00000000000E+00 -0.00000000000E+00 -0.50000000000E+03  0.50000000000E+03  0.00000000000E+00 0. -1.
        -11    1    1    2    0    0 -0.10286545725E+02 -0.74412492801E+01  0.21669467421E+03  0.21706627340E+03  0.00000000000E+00 0. -1.
         11    1    1    2    0    0  0.33003560645E+01 -0.71547991936E+01 -0.49938502210E+03  0.49944717819E+03  0.00000000000E+00 0. -1.
        -15    1    1    2    0    0 -0.28064694792E+01  0.46203627407E+01  0.41957546145E+02  0.42341674864E+02  0.17770000000E+01 0.  1.
         15    1    1    2    0    0  0.97926591393E+01  0.99756857330E+01  0.24073280174E+03  0.24114487355E+03  0.17770000000E+01 0. -1.
</event>
<event>
 6   1  0.1826851E-04  0.5016388E+03  0.7546771E-02  0.9396150E-01
        -11   -1    0    0    0    0  0.00000000000E+00  0.00000000000E+00  0.50000000000E+03  0.50000000000E+03  0.00000000000E+00 0.  1.
         11   -1    0    0    0    0 -0.00000000000E+00 -0.00000000000E+00 -0.50000000000E+03  0.50000000000E+03  0.00000000000E+00 0. -1.
        -11    1    1    2    0    0  0.17921504385E+02 -0.28006720244E+01  0.49803095552E+03  0.49836117098E+03  0.00000000000E+00 0.  1.
         11    1    1    2    0    0 -0.98404773503E+01 -0.39047051439E+01 -0.39890115028E+03  0.39904161364E+03  0.00000000000E+00 0. -1.
        -15    1    1    2    0    0  0.65144529553E+01  0.24260609017E+01 -0.10908129625E+02  0.13056373529E+02  0.17770000000E+01 0. -1.
         15    1    1    2    0    0 -0.14595479990E+02  0.42793162666E+01 -0.88221675609E+02  0.89540841855E+02  0.17770000000E+01 0.  1.
</event>
<event>
 6   1  0.1826851E-04  0.5121898E+03  0.7546771E-02  0.9372940E-01
        -11   -1    0    0    0    0  0.00000000000E+00  0.00000000000E+00  0.50000000000E+03  0.50000000000E+03  0.00000000000E+00 0.  1.
         11   -1    0    0    0    0 -0.00000000000E+00 -0.00000000000E+00 -0.50000000000E+03  0.50000000000E+03  0.00000000000E+00 0.  1.
        -11    1    1    2    0    0 -0.22949947006E+02  0.13801693632E+02  0.48707452694E+03  0.48781019015E+03  0.00000000000E+00 0.  1.
         11    1    1    2    0    0 -0.72746115411E+01 -0.80739879748E+01 -0.46858504435E+03  0.46871105496E+03  0.00000000000E+00 0.  1.
        -15    1    1    2    0    0  0.18120475044E+02 -0.87432910487E+01  0.10542914033E+01  0.20225380430E+02  0.17770000000E+01 0. -1.
         15    1    1    2    0    0  0.12104083504E+02  0.30155853919E+01 -0.19543773996E+02  0.23253374459E+02  0.17770000000E+01 0.  1.
</event>
<event>
 6   1  0.1826851E-04  0.5029595E+03  0.7546771E-02  0.9393212E-01
        -11   -1    0    0    0    0  0.00000000000E+00  0.00000000000E+00  0.50000000000E+03  0.50000000000E+03  0.00000000000E+00 0.  1.
         11   -1    0    0    0    0 -0.00000000000E+00 -0.00000000000E+00 -0.50000000000E+03  0.50000000000E+03  0.00000000000E+00 0.  1.
        -11    1    1    2    0    0 -0.71436570135E+01 -0.25430475478E+02  0.49633812358E+03  0.49704051529E+03  0.00000000000E+00 0.  1.
         11    1    1    2    0    0  0.16520800556E+01  0.15681154547E+02 -0.42807730279E+03  0.42836760515E+03  0.00000000000E+00 0.  1.
        -15    1    1    2    0    0  0.16541995195E+01 -0.82940713959E+01 -0.39075714497E+02  0.40019959880E+02  0.17770000000E+01 0.  1.
         15    1    1    2    0    0  0.38373774384E+01  0.18043392327E+02 -0.29185106292E+02  0.34571919683E+02  0.17770000000E+01 0. -1.
</event>
<event>
 6   1  0.1826851E-04  0.5158471E+03  0.7546771E-02  0.9365033E-01
        -11   -1    0    0    0    0  0.00000000000E+00  0.00000000000E+00  0.50000000000E+03  0.50000000000E+03  0.00000000000E+00 0.  1.
         11   -1    0    0    0    0 -0.00000000000E+00 -0.00000000000E+00 -0.50000000000E+03  0.50000000000E+03  0.00000000000E+00 0. -1.
        -11    1    1    2    0    0  0.39548854013E+02  0.24524961871E+02  0.48191126101E+03  0.48415291913E+03  0.00000000000E+00 0.  1.
         11    1    1    2    0    0 -0.18651169102E+02  0.90432009872E+01 -0.43523560492E+03  0.43572890355E+03  0.00000000000E+00 0. -1.
        -15    1    1    2    0    0 -0.26453943104E+02 -0.19651586833E+02 -0.21128917229E+01  0.33069895845E+02  0.17770000000E+01 0.  1.
         15    1    1    2    0    0  0.55562581929E+01 -0.13916576026E+02 -0.44562764366E+02  0.47048281481E+02  0.17770000000E+01 0. -1.
</event>
<event>
 6   1  0.1826851E-04  0.5019187E+03  0.7546771E-02  0.9395527E-01
        -11   -1    0    0    0    0  0.00000000000E+00  0.00000000000E+00  0.50000000000E+03  0.50000000000E+03  0.00000000000E+00 0. -1.
         11   -1    0    0    0    0 -0.00000000000E+00 -0.00000000000E+00 -0.50000000000E+03  0.50000000000E+03  0.00000000000E+00 0.  1.
        -11    1    1    2    0    0 -0.18290117734E+02 -0.67739358309E+01  0.49769929927E+03  0.49808132580E+03  0.00000000000E+00 0. -1.
         11    1    1    2    0    0  0.18723427049E+01  0.99311011750E+01 -0.44925624277E+03  0.44936989675E+03  0.00000000000E+00 0.  1.
        -15    1    1    2    0    0  0.11926257140E+02  0.30635066829E+01 -0.31360050416E+02  0.33737681806E+02  0.17770000000E+01 0. -1.
         15    1    1    2    0    0  0.44915178891E+01 -0.62206720269E+01 -0.17083006085E+02  0.18811095644E+02  0.17770000000E+01 0.  1.
</event>
<event>
 6   1  0.1826851E-04  0.5004083E+03  0.7546771E-02  0.9398897E-01
        -11   -1    0    0    0    0  0.00000000000E+00  0.00000000000E+00  0.50000000000E+03  0.50000000000E+03  0.00000000000E+00 0. -1.
         11   -1    0    0    0    0 -0.00000000000E+00 -0.00000000000E+00 -0.50000000000E+03  0.50000000000E+03  0.00000000000E+00 0. -1.
        -11    1    1    2    0    0  0.19173995118E+01  0.93949535516E+01  0.49949966784E+03  0.49959169303E+03  0.00000000000E+00 0. -1.
         11    1    1    2    0    0 -0.88059702368E+01 -0.39155773951E+01 -0.42392001750E+03  0.42402954861E+03  0.00000000000E+00 0. -1.
        -15    1    1    2    0    0  0.69310485663E+01 -0.36253432451E+01 -0.64938632303E+02  0.65432149913E+02  0.17770000000E+01 0.  1.
         15    1    1    2    0    0 -0.42477841298E-01 -0.18540329114E+01 -0.10641018039E+02  0.10946608439E+02  0.17770000000E+01 0. -1.
</event>
<event>
 6   1  0.1826851E-04  0.5009083E+03  0.7546771E-02  0.9397780E-01
        -11   -1    0    0    0    0  0.00000000000E+00  0.00000000000E+00  0.50000000000E+03  0.50000000000E+03  0.00000000000E+00 0.  1.
         11   -1    0    0    0    0 -0.00000000000E+00 -0.00000000000E+00 -0.50000000000E+03  0.50000000000E+03  0.00000000000E+00 0.  1.
        -11    1    1    2    0    0 -0.28639306609E+01  0.13423179646E+02  0.32719332634E+03  0.32748107831E+03  0.00000000000E+00 0.  1.
         11    1    1    2    0    0 -0.14506030577E+02 -0.61313513483E+01 -0.49884316697E+03  0.49909169861E+03  0.00000000000E+00 0.  1.
        -15    1    1    2    0    0  0.15142961306E+02 -0.44125097483E+01  0.16404304994E+03  0.16480916079E+03  0.17770000000E+01 0. -1.
         15    1    1    2    0    0  0.22269999318E+01 -0.28793185490E+01  0.76067906845E+01  0.86180622834E+01  0.17770000000E+01 0.  1.
</event>
<event>
 6   1  0.1826851E-04  0.5028021E+03  0.7546771E-02  0.9393562E-01
        -11   -1    0    0    0    0  0.00000000000E+00  0.00000000000E+00  0.50000000000E+03  0.50000000000E+03  0.00000000000E+00 0. -1.
         11   -1    0    0    0    0 -0.00000000000E+00 -0.00000000000E+00 -0.50000000000E+03  0.50000000000E+03  0.00000000000E+00 0. -1.
        -11    1    1    2    0    0  0.21153149481E+02  0.19854662240E+01  0.40475801481E+02  0.45713108783E+02  0.00000000000E+00 0. -1.
         11    1    1    2    0    0 -0.14645550835E+02  0.86854947958E+01 -0.49690627703E+03  0.49719792651E+03  0.00000000000E+00 0. -1.
        -15    1    1    2    0    0 -0.75412496663E+01 -0.45549070972E+01  0.66441065043E+02  0.67046181683E+02  0.17770000000E+01 0.  1.
         15    1    1    2    0    0  0.10336510203E+01 -0.61160539226E+01  0.38998941051E+03  0.39004278302E+03  0.17770000000E+01 0. -1.
</event>
<event>
 6   1  0.1826851E-04  0.5028233E+03  0.7546771E-02  0.9393515E-01
        -11   -1    0    0    0    0  0.00000000000E+00  0.00000000000E+00  0.50000000000E+03  0.50000000000E+03  0.00000000000E+00 0. -1.
         11   -1    0    0    0    0 -0.00000000000E+00 -0.00000000000E+00 -0.50000000000E+03  0.50000000000E+03  0.00000000000E+00 0. -1.
        -11    1    1    2    0    0  0.17534414950E+02  0.38872853829E+02  0.49534448612E+03  0.49717674363E+03  0.00000000000E+00 0. -1.
         11    1    1    2    0    0  0.47649089311E+01  0.64990286636E+00 -0.35055116618E+03  0.35058415087E+03  0.00000000000E+00 0. -1.
        -15    1    1    2    0    0 -0.17578604522E+02 -0.21499944195E+02 -0.96971973294E+02  0.10088595676E+03  0.17770000000E+01 0. -1.
         15    1    1    2    0    0 -0.47207193593E+01 -0.18022812501E+02 -0.47821346652E+02  0.51353148748E+02  0.17770000000E+01 0.  1.
</event>
<event>
 6   1  0.1826851E-04  0.5019770E+03  0.7546771E-02  0.9395397E-01
        -11   -1    0    0    0    0  0.00000000000E+00  0.00000000000E+00  0.50000000000E+03  0.50000000000E+03  0.00000000000E+00 0. -1.
         11   -1    0    0    0    0 -0.00000000000E+00 -0.00000000000E+00 -0.50000000000E+03  0.50000000000E+03  0.00000000000E+00 0.  1.
        -11    1    1    2    0    0  0.81424666175E+01 -0.50913683015E+00  0.49001689559E+03  0.49008480588E+03  0.00000000000E+00 0. -1.
         11    1    1    2    0    0 -0.85529314994E+01  0.36600149561E+01 -0.49793605481E+03  0.49802295432E+03  0.00000000000E+00 0.  1.
        -15    1    1    2    0    0 -0.31135001345E+01 -0.14484119046E+01  0.14584269681E+01  0.41323744209E+01  0.17770000000E+01 0. -1.
         15    1    1    2    0    0  0.35239650163E+01 -0.17024662213E+01  0.64607322457E+01  0.77598653868E+01  0.17770000000E+01 0.  1.
</event>
<event>
 6   1  0.1826851E-04  0.5016545E+03  0.7546771E-02  0.9396115E-01
        -11   -1    0    0    0    0  0.00000000000E+00  0.00000000000E+00  0.50000000000E+03  0.50000000000E+03  0.00000000000E+00 0.  1.
         11   -1    0    0    0    0 -0.00000000000E+00 -0.00000000000E+00 -0.50000000000E+03  0.50000000000E+03  0.00000000000E+00 0.  1.
        -11    1    1    2    0    0 -0.33128833894E-01 -0.17852910563E+02  0.49802559513E+03  0.49834548349E+03  0.00000000000E+00 0.  1.
         11    1    1    2    0    0  0.52096382081E+01 -0.40102858540E+01 -0.39226699008E+03  0.39232207971E+03  0.00000000000E+00 0.  1.
        -15    1    1    2    0    0 -0.36994713746E+01  0.20787739493E+02 -0.10422678530E+03  0.10635881113E+03  0.17770000000E+01 0. -1.
         15    1    1    2    0    0 -0.14770379996E+01  0.10754569241E+01 -0.15318197514E+01  0.29736256655E+01  0.17770000000E+01 0. -1.
</event>
<event>
 6   1  0.1826851E-04  0.5011931E+03  0.7546771E-02  0.9397144E-01
        -11   -1    0    0    0    0  0.00000000000E+00  0.00000000000E+00  0.50000000000E+03  0.50000000000E+03  0.00000000000E+00 0.  1.
         11   -1    0    0    0    0 -0.00000000000E+00 -0.00000000000E+00 -0.50000000000E+03  0.50000000000E+03  0.00000000000E+00 0. -1.
        -11    1    1    2    0    0 -0.66505925787E+00  0.20986921751E+02  0.16165085208E+03  0.16300886837E+03  0.00000000000E+00 0.  1.
         11    1    1    2    0    0  0.12631352460E+02  0.39435629808E+01 -0.49863135011E+03  0.49880690258E+03  0.00000000000E+00 0. -1.
        -15    1    1    2    0    0 -0.66908080190E+01 -0.12297366066E+02  0.20451364622E+03  0.20499995450E+03  0.17770000000E+01 0.  1.
         15    1    1    2    0    0 -0.52754851834E+01 -0.12633118666E+02  0.13246685180E+03  0.13318427455E+03  0.17770000000E+01 0.  1.
</event>
<event>
 6   1  0.1826851E-04  0.4894171E+03  0.7546771E-02  0.9423806E-01
        -11   -1    0    0    0    0  0.00000000000E+00  0.00000000000E+00  0.50000000000E+03  0.50000000000E+03  0.00000000000E+00 0.  1.
         11   -1    0    0    0    0 -0.00000000000E+00 -0.00000000000E+00 -0.50000000000E+03  0.50000000000E+03  0.00000000000E+00 0.  1.
        -11    1    1    2    0    0 -0.63209944595E+01 -0.20590512258E+02  0.48922929370E+03  0.48970320193E+03  0.00000000000E+00 0.  1.
         11    1    1    2    0    0  0.26845421613E+01  0.19673287190E+02 -0.48873518261E+03  0.48913834824E+03  0.00000000000E+00 0.  1.
        -15    1    1    2    0    0  0.93600167079E+01 -0.35984879081E+01 -0.60282425620E+01  0.11834545424E+02  0.17770000000E+01 0.  1.
         15    1    1    2    0    0 -0.57235644097E+01  0.45157129754E+01  0.55341314777E+01  0.93239044096E+01  0.17770000000E+01 0. -1.
</event>
<event>
 6   1  0.1826851E-04  0.5011644E+03  0.7546771E-02  0.9397208E-01
        -11   -1    0    0    0    0  0.00000000000E+00  0.00000000000E+00  0.50000000000E+03  0.50000000000E+03  0.00000000000E+00 0.  1.
         11   -1    0    0    0    0 -0.00000000000E+00 -0.00000000000E+00 -0.50000000000E+03  0.50000000000E+03  0.00000000000E+00 0. -1.
        -11    1    1    2    0    0 -0.27975315646E+02  0.40051917847E+00  0.19997755165E+03  0.20192523336E+03  0.00000000000E+00 0.  1.
         11    1    1    2    0    0  0.14568888288E+02  0.29778042428E+01 -0.49861392420E+03  0.49883560943E+03  0.00000000000E+00 0. -1.
        -15    1    1    2    0    0 -0.18177111283E+01  0.12925436796E+01  0.34791144705E+02  0.34907824650E+02  0.17770000000E+01 0. -1.
         15    1    1    2    0    0  0.15224138487E+02 -0.46708671009E+01  0.26384522784E+03  0.26433133257E+03  0.17770000000E+01 0.  1.
</event>
<event>
 6   1  0.1826851E-04  0.5003943E+03  0.7546771E-02  0.9398928E-01
        -11   -1    0    0    0    0  0.00000000000E+00  0.00000000000E+00  0.50000000000E+03  0.50000000000E+03  0.00000000000E+00 0.  1.
         11   -1    0    0    0    0 -0.00000000000E+00 -0.00000000000E+00 -0.50000000000E+03  0.50000000000E+03  0.00000000000E+00 0. -1.
        -11    1    1    2    0    0  0.55359330653E+01 -0.59220531852E+01  0.52348552987E+02  0.52972523715E+02  0.00000000000E+00 0.  1.
         11    1    1    2    0    0 -0.17319882028E+02 -0.11267138821E+02 -0.49917828419E+03  0.49960573069E+03  0.00000000000E+00 0. -1.
        -15    1    1    2    0    0  0.83607534706E+01  0.45891527111E+01  0.21335157560E+03  0.21357203717E+03  0.17770000000E+01 0. -1.
         15    1    1    2    0    0  0.34231954924E+01  0.12600039296E+02  0.23347815560E+03  0.23384970842E+03  0.17770000000E+01 0.  1.
</event>
<event>
 6   1  0.1826851E-04  0.5007515E+03  0.7546771E-02  0.9398130E-01
        -11   -1    0    0    0    0  0.00000000000E+00  0.00000000000E+00  0.50000000000E+03  0.50000000000E+03  0.00000000000E+00 0.  1.
         11   -1    0    0    0    0 -0.00000000000E+00 -0.00000000000E+00 -0.50000000000E+03  0.50000000000E+03  0.00000000000E+00 0. -1.
        -11    1    1    2    0    0  0.37928437696E+00 -0.16485237977E+02  0.49897606787E+03  0.49924845842E+03  0.00000000000E+00 0.  1.
         11    1    1    2    0    0  0.61613361546E+01  0.40533588872E+01 -0.40280766715E+03  0.40287517732E+03  0.00000000000E+00 0. -1.
        -15    1    1    2    0    0 -0.68882981344E+01  0.55053740601E+01 -0.29939264740E+02  0.31261399471E+02  0.17770000000E+01 0. -1.
         15    1    1    2    0    0  0.34767760283E+00  0.69265050296E+01 -0.66229135984E+02  0.66614964789E+02  0.17770000000E+01 0.  1.
</event>
<event>
 6   1  0.1826851E-04  0.5012495E+03  0.7546771E-02  0.9397018E-01
        -11   -1    0    0    0    0  0.00000000000E+00  0.00000000000E+00  0.50000000000E+03  0.50000000000E+03  0.00000000000E+00 0.  1.
         11   -1    0    0    0    0 -0.00000000000E+00 -0.00000000000E+00 -0.50000000000E+03  0.50000000000E+03  0.00000000000E+00 0.  1.
        -11    1    1    2    0    0 -0.98969374008E+01 -0.66090782369E+01  0.49860850729E+03  0.49875051161E+03  0.00000000000E+00 0.  1.
         11    1    1    2    0    0  0.77450670483E+01  0.66779964581E+00 -0.42524709350E+03  0.42531814275E+03  0.00000000000E+00 0.  1.
        -15    1    1    2    0    0  0.16786326838E+01  0.29156950719E+01 -0.16744386609E+01  0.41569892072E+01  0.17770000000E+01 0. -1.
         15    1    1    2    0    0  0.47323766865E+00  0.30255835193E+01 -0.71686975134E+02  0.71774356440E+02  0.17770000000E+01 0.  1.
</event>
<event>
 6   1  0.1826851E-04  0.5005272E+03  0.7546771E-02  0.9398631E-01
        -11   -1    0    0    0    0  0.00000000000E+00  0.00000000000E+00  0.50000000000E+03  0.50000000000E+03  0.00000000000E+00 0. -1.
         11   -1    0    0    0    0 -0.00000000000E+00 -0.00000000000E+00 -0.50000000000E+03  0.50000000000E+03  0.00000000000E+00 0. -1.
        -11    1    1    2    0    0  0.11439415610E+02 -0.81226405701E+01  0.49927574401E+03  0.49947282817E+03  0.00000000000E+00 0. -1.
         11    1    1    2    0    0  0.70365737582E+01 -0.54188725027E+01 -0.19606869131E+03  0.19626973598E+03  0.00000000000E+00 0. -1.
        -15    1    1    2    0    0 -0.31940078746E+01  0.24459225956E+01 -0.11791548944E+03  0.11799747710E+03  0.17770000000E+01 0. -1.
         15    1    1    2    0    0 -0.15281981494E+02  0.11095590477E+02 -0.18529156327E+03  0.18625995875E+03  0.17770000000E+01 0.  1.
</event>
<event>
 6   1  0.1826851E-04  0.4873266E+03  0.7546771E-02  0.9428623E-01
        -11   -1    0    0    0    0  0.00000000000E+00  0.00000000000E+00  0.50000000000E+03  0.50000000000E+03  0.00000000000E+00 0.  1.
         11   -1    0    0    0    0 -0.00000000000E+00 -0.00000000000E+00 -0.50000000000E+03  0.50000000000E+03  0.00000000000E+00 0.  1.
        -11    1    1    2    0    0  0.37506761368E+01 -0.88294217871E+01  0.48936883907E+03  0.48946285550E+03  0.00000000000E+00 0.  1.
         11    1    1    2    0    0 -0.78156892649E+00 -0.12293681811E+02 -0.48527594829E+03  0.48543227277E+03  0.00000000000E+00 0.  1.
        -15    1    1    2    0    0 -0.21104664791E+01  0.41313297841E+00 -0.32512597198E+01  0.42840595680E+01  0.17770000000E+01 0. -1.
         15    1    1    2    0    0 -0.85864073127E+00  0.20709970620E+02 -0.84163106396E+00  0.20820812156E+02  0.17770000000E+01 0.  1.
</event>
<event>
 6   1  0.1826851E-04  0.4504723E+03  0.7546771E-02  0.9518006E-01
        -11   -1    0    0    0    0  0.00000000000E+00  0.00000000000E+00  0.50000000000E+03  0.50000000000E+03  0.00000000000E+00 0. -1.
         11   -1    0    0    0    0 -0.00000000000E+00 -0.00000000000E+00 -0.50000000000E+03  0.50000000000E+03  0.00000000000E+00 0.  1.
        -11    1    1    2    0    0  0.13825367522E+02 -0.75950837090E+02  0.42564852045E+03  0.43259257206E+03  0.00000000000E+00 0. -1.
         11    1    1    2    0    0 -0.14996011726E+02  0.11484611227E+02 -0.47143789825E+03  0.47181613852E+03  0.00000000000E+00 0.  1.
        -15    1    1    2    0    0  0.86364724935E+01 -0.14844550415E+01  0.24159760004E+02  0.25761288717E+02  0.17770000000E+01 0.  1.
         15    1    1    2    0    0 -0.74658282897E+01  0.65950680904E+02  0.21629617792E+02  0.69830000706E+02  0.17770000000E+01 0. -1.
</event>
<event>
 6   1  0.1826851E-04  0.5028780E+03  0.7546771E-02  0.9393393E-01
        -11   -1    0    0    0    0  0.00000000000E+00  0.00000000000E+00  0.50000000000E+03  0.50000000000E+03  0.00000000000E+00 0.  1.
         11   -1    0    0    0    0 -0.00000000000E+00 -0.00000000000E+00 -0.50000000000E+03  0.50000000000E+03  0.00000000000E+00 0. -1.
        -11    1    1    2    0    0 -0.10119033619E+02  0.49105691289E+00  0.49701876505E+03  0.49712200594E+03  0.00000000000E+00 0.  1.
         11    1    1    2    0    0  0.49968311677E+01 -0.11344487632E+02 -0.46740589072E+03  0.46757024328E+03  0.00000000000E+00 0. -1.
        -15    1    1    2    0    0 -0.48862722097E+01  0.56944394973E+01 -0.10069543442E+02  0.12682891288E+02  0.17770000000E+01 0.  1.
         15    1    1    2    0    0  0.10008474661E+02  0.51589912220E+01 -0.19543330891E+02  0.22624859486E+02  0.17770000000E+01 0. -1.
</event>
<event>
 6   1  0.1826851E-04  0.5010079E+03  0.7546771E-02  0.9397557E-01
        -11   -1    0    0    0    0  0.00000000000E+00  0.00000000000E+00  0.50000000000E+03  0.50000000000E+03  0.00000000000E+00 0.  1.
         11   -1    0    0    0    0 -0.00000000000E+00 -0.00000000000E+00 -0.50000000000E+03  0.50000000000E+03  0.00000000000E+00 0.  1.
        -11    1    1    2    0    0  0.13101914035E+02  0.28999131878E+01  0.96790836978E+02  0.97716609493E+02  0.00000000000E+00 0.  1.
         11    1    1    2    0    0  0.10081096038E+02 -0.35465369751E+01 -0.49887762693E+03  0.49899207717E+03  0.00000000000E+00 0.  1.
        -15    1    1    2    0    0  0.74505218634E+00 -0.36881925357E+01  0.14280394853E+03  0.14286456282E+03  0.17770000000E+01 0.  1.
         15    1    1    2    0    0 -0.23928062260E+02  0.43348163230E+01  0.25928284143E+03  0.26042675052E+03  0.17770000000E+01 0. -1.
</event>
<event>
 6   1  0.1826851E-04  0.5006309E+03  0.7546771E-02  0.9398399E-01
        -11   -1    0    0    0    0  0.00000000000E+00  0.00000000000E+00  0.50000000000E+03  0.50000000000E+03  0.00000000000E+00 0. -1.
         11   -1    0    0    0    0 -0.00000000000E+00 -0.00000000000E+00 -0.50000000000E+03  0.50000000000E+03  0.00000000000E+00 0. -1.
        -11    1    1    2    0    0  0.16196429740E+01 -0.15868498782E+02  0.49911424464E+03  0.49936906362E+03  0.00000000000E+00 0. -1.
         11    1    1    2    0    0 -0.41442118684E+01 -0.29794649775E+01 -0.34816404428E+03  0.34820145525E+03  0.00000000000E+00 0. -1.
        -15    1    1    2    0    0  0.17128865307E-02  0.16094876525E+02 -0.99057851961E+02  0.10037260990E+03  0.17770000000E+01 0.  1.
         15    1    1    2    0    0  0.25228560079E+01  0.27530872348E+01 -0.51892348398E+02  0.52056871237E+02  0.17770000000E+01 0. -1.
</event>
<event>
 6   1  0.1826851E-04  0.5002924E+03  0.7546771E-02  0.9399156E-01
        -11   -1    0    0    0    0  0.00000000000E+00  0.00000000000E+00  0.50000000000E+03  0.50000000000E+03  0.00000000000E+00 0.  1.
         11   -1    0    0    0    0 -0.00000000000E+00 -0.00000000000E+00 -0.50000000000E+03  0.50000000000E+03  0.00000000000E+00 0. -1.
        -11    1    1    2    0    0 -0.25942369713E+01  0.74739311473E+01  0.42396340071E+02  0.43128173665E+02  0.00000000000E+00 0.  1.
         11    1    1    2    0    0  0.43765033076E+01 -0.14109487543E+02 -0.49948918022E+03  0.49970758707E+03  0.00000000000E+00 0. -1.
        -15    1    1    2    0    0  0.15955684090E+00  0.27594082432E+01  0.15279031182E+03  0.15282564218E+03  0.17770000000E+01 0.  1.
         15    1    1    2    0    0 -0.19418231772E+01  0.38761481527E+01  0.30430252832E+03  0.30433859708E+03  0.17770000000E+01 0.  1.
</event>
<event>
 6   1  0.1826851E-04  0.5038698E+03  0.7546771E-02  0.9391192E-01
        -11   -1    0    0    0    0  0.00000000000E+00  0.00000000000E+00  0.50000000000E+03  0.50000000000E+03  0.00000000000E+00 0.  1.
         11   -1    0    0    0    0 -0.00000000000E+00 -0.00000000000E+00 -0.50000000000E+03  0.50000000000E+03  0.00000000000E+00 0.  1.
        -11    1    1    2    0    0 -0.25063426899E+01 -0.17602999495E+02  0.46376394544E+03  0.46410466969E+03  0.00000000000E+00 0.  1.
         11    1    1    2    0    0 -0.14460122816E+02  0.64382926422E+01 -0.49587768184E+03  0.49613024712E+03  0.00000000000E+00 0.  1.
        -15    1    1    2    0    0  0.73301361579E+01  0.95438032867E+01  0.24127463675E+02  0.27020497954E+02  0.17770000000E+01 0.  1.
         15    1    1    2    0    0  0.96363293478E+01  0.16209035664E+01  0.79862727243E+01  0.12744585231E+02  0.17770000000E+01 0. -1.
</event>
<event>
 6   1  0.1826851E-04  0.4963910E+03  0.7546771E-02  0.9407922E-01
        -11   -1    0    0    0    0  0.00000000000E+00  0.00000000000E+00  0.50000000000E+03  0.50000000000E+03  0.00000000000E+00 0.  1.
         11   -1    0    0    0    0 -0.00000000000E+00 -0.00000000000E+00 -0.50000000000E+03  0.50000000000E+03  0.00000000000E+00 0. -1.
        -11    1    1    2    0    0  0.10641648333E+01  0.76253529064E+01  0.49560032429E+03  0.49566012538E+03  0.00000000000E+00 0.  1.
         11    1    1    2    0    0 -0.44376561633E+01 -0.51721479233E+01 -0.49708497032E+03  0.49713168439E+03  0.00000000000E+00 0. -1.
        -15    1    1    2    0    0  0.26167307750E+01 -0.19172492551E+01  0.29451831795E+01  0.47281029616E+01  0.17770000000E+01 0.  1.
         15    1    1    2    0    0  0.75676055511E+00 -0.53595572797E+00 -0.14605371483E+01  0.24800872649E+01  0.17770000000E+01 0. -1.
</event>
<event>
 6   1  0.1826851E-04  0.4396332E+03  0.7546771E-02  0.9546042E-01
        -11   -1    0    0    0    0  0.00000000000E+00  0.00000000000E+00  0.50000000000E+03  0.50000000000E+03  0.00000000000E+00 0. -1.
         11   -1    0    0    0    0 -0.00000000000E+00 -0.00000000000E+00 -0.50000000000E+03  0.50000000000E+03  0.00000000000E+00 0. -1.
        -11    1    1    2    0    0 -0.59133990021E+02 -0.67605431064E+02  0.40417736379E+03  0.41403703274E+03  0.00000000000E+00 0. -1.
         11    1    1    2    0    0  0.13270000755E+02  0.13559051128E+00 -0.47137224340E+03  0.47155901343E+03  0.00000000000E+00 0. -1.
        -15    1    1    2    0    0 -0.64789571348E+01  0.49374185670E+01 -0.57436632925E+00  0.83571893206E+01  0.17770000000E+01 0. -1.
         15    1    1    2    0    0  0.52342946401E+02  0.62532421986E+02  0.67769245941E+02  0.10604676450E+03  0.17770000000E+01 0.  1.
</event>
<event>
 6   1  0.1826851E-04  0.5096422E+03  0.7546771E-02  0.9378489E-01
        -11   -1    0    0    0    0  0.00000000000E+00  0.00000000000E+00  0.50000000000E+03  0.50000000000E+03  0.00000000000E+00 0.  1.
         11   -1    0    0    0    0 -0.00000000000E+00 -0.00000000000E+00 -0.50000000000E+03  0.50000000000E+03  0.00000000000E+00 0. -1.
        -11    1    1    2    0    0  0.12641692649E+02  0.29381488379E+02  0.48931352743E+03  0.49035784116E+03  0.00000000000E+00 0.  1.
         11    1    1    2    0    0  0.11763251861E+01 -0.15790905059E+02 -0.45336788043E+03  0.45364432260E+03  0.00000000000E+00 0. -1.
        -15    1    1    2    0    0 -0.12194980993E+02 -0.85186221892E+01  0.41225484959E+01  0.15538263112E+02  0.17770000000E+01 0.  1.
         15    1    1    2    0    0 -0.16230368414E+01 -0.50719611311E+01 -0.40068195499E+02  0.40459573130E+02  0.17770000000E+01 0. -1.
</event>
<event>
 6   1  0.1826851E-04  0.5004007E+03  0.7546771E-02  0.9398914E-01
        -11   -1    0    0    0    0  0.00000000000E+00  0.00000000000E+00  0.50000000000E+03  0.50000000000E+03  0.00000000000E+00 0.  1.
         11   -1    0    0    0    0 -0.00000000000E+00 -0.00000000000E+00 -0.50000000000E+03  0.50000000000E+03  0.00000000000E+00 0. -1.
        -11    1    1    2    0    0 -0.45253971946E+01 -0.70224229716E+01  0.26176109373E+03  0.26189437534E+03  0.00000000000E+00 0.  1.
         11    1    1    2    0    0  0.69308448208E+01  0.26239765285E+01 -0.49954435984E+03  0.49959932878E+03  0.00000000000E+00 0. -1.
        -15    1    1    2    0    0 -0.52573547186E+01 -0.32537596779E+01  0.37430473924E+02  0.37979268527E+02  0.17770000000E+01 0. -1.
         15    1    1    2    0    0  0.28519070923E+01  0.76522061210E+01  0.20035279219E+03  0.20052702735E+03  0.17770000000E+01 0.  1.
</event>
<event>
 6   1  0.1826851E-04  0.5005024E+03  0.7546771E-02  0.9398686E-01
        -11   -1    0    0    0    0  0.00000000000E+00  0.00000000000E+00  0.50000000000E+03  0.50000000000E+03  0.00000000000E+00 0. -1.
         11   -1    0    0    0    0 -0.00000000000E+00 -0.00000000000E+00 -0.50000000000E+03  0.50000000000E+03  0.00000000000E+00 0. -1.
        -11    1    1    2    0    0  0.22161170132E+01  0.11488228583E+02  0.49936053384E+03  0.49949758090E+03  0.00000000000E+00 0. -1.
         11    1    1    2    0    0 -0.69955861684E+01 -0.49542860360E+01 -0.43578279186E+03  0.43586709541E+03  0.00000000000E+00 0. -1.
        -15    1    1    2    0    0  0.37674545393E+01 -0.62361938764E+01 -0.27673555716E+02  0.28671715029E+02  0.17770000000E+01 0.  1.
         15    1    1    2    0    0  0.10120146158E+01 -0.29774867020E+00 -0.35904186259E+02  0.35963608659E+02  0.17770000000E+01 0. -1.
</event>
<event>
 6   1  0.1826851E-04  0.5001295E+03  0.7546771E-02  0.9399520E-01
        -11   -1    0    0    0    0  0.00000000000E+00  0.00000000000E+00  0.50000000000E+03  0.50000000000E+03  0.00000000000E+00 0.  1.
         11   -1    0    0    0    0 -0.00000000000E+00 -0.00000000000E+00 -0.50000000000E+03  0.50000000000E+03  0.00000000000E+00 0.  1.
        -11    1    1    2    0    0  0.20526300029E+01 -0.10256931544E+02  0.27127078572E+03  0.27147238740E+03  0.00000000000E+00 0.  1.
         11    1    1    2    0    0  0.44168269626E+01  0.81796448056E+01 -0.49978409098E+03  0.49987053579E+03  0.00000000000E+00 0.  1.
        -15    1    1    2    0    0 -0.31020077043E+01 -0.34132175443E+00  0.97193211073E+02  0.97259534031E+02  0.17770000000E+01 0.  1.
         15    1    1    2    0    0 -0.33674492613E+01  0.24186084926E+01  0.13132009419E+03  0.13139754278E+03  0.17770000000E+01 0.  1.
</event>
<event>
 6   1  0.1826851E-04  0.5002653E+03  0.7546771E-02  0.9399216E-01
        -11   -1    0    0    0    0  0.00000000000E+00  0.00000000000E+00  0.50000000000E+03  0.50000000000E+03  0.00000000000E+00 0.  1.
         11   -1    0    0    0    0 -0.00000000000E+00 -0.00000000000E+00 -0.50000000000E+03  0.50000000000E+03  0.00000000000E+00 0.  1.
        -11    1    1    2    0    0 -0.42959207908E+01 -0.14752774432E+02  0.49949845990E+03  0.49973474037E+03  0.00000000000E+00 0.  1.
         11    1    1    2    0    0  0.57221374431E+01  0.12678283675E+01 -0.35281440537E+03  0.35286308235E+03  0.00000000000E+00 0.  1.
        -15    1    1    2    0    0 -0.48916914468E+00  0.24281066440E+01 -0.21553592602E+02  0.21768097560E+02  0.17770000000E+01 0. -1.
         15    1    1    2    0    0 -0.93704750753E+00  0.11056839421E+02 -0.12513046193E+03  0.12563407972E+03  0.17770000000E+01 0. -1.
</event>
<event>
 6   1  0.1826851E-04  0.4877242E+03  0.7546771E-02  0.9427705E-01
        -11   -1    0    0    0    0  0.00000000000E+00  0.00000000000E+00  0.50000000000E+03  0.50000000000E+03  0.00000000000E+00 0. -1.
         11   -1    0    0    0    0 -0.00000000000E+00 -0.00000000000E+00 -0.50000000000E+03  0.50000000000E+03  0.00000000000E+00 0.  1.
        -11    1    1    2    0    0 -0.16842198153E+02 -0.14796150596E+02  0.48770385277E+03  0.48821883794E+03  0.00000000000E+00 0. -1.
         11    1    1    2    0    0 -0.41671706762E+01  0.67453510652E+01 -0.48742455322E+03  0.48748903594E+03  0.00000000000E+00 0.  1.
        -15    1    1    2    0    0  0.36263132235E+01  0.83834086098E+00  0.30080029970E+01  0.51047795275E+01  0.17770000000E+01 0.  1.
         15    1    1    2    0    0  0.17383055606E+02  0.72124586699E+01 -0.32873025459E+01  0.19187346594E+02  0.17770000000E+01 0. -1.
</event>
<event>
 6   1  0.1826851E-04  0.4813894E+03  0.7546771E-02  0.9442443E-01
        -11   -1    0    0    0    0  0.00000000000E+00  0.00000000000E+00  0.50000000000E+03  0.50000000000E+03  0.00000000000E+00 0.  1.
         11   -1    0    0    0    0 -0.00000000000E+00 -0.00000000000E+00 -0.50000000000E+03  0.50000000000E+03  0.00000000000E+00 0.  1.
        -11    1    1    2    0    0 -0.77004189918E+01  0.13887061356E+02  0.48376265956E+03  0.48402319955E+03  0.00000000000E+00 0.  1.
         11    1    1    2    0    0 -0.70926380853E+01 -0.47602190017E+00 -0.47892210463E+03  0.47897485781E+03  0.00000000000E+00 0.  1.
        -15    1    1    2    0    0  0.13867562887E+02 -0.60656557840E+01  0.11422063396E+02  0.19045281351E+02  0.17770000000E+01 0. -1.
         15    1    1    2    0    0  0.92549418969E+00 -0.73453836720E+01 -0.16262618325E+02  0.17956661287E+02  0.17770000000E+01 0.  1.
</event>
<event>
 6   1  0.1826851E-04  0.5021190E+03  0.7546771E-02  0.9395081E-01
        -11   -1    0    0    0    0  0.00000000000E+00  0.00000000000E+00  0.50000000000E+03  0.50000000000E+03  0.00000000000E+00 0. -1.
         11   -1    0    0    0    0 -0.00000000000E+00 -0.00000000000E+00 -0.50000000000E+03  0.50000000000E+03  0.00000000000E+00 0. -1.
        -11    1    1    2    0    0  0.24299021364E+02 -0.20288954119E+02  0.49687362935E+03  0.49788099747E+03  0.00000000000E+00 0. -1.
         11    1    1    2    0    0 -0.78057212039E+01 -0.49562171624E+01 -0.28437512872E+03  0.28452540696E+03  0.00000000000E+00 0. -1.
        -15    1    1    2    0    0 -0.50369683591E+01  0.23901376096E+02 -0.62279465636E+02  0.66921867864E+02  0.17770000000E+01 0. -1.
         15    1    1    2    0    0 -0.11456331801E+02  0.13437951858E+01 -0.15021903500E+03  0.15067172770E+03  0.17770000000E+01 0.  1.
</event>
<event>
 6   1  0.1826851E-04  0.4691198E+03  0.7546771E-02  0.9471688E-01
        -11   -1    0    0    0    0  0.00000000000E+00  0.00000000000E+00  0.50000000000E+03  0.50000000000E+03  0.00000000000E+00 0. -1.
         11   -1    0    0    0    0 -0.00000000000E+00 -0.00000000000E+00 -0.50000000000E+03  0.50000000000E+03  0.00000000000E+00 0. -1.
        -11    1    1    2    0    0 -0.17291485595E+02  0.35521771949E+02  0.46620784466E+03  0.46787877295E+03  0.00000000000E+00 0. -1.
         11    1    1    2    0    0  0.18317240002E+02  0.16297003427E+02 -0.47116687978E+03  0.47180434738E+03  0.00000000000E+00 0. -1.
        -15    1    1    2    0    0  0.10744516414E+02 -0.84005809606E+01  0.66234520041E+01  0.15265721041E+02  0.17770000000E+01 0. -1.
         15    1    1    2    0    0 -0.11770270820E+02 -0.43418194415E+02 -0.16644168865E+01  0.45051158631E+02  0.17770000000E+01 0.  1.
</event>
<event>
 6   1  0.1826851E-04  0.5032203E+03  0.7546771E-02  0.9392633E-01
        -11   -1    0    0    0    0  0.00000000000E+00  0.00000000000E+00  0.50000000000E+03  0.50000000000E+03  0.00000000000E+00 0. -1.
         11   -1    0    0    0    0 -0.00000000000E+00 -0.00000000000E+00 -0.50000000000E+03  0.50000000000E+03  0.00000000000E+00 0.  1.
        -11    1    1    2    0    0  0.16098780232E+02 -0.30245749193E+02  0.25928845882E+03  0.26154250313E+03  0.00000000000E+00 0. -1.
         11    1    1    2    0    0  0.73064536427E+01  0.10398320746E+02 -0.49661712646E+03  0.49677970936E+03  0.00000000000E+00 0.  1.
        -15    1    1    2    0    0 -0.16234350514E+02  0.26891584370E+02  0.21274851049E+03  0.21506231165E+03  0.17770000000E+01 0. -1.
         15    1    1    2    0    0 -0.71708833609E+01 -0.70441559228E+01  0.24580157148E+02  0.26615475860E+02  0.17770000000E+01 0.  1.
</event>
<event>
 6   1  0.1826851E-04  0.5001584E+03  0.7546771E-02  0.9399455E-01
        -11   -1    0    0    0    0  0.00000000000E+00  0.00000000000E+00  0.50000000000E+03  0.50000000000E+03  0.00000000000E+00 0. -1.
         11   -1    0    0    0    0 -0.00000000000E+00 -0.00000000000E+00 -0.50000000000E+03  0.50000000000E+03  0.00000000000E+00 0. -1.
        -11    1    1    2    0    0 -0.62708764499E+01  0.14546225569E+02  0.49959051575E+03  0.49984157489E+03  0.00000000000E+00 0. -1.
         11    1    1    2    0    0 -0.38569621420E+01 -0.81998265160E+00 -0.14433381439E+03  0.14438766743E+03  0.00000000000E+00 0. -1.
        -15    1    1    2    0    0  0.18989008919E+01 -0.89819312704E+01 -0.15621464338E+03  0.15649426011E+03  0.17770000000E+01 0.  1.
         15    1    1    2    0    0  0.82289377000E+01 -0.47443116472E+01 -0.19904205798E+03  0.19927649756E+03  0.17770000000E+01 0. -1.
</event>
<event>
 6   1  0.1826851E-04  0.5007756E+03  0.7546771E-02  0.9398076E-01
        -11   -1    0    0    0    0  0.00000000000E+00  0.00000000000E+00  0.50000000000E+03  0.50000000000E+03  0.00000000000E+00 0. -1.
         11   -1    0    0    0    0 -0.00000000000E+00 -0.00000000000E+00 -0.50000000000E+03  0.50000000000E+03  0.00000000000E+00 0. -1.
        -11    1    1    2    0    0  0.28403502840E+02  0.11927197463E+02  0.49827297142E+03  0.49922436946E+03  0.00000000000E+00 0. -1.
         11    1    1    2    0    0  0.25941789599E+01 -0.29894379935E+00 -0.19227121998E+03  0.19228895227E+03  0.00000000000E+00 0. -1.
        -15    1    1    2    0    0 -0.29870454518E+02 -0.10988387167E+02 -0.20522556661E+03  0.20768649360E+03  0.17770000000E+01 0. -1.
         15    1    1    2    0    0 -0.11272272825E+01 -0.63986649728E+00 -0.10077618483E+03  0.10080018467E+03  0.17770000000E+01 0.  1.
</event>
<event>
 6   1  0.1826851E-04  0.5021575E+03  0.7546771E-02  0.9394995E-01
        -11   -1    0    0    0    0  0.00000000000E+00  0.00000000000E+00  0.50000000000E+03  0.50000000000E+03  0.00000000000E+00 0.  1.
         11   -1    0    0    0    0 -0.00000000000E+00 -0.00000000000E+00 -0.50000000000E+03  0.50000000000E+03  0.00000000000E+00 0.  1.
        -11    1    1    2    0    0  0.54425972139E+02 -0.10126366554E+02  0.23823010633E+03  0.24457782669E+03  0.00000000000E+00 0.  1.
         11    1    1    2    0    0 -0.52275774283E+02 -0.92990600284E+01 -0.49500296748E+03  0.49784251215E+03  0.00000000000E+00 0.  1.
        -15    1    1    2    0    0  0.11669911322E+01  0.59328277845E+01  0.89209763241E+02  0.89432096589E+02  0.17770000000E+01 0. -1.
         15    1    1    2    0    0 -0.33171889882E+01  0.13492598798E+02  0.16756309790E+03  0.16814756457E+03  0.17770000000E+01 0.  1.
</event>
<event>
 6   1  0.1826851E-04  0.5005861E+03  0.7546771E-02  0.9398499E-01
        -11   -1    0    0    0    0  0.00000000000E+00  0.00000000000E+00  0.50000000000E+03  0.50000000000E+03  0.00000000000E+00 0.  1.
         11   -1    0    0    0    0 -0.00000000000E+00 -0.00000000000E+00 -0.50000000000E+03  0.50000000000E+03  0.00000000000E+00 0.  1.
        -11    1    1    2    0    0 -0.22715645604E+01  0.75449041741E+01  0.29808600044E+03  0.29819012264E+03  0.00000000000E+00 0.  1.
         11    1    1    2    0    0 -0.40039529344E+01  0.67582753555E+01 -0.49935212238E+03  0.49941390454E+03  0.00000000000E+00 0.  1.
        -15    1    1    2    0    0  0.43934033638E+01 -0.33388553419E+01  0.21216955490E+02  0.21994701121E+02  0.17770000000E+01 0. -1.
         15    1    1    2    0    0  0.18821141310E+01 -0.10964324188E+02  0.18004916646E+03  0.18040127169E+03  0.17770000000E+01 0.  1.
</event>
<event>
 6   1  0.1826851E-04  0.5000537E+03  0.7546771E-02  0.9399689E-01
        -11   -1    0    0    0    0  0.00000000000E+00  0.00000000000E+00  0.50000000000E+03  0.50000000000E+03  0.00000000000E+00 0.  1.
         11   -1    0    0    0    0 -0.00000000000E+00 -0.00000000000E+00 -0.50000000000E+03  0.50000000000E+03  0.00000000000E+00 0. -1.
        -11    1    1    2    0    0 -0.22405983479E+01  0.46734666242E+00  0.13344830423E+03  0.13346793096E+03  0.00000000000E+00 0.  1.
         11    1    1    2    0    0  0.18444276904E+01  0.95559197381E+01 -0.49985152703E+03  0.49994626370E+03  0.00000000000E+00 0. -1.
        -15    1    1    2    0    0  0.21213533746E+01 -0.29962234585E+01  0.11556355558E+03  0.11563550754E+03  0.17770000000E+01 0. -1.
         15    1    1    2    0    0 -0.17251827171E+01 -0.70270429420E+01  0.25083966722E+03  0.25095029780E+03  0.17770000000E+01 0.  1.
</event>
<event>
 6   1  0.1826851E-04  0.5003081E+03  0.7546771E-02  0.9399120E-01
        -11   -1    0    0    0    0  0.00000000000E+00  0.00000000000E+00  0.50000000000E+03  0.50000000000E+03  0.00000000000E+00 0. -1.
         11   -1    0    0    0    0 -0.00000000000E+00 -0.00000000000E+00 -0.50000000000E+03  0.50000000000E+03  0.00000000000E+00 0.  1.
        -11    1    1    2    0    0  0.24772025742E+01  0.78658395207E+01  0.49962380485E+03  0.49969185939E+03  0.00000000000E+00 0. -1.
         11    1    1    2    0    0 -0.53305359838E+01 -0.42938438083E+01 -0.37653826067E+03  0.37660046927E+03  0.00000000000E+00 0.  1.
        -15    1    1    2    0    0  0.35666490051E+01 -0.62870370309E+01 -0.50447144784E+02  0.50993332561E+02  0.17770000000E+01 0.  1.
         15    1    1    2    0    0 -0.71331559556E+00  0.27150413185E+01 -0.72638399396E+02  0.72714338781E+02  0.17770000000E+01 0. -1.
</event>
<event>
 6   1  0.1826851E-04  0.5012078E+03  0.7546771E-02  0.9397111E-01
        -11   -1    0    0    0    0  0.00000000000E+00  0.00000000000E+00  0.50000000000E+03  0.50000000000E+03  0.00000000000E+00 0.  1.
         11   -1    0    0    0    0 -0.00000000000E+00 -0.00000000000E+00 -0.50000000000E+03  0.50000000000E+03  0.00000000000E+00 0. -1.
        -11    1    1    2    0    0  0.40371891053E+00  0.99462024065E+01  0.49869289081E+03  0.49879223057E+03  0.00000000000E+00 0.  1.
         11    1    1    2    0    0  0.23828565752E+01  0.89953439845E+01 -0.40914883699E+03  0.40925464570E+03  0.00000000000E+00 0. -1.
        -15    1    1    2    0    0 -0.17452025646E+00 -0.13644548427E+02 -0.73239573161E+02  0.74521117577E+02  0.17770000000E+01 0. -1.
         15    1    1    2    0    0 -0.26120552292E+01 -0.52969979636E+01 -0.16304480659E+02  0.17432006153E+02  0.17770000000E+01 0.  1.
</event>
<event>
 6   1  0.1826851E-04  0.5271446E+03  0.7546771E-02  0.9341039E-01
        -11   -1    0    0    0    0  0.00000000000E+00  0.00000000000E+00  0.50000000000E+03  0.50000000000E+03  0.00000000000E+00 0.  1.
         11   -1    0    0    0    0 -0.00000000000E+00 -0.00000000000E+00 -0.50000000000E+03  0.50000000000E+03  0.00000000000E+00 0.  1.
        -11    1    1    2    0    0  0.63843208315E+02  0.86420980408E+02  0.46048634215E+03  0.47285538213E+03  0.00000000000E+00 0.  1.
         11    1    1    2    0    0 -0.34869863583E+02  0.15591061470E+01 -0.39075979699E+03  0.39231563459E+03  0.00000000000E+00 0.  1.
        -15    1    1    2    0    0 -0.45592518680E+02 -0.30175399334E+02 -0.26806700183E+02  0.60917890543E+02  0.17770000000E+01 0.  1.
         15    1    1    2    0    0  0.16619173947E+02 -0.57804687221E+02 -0.42919844976E+02  0.73911092734E+02  0.17770000000E+01 0. -1.
</event>
<event>
 6   1  0.1826851E-04  0.5080971E+03  0.7546771E-02  0.9381872E-01
        -11   -1    0    0    0    0  0.00000000000E+00  0.00000000000E+00  0.50000000000E+03  0.50000000000E+03  0.00000000000E+00 0. -1.
         11   -1    0    0    0    0 -0.00000000000E+00 -0.00000000000E+00 -0.50000000000E+03  0.50000000000E+03  0.00000000000E+00 0.  1.
        -11    1    1    2    0    0 -0.15854804416E+02  0.13666547358E+02  0.49145736067E+03  0.49190292406E+03  0.00000000000E+00 0. -1.
         11    1    1    2    0    0  0.87006821422E+01  0.84260304548E+01 -0.46648004405E+03  0.46663725886E+03  0.00000000000E+00 0.  1.
        -15    1    1    2    0    0  0.14308601301E+01 -0.29953944874E+01 -0.20639009501E+02  0.20979661366E+02  0.17770000000E+01 0. -1.
         15    1    1    2    0    0  0.57232621434E+01 -0.19097183325E+02 -0.43383071156E+01  0.20480155716E+02  0.17770000000E+01 0.  1.
</event>
<event>
 6   1  0.1826851E-04  0.4944992E+03  0.7546771E-02  0.9412203E-01
        -11   -1    0    0    0    0  0.00000000000E+00  0.00000000000E+00  0.50000000000E+03  0.50000000000E+03  0.00000000000E+00 0.  1.
         11   -1    0    0    0    0 -0.00000000000E+00 -0.00000000000E+00 -0.50000000000E+03  0.50000000000E+03  0.00000000000E+00 0.  1.
        -11    1    1    2    0    0 -0.94189488743E+01 -0.35850282596E+01  0.49283804442E+03  0.49294107869E+03  0.00000000000E+00 0.  1.
         11    1    1    2    0    0  0.72877408379E+01 -0.14449627121E+01 -0.49602198024E+03  0.49607761889E+03  0.00000000000E+00 0.  1.
        -15    1    1    2    0    0  0.30898188002E+00 -0.57400466071E+00 -0.21302410551E+01  0.28496678939E+01  0.17770000000E+01 0.  1.
         15    1    1    2    0    0  0.18222261564E+01  0.56039956324E+01  0.53141768736E+01  0.81316345255E+01  0.17770000000E+01 0. -1.
</event>
<event>
 6   1  0.1826851E-04  0.5004006E+03  0.7546771E-02  0.9398914E-01
        -11   -1    0    0    0    0  0.00000000000E+00  0.00000000000E+00  0.50000000000E+03  0.50000000000E+03  0.00000000000E+00 0.  1.
         11   -1    0    0    0    0 -0.00000000000E+00 -0.00000000000E+00 -0.50000000000E+03  0.50000000000E+03  0.00000000000E+00 0. -1.
        -11    1    1    2    0    0 -0.15467787567E+02  0.56767748791E+01  0.37895374091E+03  0.37931176619E+03  0.00000000000E+00 0.  1.
         11    1    1    2    0    0  0.63433749116E+01 -0.71888382801E+01 -0.49950739601E+03  0.49959939599E+03  0.00000000000E+00 0. -1.
        -15    1    1    2    0    0  0.45695854203E+01  0.31820062917E+01  0.78855839753E+02  0.79072166198E+02  0.17770000000E+01 0.  1.
         15    1    1    2    0    0  0.45548272351E+01 -0.16699428907E+01  0.41697815351E+02  0.42016671625E+02  0.17770000000E+01 0.  1.
</event>
<event>
 6   1  0.1826851E-04  0.5017858E+03  0.7546771E-02  0.9395823E-01
        -11   -1    0    0    0    0  0.00000000000E+00  0.00000000000E+00  0.50000000000E+03  0.50000000000E+03  0.00000000000E+00 0.  1.
         11   -1    0    0    0    0 -0.00000000000E+00 -0.00000000000E+00 -0.50000000000E+03  0.50000000000E+03  0.00000000000E+00 0. -1.
        -11    1    1    2    0    0 -0.76807124782E+01  0.86402663798E+01  0.49808008513E+03  0.49821422978E+03  0.00000000000E+00 0.  1.
         11    1    1    2    0    0 -0.13137098718E+01  0.86714350963E+01 -0.42755995419E+03  0.42764989659E+03  0.00000000000E+00 0. -1.
        -15    1    1    2    0    0  0.97540855336E+01 -0.14139032300E+02 -0.42559666059E+02  0.45929699792E+02  0.17770000000E+01 0. -1.
         15    1    1    2    0    0 -0.75966318357E+00 -0.31726691764E+01 -0.27960464878E+02  0.28206173846E+02  0.17770000000E+01 0.  1.
</event>
<event>
 6   1  0.1826851E-04  0.5012627E+03  0.7546771E-02  0.9396989E-01
        -11   -1    0    0    0    0  0.00000000000E+00  0.00000000000E+00  0.50000000000E+03  0.50000000000E+03  0.00000000000E+00 0.  1.
         11   -1    0    0    0    0 -0.00000000000E+00 -0.00000000000E+00 -0.50000000000E+03  0.50000000000E+03  0.00000000000E+00 0.  1.
        -11    1    1    2    0    0 -0.52325505142E+02 -0.57464183410E+01  0.49595148093E+03  0.49873725673E+03  0.00000000000E+00 0.  1.
         11    1    1    2    0    0  0.19631579367E+01  0.18984994013E+01 -0.12788207593E+03  0.12791123341E+03  0.00000000000E+00 0.  1.
        -15    1    1    2    0    0  0.50570722985E+02 -0.31282452681E+01 -0.25146065908E+03  0.25652057371E+03  0.17770000000E+01 0. -1.
         15    1    1    2    0    0 -0.20837578005E+00  0.69761642077E+01 -0.11660874593E+03  0.11683093615E+03  0.17770000000E+01 0.  1.
</event>
<event>
 6   1  0.1826851E-04  0.5027675E+03  0.7546771E-02  0.9393638E-01
        -11   -1    0    0    0    0  0.00000000000E+00  0.00000000000E+00  0.50000000000E+03  0.50000000000E+03  0.00000000000E+00 0.  1.
         11   -1    0    0    0    0 -0.00000000000E+00 -0.00000000000E+00 -0.50000000000E+03  0.50000000000E+03  0.00000000000E+00 0. -1.
        -11    1    1    2    0    0  0.23719217914E+02  0.54138417998E+01  0.13298883838E+03  0.13519593972E+03  0.00000000000E+00 0.  1.
         11    1    1    2    0    0  0.93155789450E+01 -0.93544435512E+01 -0.49705723168E+03  0.49723251823E+03  0.00000000000E+00 0. -1.
        -15    1    1    2    0    0 -0.12641949174E+02  0.16203848020E+02  0.25933468933E+03  0.26015384369E+03  0.17770000000E+01 0.  1.
         15    1    1    2    0    0 -0.20392847684E+02 -0.12263246269E+02  0.10473370397E+03  0.10741769836E+03  0.17770000000E+01 0. -1.
</event>
<event>
 6   1  0.1826851E-04  0.5007989E+03  0.7546771E-02  0.9398024E-01
        -11   -1    0    0    0    0  0.00000000000E+00  0.00000000000E+00  0.50000000000E+03  0.50000000000E+03  0.00000000000E+00 0. -1.
         11   -1    0    0    0    0 -0.00000000000E+00 -0.00000000000E+00 -0.50000000000E+03  0.50000000000E+03  0.00000000000E+00 0. -1.
        -11    1    1    2    0    0 -0.10980372061E+01 -0.47120004341E+01  0.16537319238E+02  0.17230541529E+02  0.00000000000E+00 0. -1.
         11    1    1    2    0    0  0.83174015904E+01  0.28688932806E+00 -0.49913168013E+03  0.49920105727E+03  0.00000000000E+00 0. -1.
        -15    1    1    2    0    0 -0.91967330427E+00  0.21032561821E+01  0.41001372518E+01  0.50237774670E+01  0.17770000000E+01 0.  1.
         15    1    1    2    0    0 -0.62996910801E+01  0.23218549239E+01  0.47849422364E+03  0.47854462373E+03  0.17770000000E+01 0. -1.
</event>
<event>
 6   1  0.1826851E-04  0.5323083E+03  0.7546771E-02  0.9330285E-01
        -11   -1    0    0    0    0  0.00000000000E+00  0.00000000000E+00  0.50000000000E+03  0.50000000000E+03  0.00000000000E+00 0. -1.
         11   -1    0    0    0    0 -0.00000000000E+00 -0.00000000000E+00 -0.50000000000E+03  0.50000000000E+03  0.00000000000E+00 0.  1.
        -11    1    1    2    0    0 -0.25800550441E+01  0.21535726411E+03  0.41515071366E+03  0.46769169646E+03  0.00000000000E+00 0. -1.
         11    1    1    2    0    0  0.12462765536E+02  0.11332689024E+02 -0.24588386729E+03  0.24646019265E+03  0.00000000000E+00 0.  1.
        -15    1    1    2    0    0 -0.20372848948E+01 -0.33115718116E+02 -0.44005809374E+02  0.55140459771E+02  0.17770000000E+01 0. -1.
         15    1    1    2    0    0 -0.78454255974E+01 -0.19357423502E+03 -0.12526103699E+03  0.23070765112E+03  0.17770000000E+01 0.  1.
</event>
<event>
 6   1  0.1826851E-04  0.5018837E+03  0.7546771E-02  0.9395605E-01
        -11   -1    0    0    0    0  0.00000000000E+00  0.00000000000E+00  0.50000000000E+03  0.50000000000E+03  0.00000000000E+00 0.  1.
         11   -1    0    0    0    0 -0.00000000000E+00 -0.00000000000E+00 -0.50000000000E+03  0.50000000000E+03  0.00000000000E+00 0. -1.
        -11    1    1    2    0    0  0.14893881432E+02 -0.17028994179E+03  0.43910243545E+03  0.47120212308E+03  0.00000000000E+00 0.  1.
         11    1    1    2    0    0 -0.20849219976E+02  0.16905959218E+03 -0.46808542419E+03  0.49811625151E+03  0.00000000000E+00 0. -1.
        -15    1    1    2    0    0  0.65910672849E+01 -0.57055294745E+00  0.24991137852E+02  0.25912977419E+02  0.17770000000E+01 0.  1.
         15    1    1    2    0    0 -0.63572874088E+00  0.18009025637E+01  0.39918508895E+01  0.47686479845E+01  0.17770000000E+01 0. -1.
</event>
<event>
 6   1  0.1826851E-04  0.5082997E+03  0.7546771E-02  0.9381428E-01
        -11   -1    0    0    0    0  0.00000000000E+00  0.00000000000E+00  0.50000000000E+03  0.50000000000E+03  0.00000000000E+00 0. -1.
         11   -1    0    0    0    0 -0.00000000000E+00 -0.00000000000E+00 -0.50000000000E+03  0.50000000000E+03  0.00000000000E+00 0. -1.
        -11    1    1    2    0    0 -0.88770928378E+01 -0.91586381720E+01  0.47439625865E+03  0.47456769133E+03  0.00000000000E+00 0. -1.
         11    1    1    2    0    0  0.51994848516E+01 -0.13200027352E+02 -0.49149555519E+03  0.49170027062E+03  0.00000000000E+00 0. -1.
        -15    1    1    2    0    0  0.35970653459E+01  0.13394374589E+02 -0.40211670355E+00  0.13988122697E+02  0.17770000000E+01 0. -1.
         15    1    1    2    0    0  0.80542640256E-01  0.89642909344E+01  0.17501413237E+02  0.19743915350E+02  0.17770000000E+01 0.  1.
</event>
<event>
 6   1  0.1826851E-04  0.4702531E+03  0.7546771E-02  0.9468947E-01
        -11   -1    0    0    0    0  0.00000000000E+00  0.00000000000E+00  0.50000000000E+03  0.50000000000E+03  0.00000000000E+00 0. -1.
         11   -1    0    0    0    0 -0.00000000000E+00 -0.00000000000E+00 -0.50000000000E+03  0.50000000000E+03  0.00000000000E+00 0. -1.
        -11    1    1    2    0    0 -0.26176679081E+02  0.49045064167E+02 -0.15697994750E+02  0.57767325419E+02  0.00000000000E+00 0. -1.
         11    1    1    2    0    0  0.42267926018E+01 -0.45527481171E+02 -0.46185729350E+03  0.46411504703E+03  0.00000000000E+00 0. -1.
        -15    1    1    2    0    0  0.19642849106E+02 -0.28022817300E+01  0.38659495721E+03  0.38710788286E+03  0.17770000000E+01 0. -1.
         15    1    1    2    0    0  0.23070373731E+01 -0.71530126575E+00  0.90960331038E+02  0.91009744691E+02  0.17770000000E+01 0. -1.
</event>
<event>
 6   1  0.1826851E-04  0.5002656E+03  0.7546771E-02  0.9399216E-01
        -11   -1    0    0    0    0  0.00000000000E+00  0.00000000000E+00  0.50000000000E+03  0.50000000000E+03  0.00000000000E+00 0.  1.
         11   -1    0    0    0    0 -0.00000000000E+00 -0.00000000000E+00 -0.50000000000E+03  0.50000000000E+03  0.00000000000E+00 0. -1.
        -11    1    1    2    0    0 -0.14112799323E+01  0.61639147254E+01  0.13043551365E+03  0.13058870080E+03  0.00000000000E+00 0.  1.
         11    1    1    2    0    0  0.16043935742E+02  0.55896356432E+01 -0.49944553605E+03  0.49973442485E+03  0.00000000000E+00 0. -1.
        -15    1    1    2    0    0 -0.13333203540E+02 -0.96222020377E+01  0.35231700183E+03  0.35270495970E+03  0.17770000000E+01 0.  1.
         15    1    1    2    0    0 -0.12994522695E+01 -0.21313483309E+01  0.16693020567E+02  0.16971914640E+02  0.17770000000E+01 0. -1.
</event>
<event>
 6   1  0.1826851E-04  0.5002699E+03  0.7546771E-02  0.9399206E-01
        -11   -1    0    0    0    0  0.00000000000E+00  0.00000000000E+00  0.50000000000E+03  0.50000000000E+03  0.00000000000E+00 0.  1.
         11   -1    0    0    0    0 -0.00000000000E+00 -0.00000000000E+00 -0.50000000000E+03  0.50000000000E+03  0.00000000000E+00 0. -1.
        -11    1    1    2    0    0  0.81965208469E+00 -0.31012846801E+01  0.11371105177E+02  0.11814898610E+02  0.00000000000E+00 0.  1.
         11    1    1    2    0    0 -0.34991082557E+01 -0.10009609823E+02 -0.49961762196E+03  0.49973013139E+03  0.00000000000E+00 0. -1.
        -15    1    1    2    0    0  0.17511757039E+01  0.10649283642E+02  0.40573690164E+03  0.40588429994E+03  0.17770000000E+01 0.  1.
         15    1    1    2    0    0  0.92828046714E+00  0.24616108613E+01  0.82509615148E+02  0.82570670057E+02  0.17770000000E+01 0.  1.
</event>
<event>
 6   1  0.1826851E-04  0.5002359E+03  0.7546771E-02  0.9399282E-01
        -11   -1    0    0    0    0  0.00000000000E+00  0.00000000000E+00  0.50000000000E+03  0.50000000000E+03  0.00000000000E+00 0.  1.
         11   -1    0    0    0    0 -0.00000000000E+00 -0.00000000000E+00 -0.50000000000E+03  0.50000000000E+03  0.00000000000E+00 0. -1.
        -11    1    1    2    0    0  0.12593367652E+00 -0.47253299954E+01  0.26711350661E+02  0.27126386730E+02  0.00000000000E+00 0.  1.
         11    1    1    2    0    0  0.15617086544E+02  0.44010614162E+01 -0.49950068385E+03  0.49976414027E+03  0.00000000000E+00 0. -1.
        -15    1    1    2    0    0 -0.26592924497E+01 -0.22950970168E+01  0.11124811780E+03  0.11131774678E+03  0.17770000000E+01 0. -1.
         15    1    1    2    0    0 -0.13083727770E+02  0.26193655960E+01  0.36154121539E+03  0.36179172622E+03  0.17770000000E+01 0.  1.
</event>
<event>
 6   1  0.1826851E-04  0.5003011E+03  0.7546771E-02  0.9399136E-01
        -11   -1    0    0    0    0  0.00000000000E+00  0.00000000000E+00  0.50000000000E+03  0.50000000000E+03  0.00000000000E+00 0.  1.
         11   -1    0    0    0    0 -0.00000000000E+00 -0.00000000000E+00 -0.50000000000E+03  0.50000000000E+03  0.00000000000E+00 0. -1.
        -11    1    1    2    0    0 -0.64825227991E+01 -0.55570606543E+01  0.49962597868E+03  0.49969893195E+03  0.00000000000E+00 0.  1.
         11    1    1    2    0    0  0.33672226260E+01 -0.60600172163E+01 -0.36332236967E+03  0.36338850601E+03  0.00000000000E+00 0. -1.
        -15    1    1    2    0    0  0.10353994232E+01  0.68400938199E+01 -0.63299988512E+02  0.63701689225E+02  0.17770000000E+01 0.  1.
         15    1    1    2    0    0  0.20799007499E+01  0.47769840507E+01 -0.73003620498E+02  0.73210872817E+02  0.17770000000E+01 0. -1.
</event>
<event>
 6   1  0.1826851E-04  0.5009937E+03  0.7546771E-02  0.9397589E-01
        -11   -1    0    0    0    0  0.00000000000E+00  0.00000000000E+00  0.50000000000E+03  0.50000000000E+03  0.00000000000E+00 0.  1.
         11   -1    0    0    0    0 -0.00000000000E+00 -0.00000000000E+00 -0.50000000000E+03  0.50000000000E+03  0.00000000000E+00 0. -1.
        -11    1    1    2    0    0  0.19231450675E+01  0.21242857672E+02  0.49855019058E+03  0.49900626250E+03  0.00000000000E+00 0.  1.
         11    1    1    2    0    0  0.72556312665E+01 -0.10268918911E+02 -0.35580672040E+03  0.35602881508E+03  0.00000000000E+00 0. -1.
        -15    1    1    2    0    0 -0.21270965776E+01  0.56580850950E+01 -0.22755343364E+02  0.23611477027E+02  0.17770000000E+01 0. -1.
         15    1    1    2    0    0 -0.70516797564E+01 -0.16632023857E+02 -0.11998812681E+03  0.12135344540E+03  0.17770000000E+01 0.  1.
</event>
<event>
 6   1  0.1826851E-04  0.5012338E+03  0.7546771E-02  0.9397053E-01
        -11   -1    0    0    0    0  0.00000000000E+00  0.00000000000E+00  0.50000000000E+03  0.50000000000E+03  0.00000000000E+00 0. -1.
         11   -1    0    0    0    0 -0.00000000000E+00 -0.00000000000E+00 -0.50000000000E+03  0.50000000000E+03  0.00000000000E+00 0. -1.
        -11    1    1    2    0    0  0.13486608876E+02 -0.82042127609E+01  0.49851629778E+03  0.49876617455E+03  0.00000000000E+00 0. -1.
         11    1    1    2    0    0 -0.11905489108E+01 -0.87995578455E+01 -0.40073056491E+03  0.40082893518E+03  0.00000000000E+00 0. -1.
        -15    1    1    2    0    0 -0.85807996037E+01  0.13174860857E+02 -0.84649913413E+02  0.86116041771E+02  0.17770000000E+01 0. -1.
         15    1    1    2    0    0 -0.37152603617E+01  0.38289097492E+01 -0.13135819460E+02  0.14288848495E+02  0.17770000000E+01 0.  1.
</event>
<event>
 6   1  0.1826851E-04  0.5002453E+03  0.7546771E-02  0.9399261E-01
        -11   -1    0    0    0    0  0.00000000000E+00  0.00000000000E+00  0.50000000000E+03  0.50000000000E+03  0.00000000000E+00 0. -1.
         11   -1    0    0    0    0 -0.00000000000E+00 -0.00000000000E+00 -0.50000000000E+03  0.50000000000E+03  0.00000000000E+00 0. -1.
        -11    1    1    2    0    0  0.25812856844E+01  0.45035216589E+01  0.14449788857E+03  0.14459109428E+03  0.00000000000E+00 0. -1.
         11    1    1    2    0    0  0.14622275740E+02 -0.10417918508E+02 -0.49943204629E+03  0.49975465264E+03  0.00000000000E+00 0. -1.
        -15    1    1    2    0    0 -0.14958612751E+02  0.14132694458E+01  0.31528708024E+03  0.31564989803E+03  0.17770000000E+01 0. -1.
         15    1    1    2    0    0 -0.22449486733E+01  0.45011274035E+01  0.39647077472E+02  0.40004355057E+02  0.17770000000E+01 0.  1.
</event>
<event>
 6   1  0.1826851E-04  0.5017963E+03  0.7546771E-02  0.9395799E-01
        -11   -1    0    0    0    0  0.00000000000E+00  0.00000000000E+00  0.50000000000E+03  0.50000000000E+03  0.00000000000E+00 0.  1.
         11   -1    0    0    0    0 -0.00000000000E+00 -0.00000000000E+00 -0.50000000000E+03  0.50000000000E+03  0.00000000000E+00 0. -1.
        -11    1    1    2    0    0 -0.87120547473E+01 -0.83986068575E+01  0.48107885332E+03  0.48123102519E+03  0.00000000000E+00 0.  1.
         11    1    1    2    0    0  0.47517839238E+01  0.51283645360E+01 -0.49815468114E+03  0.49820373937E+03  0.00000000000E+00 0. -1.
        -15    1    1    2    0    0 -0.30263328394E+01  0.30620575842E+00  0.38917738743E+01  0.52493890416E+01  0.17770000000E+01 0. -1.
         15    1    1    2    0    0  0.69866036629E+01  0.29640365631E+01  0.13184053953E+02  0.15315846406E+02  0.17770000000E+01 0.  1.
</event>
<event>
 6   1  0.1826851E-04  0.5043982E+03  0.7546771E-02  0.9390022E-01
        -11   -1    0    0    0    0  0.00000000000E+00  0.00000000000E+00  0.50000000000E+03  0.50000000000E+03  0.00000000000E+00 0. -1.
         11   -1    0    0    0    0 -0.00000000000E+00 -0.00000000000E+00 -0.50000000000E+03  0.50000000000E+03  0.00000000000E+00 0.  1.
        -11    1    1    2    0    0 -0.14455684840E+02  0.12627670286E+02  0.43146972518E+03  0.43189645591E+03  0.00000000000E+00 0. -1.
         11    1    1    2    0    0 -0.12211687773E+02  0.34636424482E+01 -0.49543922639E+03  0.49560180506E+03  0.00000000000E+00 0.  1.
        -15    1    1    2    0    0  0.21847152044E+02 -0.14017171138E+02  0.60766541240E+02  0.66102264730E+02  0.17770000000E+01 0. -1.
         15    1    1    2    0    0  0.48202205691E+01 -0.20741415964E+01  0.32029599644E+01  0.63994742933E+01  0.17770000000E+01 0.  1.
</event>
<event>
 6   1  0.1826851E-04  0.5001544E+03  0.7546771E-02  0.9399464E-01
        -11   -1    0    0    0    0  0.00000000000E+00  0.00000000000E+00  0.50000000000E+03  0.50000000000E+03  0.00000000000E+00 0.  1.
         11   -1    0    0    0    0 -0.00000000000E+00 -0.00000000000E+00 -0.50000000000E+03  0.50000000000E+03  0.00000000000E+00 0. -1.
        -11    1    1    2    0    0 -0.14121501302E+02 -0.13713227112E+02  0.49945790853E+03  0.49984564797E+03  0.00000000000E+00 0.  1.
         11    1    1    2    0    0  0.12297553537E+02  0.13288042574E+02 -0.46226859580E+03  0.46262301776E+03  0.00000000000E+00 0. -1.
        -15    1    1    2    0    0  0.11798942196E+01 -0.10104160851E+01 -0.11963270808E+02  0.12193878319E+02  0.17770000000E+01 0.  1.
         15    1    1    2    0    0  0.64405354491E+00  0.14356006235E+01 -0.25226041923E+02  0.25337455954E+02  0.17770000000E+01 0.  1.
</event>
<event>
 6   1  0.1826851E-04  0.4949706E+03  0.7546771E-02  0.9411134E-01
        -11   -1    0    0    0    0  0.00000000000E+00  0.00000000000E+00  0.50000000000E+03  0.50000000000E+03  0.00000000000E+00 0. -1.
         11   -1    0    0    0    0 -0.00000000000E+00 -0.00000000000E+00 -0.50000000000E+03  0.50000000000E+03  0.00000000000E+00 0.  1.
        -11    1    1    2    0    0 -0.90919870857E+01  0.66060808432E+01  0.49557436579E+03  0.49570178188E+03  0.00000000000E+00 0. -1.
         11    1    1    2    0    0  0.48696652744E+01 -0.11886994411E+02 -0.49409665337E+03  0.49426361099E+03  0.00000000000E+00 0.  1.
        -15    1    1    2    0    0  0.46900286881E+01  0.23540667982E+01  0.11926135548E+01  0.56672793894E+01  0.17770000000E+01 0.  1.
         15    1    1    2    0    0 -0.46770687690E+00  0.29268467700E+01 -0.26703259746E+01  0.43673277354E+01  0.17770000000E+01 0. -1.
</event>
<event>
 6   1  0.1826851E-04  0.5002519E+03  0.7546771E-02  0.9399246E-01
        -11   -1    0    0    0    0  0.00000000000E+00  0.00000000000E+00  0.50000000000E+03  0.50000000000E+03  0.00000000000E+00 0.  1.
         11   -1    0    0    0    0 -0.00000000000E+00 -0.00000000000E+00 -0.50000000000E+03  0.50000000000E+03  0.00000000000E+00 0. -1.
        -11    1    1    2    0    0 -0.25570745685E+01  0.51101589849E+01  0.52933913181E+02  0.53241445509E+02  0.00000000000E+00 0.  1.
         11    1    1    2    0    0 -0.15343201629E+01  0.84932975111E+01 -0.49967353057E+03  0.49974806392E+03  0.00000000000E+00 0. -1.
        -15    1    1    2    0    0  0.35449915369E+01 -0.12653551252E+02  0.40713232889E+03  0.40734821748E+03  0.17770000000E+01 0.  1.
         15    1    1    2    0    0  0.54640319451E+00 -0.94990524361E+00  0.39607288491E+02  0.39662273094E+02  0.17770000000E+01 0.  1.
</event>
<event>
 6   1  0.1826851E-04  0.5012476E+03  0.7546771E-02  0.9397022E-01
        -11   -1    0    0    0    0  0.00000000000E+00  0.00000000000E+00  0.50000000000E+03  0.50000000000E+03  0.00000000000E+00 0.  1.
         11   -1    0    0    0    0 -0.00000000000E+00 -0.00000000000E+00 -0.50000000000E+03  0.50000000000E+03  0.00000000000E+00 0.  1.
        -11    1    1    2    0    0 -0.67757419471E+01  0.10391275859E+02  0.49859809549E+03  0.49875239359E+03  0.00000000000E+00 0.  1.
         11    1    1    2    0    0 -0.60114343603E+01 -0.25023016569E+00 -0.44113714632E+03  0.44117817468E+03  0.00000000000E+00 0.  1.
        -15    1    1    2    0    0  0.10273132318E+02 -0.72290674613E+01 -0.35388858631E+02  0.37594224400E+02  0.17770000000E+01 0. -1.
         15    1    1    2    0    0  0.25140439890E+01 -0.29119782318E+01 -0.22072090539E+02  0.22475207322E+02  0.17770000000E+01 0.  1.
</event>
<event>
 6   1  0.1826851E-04  0.5061505E+03  0.7546771E-02  0.9386152E-01
        -11   -1    0    0    0    0  0.00000000000E+00  0.00000000000E+00  0.50000000000E+03  0.50000000000E+03  0.00000000000E+00 0. -1.
         11   -1    0    0    0    0 -0.00000000000E+00 -0.00000000000E+00 -0.50000000000E+03  0.50000000000E+03  0.00000000000E+00 0. -1.
        -11    1    1    2    0    0 -0.45483895761E+02 -0.67744404083E+01  0.35983686684E+03  0.36276335062E+03  0.00000000000E+00 0. -1.
         11    1    1    2    0    0  0.41156787128E+01  0.14540024676E+02 -0.49361822747E+03  0.49384947668E+03  0.00000000000E+00 0. -1.
        -15    1    1    2    0    0  0.16300613725E+02 -0.10565692044E+02  0.95751462023E+02  0.97718186970E+02  0.17770000000E+01 0. -1.
         15    1    1    2    0    0  0.25067603323E+02  0.28001077764E+01  0.38029898605E+02  0.45668985722E+02  0.17770000000E+01 0.  1.
</event>
<event>
 6   1  0.1826851E-04  0.5165549E+03  0.7546771E-02  0.9363510E-01
        -11   -1    0    0    0    0  0.00000000000E+00  0.00000000000E+00  0.50000000000E+03  0.50000000000E+03  0.00000000000E+00 0. -1.
         11   -1    0    0    0    0 -0.00000000000E+00 -0.00000000000E+00 -0.50000000000E+03  0.50000000000E+03  0.00000000000E+00 0.  1.
        -11    1    1    2    0    0  0.10826453495E+03 -0.24486907136E+03  0.40253832500E+03  0.48344511036E+03  0.00000000000E+00 0. -1.
         11    1    1    2    0    0 -0.87262874364E+02  0.76767893270E+02 -0.28101904561E+03  0.30410495339E+03  0.00000000000E+00 0.  1.
        -15    1    1    2    0    0 -0.26737688486E+02  0.13608568232E+03 -0.81581399624E+02  0.16091270743E+03  0.17770000000E+01 0. -1.
         15    1    1    2    0    0  0.57360278977E+01  0.32015495773E+02 -0.39937879765E+02  0.51537228823E+02  0.17770000000E+01 0.  1.
</event>
<event>
 6   1  0.1826851E-04  0.5123076E+03  0.7546771E-02  0.9372684E-01
        -11   -1    0    0    0    0  0.00000000000E+00  0.00000000000E+00  0.50000000000E+03  0.50000000000E+03  0.00000000000E+00 0. -1.
         11   -1    0    0    0    0 -0.00000000000E+00 -0.00000000000E+00 -0.50000000000E+03  0.50000000000E+03  0.00000000000E+00 0. -1.
        -11    1    1    2    0    0  0.47538216030E+02 -0.59737919640E+01  0.48533321417E+03  0.48769242044E+03  0.00000000000E+00 0. -1.
         11    1    1    2    0    0 -0.58734356783E+01 -0.24757222041E+01 -0.39759897422E+03  0.39765006066E+03  0.00000000000E+00 0. -1.
        -15    1    1    2    0    0 -0.41179250558E+02 -0.15281126783E+02 -0.32985416818E+02  0.54958520395E+02  0.17770000000E+01 0. -1.
         15    1    1    2    0    0 -0.48552979367E+00  0.23730640951E+02 -0.54748823136E+02  0.59698998508E+02  0.17770000000E+01 0.  1.
</event>
<event>
 6   1  0.1826851E-04  0.5011469E+03  0.7546771E-02  0.9397247E-01
        -11   -1    0    0    0    0  0.00000000000E+00  0.00000000000E+00  0.50000000000E+03  0.50000000000E+03  0.00000000000E+00 0. -1.
         11   -1    0    0    0    0 -0.00000000000E+00 -0.00000000000E+00 -0.50000000000E+03  0.50000000000E+03  0.00000000000E+00 0. -1.
        -11    1    1    2    0    0  0.14887431690E+02  0.10935731769E+01  0.49862967081E+03  0.49885306468E+03  0.00000000000E+00 0. -1.
         11    1    1    2    0    0  0.32484403954E+01 -0.86999380105E+01 -0.37224494236E+03  0.37236076377E+03  0.00000000000E+00 0. -1.
        -15    1    1    2    0    0 -0.82615385459E+01  0.10645972600E+02 -0.85769553522E+02  0.86839874436E+02  0.17770000000E+01 0.  1.
         15    1    1    2    0    0 -0.98743335390E+01 -0.30396077664E+01 -0.40615174928E+02  0.41946297115E+02  0.17770000000E+01 0. -1.
</event>
<event>
 6   1  0.1826851E-04  0.5006765E+03  0.7546771E-02  0.9398297E-01
        -11   -1    0    0    0    0  0.00000000000E+00  0.00000000000E+00  0.50000000000E+03  0.50000000000E+03  0.00000000000E+00 0.  1.
         11   -1    0    0    0    0 -0.00000000000E+00 -0.00000000000E+00 -0.50000000000E+03  0.50000000000E+03  0.00000000000E+00 0. -1.
        -11    1    1    2    0    0  0.22679341772E+02 -0.38968985432E+02  0.49728367848E+03  0.49932353364E+03  0.00000000000E+00 0.  1.
         11    1    1    2    0    0  0.11796034710E+01 -0.34619159289E+00 -0.33912344494E+02  0.33934619816E+02  0.00000000000E+00 0. -1.
        -15    1    1    2    0    0  0.29279127786E+01  0.19082387546E+02 -0.24868495388E+03  0.24943952013E+03  0.17770000000E+01 0.  1.
         15    1    1    2    0    0 -0.26786858021E+02  0.20232789479E+02 -0.21468638011E+03  0.21730232642E+03  0.17770000000E+01 0. -1.
</event>
<event>
 6   1  0.1826851E-04  0.5028607E+03  0.7546771E-02  0.9393431E-01
        -11   -1    0    0    0    0  0.00000000000E+00  0.00000000000E+00  0.50000000000E+03  0.50000000000E+03  0.00000000000E+00 0. -1.
         11   -1    0    0    0    0 -0.00000000000E+00 -0.00000000000E+00 -0.50000000000E+03  0.50000000000E+03  0.00000000000E+00 0. -1.
        -11    1    1    2    0    0  0.33052138598E+02 -0.23357914869E+02  0.12986584003E+03  0.13602636678E+03  0.00000000000E+00 0. -1.
         11    1    1    2    0    0 -0.18574717893E+02  0.22623850474E+02 -0.49627677346E+03  0.49713931109E+03  0.00000000000E+00 0. -1.
        -15    1    1    2    0    0  0.54474249897E+00  0.60528131680E+00  0.20559763737E+02  0.20652475004E+02  0.17770000000E+01 0.  1.
         15    1    1    2    0    0 -0.15022163203E+02  0.12878307842E+00  0.34585116969E+03  0.34618184712E+03  0.17770000000E+01 0. -1.
</event>
<event>
 6   1  0.1826851E-04  0.5073237E+03  0.7546771E-02  0.9383570E-01
        -11   -1    0    0    0    0  0.00000000000E+00  0.00000000000E+00  0.50000000000E+03  0.50000000000E+03  0.00000000000E+00 0.  1.
         11   -1    0    0    0    0 -0.00000000000E+00 -0.00000000000E+00 -0.50000000000E+03  0.50000000000E+03  0.00000000000E+00 0.  1.
        -11    1    1    2    0    0  0.10464475764E+02  0.23736618015E+02  0.49199286475E+03  0.49267627430E+03  0.00000000000E+00 0.  1.
         11    1    1    2    0    0  0.16407701089E+02  0.86441325861E+01 -0.43700898057E+03  0.43740231228E+03  0.00000000000E+00 0.  1.
        -15    1    1    2    0    0 -0.21298398518E+02 -0.25011799896E+02 -0.36222886007E+02  0.48933292482E+02  0.17770000000E+01 0. -1.
         15    1    1    2    0    0 -0.55737783345E+01 -0.73689507055E+01 -0.18760998171E+02  0.20988120944E+02  0.17770000000E+01 0.  1.
</event>
<event>
 6   1  0.1826851E-04  0.5004537E+03  0.7546771E-02  0.9398795E-01
        -11   -1    0    0    0    0  0.00000000000E+00  0.00000000000E+00  0.50000000000E+03  0.50000000000E+03  0.00000000000E+00 0. -1.
         11   -1    0    0    0    0 -0.00000000000E+00 -0.00000000000E+00 -0.50000000000E+03  0.50000000000E+03  0.00000000000E+00 0.  1.
        -11    1    1    2    0    0  0.22394654908E+02  0.82285270181E+01  0.49897620691E+03  0.49954627842E+03  0.00000000000E+00 0. -1.
         11    1    1    2    0    0  0.79649613964E+00 -0.13595732275E+02 -0.19914922950E+03  0.19961436310E+03  0.00000000000E+00 0.  1.
        -15    1    1    2    0    0 -0.16176475791E+02  0.29810954419E+01 -0.17510799897E+03  0.17588784589E+03  0.17770000000E+01 0.  1.
         15    1    1    2    0    0 -0.70146752563E+01  0.23861098147E+01 -0.12471897843E+03  0.12495151259E+03  0.17770000000E+01 0. -1.
</event>
<event>
 6   1  0.1826851E-04  0.5015940E+03  0.7546771E-02  0.9396250E-01
        -11   -1    0    0    0    0  0.00000000000E+00  0.00000000000E+00  0.50000000000E+03  0.50000000000E+03  0.00000000000E+00 0.  1.
         11   -1    0    0    0    0 -0.00000000000E+00 -0.00000000000E+00 -0.50000000000E+03  0.50000000000E+03  0.00000000000E+00 0.  1.
        -11    1    1    2    0    0  0.29064087938E+01 -0.10930044676E+02  0.39609622808E+03  0.39625766237E+03  0.00000000000E+00 0.  1.
         11    1    1    2    0    0  0.10837133749E+02 -0.75609959831E+01 -0.49823083728E+03  0.49840603863E+03  0.00000000000E+00 0.  1.
        -15    1    1    2    0    0 -0.12585618346E+02  0.95915729329E+01  0.75897495934E+02  0.77549878650E+02  0.17770000000E+01 0.  1.
         15    1    1    2    0    0 -0.11579241967E+01  0.88994677264E+01  0.26237113264E+02  0.27786420347E+02  0.17770000000E+01 0. -1.
</event>
<event>
 6   1  0.1826851E-04  0.5244405E+03  0.7546771E-02  0.9346724E-01
        -11   -1    0    0    0    0  0.00000000000E+00  0.00000000000E+00  0.50000000000E+03  0.50000000000E+03  0.00000000000E+00 0.  1.
         11   -1    0    0    0    0 -0.00000000000E+00 -0.00000000000E+00 -0.50000000000E+03  0.50000000000E+03  0.00000000000E+00 0.  1.
        -11    1    1    2    0    0 -0.78569121869E+02 -0.90786143025E+02  0.46015387233E+03  0.47555947777E+03  0.00000000000E+00 0.  1.
         11    1    1    2    0    0  0.97788509450E+01 -0.26961857074E+01 -0.36230533590E+03  0.36244730895E+03  0.00000000000E+00 0.  1.
        -15    1    1    2    0    0  0.32937758806E+02  0.17730665577E+02 -0.58334257846E+02  0.69320385345E+02  0.17770000000E+01 0.  1.
         15    1    1    2    0    0  0.35852512118E+02  0.75751663155E+02 -0.39514278588E+02  0.92672827934E+02  0.17770000000E+01 0. -1.
</event>
<event>
 6   1  0.1826851E-04  0.5001828E+03  0.7546771E-02  0.9399401E-01
        -11   -1    0    0    0    0  0.00000000000E+00  0.00000000000E+00  0.50000000000E+03  0.50000000000E+03  0.00000000000E+00 0. -1.
         11   -1    0    0    0    0 -0.00000000000E+00 -0.00000000000E+00 -0.50000000000E+03  0.50000000000E+03  0.00000000000E+00 0.  1.
        -11    1    1    2    0    0  0.83582230726E+00 -0.19277568825E+02  0.49944464044E+03  0.49981723872E+03  0.00000000000E+00 0. -1.
         11    1    1    2    0    0  0.66883684453E+01  0.16723587215E+02 -0.30604177221E+03  0.30657132772E+03  0.00000000000E+00 0.  1.
        -15    1    1    2    0    0 -0.55613248806E+01  0.11507974181E+01 -0.12007063367E+03  0.12021799977E+03  0.17770000000E+01 0.  1.
         15    1    1    2    0    0 -0.19628658719E+01  0.14031841918E+01 -0.73332234554E+02  0.73393433780E+02  0.17770000000E+01 0.  1.
</event>
<event>
 6   1  0.1826851E-04  0.5026578E+03  0.7546771E-02  0.9393882E-01
        -11   -1    0    0    0    0  0.00000000000E+00  0.00000000000E+00  0.50000000000E+03  0.50000000000E+03  0.00000000000E+00 0. -1.
         11   -1    0    0    0    0 -0.00000000000E+00 -0.00000000000E+00 -0.50000000000E+03  0.50000000000E+03  0.00000000000E+00 0.  1.
        -11    1    1    2    0    0  0.75992326891E+01 -0.17743774749E+01  0.44031144945E+03  0.44038059592E+03  0.00000000000E+00 0. -1.
         11    1    1    2    0    0  0.93706005144E+01  0.12739886754E+01 -0.49725226191E+03  0.49734217917E+03  0.00000000000E+00 0.  1.
        -15    1    1    2    0    0 -0.73792793782E+01  0.75911051974E+01  0.13804873150E+02  0.17487449613E+02  0.17770000000E+01 0.  1.
         15    1    1    2    0    0 -0.95905538253E+01 -0.70907163979E+01  0.43135939316E+02  0.44789775299E+02  0.17770000000E+01 0. -1.
</event>
<event>
 6   1  0.1826851E-04  0.5044018E+03  0.7546771E-02  0.9390014E-01
        -11   -1    0    0    0    0  0.00000000000E+00  0.00000000000E+00  0.50000000000E+03  0.50000000000E+03  0.00000000000E+00 0. -1.
         11   -1    0    0    0    0 -0.00000000000E+00 -0.00000000000E+00 -0.50000000000E+03  0.50000000000E+03  0.00000000000E+00 0. -1.
        -11    1    1    2    0    0 -0.56315452748E+01  0.79601222012E+01  0.49550231201E+03  0.49559824360E+03  0.00000000000E+00 0. -1.
         11    1    1    2    0    0  0.10890879745E+02 -0.83893365933E+00 -0.48757611368E+03  0.48769845366E+03  0.00000000000E+00 0. -1.
        -15    1    1    2    0    0 -0.58206197036E+01 -0.90684025900E+01 -0.86279973000E+01  0.13918175372E+02  0.17770000000E+01 0.  1.
         15    1    1    2    0    0  0.56128523351E+00  0.19472140482E+01  0.70179897202E+00  0.27851273687E+01  0.17770000000E+01 0. -1.
</event>
<event>
 6   1  0.1826851E-04  0.5006815E+03  0.7546771E-02  0.9398286E-01
        -11   -1    0    0    0    0  0.00000000000E+00  0.00000000000E+00  0.50000000000E+03  0.50000000000E+03  0.00000000000E+00 0. -1.
         11   -1    0    0    0    0 -0.00000000000E+00 -0.00000000000E+00 -0.50000000000E+03  0.50000000000E+03  0.00000000000E+00 0. -1.
        -11    1    1    2    0    0 -0.58930021473E+01 -0.70030522009E+01  0.49923462853E+03  0.49931852012E+03  0.00000000000E+00 0. -1.
         11    1    1    2    0    0 -0.71338279242E+01  0.37173936047E+01 -0.40879038823E+03  0.40886952934E+03  0.00000000000E+00 0. -1.
        -15    1    1    2    0    0  0.15197144707E+01  0.13777034598E+01 -0.36087816279E+02  0.36189719696E+02  0.17770000000E+01 0. -1.
         15    1    1    2    0    0  0.11507115601E+02  0.19079551365E+01 -0.54356424018E+02  0.55622230837E+02  0.17770000000E+01 0.  1.
</event>
<event>
 6   1  0.1826851E-04  0.5000869E+03  0.7546771E-02  0.9399615E-01
        -11   -1    0    0    0    0  0.00000000000E+00  0.00000000000E+00  0.50000000000E+03  0.50000000000E+03  0.00000000000E+00 0.  1.
         11   -1    0    0    0    0 -0.00000000000E+00 -0.00000000000E+00 -0.50000000000E+03  0.50000000000E+03  0.00000000000E+00 0. -1.
        -11    1    1    2    0    0 -0.31337305299E+01 -0.19936819092E+01  0.36710463529E+02  0.36897874832E+02  0.00000000000E+00 0.  1.
         11    1    1    2    0    0  0.52881593193E+01  0.11006821669E+02 -0.49976396639E+03  0.49991312930E+03  0.00000000000E+00 0. -1.
        -15    1    1    2    0    0 -0.34155949384E+01 -0.64482923543E+01  0.36628155243E+03  0.36635854043E+03  0.17770000000E+01 0.  1.
         15    1    1    2    0    0  0.12611661490E+01 -0.25648474055E+01  0.96771950423E+02  0.96830455436E+02  0.17770000000E+01 0.  1.
</event>
<event>
 6   1  0.1826851E-04  0.5075109E+03  0.7546771E-02  0.9383159E-01
        -11   -1    0    0    0    0  0.00000000000E+00  0.00000000000E+00  0.50000000000E+03  0.50000000000E+03  0.00000000000E+00 0.  1.
         11   -1    0    0    0    0 -0.00000000000E+00 -0.00000000000E+00 -0.50000000000E+03  0.50000000000E+03  0.00000000000E+00 0.  1.
        -11    1    1    2    0    0  0.36686439708E+02 -0.78056278883E+01  0.49105874460E+03  0.49248909971E+03  0.00000000000E+00 0.  1.
         11    1    1    2    0    0  0.60037404994E+01 -0.29728816349E+01 -0.38682986361E+03  0.38688787304E+03  0.00000000000E+00 0.  1.
        -15    1    1    2    0    0 -0.39136926777E+02  0.26776138955E+01 -0.41067550753E+02  0.56820507808E+02  0.17770000000E+01 0.  1.
         15    1    1    2    0    0 -0.35532534308E+01  0.81008956277E+01 -0.63161330239E+02  0.63802519436E+02  0.17770000000E+01 0. -1.
</event>
<event>
 6   1  0.1826851E-04  0.5080514E+03  0.7546771E-02  0.9381972E-01
        -11   -1    0    0    0    0  0.00000000000E+00  0.00000000000E+00  0.50000000000E+03  0.50000000000E+03  0.00000000000E+00 0.  1.
         11   -1    0    0    0    0 -0.00000000000E+00 -0.00000000000E+00 -0.50000000000E+03  0.50000000000E+03  0.00000000000E+00 0. -1.
        -11    1    1    2    0    0  0.99424982073E+01 -0.23485787768E+02  0.49128702638E+03  0.49194855197E+03  0.00000000000E+00 0.  1.
         11    1    1    2    0    0 -0.87959007515E+01 -0.80352903558E+00 -0.47411549190E+03  0.47419775747E+03  0.00000000000E+00 0. -1.
        -15    1    1    2    0    0 -0.67319917722E+01  0.21204083845E+02 -0.11364025436E+02  0.25044593988E+02  0.17770000000E+01 0. -1.
         15    1    1    2    0    0  0.55853943164E+01  0.30852329581E+01 -0.58075090418E+01  0.88090965681E+01  0.17770000000E+01 0.  1.
</event>
<event>
 6   1  0.1826851E-04  0.5001328E+03  0.7546771E-02  0.9399513E-01
        -11   -1    0    0    0    0  0.00000000000E+00  0.00000000000E+00  0.50000000000E+03  0.50000000000E+03  0.00000000000E+00 0.  1.
         11   -1    0    0    0    0 -0.00000000000E+00 -0.00000000000E+00 -0.50000000000E+03  0.50000000000E+03  0.00000000000E+00 0. -1.
        -11    1    1    2    0    0  0.41720436153E+01  0.83297122448E+01  0.16951724782E+03  0.16977304663E+03  0.00000000000E+00 0.  1.
         11    1    1    2    0    0 -0.55697040764E+01 -0.10051584196E+02 -0.49973509308E+03  0.49986720157E+03  0.00000000000E+00 0. -1.
        -15    1    1    2    0    0  0.15239634242E+01 -0.31965696556E+01  0.19592996219E+03  0.19597001897E+03  0.17770000000E+01 0.  1.
         15    1    1    2    0    0 -0.12630296314E+00  0.49184416070E+01  0.13428788307E+03  0.13438973283E+03  0.17770000000E+01 0. -1.
</event>
<event>
 6   1  0.1826851E-04  0.5001544E+03  0.7546771E-02  0.9399464E-01
        -11   -1    0    0    0    0  0.00000000000E+00  0.00000000000E+00  0.50000000000E+03  0.50000000000E+03  0.00000000000E+00 0.  1.
         11   -1    0    0    0    0 -0.00000000000E+00 -0.00000000000E+00 -0.50000000000E+03  0.50000000000E+03  0.00000000000E+00 0.  1.
        -11    1    1    2    0    0 -0.17020255942E+01  0.21671525489E+02  0.49937266508E+03  0.49984558670E+03  0.00000000000E+00 0.  1.
         11    1    1    2    0    0 -0.33550949014E+01 -0.12380544093E+02 -0.16390052810E+03  0.16440169599E+03  0.00000000000E+00 0.  1.
        -15    1    1    2    0    0  0.16858028411E+01 -0.73152334024E+01 -0.12560289997E+03  0.12583958352E+03  0.17770000000E+01 0. -1.
         15    1    1    2    0    0  0.33713176545E+01 -0.19757479936E+01 -0.20986923701E+03  0.20991313379E+03  0.17770000000E+01 0. -1.
</event>
<event>
 6   1  0.1826851E-04  0.5009288E+03  0.7546771E-02  0.9397734E-01
        -11   -1    0    0    0    0  0.00000000000E+00  0.00000000000E+00  0.50000000000E+03  0.50000000000E+03  0.00000000000E+00 0. -1.
         11   -1    0    0    0    0 -0.00000000000E+00 -0.00000000000E+00 -0.50000000000E+03  0.50000000000E+03  0.00000000000E+00 0.  1.
        -11    1    1    2    0    0 -0.19438421774E+02  0.26777285591E+01  0.24298985064E+03  0.24378082367E+03  0.00000000000E+00 0. -1.
         11    1    1    2    0    0  0.10554430287E+02 -0.53918128263E+01 -0.49893040680E+03  0.49907115572E+03  0.00000000000E+00 0.  1.
        -15    1    1    2    0    0  0.26753161293E+01 -0.95254584309E+01  0.14493189569E+03  0.14528008739E+03  0.17770000000E+01 0.  1.
         15    1    1    2    0    0  0.62086753577E+01  0.12239542698E+02  0.11100866047E+03  0.11186793322E+03  0.17770000000E+01 0. -1.
</event>
<event>
 6   1  0.1826851E-04  0.4429266E+03  0.7546771E-02  0.9537433E-01
        -11   -1    0    0    0    0  0.00000000000E+00  0.00000000000E+00  0.50000000000E+03  0.50000000000E+03  0.00000000000E+00 0.  1.
         11   -1    0    0    0    0 -0.00000000000E+00 -0.00000000000E+00 -0.50000000000E+03  0.50000000000E+03  0.00000000000E+00 0.  1.
        -11    1    1    2    0    0  0.30704832200E+02  0.48518863391E+02  0.41761973381E+03  0.42154846565E+03  0.00000000000E+00 0.  1.
         11    1    1    2    0    0  0.35171461861E+01  0.31293078812E+02 -0.46897529930E+03  0.47003133774E+03  0.00000000000E+00 0.  1.
        -15    1    1    2    0    0 -0.40231388750E+02 -0.56868877351E+02  0.47483331317E+02  0.84323533689E+02  0.17770000000E+01 0.  1.
         15    1    1    2    0    0  0.60094103639E+01 -0.22943064852E+02  0.38722341771E+01  0.24096662927E+02  0.17770000000E+01 0. -1.
</event>
<event>
 6   1  0.1826851E-04  0.5002035E+03  0.7546771E-02  0.9399355E-01
        -11   -1    0    0    0    0  0.00000000000E+00  0.00000000000E+00  0.50000000000E+03  0.50000000000E+03  0.00000000000E+00 0. -1.
         11   -1    0    0    0    0 -0.00000000000E+00 -0.00000000000E+00 -0.50000000000E+03  0.50000000000E+03  0.00000000000E+00 0.  1.
        -11    1    1    2    0    0  0.13241688540E+02  0.10214468233E+02  0.49951664264E+03  0.49979651255E+03  0.00000000000E+00 0. -1.
         11    1    1    2    0    0 -0.66180493633E+00 -0.22432806735E+01 -0.12479282907E+03  0.12481474464E+03  0.00000000000E+00 0.  1.
        -15    1    1    2    0    0 -0.34072820108E+01 -0.11433322616E+02 -0.23561571926E+03  0.23592425761E+03  0.17770000000E+01 0.  1.
         15    1    1    2    0    0 -0.91726015927E+01  0.34621350567E+01 -0.13910809432E+03  0.13946448520E+03  0.17770000000E+01 0. -1.
</event>
<event>
 6   1  0.1826851E-04  0.5023372E+03  0.7546771E-02  0.9394595E-01
        -11   -1    0    0    0    0  0.00000000000E+00  0.00000000000E+00  0.50000000000E+03  0.50000000000E+03  0.00000000000E+00 0. -1.
         11   -1    0    0    0    0 -0.00000000000E+00 -0.00000000000E+00 -0.50000000000E+03  0.50000000000E+03  0.00000000000E+00 0.  1.
        -11    1    1    2    0    0 -0.52146283716E+02 -0.10403792266E+03  0.48386478698E+03  0.49766279381E+03  0.00000000000E+00 0. -1.
         11    1    1    2    0    0  0.39057749607E+02  0.51846535531E+02 -0.14242091191E+03  0.15651609247E+03  0.00000000000E+00 0.  1.
        -15    1    1    2    0    0  0.14375064206E+02  0.42732511277E+02 -0.28425477484E+03  0.28781355899E+03  0.17770000000E+01 0.  1.
         15    1    1    2    0    0 -0.12865300975E+01  0.94588758518E+01 -0.57189100231E+02  0.58007554735E+02  0.17770000000E+01 0.  1.
</event>
<event>
 6   1  0.1826851E-04  0.5008546E+03  0.7546771E-02  0.9397900E-01
        -11   -1    0    0    0    0  0.00000000000E+00  0.00000000000E+00  0.50000000000E+03  0.50000000000E+03  0.00000000000E+00 0. -1.
         11   -1    0    0    0    0 -0.00000000000E+00 -0.00000000000E+00 -0.50000000000E+03  0.50000000000E+03  0.00000000000E+00 0. -1.
        -11    1    1    2    0    0 -0.14431764032E+02 -0.97870277493E+01  0.10509646838E+03  0.10653323139E+03  0.00000000000E+00 0. -1.
         11    1    1    2    0    0  0.80314714627E+01 -0.43239118048E+01 -0.49906205576E+03  0.49914540591E+03  0.00000000000E+00 0. -1.
        -15    1    1    2    0    0  0.64162974252E+01  0.93825946107E+01  0.29940553963E+03  0.29962649557E+03  0.17770000000E+01 0. -1.
         15    1    1    2    0    0 -0.16004856240E-01  0.47283449434E+01  0.94560047749E+02  0.94694867133E+02  0.17770000000E+01 0. -1.
</event>
<event>
 6   1  0.1826851E-04  0.5050608E+03  0.7546771E-02  0.9388556E-01
        -11   -1    0    0    0    0  0.00000000000E+00  0.00000000000E+00  0.50000000000E+03  0.50000000000E+03  0.00000000000E+00 0. -1.
         11   -1    0    0    0    0 -0.00000000000E+00 -0.00000000000E+00 -0.50000000000E+03  0.50000000000E+03  0.00000000000E+00 0. -1.
        -11    1    1    2    0    0 -0.16072774908E+00 -0.35765615489E+02  0.49364522443E+03  0.49493920100E+03  0.00000000000E+00 0. -1.
         11    1    1    2    0    0  0.31768959812E+01  0.51836390541E+01 -0.36910236735E+03  0.36915243513E+03  0.00000000000E+00 0. -1.
        -15    1    1    2    0    0 -0.32866288344E+01  0.34856980393E+02 -0.49140580125E+02  0.60363609528E+02  0.17770000000E+01 0. -1.
         15    1    1    2    0    0  0.27046060222E+00 -0.42750039590E+01 -0.75402276962E+02  0.75544754337E+02  0.17770000000E+01 0.  1.
</event>
<event>
 6   1  0.1826851E-04  0.5078048E+03  0.7546771E-02  0.9382513E-01
        -11   -1    0    0    0    0  0.00000000000E+00  0.00000000000E+00  0.50000000000E+03  0.50000000000E+03  0.00000000000E+00 0.  1.
         11   -1    0    0    0    0 -0.00000000000E+00 -0.00000000000E+00 -0.50000000000E+03  0.50000000000E+03  0.00000000000E+00 0.  1.
        -11    1    1    2    0    0 -0.33929479299E+02 -0.43780847653E+02  0.48906861801E+03  0.49219516993E+03  0.00000000000E+00 0.  1.
         11    1    1    2    0    0 -0.70028521846E-01 -0.70110882079E+01 -0.39129362389E+03  0.39135643646E+03  0.00000000000E+00 0.  1.
        -15    1    1    2    0    0  0.25461275187E+02  0.42591863884E+02 -0.66741338428E+02  0.83185980715E+02  0.17770000000E+01 0.  1.
         15    1    1    2    0    0  0.85382326331E+01  0.82000719765E+01 -0.31033655688E+02  0.33262412891E+02  0.17770000000E+01 0. -1.
</event>
<event>
 6   1  0.1826851E-04  0.5030755E+03  0.7546771E-02  0.9392954E-01
        -11   -1    0    0    0    0  0.00000000000E+00  0.00000000000E+00  0.50000000000E+03  0.50000000000E+03  0.00000000000E+00 0.  1.
         11   -1    0    0    0    0 -0.00000000000E+00 -0.00000000000E+00 -0.50000000000E+03  0.50000000000E+03  0.00000000000E+00 0. -1.
        -11    1    1    2    0    0 -0.15902358562E+02  0.95074122000E+01  0.47073440934E+03  0.47109888562E+03  0.00000000000E+00 0.  1.
         11    1    1    2    0    0  0.70203584339E+01 -0.75427774277E+01 -0.49681767352E+03  0.49692452108E+03  0.00000000000E+00 0. -1.
        -15    1    1    2    0    0 -0.40027253848E+01  0.20267575172E+01  0.56799423752E+01  0.74531222266E+01  0.17770000000E+01 0. -1.
         15    1    1    2    0    0  0.12884725513E+02 -0.39913922895E+01  0.20403321802E+02  0.24523471074E+02  0.17770000000E+01 0.  1.
</event>
<event>
 6   1  0.1826851E-04  0.5001583E+03  0.7546771E-02  0.9399456E-01
        -11   -1    0    0    0    0  0.00000000000E+00  0.00000000000E+00  0.50000000000E+03  0.50000000000E+03  0.00000000000E+00 0. -1.
         11   -1    0    0    0    0 -0.00000000000E+00 -0.00000000000E+00 -0.50000000000E+03  0.50000000000E+03  0.00000000000E+00 0. -1.
        -11    1    1    2    0    0  0.32368157287E+02  0.37434885490E+01  0.39613308713E+03  0.39747092224E+03  0.00000000000E+00 0. -1.
         11    1    1    2    0    0 -0.35588352342E+02 -0.31557902266E+01 -0.49856316174E+03  0.49984169101E+03  0.00000000000E+00 0. -1.
        -15    1    1    2    0    0  0.40535420480E+01 -0.52237646037E+00  0.89313212085E+02  0.89424334844E+02  0.17770000000E+01 0.  1.
         15    1    1    2    0    0 -0.83334699280E+00 -0.65321862040E-01  0.13116862525E+02  0.13263051898E+02  0.17770000000E+01 0. -1.
</event>
<event>
 6   1  0.1826851E-04  0.5010740E+03  0.7546771E-02  0.9397410E-01
        -11   -1    0    0    0    0  0.00000000000E+00  0.00000000000E+00  0.50000000000E+03  0.50000000000E+03  0.00000000000E+00 0. -1.
         11   -1    0    0    0    0 -0.00000000000E+00 -0.00000000000E+00 -0.50000000000E+03  0.50000000000E+03  0.00000000000E+00 0. -1.
        -11    1    1    2    0    0  0.59966274904E+01 -0.12509596888E+02  0.41138309264E+03  0.41161693171E+03  0.00000000000E+00 0. -1.
         11    1    1    2    0    0 -0.85708117796E+01 -0.34695426288E+01 -0.49884035633E+03  0.49892604427E+03  0.00000000000E+00 0. -1.
        -15    1    1    2    0    0  0.70926510391E+00  0.15568830047E+02  0.65829858997E+02  0.67672886672E+02  0.17770000000E+01 0. -1.
         15    1    1    2    0    0  0.18649191853E+01  0.41030947037E+00  0.21627404694E+02  0.21784137354E+02  0.17770000000E+01 0.  1.
</event>
<event>
 6   1  0.1826851E-04  0.5004406E+03  0.7546771E-02  0.9398824E-01
        -11   -1    0    0    0    0  0.00000000000E+00  0.00000000000E+00  0.50000000000E+03  0.50000000000E+03  0.00000000000E+00 0.  1.
         11   -1    0    0    0    0 -0.00000000000E+00 -0.00000000000E+00 -0.50000000000E+03  0.50000000000E+03  0.00000000000E+00 0. -1.
        -11    1    1    2    0    0 -0.16613864521E+02 -0.15108159072E+01  0.25436280546E+03  0.25490927770E+03  0.00000000000E+00 0.  1.
         11    1    1    2    0    0  0.73873724785E+01  0.32427682267E+01 -0.49949426029E+03  0.49955941077E+03  0.00000000000E+00 0. -1.
        -15    1    1    2    0    0  0.82896339835E+01 -0.23052903851E+01  0.23601874338E+03  0.23618221218E+03  0.17770000000E+01 0. -1.
         15    1    1    2    0    0  0.93685805935E+00  0.57333806551E+00  0.91127114538E+01  0.93490993470E+01  0.17770000000E+01 0. -1.
</event>
<event>
 6   1  0.1826851E-04  0.5002458E+03  0.7546771E-02  0.9399260E-01
        -11   -1    0    0    0    0  0.00000000000E+00  0.00000000000E+00  0.50000000000E+03  0.50000000000E+03  0.00000000000E+00 0. -1.
         11   -1    0    0    0    0 -0.00000000000E+00 -0.00000000000E+00 -0.50000000000E+03  0.50000000000E+03  0.00000000000E+00 0.  1.
        -11    1    1    2    0    0  0.17104152476E+02 -0.21469679176E+02  0.36407045799E+03  0.36510381748E+03  0.00000000000E+00 0. -1.
         11    1    1    2    0    0 -0.13865624467E+02  0.22813000576E+02 -0.49904063277E+03  0.49975418127E+03  0.00000000000E+00 0.  1.
        -15    1    1    2    0    0 -0.38771872077E+01 -0.18793441717E+01  0.78951574566E+02  0.79089021809E+02  0.17770000000E+01 0. -1.
         15    1    1    2    0    0  0.63865919884E+00  0.53602277203E+00  0.56018600209E+02  0.56052979443E+02  0.17770000000E+01 0.  1.
</event>
<event>
 6   1  0.1826851E-04  0.5012151E+03  0.7546771E-02  0.9397095E-01
        -11   -1    0    0    0    0  0.00000000000E+00  0.00000000000E+00  0.50000000000E+03  0.50000000000E+03  0.00000000000E+00 0. -1.
         11   -1    0    0    0    0 -0.00000000000E+00 -0.00000000000E+00 -0.50000000000E+03  0.50000000000E+03  0.00000000000E+00 0. -1.
        -11    1    1    2    0    0  0.94275374624E+01 -0.10818285088E+02  0.85249139886E+02  0.86448421652E+02  0.00000000000E+00 0. -1.
         11    1    1    2    0    0  0.13540951146E+02  0.24947158538E+02 -0.49797658778E+03  0.49878492365E+03  0.00000000000E+00 0. -1.
        -15    1    1    2    0    0  0.69628853962E+01 -0.33060664477E+01  0.47854302787E+02  0.48503648035E+02  0.17770000000E+01 0.  1.
         15    1    1    2    0    0 -0.29931374005E+02 -0.10822807002E+02  0.36487314511E+03  0.36626300667E+03  0.17770000000E+01 0. -1.
</event>
<event>
 6   1  0.1826851E-04  0.5023186E+03  0.7546771E-02  0.9394637E-01
        -11   -1    0    0    0    0  0.00000000000E+00  0.00000000000E+00  0.50000000000E+03  0.50000000000E+03  0.00000000000E+00 0.  1.
         11   -1    0    0    0    0 -0.00000000000E+00 -0.00000000000E+00 -0.50000000000E+03  0.50000000000E+03  0.00000000000E+00 0.  1.
        -11    1    1    2    0    0  0.13007410208E+02 -0.17914367270E+02  0.49718875611E+03  0.49768140057E+03  0.00000000000E+00 0.  1.
         11    1    1    2    0    0  0.34709326028E+01 -0.82355514620E+01 -0.37412276497E+03  0.37422949503E+03  0.00000000000E+00 0.  1.
        -15    1    1    2    0    0 -0.15257923239E+02  0.20424077810E+02 -0.67306015035E+02  0.71994475933E+02  0.17770000000E+01 0. -1.
         15    1    1    2    0    0 -0.12204195721E+01  0.57258409224E+01 -0.55759976106E+02  0.56094628465E+02  0.17770000000E+01 0.  1.
</event>
<event>
 6   1  0.1826851E-04  0.5003617E+03  0.7546771E-02  0.9399001E-01
        -11   -1    0    0    0    0  0.00000000000E+00  0.00000000000E+00  0.50000000000E+03  0.50000000000E+03  0.00000000000E+00 0.  1.
         11   -1    0    0    0    0 -0.00000000000E+00 -0.00000000000E+00 -0.50000000000E+03  0.50000000000E+03  0.00000000000E+00 0.  1.
        -11    1    1    2    0    0  0.14491166796E+02  0.16676525803E+01  0.39516831312E+03  0.39543744217E+03  0.00000000000E+00 0.  1.
         11    1    1    2    0    0 -0.12798726298E+02  0.34191881858E+01 -0.49946260589E+03  0.49963826207E+03  0.00000000000E+00 0.  1.
        -15    1    1    2    0    0 -0.47138943305E+01 -0.40949229107E+01  0.87446589297E+02  0.87687244809E+02  0.17770000000E+01 0.  1.
         15    1    1    2    0    0  0.30214538325E+01 -0.99191785530E+00  0.16847703469E+02  0.17237050950E+02  0.17770000000E+01 0. -1.
</event>
<event>
 6   1  0.1826851E-04  0.5057924E+03  0.7546771E-02  0.9386941E-01
        -11   -1    0    0    0    0  0.00000000000E+00  0.00000000000E+00  0.50000000000E+03  0.50000000000E+03  0.00000000000E+00 0. -1.
         11   -1    0    0    0    0 -0.00000000000E+00 -0.00000000000E+00 -0.50000000000E+03  0.50000000000E+03  0.00000000000E+00 0.  1.
        -11    1    1    2    0    0 -0.33737526560E+02  0.22959016169E+01  0.37821223328E+03  0.37972093077E+03  0.00000000000E+00 0. -1.
         11    1    1    2    0    0 -0.10701156513E+02 -0.66067765757E+01 -0.49404754176E+03  0.49420758570E+03  0.00000000000E+00 0.  1.
        -15    1    1    2    0    0  0.61777936722E+01  0.55137216305E+01  0.42414055290E+02  0.43251312998E+02  0.17770000000E+01 0. -1.
         15    1    1    2    0    0  0.38260889400E+02 -0.12028466717E+01  0.73421253191E+02  0.82820170532E+02  0.17770000000E+01 0.  1.
</event>
<event>
 6   1  0.1826851E-04  0.5024962E+03  0.7546771E-02  0.9394242E-01
        -11   -1    0    0    0    0  0.00000000000E+00  0.00000000000E+00  0.50000000000E+03  0.50000000000E+03  0.00000000000E+00 0. -1.
         11   -1    0    0    0    0 -0.00000000000E+00 -0.00000000000E+00 -0.50000000000E+03  0.50000000000E+03  0.00000000000E+00 0.  1.
        -11    1    1    2    0    0 -0.58810007674E+01  0.17310690226E+02  0.33797454448E+02  0.38425435499E+02  0.00000000000E+00 0. -1.
         11    1    1    2    0    0 -0.89567525586E+01 -0.64408748966E+01 -0.49738145801E+03  0.49750379200E+03  0.00000000000E+00 0.  1.
        -15    1    1    2    0    0  0.62034274422E+01 -0.40756934868E+00  0.22657888485E+03  0.22667112170E+03  0.17770000000E+01 0. -1.
         15    1    1    2    0    0  0.86343258837E+01 -0.10462245981E+02  0.23700511871E+03  0.23739965080E+03  0.17770000000E+01 0.  1.
</event>
<event>
 6   1  0.1826851E-04  0.5008001E+03  0.7546771E-02  0.9398021E-01
        -11   -1    0    0    0    0  0.00000000000E+00  0.00000000000E+00  0.50000000000E+03  0.50000000000E+03  0.00000000000E+00 0. -1.
         11   -1    0    0    0    0 -0.00000000000E+00 -0.00000000000E+00 -0.50000000000E+03  0.50000000000E+03  0.00000000000E+00 0.  1.
        -11    1    1    2    0    0 -0.14428160208E+02 -0.17342244905E+02  0.49868985554E+03  0.49919985706E+03  0.00000000000E+00 0. -1.
         11    1    1    2    0    0  0.10582884368E+01 -0.70265047485E+01 -0.21836080345E+03  0.21847638826E+03  0.00000000000E+00 0.  1.
        -15    1    1    2    0    0  0.10312196747E+02  0.60684488043E+01 -0.59969598418E+02  0.61177429956E+02  0.17770000000E+01 0.  1.
         15    1    1    2    0    0  0.30576750248E+01  0.18300300850E+02 -0.22035945368E+03  0.22114632473E+03  0.17770000000E+01 0. -1.
</event>
<event>
 6   1  0.1826851E-04  0.5056457E+03  0.7546771E-02  0.9387265E-01
        -11   -1    0    0    0    0  0.00000000000E+00  0.00000000000E+00  0.50000000000E+03  0.50000000000E+03  0.00000000000E+00 0.  1.
         11   -1    0    0    0    0 -0.00000000000E+00 -0.00000000000E+00 -0.50000000000E+03  0.50000000000E+03  0.00000000000E+00 0. -1.
        -11    1    1    2    0    0 -0.13513072918E+02 -0.88943328713E+01  0.49408950719E+03  0.49435427925E+03  0.00000000000E+00 0.  1.
         11    1    1    2    0    0 -0.13816729021E+01  0.67121138880E+01 -0.47065112290E+03  0.47070101018E+03  0.00000000000E+00 0. -1.
        -15    1    1    2    0    0 -0.15816194039E+01 -0.61858199706E+01 -0.10118701644E+02  0.12095939013E+02  0.17770000000E+01 0.  1.
         15    1    1    2    0    0  0.16476365224E+02  0.83680389539E+01 -0.13319682645E+02  0.22848771557E+02  0.17770000000E+01 0. -1.
</event>
<event>
 6   1  0.1826851E-04  0.5006393E+03  0.7546771E-02  0.9398380E-01
        -11   -1    0    0    0    0  0.00000000000E+00  0.00000000000E+00  0.50000000000E+03  0.50000000000E+03  0.00000000000E+00 0. -1.
         11   -1    0    0    0    0 -0.00000000000E+00 -0.00000000000E+00 -0.50000000000E+03  0.50000000000E+03  0.00000000000E+00 0. -1.
        -11    1    1    2    0    0 -0.84254027438E+01 -0.20100732319E+02  0.49888487310E+03  0.49936073480E+03  0.00000000000E+00 0. -1.
         11    1    1    2    0    0 -0.35786523716E+01  0.23130549729E+02 -0.34620342357E+03  0.34699371691E+03  0.00000000000E+00 0. -1.
        -15    1    1    2    0    0  0.10535544487E+02 -0.44737610045E+01 -0.72626437942E+02  0.73544336643E+02  0.17770000000E+01 0. -1.
         15    1    1    2    0    0  0.14685106284E+01  0.14439435951E+01 -0.80055011594E+02  0.80101211644E+02  0.17770000000E+01 0.  1.
</event>
<event>
 6   1  0.1826851E-04  0.5005665E+03  0.7546771E-02  0.9398543E-01
        -11   -1    0    0    0    0  0.00000000000E+00  0.00000000000E+00  0.50000000000E+03  0.50000000000E+03  0.00000000000E+00 0.  1.
         11   -1    0    0    0    0 -0.00000000000E+00 -0.00000000000E+00 -0.50000000000E+03  0.50000000000E+03  0.00000000000E+00 0.  1.
        -11    1    1    2    0    0 -0.60878066514E+01 -0.33598092552E+01  0.49938513865E+03  0.49943354554E+03  0.00000000000E+00 0.  1.
         11    1    1    2    0    0 -0.44835865127E+01  0.58381425620E+01 -0.40242288461E+03  0.40249020425E+03  0.00000000000E+00 0.  1.
        -15    1    1    2    0    0  0.14878341335E+01 -0.38210530605E+01 -0.17341791783E+02  0.17908365870E+02  0.17770000000E+01 0. -1.
         15    1    1    2    0    0  0.90835590306E+01  0.13427197537E+01 -0.79620462257E+02  0.80167884343E+02  0.17770000000E+01 0.  1.
</event>
<event>
 6   1  0.1826851E-04  0.5005852E+03  0.7546771E-02  0.9398501E-01
        -11   -1    0    0    0    0  0.00000000000E+00  0.00000000000E+00  0.50000000000E+03  0.50000000000E+03  0.00000000000E+00 0.  1.
         11   -1    0    0    0    0 -0.00000000000E+00 -0.00000000000E+00 -0.50000000000E+03  0.50000000000E+03  0.00000000000E+00 0.  1.
        -11    1    1    2    0    0  0.17362365258E+02  0.13246089165E+02  0.49893715122E+03  0.49941484908E+03  0.00000000000E+00 0.  1.
         11    1    1    2    0    0  0.23102336181E+01  0.31642524750E+00 -0.17079060366E+03  0.17080652096E+03  0.00000000000E+00 0.  1.
        -15    1    1    2    0    0 -0.15843240051E+02 -0.18375133248E+01 -0.98896077910E+02  0.10018970339E+03  0.17770000000E+01 0. -1.
         15    1    1    2    0    0 -0.38293588258E+01 -0.11725001088E+02 -0.22925046965E+03  0.22958892657E+03  0.17770000000E+01 0.  1.
</event>
<event>
 6   1  0.1826851E-04  0.3775803E+03  0.7546771E-02  0.9725067E-01
        -11   -1    0    0    0    0  0.00000000000E+00  0.00000000000E+00  0.50000000000E+03  0.50000000000E+03  0.00000000000E+00 0. -1.
         11   -1    0    0    0    0 -0.00000000000E+00 -0.00000000000E+00 -0.50000000000E+03  0.50000000000E+03  0.00000000000E+00 0.  1.
        -11    1    1    2    0    0  0.21794490436E+03  0.47318828350E+02  0.28322103072E+03  0.36049022885E+03  0.00000000000E+00 0. -1.
         11    1    1    2    0    0 -0.71287765028E+02  0.25040807336E+02 -0.41685340686E+03  0.42364578398E+03  0.00000000000E+00 0.  1.
        -15    1    1    2    0    0 -0.81052310646E+02 -0.17395873314E+02  0.54024573918E+02  0.98964164148E+02  0.17770000000E+01 0.  1.
         15    1    1    2    0    0 -0.65604828683E+02 -0.54963762373E+02  0.79607802221E+02  0.11689982303E+03  0.17770000000E+01 0. -1.
</event>
<event>
 6   1  0.1826851E-04  0.5162156E+03  0.7546771E-02  0.9364240E-01
        -11   -1    0    0    0    0  0.00000000000E+00  0.00000000000E+00  0.50000000000E+03  0.50000000000E+03  0.00000000000E+00 0.  1.
         11   -1    0    0    0    0 -0.00000000000E+00 -0.00000000000E+00 -0.50000000000E+03  0.50000000000E+03  0.00000000000E+00 0.  1.
        -11    1    1    2    0    0 -0.45052866553E+02 -0.55615672923E+01  0.34338388969E+03  0.34637145886E+03  0.00000000000E+00 0.  1.
         11    1    1    2    0    0 -0.33904714889E+02  0.19969163459E+02 -0.48218157761E+03  0.48378442613E+03  0.00000000000E+00 0.  1.
        -15    1    1    2    0    0  0.79771839772E+02 -0.21232291148E+02  0.14010551864E+03  0.16262555362E+03  0.17770000000E+01 0. -1.
         15    1    1    2    0    0 -0.81425832902E+00  0.68246949812E+01 -0.13078307263E+01  0.72185613817E+01  0.17770000000E+01 0.  1.
</event>
<event>
 6   1  0.1826851E-04  0.5029320E+03  0.7546771E-02  0.9393273E-01
        -11   -1    0    0    0    0  0.00000000000E+00  0.00000000000E+00  0.50000000000E+03  0.50000000000E+03  0.00000000000E+00 0.  1.
         11   -1    0    0    0    0 -0.00000000000E+00 -0.00000000000E+00 -0.50000000000E+03  0.50000000000E+03  0.00000000000E+00 0.  1.
        -11    1    1    2    0    0  0.10820968342E+02 -0.35213125776E+00  0.43400436294E+03  0.43413938361E+03  0.00000000000E+00 0.  1.
         11    1    1    2    0    0  0.73149590235E+01  0.40581362612E+01 -0.49699760608E+03  0.49706800093E+03  0.00000000000E+00 0.  1.
        -15    1    1    2    0    0 -0.81812169479E+00 -0.47238204988E+01  0.22326513580E+01  0.55790917091E+01  0.17770000000E+01 0. -1.
         15    1    1    2    0    0 -0.17317805671E+02  0.10178154953E+01  0.60760591789E+02  0.63213523753E+02  0.17770000000E+01 0.  1.
</event>
<event>
 6   1  0.1826851E-04  0.4823995E+03  0.7546771E-02  0.9440077E-01
        -11   -1    0    0    0    0  0.00000000000E+00  0.00000000000E+00  0.50000000000E+03  0.50000000000E+03  0.00000000000E+00 0. -1.
         11   -1    0    0    0    0 -0.00000000000E+00 -0.00000000000E+00 -0.50000000000E+03  0.50000000000E+03  0.00000000000E+00 0.  1.
        -11    1    1    2    0    0  0.19464284029E+02 -0.77341867592E+01  0.47659311753E+03  0.47705311620E+03  0.00000000000E+00 0. -1.
         11    1    1    2    0    0 -0.29280311746E+01  0.17745955595E+02 -0.48767146271E+03  0.48800302033E+03  0.00000000000E+00 0.  1.
        -15    1    1    2    0    0 -0.21627854669E+02 -0.33279459407E-01  0.59898690851E+01  0.22512251459E+02  0.17770000000E+01 0. -1.
         15    1    1    2    0    0  0.50916018147E+01 -0.99784893764E+01  0.50884760926E+01  0.12431612012E+02  0.17770000000E+01 0.  1.
</event>
<event>
 6   1  0.1826851E-04  0.5000615E+03  0.7546771E-02  0.9399672E-01
        -11   -1    0    0    0    0  0.00000000000E+00  0.00000000000E+00  0.50000000000E+03  0.50000000000E+03  0.00000000000E+00 0. -1.
         11   -1    0    0    0    0 -0.00000000000E+00 -0.00000000000E+00 -0.50000000000E+03  0.50000000000E+03  0.00000000000E+00 0. -1.
        -11    1    1    2    0    0 -0.14251488503E+00 -0.11818689820E+01  0.56964240897E+01  0.58194821241E+01  0.00000000000E+00 0. -1.
         11    1    1    2    0    0 -0.38605780118E+01  0.86379351599E+01 -0.49984891826E+03  0.49993845528E+03  0.00000000000E+00 0. -1.
        -15    1    1    2    0    0  0.14619017068E+01 -0.26930281407E+01  0.14467678732E+03  0.14472014399E+03  0.17770000000E+01 0. -1.
         15    1    1    2    0    0  0.25411911900E+01 -0.47630380371E+01  0.34947570684E+03  0.34952191861E+03  0.17770000000E+01 0. -1.
</event>
<event>
 6   1  0.1826851E-04  0.5001888E+03  0.7546771E-02  0.9399387E-01
        -11   -1    0    0    0    0  0.00000000000E+00  0.00000000000E+00  0.50000000000E+03  0.50000000000E+03  0.00000000000E+00 0.  1.
         11   -1    0    0    0    0 -0.00000000000E+00 -0.00000000000E+00 -0.50000000000E+03  0.50000000000E+03  0.00000000000E+00 0.  1.
        -11    1    1    2    0    0 -0.86000516604E+00 -0.33429287887E+01  0.82482995608E+02  0.82555189699E+02  0.00000000000E+00 0.  1.
         11    1    1    2    0    0  0.21484285580E+01 -0.77402426314E+01 -0.49974664339E+03  0.49981119903E+03  0.00000000000E+00 0.  1.
        -15    1    1    2    0    0  0.49972551701E+01  0.24768441125E+01  0.89055625103E+02  0.89247797774E+02  0.17770000000E+01 0. -1.
         15    1    1    2    0    0 -0.62856785621E+01  0.86063273076E+01  0.32820802268E+03  0.32838581349E+03  0.17770000000E+01 0.  1.
</event>
<event>
 6   1  0.1826851E-04  0.5001259E+03  0.7546771E-02  0.9399528E-01
        -11   -1    0    0    0    0  0.00000000000E+00  0.00000000000E+00  0.50000000000E+03  0.50000000000E+03  0.00000000000E+00 0. -1.
         11   -1    0    0    0    0 -0.00000000000E+00 -0.00000000000E+00 -0.50000000000E+03  0.50000000000E+03  0.00000000000E+00 0. -1.
        -11    1    1    2    0    0 -0.39094922343E+01 -0.13141889632E+02  0.37567651176E+03  0.37592663497E+03  0.00000000000E+00 0. -1.
         11    1    1    2    0    0  0.66937676040E+01  0.17890224826E+02 -0.49950901806E+03  0.49987410994E+03  0.00000000000E+00 0. -1.
        -15    1    1    2    0    0 -0.44257315382E+01 -0.39007188761E+01  0.10651762620E+03  0.10669566593E+03  0.17770000000E+01 0. -1.
         15    1    1    2    0    0  0.16414561684E+01 -0.84761631801E+00  0.17314880091E+02  0.17503589156E+02  0.17770000000E+01 0. -1.
</event>
<event>
 6   1  0.1826851E-04  0.5000479E+03  0.7546771E-02  0.9399702E-01
        -11   -1    0    0    0    0  0.00000000000E+00  0.00000000000E+00  0.50000000000E+03  0.50000000000E+03  0.00000000000E+00 0. -1.
         11   -1    0    0    0    0 -0.00000000000E+00 -0.00000000000E+00 -0.50000000000E+03  0.50000000000E+03  0.00000000000E+00 0.  1.
        -11    1    1    2    0    0 -0.28685953709E+01  0.79240812169E+01  0.35147752172E+03  0.35157853771E+03  0.00000000000E+00 0. -1.
         11    1    1    2    0    0  0.41907613751E+01 -0.11985148414E+02 -0.49979082667E+03  0.49995207439E+03  0.00000000000E+00 0.  1.
        -15    1    1    2    0    0  0.87933122155E+00  0.21927719077E+00  0.51440458797E+02  0.51479120390E+02  0.17770000000E+01 0. -1.
         15    1    1    2    0    0 -0.22014972258E+01  0.38417900059E+01  0.96872846153E+02  0.96990267508E+02  0.17770000000E+01 0.  1.
</event>
<event>
 6   1  0.1826851E-04  0.5097926E+03  0.7546771E-02  0.9378161E-01
        -11   -1    0    0    0    0  0.00000000000E+00  0.00000000000E+00  0.50000000000E+03  0.50000000000E+03  0.00000000000E+00 0. -1.
         11   -1    0    0    0    0 -0.00000000000E+00 -0.00000000000E+00 -0.50000000000E+03  0.50000000000E+03  0.00000000000E+00 0. -1.
        -11    1    1    2    0    0  0.32573401556E+02 -0.13372852940E+01  0.48912212158E+03  0.49020736902E+03  0.00000000000E+00 0. -1.
         11    1    1    2    0    0  0.74539964702E+01 -0.10504351946E+01 -0.44531710219E+03  0.44538072138E+03  0.00000000000E+00 0. -1.
        -15    1    1    2    0    0 -0.35081834188E+02 -0.75614018893E+01 -0.34467618757E+02  0.49790404300E+02  0.17770000000E+01 0.  1.
         15    1    1    2    0    0 -0.49455638382E+01  0.99491223779E+01 -0.93374006332E+01  0.14621505304E+02  0.17770000000E+01 0. -1.
</event>
<event>
 6   1  0.1826851E-04  0.5045133E+03  0.7546771E-02  0.9389767E-01
        -11   -1    0    0    0    0  0.00000000000E+00  0.00000000000E+00  0.50000000000E+03  0.50000000000E+03  0.00000000000E+00 0.  1.
         11   -1    0    0    0    0 -0.00000000000E+00 -0.00000000000E+00 -0.50000000000E+03  0.50000000000E+03  0.00000000000E+00 0. -1.
        -11    1    1    2    0    0  0.58228479540E+01 -0.53461270138E+01  0.48393385074E+03  0.48399840757E+03  0.00000000000E+00 0.  1.
         11    1    1    2    0    0  0.61919884391E+01 -0.25295951184E+01 -0.49544155225E+03  0.49548670140E+03  0.00000000000E+00 0. -1.
        -15    1    1    2    0    0 -0.91519042611E+01  0.79918870844E+01  0.51443537252E+01  0.13313516253E+02  0.17770000000E+01 0. -1.
         15    1    1    2    0    0 -0.28629321321E+01 -0.11616495214E+00  0.63633477830E+01  0.72013747783E+01  0.17770000000E+01 0.  1.
</event>
<event>
 6   1  0.1826851E-04  0.5171273E+03  0.7546771E-02  0.9362281E-01
        -11   -1    0    0    0    0  0.00000000000E+00  0.00000000000E+00  0.50000000000E+03  0.50000000000E+03  0.00000000000E+00 0. -1.
         11   -1    0    0    0    0 -0.00000000000E+00 -0.00000000000E+00 -0.50000000000E+03  0.50000000000E+03  0.00000000000E+00 0.  1.
        -11    1    1    2    0    0 -0.10747119336E+03 -0.19085754794E+01  0.47075716295E+03  0.48287266078E+03  0.00000000000E+00 0. -1.
         11    1    1    2    0    0 -0.63211865999E+01  0.23743949915E+01 -0.30951876173E+03  0.30959240787E+03  0.00000000000E+00 0.  1.
        -15    1    1    2    0    0  0.56108760344E+02 -0.57825538847E+01 -0.29649110270E+02  0.63748399082E+02  0.17770000000E+01 0. -1.
         15    1    1    2    0    0  0.57683619617E+02  0.53167343726E+01 -0.13158929095E+03  0.14378653226E+03  0.17770000000E+01 0.  1.
</event>
<event>
 6   1  0.1826851E-04  0.4928486E+03  0.7546771E-02  0.9415955E-01
        -11   -1    0    0    0    0  0.00000000000E+00  0.00000000000E+00  0.50000000000E+03  0.50000000000E+03  0.00000000000E+00 0.  1.
         11   -1    0    0    0    0 -0.00000000000E+00 -0.00000000000E+00 -0.50000000000E+03  0.50000000000E+03  0.00000000000E+00 0.  1.
        -11    1    1    2    0    0 -0.13748014491E+02 -0.54422599940E+01 -0.17054121641E+01  0.14884035976E+02  0.00000000000E+00 0.  1.
         11    1    1    2    0    0  0.42640911722E+02  0.20842148145E+02 -0.48966644915E+03  0.49196125245E+03  0.00000000000E+00 0.  1.
        -15    1    1    2    0    0 -0.95940661827E+01 -0.12475009071E+02  0.96025122247E+02  0.97322421819E+02  0.17770000000E+01 0. -1.
         15    1    1    2    0    0 -0.19298831048E+02 -0.29248790804E+01  0.39534673906E+03  0.39583228976E+03  0.17770000000E+01 0.  1.
</event>
<event>
 6   1  0.1826851E-04  0.4914106E+03  0.7546771E-02  0.9419237E-01
        -11   -1    0    0    0    0  0.00000000000E+00  0.00000000000E+00  0.50000000000E+03  0.50000000000E+03  0.00000000000E+00 0.  1.
         11   -1    0    0    0    0 -0.00000000000E+00 -0.00000000000E+00 -0.50000000000E+03  0.50000000000E+03  0.00000000000E+00 0.  1.
        -11    1    1    2    0    0  0.98413232900E+01  0.78262131851E-01  0.49270032938E+03  0.49279861236E+03  0.00000000000E+00 0.  1.
         11    1    1    2    0    0  0.31423704819E+01 -0.72802331221E+01 -0.49007410554E+03  0.49013825112E+03  0.00000000000E+00 0.  1.
        -15    1    1    2    0    0 -0.11075445006E+02  0.64213858649E+01  0.47890470996E+00  0.12933938195E+02  0.17770000000E+01 0.  1.
         15    1    1    2    0    0 -0.19082487656E+01  0.78058512536E+00 -0.31051285558E+01  0.41291983286E+01  0.17770000000E+01 0. -1.
</event>
<event>
 6   1  0.1826851E-04  0.5001679E+03  0.7546771E-02  0.9399434E-01
        -11   -1    0    0    0    0  0.00000000000E+00  0.00000000000E+00  0.50000000000E+03  0.50000000000E+03  0.00000000000E+00 0. -1.
         11   -1    0    0    0    0 -0.00000000000E+00 -0.00000000000E+00 -0.50000000000E+03  0.50000000000E+03  0.00000000000E+00 0.  1.
        -11    1    1    2    0    0 -0.37004880446E+01  0.56964654590E+01  0.49978596732E+03  0.49983212828E+03  0.00000000000E+00 0. -1.
         11    1    1    2    0    0  0.43473407205E+01  0.31762706702E+01 -0.24651577536E+03  0.24657456391E+03  0.00000000000E+00 0.  1.
        -15    1    1    2    0    0  0.31917854500E+00 -0.74096058052E+01 -0.95717240586E+02  0.96020581167E+02  0.17770000000E+01 0. -1.
         15    1    1    2    0    0 -0.96603122094E+00 -0.14631303240E+01 -0.15755295137E+03  0.15757272664E+03  0.17770000000E+01 0.  1.
</event>
<event>
 6   1  0.1826851E-04  0.5000697E+03  0.7546771E-02  0.9399654E-01
        -11   -1    0    0    0    0  0.00000000000E+00  0.00000000000E+00  0.50000000000E+03  0.50000000000E+03  0.00000000000E+00 0. -1.
         11   -1    0    0    0    0 -0.00000000000E+00 -0.00000000000E+00 -0.50000000000E+03  0.50000000000E+03  0.00000000000E+00 0.  1.
        -11    1    1    2    0    0  0.90231383790E+01  0.88474148034E+01  0.49977053655E+03  0.49993027812E+03  0.00000000000E+00 0. -1.
         11    1    1    2    0    0 -0.55726599098E+01  0.19897767710E+00 -0.17231974523E+03  0.17240994382E+03  0.00000000000E+00 0.  1.
        -15    1    1    2    0    0  0.11148094298E+01 -0.32881034343E+01 -0.14493874087E+03  0.14499120924E+03  0.17770000000E+01 0.  1.
         15    1    1    2    0    0 -0.45652878991E+01 -0.57582890462E+01 -0.18251205045E+03  0.18266856882E+03  0.17770000000E+01 0.  1.
</event>
<event>
 6   1  0.1826851E-04  0.5132696E+03  0.7546771E-02  0.9370598E-01
        -11   -1    0    0    0    0  0.00000000000E+00  0.00000000000E+00  0.50000000000E+03  0.50000000000E+03  0.00000000000E+00 0.  1.
         11   -1    0    0    0    0 -0.00000000000E+00 -0.00000000000E+00 -0.50000000000E+03  0.50000000000E+03  0.00000000000E+00 0. -1.
        -11    1    1    2    0    0  0.34483736567E+02 -0.26268140479E+02  0.48479617605E+03  0.48673039314E+03  0.00000000000E+00 0.  1.
         11    1    1    2    0    0  0.34073471696E+01  0.17747582871E+02 -0.43047537357E+03  0.43085453921E+03  0.00000000000E+00 0. -1.
        -15    1    1    2    0    0 -0.39798545050E+01 -0.75231086620E+01 -0.41997377828E+02  0.42887922301E+02  0.17770000000E+01 0.  1.
         15    1    1    2    0    0 -0.33911229232E+02  0.16043666270E+02 -0.12323424654E+02  0.39527145351E+02  0.17770000000E+01 0. -1.
</event>
<event>
 6   1  0.1826851E-04  0.5010992E+03  0.7546771E-02  0.9397354E-01
        -11   -1    0    0    0    0  0.00000000000E+00  0.00000000000E+00  0.50000000000E+03  0.50000000000E+03  0.00000000000E+00 0.  1.
         11   -1    0    0    0    0 -0.00000000000E+00 -0.00000000000E+00 -0.50000000000E+03  0.50000000000E+03  0.00000000000E+00 0.  1.
        -11    1    1    2    0    0  0.97297602185E+01 -0.87229617556E+01  0.41340348367E+03  0.41360995951E+03  0.00000000000E+00 0.  1.
         11    1    1    2    0    0  0.13875998540E+01  0.13048991065E+02 -0.49872821628E+03  0.49890082713E+03  0.00000000000E+00 0.  1.
        -15    1    1    2    0    0 -0.77171329344E+01  0.11481912989E+01  0.73265029834E+02  0.73700711052E+02  0.17770000000E+01 0.  1.
         15    1    1    2    0    0 -0.34002271380E+01 -0.54742206083E+01  0.12059702771E+02  0.13788502304E+02  0.17770000000E+01 0. -1.
</event>
<event>
 6   1  0.1826851E-04  0.5004383E+03  0.7546771E-02  0.9398830E-01
        -11   -1    0    0    0    0  0.00000000000E+00  0.00000000000E+00  0.50000000000E+03  0.50000000000E+03  0.00000000000E+00 0.  1.
         11   -1    0    0    0    0 -0.00000000000E+00 -0.00000000000E+00 -0.50000000000E+03  0.50000000000E+03  0.00000000000E+00 0. -1.
        -11    1    1    2    0    0 -0.12426945823E+02  0.12242942042E+02  0.49925706183E+03  0.49956174033E+03  0.00000000000E+00 0.  1.
         11    1    1    2    0    0  0.91092867510E+01 -0.90445703197E+01 -0.44159675172E+03  0.44178328905E+03  0.00000000000E+00 0. -1.
        -15    1    1    2    0    0  0.24692891374E+01 -0.47673888203E+01 -0.16984178533E+02  0.17900989762E+02  0.17770000000E+01 0.  1.
         15    1    1    2    0    0  0.84836993503E+00  0.15690170985E+01 -0.40676131584E+02  0.40753980859E+02  0.17770000000E+01 0. -1.
</event>
<event>
 6   1  0.1826851E-04  0.5002398E+03  0.7546771E-02  0.9399273E-01
        -11   -1    0    0    0    0  0.00000000000E+00  0.00000000000E+00  0.50000000000E+03  0.50000000000E+03  0.00000000000E+00 0. -1.
         11   -1    0    0    0    0 -0.00000000000E+00 -0.00000000000E+00 -0.50000000000E+03  0.50000000000E+03  0.00000000000E+00 0.  1.
        -11    1    1    2    0    0  0.69973128710E+01  0.12726001073E+02  0.18572329955E+03  0.18629025065E+03  0.00000000000E+00 0. -1.
         11    1    1    2    0    0 -0.62153385660E+01 -0.13369156768E+02 -0.49954267000E+03  0.49976018643E+03  0.00000000000E+00 0.  1.
        -15    1    1    2    0    0 -0.25155246436E+01  0.25297534760E+01  0.26538746346E+03  0.26541739018E+03  0.17770000000E+01 0.  1.
         15    1    1    2    0    0  0.17335503386E+01 -0.18865977806E+01  0.48431906991E+02  0.48532172749E+02  0.17770000000E+01 0. -1.
</event>
<event>
 6   1  0.1826851E-04  0.4894737E+03  0.7546771E-02  0.9423676E-01
        -11   -1    0    0    0    0  0.00000000000E+00  0.00000000000E+00  0.50000000000E+03  0.50000000000E+03  0.00000000000E+00 0. -1.
         11   -1    0    0    0    0 -0.00000000000E+00 -0.00000000000E+00 -0.50000000000E+03  0.50000000000E+03  0.00000000000E+00 0. -1.
        -11    1    1    2    0    0  0.14137651405E+02  0.23697390569E+01  0.48959893334E+03  0.48980874265E+03  0.00000000000E+00 0. -1.
         11    1    1    2    0    0 -0.40650941478E+01  0.81975204719E+01 -0.48916193310E+03  0.48924750498E+03  0.00000000000E+00 0. -1.
        -15    1    1    2    0    0  0.28371207290E+01 -0.53783970725E+01  0.21313719099E+01  0.66840769235E+01  0.17770000000E+01 0.  1.
         15    1    1    2    0    0 -0.12909677986E+02 -0.51888624563E+01 -0.25683721469E+01  0.14259675444E+02  0.17770000000E+01 0. -1.
</event>
<event>
 6   1  0.1826851E-04  0.5019144E+03  0.7546771E-02  0.9395536E-01
        -11   -1    0    0    0    0  0.00000000000E+00  0.00000000000E+00  0.50000000000E+03  0.50000000000E+03  0.00000000000E+00 0. -1.
         11   -1    0    0    0    0 -0.00000000000E+00 -0.00000000000E+00 -0.50000000000E+03  0.50000000000E+03  0.00000000000E+00 0. -1.
        -11    1    1    2    0    0 -0.78663922199E+01 -0.29776974247E+01  0.43479728773E+03  0.43487863621E+03  0.00000000000E+00 0. -1.
         11    1    1    2    0    0 -0.78714345571E+00  0.74388594776E+01 -0.49802944567E+03  0.49808562013E+03  0.00000000000E+00 0. -1.
        -15    1    1    2    0    0  0.67538147713E+01 -0.62663660227E+01  0.10012026974E+02  0.13721507579E+02  0.17770000000E+01 0. -1.
         15    1    1    2    0    0  0.18997209044E+01  0.18052039698E+01  0.53220130961E+02  0.53314236085E+02  0.17770000000E+01 0.  1.
</event>
<event>
 6   1  0.1826851E-04  0.5002178E+03  0.7546771E-02  0.9399323E-01
        -11   -1    0    0    0    0  0.00000000000E+00  0.00000000000E+00  0.50000000000E+03  0.50000000000E+03  0.00000000000E+00 0. -1.
         11   -1    0    0    0    0 -0.00000000000E+00 -0.00000000000E+00 -0.50000000000E+03  0.50000000000E+03  0.00000000000E+00 0. -1.
        -11    1    1    2    0    0  0.48701328166E+01 -0.78082039483E+01  0.13026604036E+03  0.13059068693E+03  0.00000000000E+00 0. -1.
         11    1    1    2    0    0 -0.18742381121E+02  0.51079811804E+01 -0.49940452531E+03  0.49978220079E+03  0.00000000000E+00 0. -1.
        -15    1    1    2    0    0  0.15801698736E+02  0.18512322089E+01  0.33242874049E+03  0.33281398104E+03  0.17770000000E+01 0. -1.
         15    1    1    2    0    0 -0.19294504320E+01  0.84899055898E+00  0.36709744463E+02  0.36813131237E+02  0.17770000000E+01 0. -1.
</event>
<event>
 6   1  0.1826851E-04  0.5083713E+03  0.7546771E-02  0.9381271E-01
        -11   -1    0    0    0    0  0.00000000000E+00  0.00000000000E+00  0.50000000000E+03  0.50000000000E+03  0.00000000000E+00 0. -1.
         11   -1    0    0    0    0 -0.00000000000E+00 -0.00000000000E+00 -0.50000000000E+03  0.50000000000E+03  0.00000000000E+00 0. -1.
        -11    1    1    2    0    0 -0.34907572496E+02  0.28333030945E+02  0.38786451921E+03  0.39046150197E+03  0.00000000000E+00 0. -1.
         11    1    1    2    0    0  0.15865275531E+02  0.16258737968E+02 -0.49110358905E+03  0.49162871021E+03  0.00000000000E+00 0. -1.
        -15    1    1    2    0    0  0.39521769850E+01 -0.25695585381E+02  0.80706784139E+02  0.84809348224E+02  0.17770000000E+01 0.  1.
         15    1    1    2    0    0  0.15090119980E+02 -0.18896183532E+02  0.22532285701E+02  0.33100439589E+02  0.17770000000E+01 0. -1.
</event>
<event>
 6   1  0.1826851E-04  0.5015251E+03  0.7546771E-02  0.9396404E-01
        -11   -1    0    0    0    0  0.00000000000E+00  0.00000000000E+00  0.50000000000E+03  0.50000000000E+03  0.00000000000E+00 0.  1.
         11   -1    0    0    0    0 -0.00000000000E+00 -0.00000000000E+00 -0.50000000000E+03  0.50000000000E+03  0.00000000000E+00 0. -1.
        -11    1    1    2    0    0 -0.72171913511E+01 -0.77714208624E+01  0.43608436323E+03  0.43621331328E+03  0.00000000000E+00 0.  1.
         11    1    1    2    0    0  0.22770901880E+01  0.11494802391E+02 -0.49833713241E+03  0.49847488719E+03  0.00000000000E+00 0. -1.
        -15    1    1    2    0    0 -0.21046234755E+01 -0.88691581414E+01  0.18951141754E+02  0.21104381272E+02  0.17770000000E+01 0.  1.
         15    1    1    2    0    0  0.70447246385E+01  0.51457766124E+01  0.43301627423E+02  0.44207418254E+02  0.17770000000E+01 0. -1.
</event>
<event>
 6   1  0.1826851E-04  0.5003611E+03  0.7546771E-02  0.9399002E-01
        -11   -1    0    0    0    0  0.00000000000E+00  0.00000000000E+00  0.50000000000E+03  0.50000000000E+03  0.00000000000E+00 0.  1.
         11   -1    0    0    0    0 -0.00000000000E+00 -0.00000000000E+00 -0.50000000000E+03  0.50000000000E+03  0.00000000000E+00 0. -1.
        -11    1    1    2    0    0  0.14378524631E+02  0.54182164104E+00  0.49943166263E+03  0.49963889078E+03  0.00000000000E+00 0.  1.
         11    1    1    2    0    0  0.31249898008E+01  0.61001914697E+01 -0.23772448892E+03  0.23782327583E+03  0.00000000000E+00 0. -1.
        -15    1    1    2    0    0  0.18109766868E+00 -0.92805104355E+00 -0.37853143870E+02  0.37906626135E+02  0.17770000000E+01 0. -1.
         15    1    1    2    0    0 -0.17684612101E+02 -0.57139620672E+01 -0.22385402984E+03  0.22463120725E+03  0.17770000000E+01 0.  1.
</event>
<event>
 6   1  0.1826851E-04  0.4401692E+03  0.7546771E-02  0.9544635E-01
        -11   -1    0    0    0    0  0.00000000000E+00  0.00000000000E+00  0.50000000000E+03  0.50000000000E+03  0.00000000000E+00 0.  1.
         11   -1    0    0    0    0 -0.00000000000E+00 -0.00000000000E+00 -0.50000000000E+03  0.50000000000E+03  0.00000000000E+00 0.  1.
        -11    1    1    2    0    0 -0.43364661422E+02 -0.53329555086E+02  0.43456531525E+03  0.43996766759E+03  0.00000000000E+00 0.  1.
         11    1    1    2    0    0 -0.22247382030E+02 -0.55570772701E+01 -0.44423560964E+03  0.44482704952E+03  0.00000000000E+00 0.  1.
        -15    1    1    2    0    0  0.17686209255E+02  0.96742752706E+01 -0.29753186931E+02  0.35983377570E+02  0.17770000000E+01 0.  1.
         15    1    1    2    0    0  0.47925834197E+02  0.49212357085E+02  0.39423481317E+02  0.79221905314E+02  0.17770000000E+01 0. -1.
</event>
<event>
 6   1  0.1826851E-04  0.5000901E+03  0.7546771E-02  0.9399608E-01
        -11   -1    0    0    0    0  0.00000000000E+00  0.00000000000E+00  0.50000000000E+03  0.50000000000E+03  0.00000000000E+00 0. -1.
         11   -1    0    0    0    0 -0.00000000000E+00 -0.00000000000E+00 -0.50000000000E+03  0.50000000000E+03  0.00000000000E+00 0.  1.
        -11    1    1    2    0    0 -0.14234706434E+02  0.53018329026E+01  0.36643136748E+03  0.36674607478E+03  0.00000000000E+00 0. -1.
         11    1    1    2    0    0  0.15642486286E+02 -0.17688073691E+01 -0.49966202591E+03  0.49990994809E+03  0.00000000000E+00 0.  1.
        -15    1    1    2    0    0 -0.12237192683E+01 -0.19951381687E+01  0.55673364876E+02  0.55750868610E+02  0.17770000000E+01 0. -1.
         15    1    1    2    0    0 -0.18406058355E+00 -0.15378873648E+01  0.77557293562E+02  0.77593108518E+02  0.17770000000E+01 0. -1.
</event>
<event>
 6   1  0.1826851E-04  0.5012157E+03  0.7546771E-02  0.9397094E-01
        -11   -1    0    0    0    0  0.00000000000E+00  0.00000000000E+00  0.50000000000E+03  0.50000000000E+03  0.00000000000E+00 0.  1.
         11   -1    0    0    0    0 -0.00000000000E+00 -0.00000000000E+00 -0.50000000000E+03  0.50000000000E+03  0.00000000000E+00 0. -1.
        -11    1    1    2    0    0  0.95808434787E+01 -0.61187909259E+01  0.49865476647E+03  0.49878433044E+03  0.00000000000E+00 0.  1.
         11    1    1    2    0    0  0.19910342577E+01 -0.76276905979E+01 -0.42190299187E+03  0.42197663494E+03  0.00000000000E+00 0. -1.
        -15    1    1    2    0    0 -0.11687409129E+02  0.12052526124E+02 -0.60854089322E+02  0.63152488742E+02  0.17770000000E+01 0. -1.
         15    1    1    2    0    0  0.11553139254E+00  0.16939553999E+01 -0.15897685277E+02  0.16086545887E+02  0.17770000000E+01 0.  1.
</event>
<event>
 6   1  0.1826851E-04  0.5026587E+03  0.7546771E-02  0.9393880E-01
        -11   -1    0    0    0    0  0.00000000000E+00  0.00000000000E+00  0.50000000000E+03  0.50000000000E+03  0.00000000000E+00 0. -1.
         11   -1    0    0    0    0 -0.00000000000E+00 -0.00000000000E+00 -0.50000000000E+03  0.50000000000E+03  0.00000000000E+00 0. -1.
        -11    1    1    2    0    0 -0.55013391555E+01  0.75206122508E+01  0.49725401923E+03  0.49734131538E+03  0.00000000000E+00 0. -1.
         11    1    1    2    0    0  0.29776252324E+01  0.73836063394E+01 -0.46430079197E+03  0.46436904432E+03  0.00000000000E+00 0. -1.
        -15    1    1    2    0    0 -0.10024684925E+01  0.83587978999E+00 -0.96115438441E+01  0.98611937497E+01  0.17770000000E+01 0. -1.
         15    1    1    2    0    0  0.35261824157E+01 -0.15740098380E+02 -0.23341683420E+02  0.28428446551E+02  0.17770000000E+01 0. -1.
</event>
<event>
 6   1  0.1826851E-04  0.5065597E+03  0.7546771E-02  0.9385250E-01
        -11   -1    0    0    0    0  0.00000000000E+00  0.00000000000E+00  0.50000000000E+03  0.50000000000E+03  0.00000000000E+00 0. -1.
         11   -1    0    0    0    0 -0.00000000000E+00 -0.00000000000E+00 -0.50000000000E+03  0.50000000000E+03  0.00000000000E+00 0. -1.
        -11    1    1    2    0    0 -0.37008771406E+02  0.19582923519E+02  0.37596473838E+03  0.37828907539E+03  0.00000000000E+00 0. -1.
         11    1    1    2    0    0  0.18739806289E+00  0.78478973356E+01 -0.49337786382E+03  0.49344031161E+03  0.00000000000E+00 0. -1.
        -15    1    1    2    0    0  0.24342578796E+00 -0.18895028104E+01 -0.52584681961E-01  0.26057573052E+01  0.17770000000E+01 0. -1.
         15    1    1    2    0    0  0.36577947555E+02 -0.25541318044E+02  0.11746571012E+03  0.12566485570E+03  0.17770000000E+01 0.  1.
</event>
<event>
 6   1  0.1826851E-04  0.5019935E+03  0.7546771E-02  0.9395360E-01
        -11   -1    0    0    0    0  0.00000000000E+00  0.00000000000E+00  0.50000000000E+03  0.50000000000E+03  0.00000000000E+00 0.  1.
         11   -1    0    0    0    0 -0.00000000000E+00 -0.00000000000E+00 -0.50000000000E+03  0.50000000000E+03  0.00000000000E+00 0. -1.
        -11    1    1    2    0    0 -0.18989850556E+02  0.11240845985E+02  0.49751735016E+03  0.49800651075E+03  0.00000000000E+00 0.  1.
         11    1    1    2    0    0  0.61318530669E+01 -0.14147054288E+01 -0.45262864577E+03  0.45267238925E+03  0.00000000000E+00 0. -1.
        -15    1    1    2    0    0  0.14252892889E+02 -0.52362091121E+01 -0.32422730246E+02  0.35846255135E+02  0.17770000000E+01 0. -1.
         15    1    1    2    0    0 -0.13948953993E+01 -0.45899314442E+01 -0.12465974144E+02  0.13474844867E+02  0.17770000000E+01 0.  1.
</event>
<event>
 6   1  0.1826851E-04  0.5020304E+03  0.7546771E-02  0.9395278E-01
        -11   -1    0    0    0    0  0.00000000000E+00  0.00000000000E+00  0.50000000000E+03  0.50000000000E+03  0.00000000000E+00 0.  1.
         11   -1    0    0    0    0 -0.00000000000E+00 -0.00000000000E+00 -0.50000000000E+03  0.50000000000E+03  0.00000000000E+00 0. -1.
        -11    1    1    2    0    0  0.53174774460E+01  0.20835763294E+02  0.49750512179E+03  0.49796962840E+03  0.00000000000E+00 0.  1.
         11    1    1    2    0    0 -0.11125279101E+02 -0.74639160104E+01 -0.46999645582E+03  0.47018735666E+03  0.00000000000E+00 0. -1.
        -15    1    1    2    0    0  0.15950507896E+01 -0.97606590771E+01 -0.15145458959E+02  0.18175734063E+02  0.17770000000E+01 0. -1.
         15    1    1    2    0    0  0.42127508653E+01 -0.36111882070E+01 -0.12363207007E+02  0.13667280879E+02  0.17770000000E+01 0.  1.
</event>
<event>
 6   1  0.1826851E-04  0.5004229E+03  0.7546771E-02  0.9398864E-01
        -11   -1    0    0    0    0  0.00000000000E+00  0.00000000000E+00  0.50000000000E+03  0.50000000000E+03  0.00000000000E+00 0. -1.
         11   -1    0    0    0    0 -0.00000000000E+00 -0.00000000000E+00 -0.50000000000E+03  0.50000000000E+03  0.00000000000E+00 0. -1.
        -11    1    1    2    0    0  0.35494047418E+01 -0.70024516680E+01  0.31973726198E+03  0.31983362753E+03  0.00000000000E+00 0. -1.
         11    1    1    2    0    0 -0.83279200389E+01 -0.56900942914E+00 -0.49950737559E+03  0.49957711746E+03  0.00000000000E+00 0. -1.
        -15    1    1    2    0    0 -0.37392754490E-01  0.10225215152E+02  0.82934029816E+02  0.83580903642E+02  0.17770000000E+01 0.  1.
         15    1    1    2    0    0  0.48159080515E+01 -0.26537540553E+01  0.96836083796E+02  0.97008351367E+02  0.17770000000E+01 0. -1.
</event>
<event>
 6   1  0.1826851E-04  0.5003796E+03  0.7546771E-02  0.9398961E-01
        -11   -1    0    0    0    0  0.00000000000E+00  0.00000000000E+00  0.50000000000E+03  0.50000000000E+03  0.00000000000E+00 0.  1.
         11   -1    0    0    0    0 -0.00000000000E+00 -0.00000000000E+00 -0.50000000000E+03  0.50000000000E+03  0.00000000000E+00 0. -1.
        -11    1    1    2    0    0 -0.13546922878E+02  0.12304744607E+02  0.23838464569E+03  0.23908610407E+03  0.00000000000E+00 0.  1.
         11    1    1    2    0    0  0.48269877252E+01 -0.10639534458E+02 -0.49948377149E+03  0.49962039339E+03  0.00000000000E+00 0. -1.
        -15    1    1    2    0    0  0.48298835475E+01  0.56781032847E+00  0.15094082664E+03  0.15102960326E+03  0.17770000000E+01 0.  1.
         15    1    1    2    0    0  0.38900516058E+01 -0.22330204773E+01  0.11015829916E+03  0.11026389928E+03  0.17770000000E+01 0.  1.
</event>
<event>
 6   1  0.1826851E-04  0.4941458E+03  0.7546771E-02  0.9413005E-01
        -11   -1    0    0    0    0  0.00000000000E+00  0.00000000000E+00  0.50000000000E+03  0.50000000000E+03  0.00000000000E+00 0.  1.
         11   -1    0    0    0    0 -0.00000000000E+00 -0.00000000000E+00 -0.50000000000E+03  0.50000000000E+03  0.00000000000E+00 0.  1.
        -11    1    1    2    0    0  0.66552547287E+01  0.64757448349E+01  0.49223892249E+03  0.49232650192E+03  0.00000000000E+00 0.  1.
         11    1    1    2    0    0 -0.67719793841E+01  0.14673829770E+01 -0.49595568279E+03  0.49600408487E+03  0.00000000000E+00 0.  1.
        -15    1    1    2    0    0  0.12250017561E+01 -0.16871459045E+01 -0.16210837013E+01  0.31831952457E+01  0.17770000000E+01 0.  1.
         15    1    1    2    0    0 -0.11082771007E+01 -0.62559819074E+01  0.53378440009E+01  0.84862179642E+01  0.17770000000E+01 0. -1.
</event>
<event>
 6   1  0.1826851E-04  0.5016492E+03  0.7546771E-02  0.9396127E-01
        -11   -1    0    0    0    0  0.00000000000E+00  0.00000000000E+00  0.50000000000E+03  0.50000000000E+03  0.00000000000E+00 0. -1.
         11   -1    0    0    0    0 -0.00000000000E+00 -0.00000000000E+00 -0.50000000000E+03  0.50000000000E+03  0.00000000000E+00 0. -1.
        -11    1    1    2    0    0  0.15890232994E+02  0.12849392013E+02  0.49793164118E+03  0.49835080582E+03  0.00000000000E+00 0. -1.
         11    1    1    2    0    0  0.12610102833E+02  0.16614630955E+01 -0.33372641900E+03  0.33396870795E+03  0.00000000000E+00 0. -1.
        -15    1    1    2    0    0 -0.20733835109E+02 -0.79309270039E+01 -0.13178456661E+03  0.13365298817E+03  0.17770000000E+01 0. -1.
         15    1    1    2    0    0 -0.77665007182E+01 -0.65799281046E+01 -0.32420655571E+02  0.34027498055E+02  0.17770000000E+01 0.  1.
</event>
<event>
 6   1  0.1826851E-04  0.4839942E+03  0.7546771E-02  0.9436354E-01
        -11   -1    0    0    0    0  0.00000000000E+00  0.00000000000E+00  0.50000000000E+03  0.50000000000E+03  0.00000000000E+00 0.  1.
         11   -1    0    0    0    0 -0.00000000000E+00 -0.00000000000E+00 -0.50000000000E+03  0.50000000000E+03  0.00000000000E+00 0.  1.
        -11    1    1    2    0    0 -0.13521150528E+02  0.27203192747E+02  0.47945926545E+03  0.48042067236E+03  0.00000000000E+00 0.  1.
         11    1    1    2    0    0  0.55486000471E+00 -0.11231665374E+02 -0.48769173467E+03  0.48782136714E+03  0.00000000000E+00 0.  1.
        -15    1    1    2    0    0  0.14959212824E+02 -0.18984852464E+02  0.11257063868E+02  0.26722310666E+02  0.17770000000E+01 0.  1.
         15    1    1    2    0    0 -0.19929223012E+01  0.30133250906E+01 -0.30245946521E+01  0.50356498299E+01  0.17770000000E+01 0. -1.
</event>
<event>
 6   1  0.1826851E-04  0.5057953E+03  0.7546771E-02  0.9386935E-01
        -11   -1    0    0    0    0  0.00000000000E+00  0.00000000000E+00  0.50000000000E+03  0.50000000000E+03  0.00000000000E+00 0. -1.
         11   -1    0    0    0    0 -0.00000000000E+00 -0.00000000000E+00 -0.50000000000E+03  0.50000000000E+03  0.00000000000E+00 0. -1.
        -11    1    1    2    0    0 -0.11434931468E+02  0.12715181223E+02  0.49390876001E+03  0.49420471133E+03  0.00000000000E+00 0. -1.
         11    1    1    2    0    0 -0.57709497772E+01  0.78072001249E+01 -0.45661430787E+03  0.45671750830E+03  0.00000000000E+00 0. -1.
        -15    1    1    2    0    0  0.63336083920E+01 -0.19796441547E+02 -0.24575779484E+02  0.32235700076E+02  0.17770000000E+01 0. -1.
         15    1    1    2    0    0  0.10872272853E+02 -0.72593980101E+00 -0.12718672655E+02  0.16842080296E+02  0.17770000000E+01 0.  1.
</event>
<event>
 6   1  0.1826851E-04  0.5002757E+03  0.7546771E-02  0.9399193E-01
        -11   -1    0    0    0    0  0.00000000000E+00  0.00000000000E+00  0.50000000000E+03  0.50000000000E+03  0.00000000000E+00 0.  1.
         11   -1    0    0    0    0 -0.00000000000E+00 -0.00000000000E+00 -0.50000000000E+03  0.50000000000E+03  0.00000000000E+00 0.  1.
        -11    1    1    2    0    0  0.97685068003E+01  0.21468510362E+02  0.30807907402E+03  0.30898064100E+03  0.00000000000E+00 0.  1.
         11    1    1    2    0    0 -0.21001144552E+02 -0.20569133285E+02 -0.49885890884E+03  0.49972427222E+03  0.00000000000E+00 0.  1.
        -15    1    1    2    0    0  0.58384408078E+00  0.11054372704E+01  0.13336292351E+02  0.13512116345E+02  0.17770000000E+01 0. -1.
         15    1    1    2    0    0  0.10648793671E+02 -0.20048143473E+01  0.17744354246E+03  0.17778297044E+03  0.17770000000E+01 0. -1.
</event>
<event>
 6   1  0.1826851E-04  0.5018210E+03  0.7546771E-02  0.9395744E-01
        -11   -1    0    0    0    0  0.00000000000E+00  0.00000000000E+00  0.50000000000E+03  0.50000000000E+03  0.00000000000E+00 0. -1.
         11   -1    0    0    0    0 -0.00000000000E+00 -0.00000000000E+00 -0.50000000000E+03  0.50000000000E+03  0.00000000000E+00 0. -1.
        -11    1    1    2    0    0  0.14967496686E+02 -0.10725503320E+00  0.31869852140E+02  0.35209727862E+02  0.00000000000E+00 0. -1.
         11    1    1    2    0    0  0.25820031125E+00  0.11380642376E+02 -0.49804891212E+03  0.49817898847E+03  0.00000000000E+00 0. -1.
        -15    1    1    2    0    0 -0.13815472890E+02 -0.83432789366E+01  0.35633439510E+03  0.35670413013E+03  0.17770000000E+01 0. -1.
         15    1    1    2    0    0 -0.14102241074E+01 -0.29301084058E+01  0.10984466488E+03  0.10990715354E+03  0.17770000000E+01 0. -1.
</event>
<event>
 6   1  0.1826851E-04  0.5217171E+03  0.7546771E-02  0.9352486E-01
        -11   -1    0    0    0    0  0.00000000000E+00  0.00000000000E+00  0.50000000000E+03  0.50000000000E+03  0.00000000000E+00 0. -1.
         11   -1    0    0    0    0 -0.00000000000E+00 -0.00000000000E+00 -0.50000000000E+03  0.50000000000E+03  0.00000000000E+00 0.  1.
        -11    1    1    2    0    0 -0.17226892246E+02  0.28056106979E+02  0.44144848984E+03  0.44267446293E+03  0.00000000000E+00 0. -1.
         11    1    1    2    0    0  0.14543836114E+02  0.14586678665E+02 -0.47783913717E+03  0.47828290308E+03  0.00000000000E+00 0.  1.
        -15    1    1    2    0    0 -0.94215718004E+01 -0.13408929089E+02 -0.12563677643E+02  0.20726049296E+02  0.17770000000E+01 0.  1.
         15    1    1    2    0    0  0.12104627932E+02 -0.29233856555E+02  0.48954324982E+02  0.58316584690E+02  0.17770000000E+01 0. -1.
</event>
<event>
 6   1  0.1826851E-04  0.5004114E+03  0.7546771E-02  0.9398890E-01
        -11   -1    0    0    0    0  0.00000000000E+00  0.00000000000E+00  0.50000000000E+03  0.50000000000E+03  0.00000000000E+00 0. -1.
         11   -1    0    0    0    0 -0.00000000000E+00 -0.00000000000E+00 -0.50000000000E+03  0.50000000000E+03  0.00000000000E+00 0.  1.
        -11    1    1    2    0    0 -0.13346338515E+01  0.55806521808E+01  0.21822257147E+02  0.22564038497E+02  0.00000000000E+00 0. -1.
         11    1    1    2    0    0 -0.16264501751E+01 -0.71981464946E+01 -0.49953411123E+03  0.49958861770E+03  0.00000000000E+00 0.  1.
        -15    1    1    2    0    0 -0.31644076390E+01  0.20986399229E+01  0.10999073576E+03  0.11007060211E+03  0.17770000000E+01 0.  1.
         15    1    1    2    0    0  0.61254916656E+01 -0.48114560905E+00  0.36772111832E+03  0.36777674170E+03  0.17770000000E+01 0. -1.
</event>
<event>
 6   1  0.1826851E-04  0.5005760E+03  0.7546771E-02  0.9398522E-01
        -11   -1    0    0    0    0  0.00000000000E+00  0.00000000000E+00  0.50000000000E+03  0.50000000000E+03  0.00000000000E+00 0. -1.
         11   -1    0    0    0    0 -0.00000000000E+00 -0.00000000000E+00 -0.50000000000E+03  0.50000000000E+03  0.00000000000E+00 0.  1.
        -11    1    1    2    0    0  0.52543436888E+01 -0.11180146530E+02  0.49927118278E+03  0.49942398597E+03  0.00000000000E+00 0. -1.
         11    1    1    2    0    0  0.10079827360E+02 -0.13343543539E+01 -0.29556437649E+03  0.29573921632E+03  0.00000000000E+00 0.  1.
        -15    1    1    2    0    0 -0.86594476714E+01  0.77451784373E+01 -0.15194107543E+03  0.15239495384E+03  0.17770000000E+01 0. -1.
         15    1    1    2    0    0 -0.66747233772E+01  0.47693224463E+01 -0.51765730859E+02  0.52441843876E+02  0.17770000000E+01 0.  1.
</event>
<event>
 6   1  0.1826851E-04  0.5000545E+03  0.7546771E-02  0.9399688E-01
        -11   -1    0    0    0    0  0.00000000000E+00  0.00000000000E+00  0.50000000000E+03  0.50000000000E+03  0.00000000000E+00 0. -1.
         11   -1    0    0    0    0 -0.00000000000E+00 -0.00000000000E+00 -0.50000000000E+03  0.50000000000E+03  0.00000000000E+00 0. -1.
        -11    1    1    2    0    0  0.42437828424E+01  0.73405752961E+01  0.49987358674E+03  0.49994549349E+03  0.00000000000E+00 0. -1.
         11    1    1    2    0    0 -0.35222687765E+01 -0.21996214662E+01 -0.29317404110E+03  0.29320344999E+03  0.00000000000E+00 0. -1.
        -15    1    1    2    0    0 -0.15814999308E+00 -0.15045715467E+01 -0.25793128699E+02  0.25898493470E+02  0.17770000000E+01 0. -1.
         15    1    1    2    0    0 -0.56336407283E+00 -0.36363822832E+01 -0.18090641694E+03  0.18095256305E+03  0.17770000000E+01 0.  1.
</event>
<event>
 6   1  0.1826851E-04  0.5028441E+03  0.7546771E-02  0.9393468E-01
        -11   -1    0    0    0    0  0.00000000000E+00  0.00000000000E+00  0.50000000000E+03  0.50000000000E+03  0.00000000000E+00 0. -1.
         11   -1    0    0    0    0 -0.00000000000E+00 -0.00000000000E+00 -0.50000000000E+03  0.50000000000E+03  0.00000000000E+00 0. -1.
        -11    1    1    2    0    0  0.65587456295E+01  0.17450541302E+02  0.49680627056E+03  0.49715592021E+03  0.00000000000E+00 0. -1.
         11    1    1    2    0    0  0.66734339613E+01  0.93093001470E+00 -0.45020719153E+03  0.45025761144E+03  0.00000000000E+00 0. -1.
        -15    1    1    2    0    0 -0.42113835909E+01 -0.16585126915E+01 -0.59775634917E+01  0.77055441337E+01  0.17770000000E+01 0. -1.
         15    1    1    2    0    0 -0.90207959999E+01 -0.16722958625E+02 -0.40621515535E+02  0.44880924222E+02  0.17770000000E+01 0.  1.
</event>
<event>
 6   1  0.1826851E-04  0.5015139E+03  0.7546771E-02  0.9396429E-01
        -11   -1    0    0    0    0  0.00000000000E+00  0.00000000000E+00  0.50000000000E+03  0.50000000000E+03  0.00000000000E+00 0. -1.
         11   -1    0    0    0    0 -0.00000000000E+00 -0.00000000000E+00 -0.50000000000E+03  0.50000000000E+03  0.00000000000E+00 0.  1.
        -11    1    1    2    0    0  0.17160277826E+02  0.17506532010E+01  0.44028037373E+02  0.47286446226E+02  0.00000000000E+00 0. -1.
         11    1    1    2    0    0 -0.18241640675E+02  0.11819311184E+02 -0.49801199220E+03  0.49848610607E+03  0.00000000000E+00 0.  1.
        -15    1    1    2    0    0  0.13951291540E+01 -0.17700704794E+01  0.10583430287E+03  0.10587321157E+03  0.17770000000E+01 0. -1.
         15    1    1    2    0    0 -0.31376630478E+00 -0.11799893906E+02  0.34814965196E+03  0.34835423614E+03  0.17770000000E+01 0. -1.
</event>
<event>
 6   1  0.1826851E-04  0.5014335E+03  0.7546771E-02  0.9396608E-01
        -11   -1    0    0    0    0  0.00000000000E+00  0.00000000000E+00  0.50000000000E+03  0.50000000000E+03  0.00000000000E+00 0. -1.
         11   -1    0    0    0    0 -0.00000000000E+00 -0.00000000000E+00 -0.50000000000E+03  0.50000000000E+03  0.00000000000E+00 0.  1.
        -11    1    1    2    0    0  0.58418450850E+01  0.15346943277E+02  0.79860874289E+02  0.81531681352E+02  0.00000000000E+00 0. -1.
         11    1    1    2    0    0 -0.10853894531E-02  0.18192299417E+02 -0.49823444694E+03  0.49856646886E+03  0.00000000000E+00 0.  1.
        -15    1    1    2    0    0 -0.14963538318E+01 -0.15425073376E+01  0.16961111611E+02  0.17188817288E+02  0.17770000000E+01 0. -1.
         15    1    1    2    0    0 -0.43444058637E+01 -0.31996735356E+02  0.40141246104E+03  0.40271303250E+03  0.17770000000E+01 0. -1.
</event>
<event>
 6   1  0.1826851E-04  0.5000819E+03  0.7546771E-02  0.9399627E-01
        -11   -1    0    0    0    0  0.00000000000E+00  0.00000000000E+00  0.50000000000E+03  0.50000000000E+03  0.00000000000E+00 0. -1.
         11   -1    0    0    0    0 -0.00000000000E+00 -0.00000000000E+00 -0.50000000000E+03  0.50000000000E+03  0.00000000000E+00 0.  1.
        -11    1    1    2    0    0 -0.15194979617E+01  0.47332083675E+01  0.13608167872E+03  0.13617244736E+03  0.00000000000E+00 0. -1.
         11    1    1    2    0    0  0.70751278329E+01 -0.67784879691E+00 -0.49986760305E+03  0.49991813079E+03  0.00000000000E+00 0.  1.
        -15    1    1    2    0    0 -0.59966317353E+01 -0.43593280485E+01  0.29157111487E+03  0.29167076660E+03  0.17770000000E+01 0. -1.
         15    1    1    2    0    0  0.44100186415E+00  0.30396847799E+00  0.72214809450E+02  0.72238655250E+02  0.17770000000E+01 0. -1.
</event>
<event>
 6   1  0.1826851E-04  0.5034220E+03  0.7546771E-02  0.9392185E-01
        -11   -1    0    0    0    0  0.00000000000E+00  0.00000000000E+00  0.50000000000E+03  0.50000000000E+03  0.00000000000E+00 0. -1.
         11   -1    0    0    0    0 -0.00000000000E+00 -0.00000000000E+00 -0.50000000000E+03  0.50000000000E+03  0.00000000000E+00 0. -1.
        -11    1    1    2    0    0 -0.52438434579E+01 -0.79643793918E+01  0.49648640787E+03  0.49657797215E+03  0.00000000000E+00 0. -1.
         11    1    1    2    0    0  0.14320861277E+02 -0.55792465656E+00 -0.47698217284E+03  0.47719743457E+03  0.00000000000E+00 0. -1.
        -15    1    1    2    0    0  0.23216116023E+01  0.32572942122E+01 -0.79200727305E+01  0.90490401189E+01  0.17770000000E+01 0. -1.
         15    1    1    2    0    0 -0.11398629422E+02  0.52650098362E+01 -0.11584162291E+02  0.17175553157E+02  0.17770000000E+01 0.  1.
</event>
<event>
 6   1  0.1826851E-04  0.5016666E+03  0.7546771E-02  0.9396088E-01
        -11   -1    0    0    0    0  0.00000000000E+00  0.00000000000E+00  0.50000000000E+03  0.50000000000E+03  0.00000000000E+00 0. -1.
         11   -1    0    0    0    0 -0.00000000000E+00 -0.00000000000E+00 -0.50000000000E+03  0.50000000000E+03  0.00000000000E+00 0. -1.
        -11    1    1    2    0    0  0.45546647078E+01  0.74190368957E+01  0.44087350969E+03  0.44095945236E+03  0.00000000000E+00 0. -1.
         11    1    1    2    0    0 -0.20906576212E+01  0.10332168886E+02 -0.49822191655E+03  0.49833342522E+03  0.00000000000E+00 0. -1.
        -15    1    1    2    0    0 -0.28739807476E+01 -0.21430852958E+01  0.15419595468E+02  0.15930292945E+02  0.17770000000E+01 0. -1.
         15    1    1    2    0    0  0.40997366097E+00 -0.15608120486E+02  0.41928811390E+02  0.44776829467E+02  0.17770000000E+01 0.  1.
</event>
<event>
 6   1  0.1826851E-04  0.5009403E+03  0.7546771E-02  0.9397708E-01
        -11   -1    0    0    0    0  0.00000000000E+00  0.00000000000E+00  0.50000000000E+03  0.50000000000E+03  0.00000000000E+00 0. -1.
         11   -1    0    0    0    0 -0.00000000000E+00 -0.00000000000E+00 -0.50000000000E+03  0.50000000000E+03  0.00000000000E+00 0.  1.
        -11    1    1    2    0    0  0.23600808262E+01  0.13497664998E+02  0.27564468708E+03  0.27598505477E+03  0.00000000000E+00 0. -1.
         11    1    1    2    0    0  0.45766581736E+01  0.58613585639E+01 -0.49900429186E+03  0.49905970046E+03  0.00000000000E+00 0.  1.
        -15    1    1    2    0    0 -0.50058122027E+01 -0.15956687211E+02  0.21396227322E+03  0.21462219389E+03  0.17770000000E+01 0. -1.
         15    1    1    2    0    0 -0.19309267971E+01 -0.34023363508E+01  0.93973315651E+01  0.10333050880E+02  0.17770000000E+01 0.  1.
</event>
<event>
 6   1  0.1826851E-04  0.5000769E+03  0.7546771E-02  0.9399638E-01
        -11   -1    0    0    0    0  0.00000000000E+00  0.00000000000E+00  0.50000000000E+03  0.50000000000E+03  0.00000000000E+00 0. -1.
         11   -1    0    0    0    0 -0.00000000000E+00 -0.00000000000E+00 -0.50000000000E+03  0.50000000000E+03  0.00000000000E+00 0.  1.
        -11    1    1    2    0    0  0.97124866410E+00  0.49840091418E+01  0.80418697102E+02  0.80578846571E+02  0.00000000000E+00 0. -1.
         11    1    1    2    0    0  0.34668168959E+01 -0.62247710353E+01 -0.49987229834E+03  0.49992307533E+03  0.00000000000E+00 0.  1.
        -15    1    1    2    0    0 -0.35449055345E+01  0.64231624092E+00  0.28989735215E+03  0.28992518249E+03  0.17770000000E+01 0. -1.
         15    1    1    2    0    0 -0.89316002550E+00  0.59844565259E+00  0.12955624909E+03  0.12957289562E+03  0.17770000000E+01 0. -1.
</event>
<event>
 6   1  0.1826851E-04  0.4878438E+03  0.7546771E-02  0.9427429E-01
        -11   -1    0    0    0    0  0.00000000000E+00  0.00000000000E+00  0.50000000000E+03  0.50000000000E+03  0.00000000000E+00 0.  1.
         11   -1    0    0    0    0 -0.00000000000E+00 -0.00000000000E+00 -0.50000000000E+03  0.50000000000E+03  0.00000000000E+00 0. -1.
        -11    1    1    2    0    0 -0.10694628452E+02 -0.13961065702E+02  0.48901036886E+03  0.48932650376E+03  0.00000000000E+00 0.  1.
         11    1    1    2    0    0  0.12373341364E+02 -0.73314302163E+01 -0.48638571539E+03  0.48659830824E+03  0.00000000000E+00 0. -1.
        -15    1    1    2    0    0  0.42471457417E+01  0.10713939663E+02 -0.84420155900E+00  0.11691755870E+02  0.17770000000E+01 0.  1.
         15    1    1    2    0    0 -0.59258586537E+01  0.10578556256E+02 -0.17804519119E+01  0.12383432127E+02  0.17770000000E+01 0. -1.
</event>
<event>
 6   1  0.1826851E-04  0.4868097E+03  0.7546771E-02  0.9429818E-01
        -11   -1    0    0    0    0  0.00000000000E+00  0.00000000000E+00  0.50000000000E+03  0.50000000000E+03  0.00000000000E+00 0. -1.
         11   -1    0    0    0    0 -0.00000000000E+00 -0.00000000000E+00 -0.50000000000E+03  0.50000000000E+03  0.00000000000E+00 0.  1.
        -11    1    1    2    0    0  0.63610108701E-01  0.24742280250E+02  0.48981318387E+03  0.49043770203E+03  0.00000000000E+00 0. -1.
         11    1    1    2    0    0  0.30875553777E+01 -0.84979743460E+01 -0.48325977329E+03  0.48334434625E+03  0.00000000000E+00 0.  1.
        -15    1    1    2    0    0 -0.51973727953E+01  0.13249057538E+01  0.26034149682E+01  0.62212183475E+01  0.17770000000E+01 0.  1.
         15    1    1    2    0    0  0.20462073089E+01 -0.17569211657E+02 -0.91568255453E+01  0.19996733375E+02  0.17770000000E+01 0. -1.
</event>
<event>
 6   1  0.1826851E-04  0.5213590E+03  0.7546771E-02  0.9353246E-01
        -11   -1    0    0    0    0  0.00000000000E+00  0.00000000000E+00  0.50000000000E+03  0.50000000000E+03  0.00000000000E+00 0. -1.
         11   -1    0    0    0    0 -0.00000000000E+00 -0.00000000000E+00 -0.50000000000E+03  0.50000000000E+03  0.00000000000E+00 0. -1.
        -11    1    1    2    0    0 -0.59021566623E+02  0.10795528161E+02  0.43691361389E+03  0.44101427954E+03  0.00000000000E+00 0. -1.
         11    1    1    2    0    0  0.66927348269E+01  0.94261532040E+00 -0.47859326131E+03  0.47864098341E+03  0.00000000000E+00 0. -1.
        -15    1    1    2    0    0 -0.13582859410E+01  0.51998687166E+00 -0.66618654494E+01  0.70465244845E+01  0.17770000000E+01 0.  1.
         15    1    1    2    0    0  0.53687117737E+02 -0.12258130354E+02  0.48341512874E+02  0.73298212575E+02  0.17770000000E+01 0.  1.
</event>
<event>
 6   1  0.1826851E-04  0.5003349E+03  0.7546771E-02  0.9399061E-01
        -11   -1    0    0    0    0  0.00000000000E+00  0.00000000000E+00  0.50000000000E+03  0.50000000000E+03  0.00000000000E+00 0. -1.
         11   -1    0    0    0    0 -0.00000000000E+00 -0.00000000000E+00 -0.50000000000E+03  0.50000000000E+03  0.00000000000E+00 0.  1.
        -11    1    1    2    0    0  0.12723021304E+02  0.18450442630E+01  0.37435591074E+03  0.37457659746E+03  0.00000000000E+00 0. -1.
         11    1    1    2    0    0 -0.62491405619E+01  0.52506819250E+01 -0.49959846317E+03  0.49966513368E+03  0.00000000000E+00 0.  1.
        -15    1    1    2    0    0 -0.30713589156E+01 -0.37126602745E+01  0.89979344768E+02  0.90125786020E+02  0.17770000000E+01 0.  1.
         15    1    1    2    0    0 -0.34025218269E+01 -0.33830659135E+01  0.35263207664E+02  0.35632482842E+02  0.17770000000E+01 0. -1.
</event>
<event>
 6   1  0.1826851E-04  0.5103285E+03  0.7546771E-02  0.9376991E-01
        -11   -1    0    0    0    0  0.00000000000E+00  0.00000000000E+00  0.50000000000E+03  0.50000000000E+03  0.00000000000E+00 0.  1.
         11   -1    0    0    0    0 -0.00000000000E+00 -0.00000000000E+00 -0.50000000000E+03  0.50000000000E+03  0.00000000000E+00 0. -1.
        -11    1    1    2    0    0 -0.83792975033E+01 -0.63849631465E+02  0.17122671420E+03  0.18293598805E+03  0.00000000000E+00 0.  1.
         11    1    1    2    0    0  0.34089333497E+01 -0.88969580254E+01 -0.48957883328E+03  0.48967153346E+03  0.00000000000E+00 0. -1.
        -15    1    1    2    0    0  0.10461621606E+02  0.58357361520E+02  0.27574653564E+03  0.28205378355E+03  0.17770000000E+01 0.  1.
         15    1    1    2    0    0 -0.54912574521E+01  0.14389227970E+02  0.42605583438E+02  0.45338694943E+02  0.17770000000E+01 0. -1.
</event>
<event>
 6   1  0.1826851E-04  0.4604889E+03  0.7546771E-02  0.9492836E-01
        -11   -1    0    0    0    0  0.00000000000E+00  0.00000000000E+00  0.50000000000E+03  0.50000000000E+03  0.00000000000E+00 0.  1.
         11   -1    0    0    0    0 -0.00000000000E+00 -0.00000000000E+00 -0.50000000000E+03  0.50000000000E+03  0.00000000000E+00 0.  1.
        -11    1    1    2    0    0  0.32449377754E+02  0.59910721366E+02  0.46826375010E+03  0.47319467062E+03  0.00000000000E+00 0.  1.
         11    1    1    2    0    0 -0.60859190179E+01  0.40894532590E+01 -0.45049186932E+03  0.45055153574E+03  0.00000000000E+00 0.  1.
        -15    1    1    2    0    0 -0.31531503669E+02 -0.50172385940E+02 -0.14070331432E+02  0.60931403973E+02  0.17770000000E+01 0. -1.
         15    1    1    2    0    0  0.51680449326E+01 -0.13827788685E+02 -0.37015493460E+01  0.15322389660E+02  0.17770000000E+01 0.  1.
</event>
<event>
 6   1  0.1826851E-04  0.5017841E+03  0.7546771E-02  0.9395826E-01
        -11   -1    0    0    0    0  0.00000000000E+00  0.00000000000E+00  0.50000000000E+03  0.50000000000E+03  0.00000000000E+00 0. -1.
         11   -1    0    0    0    0 -0.00000000000E+00 -0.00000000000E+00 -0.50000000000E+03  0.50000000000E+03  0.00000000000E+00 0. -1.
        -11    1    1    2    0    0 -0.68770857066E+01 -0.10436702207E+02  0.49805910423E+03  0.49821590738E+03  0.00000000000E+00 0. -1.
         11    1    1    2    0    0  0.16536878924E+02 -0.78577464680E+01 -0.40601553715E+03  0.40642813504E+03  0.00000000000E+00 0. -1.
        -15    1    1    2    0    0 -0.84138528355E+01  0.42544219035E+01 -0.24031423346E+02  0.25875858678E+02  0.17770000000E+01 0.  1.
         15    1    1    2    0    0 -0.12459403822E+01  0.14040026772E+02 -0.68012143731E+02  0.69480098900E+02  0.17770000000E+01 0. -1.
</event>
<event>
 6   1  0.1826851E-04  0.4741416E+03  0.7546771E-02  0.9459604E-01
        -11   -1    0    0    0    0  0.00000000000E+00  0.00000000000E+00  0.50000000000E+03  0.50000000000E+03  0.00000000000E+00 0. -1.
         11   -1    0    0    0    0 -0.00000000000E+00 -0.00000000000E+00 -0.50000000000E+03  0.50000000000E+03  0.00000000000E+00 0. -1.
        -11    1    1    2    0    0  0.38991565830E+00 -0.48140782432E+02  0.47116276974E+03  0.47361592304E+03  0.00000000000E+00 0. -1.
         11    1    1    2    0    0  0.14609477537E+02  0.64941883425E+01 -0.47544083967E+03  0.47570957878E+03  0.00000000000E+00 0. -1.
        -15    1    1    2    0    0  0.20123277150E+01  0.72555417917E+01 -0.72187500097E+01  0.10581135583E+02  0.17770000000E+01 0. -1.
         15    1    1    2    0    0 -0.17011720911E+02  0.34391052298E+02  0.11496819940E+02  0.40093362596E+02  0.17770000000E+01 0.  1.
</event>
<event>
 6   1  0.1826851E-04  0.5019911E+03  0.7546771E-02  0.9395365E-01
        -11   -1    0    0    0    0  0.00000000000E+00  0.00000000000E+00  0.50000000000E+03  0.50000000000E+03  0.00000000000E+00 0.  1.
         11   -1    0    0    0    0 -0.00000000000E+00 -0.00000000000E+00 -0.50000000000E+03  0.50000000000E+03  0.00000000000E+00 0.  1.
        -11    1    1    2    0    0 -0.79330393330E+01 -0.27087498074E+01  0.49793832911E+03  0.49800888549E+03  0.00000000000E+00 0.  1.
         11    1    1    2    0    0 -0.10351932252E+01  0.87393144099E+01 -0.47415675795E+03  0.47423841932E+03  0.00000000000E+00 0.  1.
        -15    1    1    2    0    0  0.39709274725E+01  0.24455287407E+00 -0.26985195038E+01  0.51252129333E+01  0.17770000000E+01 0.  1.
         15    1    1    2    0    0  0.49973050857E+01 -0.62751174766E+01 -0.21083051649E+02  0.22627482257E+02  0.17770000000E+01 0. -1.
</event>
<event>
 6   1  0.1826851E-04  0.5072241E+03  0.7546771E-02  0.9383789E-01
        -11   -1    0    0    0    0  0.00000000000E+00  0.00000000000E+00  0.50000000000E+03  0.50000000000E+03  0.00000000000E+00 0. -1.
         11   -1    0    0    0    0 -0.00000000000E+00 -0.00000000000E+00 -0.50000000000E+03  0.50000000000E+03  0.00000000000E+00 0. -1.
        -11    1    1    2    0    0  0.17570770840E+02 -0.19476392789E+02  0.42644639965E+03  0.42725237699E+03  0.00000000000E+00 0. -1.
         11    1    1    2    0    0  0.64827601752E+01  0.23025714305E+01 -0.49272789191E+03  0.49277591609E+03  0.00000000000E+00 0. -1.
        -15    1    1    2    0    0  0.28107032302E+01 -0.29569869293E+01  0.30702023005E+02  0.31022826595E+02  0.17770000000E+01 0.  1.
         15    1    1    2    0    0 -0.26864234245E+02  0.20130808288E+02  0.35579469252E+02  0.48948880326E+02  0.17770000000E+01 0. -1.
</event>
<event>
 6   1  0.1826851E-04  0.5001586E+03  0.7546771E-02  0.9399455E-01
        -11   -1    0    0    0    0  0.00000000000E+00  0.00000000000E+00  0.50000000000E+03  0.50000000000E+03  0.00000000000E+00 0. -1.
         11   -1    0    0    0    0 -0.00000000000E+00 -0.00000000000E+00 -0.50000000000E+03  0.50000000000E+03  0.00000000000E+00 0. -1.
        -11    1    1    2    0    0  0.19395564653E+01 -0.14268642055E+01  0.10806874320E+02  0.11071872168E+02  0.00000000000E+00 0. -1.
         11    1    1    2    0    0  0.56820144432E+01  0.66133833548E+01 -0.49976532599E+03  0.49984137803E+03  0.00000000000E+00 0. -1.
        -15    1    1    2    0    0 -0.18949006439E+01  0.61254468216E+00  0.83987751674E+02  0.84030149468E+02  0.17770000000E+01 0.  1.
         15    1    1    2    0    0 -0.57266702646E+01 -0.57990638315E+01  0.40497069999E+03  0.40505660034E+03  0.17770000000E+01 0. -1.
</event>
<event>
 6   1  0.1826851E-04  0.5107850E+03  0.7546771E-02  0.9375996E-01
        -11   -1    0    0    0    0  0.00000000000E+00  0.00000000000E+00  0.50000000000E+03  0.50000000000E+03  0.00000000000E+00 0. -1.
         11   -1    0    0    0    0 -0.00000000000E+00 -0.00000000000E+00 -0.50000000000E+03  0.50000000000E+03  0.00000000000E+00 0.  1.
        -11    1    1    2    0    0  0.33204482342E+01 -0.50541431186E+02  0.38619088041E+03  0.38949821277E+03  0.00000000000E+00 0. -1.
         11    1    1    2    0    0 -0.73449694683E+01 -0.59134904846E+01 -0.48912410187E+03  0.48921498850E+03  0.00000000000E+00 0.  1.
        -15    1    1    2    0    0  0.13805954724E+02  0.38695348132E+02  0.51041036935E+02  0.65546010811E+02  0.17770000000E+01 0. -1.
         15    1    1    2    0    0 -0.97814334901E+01  0.17759573539E+02  0.51892184525E+02  0.55740787913E+02  0.17770000000E+01 0.  1.
</event>
<event>
 6   1  0.1826851E-04  0.5076016E+03  0.7546771E-02  0.9382959E-01
        -11   -1    0    0    0    0  0.00000000000E+00  0.00000000000E+00  0.50000000000E+03  0.50000000000E+03  0.00000000000E+00 0.  1.
         11   -1    0    0    0    0 -0.00000000000E+00 -0.00000000000E+00 -0.50000000000E+03  0.50000000000E+03  0.00000000000E+00 0. -1.
        -11    1    1    2    0    0  0.16980170618E+02 -0.44025833743E+01  0.47390210939E+03  0.47422665279E+03  0.00000000000E+00 0.  1.
         11    1    1    2    0    0  0.82600861538E+01  0.77906673336E+01 -0.49226745967E+03  0.49239839091E+03  0.00000000000E+00 0. -1.
        -15    1    1    2    0    0 -0.20783105870E+02  0.82133622343E+00  0.10888946447E+02  0.23544404145E+02  0.17770000000E+01 0.  1.
         15    1    1    2    0    0 -0.44571509018E+01 -0.42094201828E+01  0.74764038349E+01  0.98305521584E+01  0.17770000000E+01 0. -1.
</event>
<event>
 6   1  0.1826851E-04  0.4783937E+03  0.7546771E-02  0.9449497E-01
        -11   -1    0    0    0    0  0.00000000000E+00  0.00000000000E+00  0.50000000000E+03  0.50000000000E+03  0.00000000000E+00 0. -1.
         11   -1    0    0    0    0 -0.00000000000E+00 -0.00000000000E+00 -0.50000000000E+03  0.50000000000E+03  0.00000000000E+00 0.  1.
        -11    1    1    2    0    0 -0.40100128316E+02 -0.81163391919E+01  0.46938839646E+03  0.47116808252E+03  0.00000000000E+00 0. -1.
         11    1    1    2    0    0  0.16798693870E+02  0.24259113912E+01 -0.48576360655E+03  0.48606004013E+03  0.00000000000E+00 0.  1.
        -15    1    1    2    0    0  0.30202134298E+02  0.77262647447E+01  0.16587897661E+02  0.35357886827E+02  0.17770000000E+01 0. -1.
         15    1    1    2    0    0 -0.69006998518E+01 -0.20358369440E+01 -0.21268757337E+00  0.74139905254E+01  0.17770000000E+01 0.  1.
</event>
<event>
 6   1  0.1826851E-04  0.5014674E+03  0.7546771E-02  0.9396532E-01
        -11   -1    0    0    0    0  0.00000000000E+00  0.00000000000E+00  0.50000000000E+03  0.50000000000E+03  0.00000000000E+00 0. -1.
         11   -1    0    0    0    0 -0.00000000000E+00 -0.00000000000E+00 -0.50000000000E+03  0.50000000000E+03  0.00000000000E+00 0. -1.
        -11    1    1    2    0    0  0.92655932143E+02  0.15839614135E+02  0.43099076384E+03  0.44112249280E+03  0.00000000000E+00 0. -1.
         11    1    1    2    0    0 -0.99487754209E+02 -0.12016529177E+02 -0.48835702682E+03  0.49853264272E+03  0.00000000000E+00 0. -1.
        -15    1    1    2    0    0  0.20927423477E+01  0.59575854498E+01  0.12159507238E+02  0.13816068189E+02  0.17770000000E+01 0.  1.
         15    1    1    2    0    0  0.47390797181E+01 -0.97806704081E+01  0.45206755743E+02  0.46528796288E+02  0.17770000000E+01 0. -1.
</event>
<event>
 6   1  0.1826851E-04  0.5026208E+03  0.7546771E-02  0.9393965E-01
        -11   -1    0    0    0    0  0.00000000000E+00  0.00000000000E+00  0.50000000000E+03  0.50000000000E+03  0.00000000000E+00 0.  1.
         11   -1    0    0    0    0 -0.00000000000E+00 -0.00000000000E+00 -0.50000000000E+03  0.50000000000E+03  0.00000000000E+00 0. -1.
        -11    1    1    2    0    0  0.42759095666E+01 -0.62052230480E+01  0.49732215867E+03  0.49737924936E+03  0.00000000000E+00 0.  1.
         11    1    1    2    0    0  0.21784122519E+00  0.73855232740E+01 -0.48731117216E+03  0.48736718388E+03  0.00000000000E+00 0. -1.
        -15    1    1    2    0    0 -0.44448822090E+00 -0.50630788213E+01 -0.63395672385E+01  0.83174622753E+01  0.17770000000E+01 0. -1.
         15    1    1    2    0    0 -0.40492625709E+01  0.38827785953E+01 -0.36714192668E+01  0.69361044845E+01  0.17770000000E+01 0.  1.
</event>
<event>
 6   1  0.1826851E-04  0.5017886E+03  0.7546771E-02  0.9395816E-01
        -11   -1    0    0    0    0  0.00000000000E+00  0.00000000000E+00  0.50000000000E+03  0.50000000000E+03  0.00000000000E+00 0. -1.
         11   -1    0    0    0    0 -0.00000000000E+00 -0.00000000000E+00 -0.50000000000E+03  0.50000000000E+03  0.00000000000E+00 0.  1.
        -11    1    1    2    0    0 -0.28182769952E+01  0.12652196242E+02  0.36021167794E+02  0.38282440939E+02  0.00000000000E+00 0. -1.
         11    1    1    2    0    0  0.26802981296E+01  0.71724758573E+01 -0.49815254406E+03  0.49821138643E+03  0.00000000000E+00 0.  1.
        -15    1    1    2    0    0 -0.12161877267E+01  0.71686994087E+01  0.60267377165E+02  0.60730419422E+02  0.17770000000E+01 0.  1.
         15    1    1    2    0    0  0.13541665923E+01 -0.26993371508E+02  0.40186399910E+03  0.40277575321E+03  0.17770000000E+01 0. -1.
</event>
<event>
 6   1  0.1826851E-04  0.5001738E+03  0.7546771E-02  0.9399421E-01
        -11   -1    0    0    0    0  0.00000000000E+00  0.00000000000E+00  0.50000000000E+03  0.50000000000E+03  0.00000000000E+00 0.  1.
         11   -1    0    0    0    0 -0.00000000000E+00 -0.00000000000E+00 -0.50000000000E+03  0.50000000000E+03  0.00000000000E+00 0. -1.
        -11    1    1    2    0    0 -0.90909083527E+01  0.28912461685E+00  0.36286933697E+03  0.36298331080E+03  0.00000000000E+00 0.  1.
         11    1    1    2    0    0  0.86783051283E+01  0.69808690063E+01 -0.49970209993E+03  0.49982620398E+03  0.00000000000E+00 0. -1.
        -15    1    1    2    0    0  0.23560428112E+01 -0.21087241390E+01  0.74741177666E+02  0.74829132182E+02  0.17770000000E+01 0.  1.
         15    1    1    2    0    0 -0.19434395868E+01 -0.51612694841E+01  0.62091585291E+02  0.62361353041E+02  0.17770000000E+01 0. -1.
</event>
<event>
 6   1  0.1826851E-04  0.5005909E+03  0.7546771E-02  0.9398488E-01
        -11   -1    0    0    0    0  0.00000000000E+00  0.00000000000E+00  0.50000000000E+03  0.50000000000E+03  0.00000000000E+00 0. -1.
         11   -1    0    0    0    0 -0.00000000000E+00 -0.00000000000E+00 -0.50000000000E+03  0.50000000000E+03  0.00000000000E+00 0. -1.
        -11    1    1    2    0    0  0.55836149995E+01  0.96374693971E+01  0.49928483208E+03  0.49940905190E+03  0.00000000000E+00 0. -1.
         11    1    1    2    0    0 -0.75524965390E+01  0.38300842829E+01 -0.24644012553E+03  0.24658557383E+03  0.00000000000E+00 0. -1.
        -15    1    1    2    0    0  0.14842422633E+01  0.49816509407E+01 -0.73427399696E+02  0.73632605389E+02  0.17770000000E+01 0. -1.
         15    1    1    2    0    0  0.48463927616E+00 -0.18449204621E+02 -0.17941730686E+03  0.18037276889E+03  0.17770000000E+01 0.  1.
</event>
<event>
 6   1  0.1826851E-04  0.5008662E+03  0.7546771E-02  0.9397874E-01
        -11   -1    0    0    0    0  0.00000000000E+00  0.00000000000E+00  0.50000000000E+03  0.50000000000E+03  0.00000000000E+00 0. -1.
         11   -1    0    0    0    0 -0.00000000000E+00 -0.00000000000E+00 -0.50000000000E+03  0.50000000000E+03  0.00000000000E+00 0.  1.
        -11    1    1    2    0    0 -0.36879772704E+02  0.99022653815E+01  0.49767100000E+03  0.49913384651E+03  0.00000000000E+00 0. -1.
         11    1    1    2    0    0  0.32525989153E+01 -0.29221975430E+01 -0.22002946370E+03  0.22007290505E+03  0.00000000000E+00 0.  1.
        -15    1    1    2    0    0  0.90639784319E+01 -0.83996144945E+00 -0.16785289567E+03  0.16810893359E+03  0.17770000000E+01 0. -1.
         15    1    1    2    0    0  0.24563195357E+02 -0.61401063891E+01 -0.10978864063E+03  0.11268431485E+03  0.17770000000E+01 0.  1.
</event>
<event>
 6   1  0.1826851E-04  0.5000905E+03  0.7546771E-02  0.9399607E-01
        -11   -1    0    0    0    0  0.00000000000E+00  0.00000000000E+00  0.50000000000E+03  0.50000000000E+03  0.00000000000E+00 0. -1.
         11   -1    0    0    0    0 -0.00000000000E+00 -0.00000000000E+00 -0.50000000000E+03  0.50000000000E+03  0.00000000000E+00 0. -1.
        -11    1    1    2    0    0  0.11989997364E+02 -0.74189194961E+01  0.49971058997E+03  0.49990946593E+03  0.00000000000E+00 0. -1.
         11    1    1    2    0    0 -0.91575518342E+00  0.23856856625E+00 -0.24664894545E+02  0.24683041656E+02  0.00000000000E+00 0. -1.
        -15    1    1    2    0    0 -0.38020562221E+01 -0.10619853276E+01 -0.42794339108E+02  0.43012749657E+02  0.17770000000E+01 0.  1.
         15    1    1    2    0    0 -0.72721859584E+01  0.82423362574E+01 -0.43225135632E+03  0.43239474275E+03  0.17770000000E+01 0. -1.
</event>
<event>
 6   1  0.1826851E-04  0.5005103E+03  0.7546771E-02  0.9398669E-01
        -11   -1    0    0    0    0  0.00000000000E+00  0.00000000000E+00  0.50000000000E+03  0.50000000000E+03  0.00000000000E+00 0. -1.
         11   -1    0    0    0    0 -0.00000000000E+00 -0.00000000000E+00 -0.50000000000E+03  0.50000000000E+03  0.00000000000E+00 0. -1.
        -11    1    1    2    0    0 -0.14822966438E+02 -0.21909192129E+02  0.49878872757E+03  0.49948966734E+03  0.00000000000E+00 0. -1.
         11    1    1    2    0    0 -0.26805958174E+01 -0.22032723428E+01 -0.11587448242E+03  0.11592642356E+03  0.00000000000E+00 0. -1.
        -15    1    1    2    0    0  0.51597667778E+01  0.17632599040E+02 -0.13298360524E+03  0.13425844008E+03  0.17770000000E+01 0.  1.
         15    1    1    2    0    0  0.12343795477E+02  0.64798654317E+01 -0.24993063991E+03  0.25032546901E+03  0.17770000000E+01 0. -1.
</event>
<event>
 6   1  0.1826851E-04  0.5088121E+03  0.7546771E-02  0.9380305E-01
        -11   -1    0    0    0    0  0.00000000000E+00  0.00000000000E+00  0.50000000000E+03  0.50000000000E+03  0.00000000000E+00 0. -1.
         11   -1    0    0    0    0 -0.00000000000E+00 -0.00000000000E+00 -0.50000000000E+03  0.50000000000E+03  0.00000000000E+00 0. -1.
        -11    1    1    2    0    0 -0.16475901373E+02 -0.26480028358E+02  0.42410439514E+03  0.42524955638E+03  0.00000000000E+00 0. -1.
         11    1    1    2    0    0 -0.15560434697E+02  0.82123789897E+01 -0.49087271214E+03  0.49118793737E+03  0.00000000000E+00 0. -1.
        -15    1    1    2    0    0  0.61250414153E+01  0.13495306059E+02  0.50237655361E+02  0.52408197481E+02  0.17770000000E+01 0.  1.
         15    1    1    2    0    0  0.25911294655E+02  0.47723433088E+01  0.16530661641E+02  0.31154308765E+02  0.17770000000E+01 0. -1.
</event>
<event>
 6   1  0.1826851E-04  0.5007372E+03  0.7546771E-02  0.9398162E-01
        -11   -1    0    0    0    0  0.00000000000E+00  0.00000000000E+00  0.50000000000E+03  0.50000000000E+03  0.00000000000E+00 0.  1.
         11   -1    0    0    0    0 -0.00000000000E+00 -0.00000000000E+00 -0.50000000000E+03  0.50000000000E+03  0.00000000000E+00 0.  1.
        -11    1    1    2    0    0 -0.17449649512E+02  0.80033846343E+01  0.39546523374E+03  0.39593092268E+03  0.00000000000E+00 0.  1.
         11    1    1    2    0    0  0.93782277827E+01  0.11458523357E+01 -0.49917337891E+03  0.49926278285E+03  0.00000000000E+00 0.  1.
        -15    1    1    2    0    0  0.68723527349E+01 -0.27831798756E+01  0.38117051723E+02  0.38872132478E+02  0.17770000000E+01 0.  1.
         15    1    1    2    0    0  0.11990689945E+01 -0.63660570943E+01  0.65591093440E+02  0.65934161988E+02  0.17770000000E+01 0.  1.
</event>
<event>
 6   1  0.1826851E-04  0.5002289E+03  0.7546771E-02  0.9399298E-01
        -11   -1    0    0    0    0  0.00000000000E+00  0.00000000000E+00  0.50000000000E+03  0.50000000000E+03  0.00000000000E+00 0. -1.
         11   -1    0    0    0    0 -0.00000000000E+00 -0.00000000000E+00 -0.50000000000E+03  0.50000000000E+03  0.00000000000E+00 0. -1.
        -11    1    1    2    0    0 -0.63787982367E+01  0.17211249931E+02  0.49943389094E+03  0.49977107520E+03  0.00000000000E+00 0. -1.
         11    1    1    2    0    0  0.20678658284E+01 -0.19054662886E+02 -0.38612754953E+03  0.38660294975E+03  0.00000000000E+00 0. -1.
        -15    1    1    2    0    0  0.44370848459E+01  0.35794348731E+01 -0.85705214430E+02  0.85912988456E+02  0.17770000000E+01 0. -1.
         15    1    1    2    0    0 -0.12615243762E+00 -0.17360219177E+01 -0.27601126978E+02  0.27712986594E+02  0.17770000000E+01 0. -1.
</event>
<event>
 6   1  0.1826851E-04  0.5019740E+03  0.7546771E-02  0.9395404E-01
        -11   -1    0    0    0    0  0.00000000000E+00  0.00000000000E+00  0.50000000000E+03  0.50000000000E+03  0.00000000000E+00 0. -1.
         11   -1    0    0    0    0 -0.00000000000E+00 -0.00000000000E+00 -0.50000000000E+03  0.50000000000E+03  0.00000000000E+00 0. -1.
        -11    1    1    2    0    0  0.54591825973E+01 -0.49492320362E+01  0.35861123945E+03  0.35868693680E+03  0.00000000000E+00 0. -1.
         11    1    1    2    0    0 -0.99978813485E+01 -0.13995253078E+02 -0.49772895294E+03  0.49802603881E+03  0.00000000000E+00 0. -1.
        -15    1    1    2    0    0  0.70479515916E+00  0.25738932403E+02  0.94687384964E+02  0.98141978672E+02  0.17770000000E+01 0. -1.
         15    1    1    2    0    0  0.38339035920E+01 -0.67944472886E+01  0.44430328528E+02  0.45145045717E+02  0.17770000000E+01 0. -1.
</event>
<event>
 6   1  0.1826851E-04  0.5000809E+03  0.7546771E-02  0.9399629E-01
        -11   -1    0    0    0    0  0.00000000000E+00  0.00000000000E+00  0.50000000000E+03  0.50000000000E+03  0.00000000000E+00 0. -1.
         11   -1    0    0    0    0 -0.00000000000E+00 -0.00000000000E+00 -0.50000000000E+03  0.50000000000E+03  0.00000000000E+00 0.  1.
        -11    1    1    2    0    0  0.70492628977E+01 -0.20784053954E+01  0.49986502950E+03  0.49991905304E+03  0.00000000000E+00 0. -1.
         11    1    1    2    0    0  0.10671692878E+01 -0.27809749149E+01 -0.12555359099E+03  0.12558892022E+03  0.00000000000E+00 0.  1.
        -15    1    1    2    0    0 -0.35650783147E+01  0.53577641188E+01 -0.23099249074E+03  0.23108895241E+03  0.17770000000E+01 0.  1.
         15    1    1    2    0    0 -0.45513538708E+01 -0.49838380845E+00 -0.14331894777E+03  0.14340307433E+03  0.17770000000E+01 0. -1.
</event>
<event>
 6   1  0.1826851E-04  0.5013082E+03  0.7546771E-02  0.9396887E-01
        -11   -1    0    0    0    0  0.00000000000E+00  0.00000000000E+00  0.50000000000E+03  0.50000000000E+03  0.00000000000E+00 0. -1.
         11   -1    0    0    0    0 -0.00000000000E+00 -0.00000000000E+00 -0.50000000000E+03  0.50000000000E+03  0.00000000000E+00 0.  1.
        -11    1    1    2    0    0 -0.43411480954E+02  0.15183122661E+02  0.22434950046E+03  0.22901480793E+03  0.00000000000E+00 0. -1.
         11    1    1    2    0    0  0.42119703151E+02 -0.17719645784E+02 -0.49659388962E+03  0.49869183515E+03  0.00000000000E+00 0.  1.
        -15    1    1    2    0    0  0.24237157704E+00  0.22522628866E+01  0.11907297456E+03  0.11910777653E+03  0.17770000000E+01 0. -1.
         15    1    1    2    0    0  0.10494062266E+01  0.28426023666E+00  0.15317141460E+03  0.15318558038E+03  0.17770000000E+01 0. -1.
</event>
<event>
 6   1  0.1826851E-04  0.5001251E+03  0.7546771E-02  0.9399530E-01
        -11   -1    0    0    0    0  0.00000000000E+00  0.00000000000E+00  0.50000000000E+03  0.50000000000E+03  0.00000000000E+00 0. -1.
         11   -1    0    0    0    0 -0.00000000000E+00 -0.00000000000E+00 -0.50000000000E+03  0.50000000000E+03  0.00000000000E+00 0. -1.
        -11    1    1    2    0    0  0.69396319687E+00  0.72996152774E+01  0.49982114203E+03  0.49987492435E+03  0.00000000000E+00 0. -1.
         11    1    1    2    0    0  0.46153477940E+01 -0.60224670903E+01 -0.32967626620E+03  0.32976356992E+03  0.00000000000E+00 0. -1.
        -15    1    1    2    0    0 -0.41678198097E+01  0.15945092753E+01 -0.11600907749E+03  0.11610847071E+03  0.17770000000E+01 0.  1.
         15    1    1    2    0    0 -0.11414911811E+01 -0.28716574625E+01 -0.54135798336E+02  0.54253035023E+02  0.17770000000E+01 0. -1.
</event>
<event>
 6   1  0.1826851E-04  0.5010768E+03  0.7546771E-02  0.9397403E-01
        -11   -1    0    0    0    0  0.00000000000E+00  0.00000000000E+00  0.50000000000E+03  0.50000000000E+03  0.00000000000E+00 0.  1.
         11   -1    0    0    0    0 -0.00000000000E+00 -0.00000000000E+00 -0.50000000000E+03  0.50000000000E+03  0.00000000000E+00 0.  1.
        -11    1    1    2    0    0  0.11830310909E+02  0.11378709811E+01  0.34062160028E+03  0.34082888021E+03  0.00000000000E+00 0.  1.
         11    1    1    2    0    0  0.10402737130E+02  0.98077217581E+01 -0.49871827999E+03  0.49892317158E+03  0.00000000000E+00 0.  1.
        -15    1    1    2    0    0 -0.15043724547E+02 -0.11050441895E+02  0.11106216367E+03  0.11263386632E+03  0.17770000000E+01 0.  1.
         15    1    1    2    0    0 -0.71893234919E+01  0.10484915544E+00  0.47034516044E+02  0.47614081889E+02  0.17770000000E+01 0. -1.
</event>
<event>
 6   1  0.1826851E-04  0.5026902E+03  0.7546771E-02  0.9393810E-01
        -11   -1    0    0    0    0  0.00000000000E+00  0.00000000000E+00  0.50000000000E+03  0.50000000000E+03  0.00000000000E+00 0. -1.
         11   -1    0    0    0    0 -0.00000000000E+00 -0.00000000000E+00 -0.50000000000E+03  0.50000000000E+03  0.00000000000E+00 0. -1.
        -11    1    1    2    0    0  0.26463156582E+02  0.12419975725E+01  0.10973047802E+03  0.11288320965E+03  0.00000000000E+00 0. -1.
         11    1    1    2    0    0  0.87189126196E+01  0.42293456464E+01 -0.49721534988E+03  0.49730977364E+03  0.00000000000E+00 0. -1.
        -15    1    1    2    0    0  0.12143092240E+01 -0.30891189423E+01  0.91579131204E+02  0.91656490244E+02  0.17770000000E+01 0.  1.
         15    1    1    2    0    0 -0.36396378426E+02 -0.23822242767E+01  0.29590574065E+03  0.29815052647E+03  0.17770000000E+01 0. -1.
</event>
<event>
 6   1  0.1826851E-04  0.5000561E+03  0.7546771E-02  0.9399684E-01
        -11   -1    0    0    0    0  0.00000000000E+00  0.00000000000E+00  0.50000000000E+03  0.50000000000E+03  0.00000000000E+00 0. -1.
         11   -1    0    0    0    0 -0.00000000000E+00 -0.00000000000E+00 -0.50000000000E+03  0.50000000000E+03  0.00000000000E+00 0.  1.
        -11    1    1    2    0    0  0.29281204238E+01 -0.11810389695E+02  0.49979581423E+03  0.49994391197E+03  0.00000000000E+00 0. -1.
         11    1    1    2    0    0 -0.25590794387E+01  0.39771322999E+01 -0.15684949789E+03  0.15692078083E+03  0.00000000000E+00 0.  1.
        -15    1    1    2    0    0 -0.10851372516E+01  0.82561427467E+01 -0.20728499803E+03  0.20745980226E+03  0.17770000000E+01 0. -1.
         15    1    1    2    0    0  0.71609626648E+00 -0.42288535200E+00 -0.13566131831E+03  0.13567550494E+03  0.17770000000E+01 0.  1.
</event>
<event>
 6   1  0.1826851E-04  0.4928716E+03  0.7546771E-02  0.9415903E-01
        -11   -1    0    0    0    0  0.00000000000E+00  0.00000000000E+00  0.50000000000E+03  0.50000000000E+03  0.00000000000E+00 0. -1.
         11   -1    0    0    0    0 -0.00000000000E+00 -0.00000000000E+00 -0.50000000000E+03  0.50000000000E+03  0.00000000000E+00 0. -1.
        -11    1    1    2    0    0  0.70843695623E+01 -0.15320482865E+01  0.49225891705E+03  0.49231227578E+03  0.00000000000E+00 0. -1.
         11    1    1    2    0    0  0.28062145447E+01 -0.70641287988E+01 -0.49346028507E+03  0.49351882406E+03  0.00000000000E+00 0. -1.
        -15    1    1    2    0    0 -0.75154516117E+01  0.55640586545E+01 -0.65043183098E+00  0.95405215898E+01  0.17770000000E+01 0. -1.
         15    1    1    2    0    0 -0.23751324952E+01  0.30321184308E+01  0.18517998475E+01  0.46283785739E+01  0.17770000000E+01 0.  1.
</event>
<event>
 6   1  0.1826851E-04  0.5037966E+03  0.7546771E-02  0.9391354E-01
        -11   -1    0    0    0    0  0.00000000000E+00  0.00000000000E+00  0.50000000000E+03  0.50000000000E+03  0.00000000000E+00 0. -1.
         11   -1    0    0    0    0 -0.00000000000E+00 -0.00000000000E+00 -0.50000000000E+03  0.50000000000E+03  0.00000000000E+00 0.  1.
        -11    1    1    2    0    0 -0.73616804430E+01  0.38202416888E+01  0.47796586870E+03  0.47803782301E+03  0.00000000000E+00 0. -1.
         11    1    1    2    0    0 -0.58765677903E+01  0.34778293208E+01 -0.49615644583E+03  0.49620343417E+03  0.00000000000E+00 0.  1.
        -15    1    1    2    0    0  0.34148814110E+01  0.15485442283E+01  0.15438559721E+01  0.44272592584E+01  0.17770000000E+01 0.  1.
         15    1    1    2    0    0  0.98233668223E+01 -0.88466152379E+01  0.16646721157E+02  0.21331483567E+02  0.17770000000E+01 0. -1.
</event>
<event>
 6   1  0.1826851E-04  0.5006005E+03  0.7546771E-02  0.9398467E-01
        -11   -1    0    0    0    0  0.00000000000E+00  0.00000000000E+00  0.50000000000E+03  0.50000000000E+03  0.00000000000E+00 0. -1.
         11   -1    0    0    0    0 -0.00000000000E+00 -0.00000000000E+00 -0.50000000000E+03  0.50000000000E+03  0.00000000000E+00 0.  1.
        -11    1    1    2    0    0  0.13814473542E+02 -0.12817138810E+01  0.11905839930E+03  0.11986402677E+03  0.00000000000E+00 0. -1.
         11    1    1    2    0    0 -0.55254947675E+01  0.67543857587E+01 -0.49932327768E+03  0.49939952788E+03  0.00000000000E+00 0.  1.
        -15    1    1    2    0    0 -0.17969595503E+01 -0.43234025381E+01  0.32666493227E+03  0.32670331584E+03  0.17770000000E+01 0. -1.
         15    1    1    2    0    0 -0.64920192242E+01 -0.11492693397E+01  0.53599946098E+02  0.54033129507E+02  0.17770000000E+01 0.  1.
</event>
<event>
 6   1  0.1826851E-04  0.5019947E+03  0.7546771E-02  0.9395357E-01
        -11   -1    0    0    0    0  0.00000000000E+00  0.00000000000E+00  0.50000000000E+03  0.50000000000E+03  0.00000000000E+00 0. -1.
         11   -1    0    0    0    0 -0.00000000000E+00 -0.00000000000E+00 -0.50000000000E+03  0.50000000000E+03  0.00000000000E+00 0. -1.
        -11    1    1    2    0    0 -0.18203123284E+01  0.22855522317E+02  0.29164886241E+03  0.29254870942E+03  0.00000000000E+00 0. -1.
         11    1    1    2    0    0 -0.63224217882E+01  0.97432872502E+01 -0.49786982189E+03  0.49800528532E+03  0.00000000000E+00 0. -1.
        -15    1    1    2    0    0 -0.35124014736E+01 -0.92369245594E+01  0.44257315241E+02  0.45381994455E+02  0.17770000000E+01 0.  1.
         15    1    1    2    0    0  0.11655135590E+02 -0.23361885008E+02  0.16196364423E+03  0.16406401080E+03  0.17770000000E+01 0. -1.
</event>
<event>
 6   1  0.1826851E-04  0.5053572E+03  0.7546771E-02  0.9387902E-01
        -11   -1    0    0    0    0  0.00000000000E+00  0.00000000000E+00  0.50000000000E+03  0.50000000000E+03  0.00000000000E+00 0.  1.
         11   -1    0    0    0    0 -0.00000000000E+00 -0.00000000000E+00 -0.50000000000E+03  0.50000000000E+03  0.00000000000E+00 0.  1.
        -11    1    1    2    0    0 -0.39687924638E+02 -0.91756546399E+01  0.35299036667E+03  0.35533297478E+03  0.00000000000E+00 0.  1.
         11    1    1    2    0    0  0.13553086705E+02  0.39561882094E+01 -0.49444122988E+03  0.49464276745E+03  0.00000000000E+00 0.  1.
        -15    1    1    2    0    0 -0.10302363614E+02  0.13016271581E+01  0.14805581528E+02  0.18171293369E+02  0.17770000000E+01 0. -1.
         15    1    1    2    0    0  0.36437201548E+02  0.39178392724E+01  0.12664528168E+03  0.13185296440E+03  0.17770000000E+01 0.  1.
</event>
<event>
 6   1  0.1826851E-04  0.5036971E+03  0.7546771E-02  0.9391575E-01
        -11   -1    0    0    0    0  0.00000000000E+00  0.00000000000E+00  0.50000000000E+03  0.50000000000E+03  0.00000000000E+00 0. -1.
         11   -1    0    0    0    0 -0.00000000000E+00 -0.00000000000E+00 -0.50000000000E+03  0.50000000000E+03  0.00000000000E+00 0.  1.
        -11    1    1    2    0    0 -0.65541393051E+01 -0.11677631224E+02  0.46218983324E+03  0.46238378622E+03  0.00000000000E+00 0. -1.
         11    1    1    2    0    0 -0.83571655395E+01 -0.32816291720E+01 -0.49622169366E+03  0.49630291210E+03  0.00000000000E+00 0.  1.
        -15    1    1    2    0    0  0.60317764628E+01  0.47139001359E+01  0.52575491003E+01  0.94553018635E+01  0.17770000000E+01 0.  1.
         15    1    1    2    0    0  0.88795283819E+01  0.10245360260E+02  0.28774311318E+02  0.31857999812E+02  0.17770000000E+01 0. -1.
</event>
<event>
 6   1  0.1826851E-04  0.5069623E+03  0.7546771E-02  0.9384364E-01
        -11   -1    0    0    0    0  0.00000000000E+00  0.00000000000E+00  0.50000000000E+03  0.50000000000E+03  0.00000000000E+00 0. -1.
         11   -1    0    0    0    0 -0.00000000000E+00 -0.00000000000E+00 -0.50000000000E+03  0.50000000000E+03  0.00000000000E+00 0. -1.
        -11    1    1    2    0    0 -0.20801495042E+02  0.99882788615E+01  0.49249743955E+03  0.49303772257E+03  0.00000000000E+00 0. -1.
         11    1    1    2    0    0 -0.11756631056E+01 -0.62421563737E+01 -0.47018286433E+03  0.47022576771E+03  0.00000000000E+00 0. -1.
        -15    1    1    2    0    0  0.11433933135E+01  0.36993451545E+01 -0.11056934620E+02  0.11849305255E+02  0.17770000000E+01 0.  1.
         15    1    1    2    0    0  0.20833764834E+02 -0.74454676423E+01 -0.11257640597E+02  0.24887204471E+02  0.17770000000E+01 0. -1.
</event>
<event>
 6   1  0.1826851E-04  0.4690044E+03  0.7546771E-02  0.9471967E-01
        -11   -1    0    0    0    0  0.00000000000E+00  0.00000000000E+00  0.50000000000E+03  0.50000000000E+03  0.00000000000E+00 0. -1.
         11   -1    0    0    0    0 -0.00000000000E+00 -0.00000000000E+00 -0.50000000000E+03  0.50000000000E+03  0.00000000000E+00 0. -1.
        -11    1    1    2    0    0 -0.23328695484E+02 -0.44403196009E+02  0.46637194960E+03  0.46906147488E+03  0.00000000000E+00 0. -1.
         11    1    1    2    0    0 -0.41663988404E+01 -0.75957734237E+01 -0.47072006711E+03  0.47079978360E+03  0.00000000000E+00 0. -1.
        -15    1    1    2    0    0  0.27923832978E+02  0.47824943187E+02  0.36496230178E+01  0.55528759362E+02  0.17770000000E+01 0. -1.
         15    1    1    2    0    0 -0.42873865421E+00  0.41740262451E+01  0.69849450118E+00  0.46099821580E+01  0.17770000000E+01 0.  1.
</event>
<event>
 6   1  0.1826851E-04  0.5002326E+03  0.7546771E-02  0.9399289E-01
        -11   -1    0    0    0    0  0.00000000000E+00  0.00000000000E+00  0.50000000000E+03  0.50000000000E+03  0.00000000000E+00 0. -1.
         11   -1    0    0    0    0 -0.00000000000E+00 -0.00000000000E+00 -0.50000000000E+03  0.50000000000E+03  0.00000000000E+00 0.  1.
        -11    1    1    2    0    0  0.25139080156E+02 -0.60948095222E+01  0.49909750643E+03  0.49976738687E+03  0.00000000000E+00 0. -1.
         11    1    1    2    0    0 -0.23348411379E+02 -0.25558276712E+01 -0.32254754841E+03  0.32340161031E+03  0.00000000000E+00 0.  1.
        -15    1    1    2    0    0 -0.24741668110E+00  0.46070406901E+01 -0.67556446952E+02  0.67737119017E+02  0.17770000000E+01 0.  1.
         15    1    1    2    0    0 -0.15432520960E+01  0.40435965033E+01 -0.10899351107E+03  0.10909388381E+03  0.17770000000E+01 0. -1.
</event>
<event>
 6   1  0.1826851E-04  0.4866055E+03  0.7546771E-02  0.9430290E-01
        -11   -1    0    0    0    0  0.00000000000E+00  0.00000000000E+00  0.50000000000E+03  0.50000000000E+03  0.00000000000E+00 0.  1.
         11   -1    0    0    0    0 -0.00000000000E+00 -0.00000000000E+00 -0.50000000000E+03  0.50000000000E+03  0.00000000000E+00 0.  1.
        -11    1    1    2    0    0  0.26809537849E+00 -0.13063188530E+02  0.48502615353E+03  0.48520211085E+03  0.00000000000E+00 0.  1.
         11    1    1    2    0    0 -0.68186030227E+01 -0.44222458240E+01 -0.48812525535E+03  0.48819290707E+03  0.00000000000E+00 0.  1.
        -15    1    1    2    0    0  0.49561564173E+01 -0.19183493253E+01 -0.26898142393E+01  0.62158169381E+01  0.17770000000E+01 0. -1.
         15    1    1    2    0    0  0.15943512269E+01  0.19403783679E+02  0.57889160589E+01  0.20389165138E+02  0.17770000000E+01 0.  1.
</event>
<event>
 6   1  0.1826851E-04  0.5003660E+03  0.7546771E-02  0.9398991E-01
        -11   -1    0    0    0    0  0.00000000000E+00  0.00000000000E+00  0.50000000000E+03  0.50000000000E+03  0.00000000000E+00 0.  1.
         11   -1    0    0    0    0 -0.00000000000E+00 -0.00000000000E+00 -0.50000000000E+03  0.50000000000E+03  0.00000000000E+00 0. -1.
        -11    1    1    2    0    0  0.43712169107E+02  0.52839720082E+01  0.33272483666E+03  0.33562552200E+03  0.00000000000E+00 0.  1.
         11    1    1    2    0    0 -0.54197264949E+02 -0.50491872788E+01 -0.49666011457E+03  0.49963397325E+03  0.00000000000E+00 0. -1.
        -15    1    1    2    0    0  0.76586183947E+01 -0.15459343312E+01  0.15344286023E+03  0.15365192298E+03  0.17770000000E+01 0.  1.
         15    1    1    2    0    0  0.28264774470E+01  0.13111496018E+01  0.10492417680E+02  0.11088581776E+02  0.17770000000E+01 0. -1.
</event>
<event>
 6   1  0.1826851E-04  0.5045545E+03  0.7546771E-02  0.9389676E-01
        -11   -1    0    0    0    0  0.00000000000E+00  0.00000000000E+00  0.50000000000E+03  0.50000000000E+03  0.00000000000E+00 0.  1.
         11   -1    0    0    0    0 -0.00000000000E+00 -0.00000000000E+00 -0.50000000000E+03  0.50000000000E+03  0.00000000000E+00 0. -1.
        -11    1    1    2    0    0 -0.25538828518E+02 -0.11208670891E+02  0.49465989711E+03  0.49544553674E+03  0.00000000000E+00 0.  1.
         11    1    1    2    0    0 -0.34008108235E+01 -0.18264250156E+02 -0.39289705447E+03  0.39333604432E+03  0.00000000000E+00 0. -1.
        -15    1    1    2    0    0  0.13593526703E+02  0.16570583472E+02 -0.73073606299E+02  0.76172684549E+02  0.17770000000E+01 0.  1.
         15    1    1    2    0    0  0.15346112638E+02  0.12902337575E+02 -0.28689236345E+02  0.35045734392E+02  0.17770000000E+01 0. -1.
</event>
<event>
 6   1  0.1826851E-04  0.5030736E+03  0.7546771E-02  0.9392959E-01
        -11   -1    0    0    0    0  0.00000000000E+00  0.00000000000E+00  0.50000000000E+03  0.50000000000E+03  0.00000000000E+00 0. -1.
         11   -1    0    0    0    0 -0.00000000000E+00 -0.00000000000E+00 -0.50000000000E+03  0.50000000000E+03  0.00000000000E+00 0.  1.
        -11    1    1    2    0    0 -0.15976479524E+02  0.67211089704E+01  0.49662406429E+03  0.49692643564E+03  0.00000000000E+00 0. -1.
         11    1    1    2    0    0 -0.24477976840E+01  0.66899442478E+01 -0.40899480208E+03  0.40905683615E+03  0.00000000000E+00 0.  1.
        -15    1    1    2    0    0  0.97690632048E+01 -0.84118517112E+01 -0.11976393818E+02  0.17685745192E+02  0.17770000000E+01 0. -1.
         15    1    1    2    0    0  0.86552140034E+01 -0.49992015070E+01 -0.75652868387E+02  0.76330983023E+02  0.17770000000E+01 0.  1.
</event>
<event>
 6   1  0.1826851E-04  0.5080234E+03  0.7546771E-02  0.9382034E-01
        -11   -1    0    0    0    0  0.00000000000E+00  0.00000000000E+00  0.50000000000E+03  0.50000000000E+03  0.00000000000E+00 0. -1.
         11   -1    0    0    0    0 -0.00000000000E+00 -0.00000000000E+00 -0.50000000000E+03  0.50000000000E+03  0.00000000000E+00 0.  1.
        -11    1    1    2    0    0 -0.10702208380E+02  0.24124433352E+01  0.47913835673E+03  0.47926393776E+03  0.00000000000E+00 0. -1.
         11    1    1    2    0    0  0.42834537872E+01 -0.96310289510E+01 -0.49186371280E+03  0.49197664240E+03  0.00000000000E+00 0.  1.
        -15    1    1    2    0    0  0.29104064885E+01 -0.48250918245E+01 -0.44642045361E+01  0.74053243132E+01  0.17770000000E+01 0. -1.
         15    1    1    2    0    0  0.35083481039E+01  0.12043677440E+02  0.17189560606E+02  0.21354095521E+02  0.17770000000E+01 0.  1.
</event>
<event>
 6   1  0.1826851E-04  0.5002907E+03  0.7546771E-02  0.9399160E-01
        -11   -1    0    0    0    0  0.00000000000E+00  0.00000000000E+00  0.50000000000E+03  0.50000000000E+03  0.00000000000E+00 0.  1.
         11   -1    0    0    0    0 -0.00000000000E+00 -0.00000000000E+00 -0.50000000000E+03  0.50000000000E+03  0.00000000000E+00 0. -1.
        -11    1    1    2    0    0  0.56083908436E+01 -0.51775264499E+01  0.27420411220E+03  0.27431032787E+03  0.00000000000E+00 0.  1.
         11    1    1    2    0    0  0.29830570256E+01  0.11359579055E+02 -0.49957127937E+03  0.49970931734E+03  0.00000000000E+00 0. -1.
        -15    1    1    2    0    0 -0.53636536218E+01 -0.86602079176E+01  0.19667194179E+03  0.19694359191E+03  0.17770000000E+01 0.  1.
         15    1    1    2    0    0 -0.32277942473E+01  0.24781553127E+01  0.28695225385E+02  0.29036762877E+02  0.17770000000E+01 0.  1.
</event>
<event>
 6   1  0.1826851E-04  0.5004049E+03  0.7546771E-02  0.9398904E-01
        -11   -1    0    0    0    0  0.00000000000E+00  0.00000000000E+00  0.50000000000E+03  0.50000000000E+03  0.00000000000E+00 0.  1.
         11   -1    0    0    0    0 -0.00000000000E+00 -0.00000000000E+00 -0.50000000000E+03  0.50000000000E+03  0.00000000000E+00 0. -1.
        -11    1    1    2    0    0  0.27194767451E+02 -0.86015238765E+00  0.49885361953E+03  0.49959506499E+03  0.00000000000E+00 0.  1.
         11    1    1    2    0    0 -0.12613249832E+02  0.23681794499E+01 -0.27594327263E+03  0.27624154658E+03  0.00000000000E+00 0. -1.
        -15    1    1    2    0    0 -0.19953476021E+01  0.75349482682E+01 -0.67346784339E+02  0.67819642783E+02  0.17770000000E+01 0.  1.
         15    1    1    2    0    0 -0.12586170016E+02 -0.90429753305E+01 -0.15556356256E+03  0.15634374565E+03  0.17770000000E+01 0. -1.
</event>
<event>
 6   1  0.1826851E-04  0.5025262E+03  0.7546771E-02  0.9394175E-01
        -11   -1    0    0    0    0  0.00000000000E+00  0.00000000000E+00  0.50000000000E+03  0.50000000000E+03  0.00000000000E+00 0.  1.
         11   -1    0    0    0    0 -0.00000000000E+00 -0.00000000000E+00 -0.50000000000E+03  0.50000000000E+03  0.00000000000E+00 0. -1.
        -11    1    1    2    0    0  0.57912794833E+01 -0.15262349874E+02  0.49720593346E+03  0.49747383701E+03  0.00000000000E+00 0.  1.
         11    1    1    2    0    0  0.87559492990E+01  0.76892361321E+01 -0.45262161145E+03  0.45277159159E+03  0.00000000000E+00 0. -1.
        -15    1    1    2    0    0 -0.85952981215E+01 -0.34075065672E+01 -0.17347313126E+02  0.19737711430E+02  0.17770000000E+01 0.  1.
         15    1    1    2    0    0 -0.59519306608E+01  0.10980620309E+02 -0.27237008877E+02  0.30016859971E+02  0.17770000000E+01 0. -1.
</event>
<event>
 6   1  0.1826851E-04  0.5003579E+03  0.7546771E-02  0.9399009E-01
        -11   -1    0    0    0    0  0.00000000000E+00  0.00000000000E+00  0.50000000000E+03  0.50000000000E+03  0.00000000000E+00 0. -1.
         11   -1    0    0    0    0 -0.00000000000E+00 -0.00000000000E+00 -0.50000000000E+03  0.50000000000E+03  0.00000000000E+00 0.  1.
        -11    1    1    2    0    0  0.15172816844E+02 -0.40681550771E+01  0.49939510956E+03  0.49964211162E+03  0.00000000000E+00 0. -1.
         11    1    1    2    0    0 -0.53146204980E+01  0.69240598517E+01 -0.34897078412E+03  0.34907992776E+03  0.00000000000E+00 0.  1.
        -15    1    1    2    0    0 -0.39380364354E+01  0.31388784599E+01 -0.98488599544E+02  0.98633273585E+02  0.17770000000E+01 0. -1.
         15    1    1    2    0    0 -0.59201599105E+01 -0.59947832346E+01 -0.51935725891E+02  0.52644687027E+02  0.17770000000E+01 0.  1.
</event>
<event>
 6   1  0.1826851E-04  0.5006581E+03  0.7546771E-02  0.9398338E-01
        -11   -1    0    0    0    0  0.00000000000E+00  0.00000000000E+00  0.50000000000E+03  0.50000000000E+03  0.00000000000E+00 0. -1.
         11   -1    0    0    0    0 -0.00000000000E+00 -0.00000000000E+00 -0.50000000000E+03  0.50000000000E+03  0.00000000000E+00 0.  1.
        -11    1    1    2    0    0  0.15397405205E+02 -0.10679650588E+02  0.20931741939E+03  0.21015450764E+03  0.00000000000E+00 0. -1.
         11    1    1    2    0    0 -0.35034244220E+01  0.25001398608E+02 -0.49870334200E+03  0.49934193419E+03  0.00000000000E+00 0.  1.
        -15    1    1    2    0    0 -0.65986343674E+00 -0.10229268398E+02  0.68333972464E+02  0.69121363365E+02  0.17770000000E+01 0. -1.
         15    1    1    2    0    0 -0.11234117346E+02 -0.40924796234E+01  0.22105195015E+03  0.22138219480E+03  0.17770000000E+01 0.  1.
</event>
<event>
 6   1  0.1826851E-04  0.4571799E+03  0.7546771E-02  0.9501075E-01
        -11   -1    0    0    0    0  0.00000000000E+00  0.00000000000E+00  0.50000000000E+03  0.50000000000E+03  0.00000000000E+00 0.  1.
         11   -1    0    0    0    0 -0.00000000000E+00 -0.00000000000E+00 -0.50000000000E+03  0.50000000000E+03  0.00000000000E+00 0.  1.
        -11    1    1    2    0    0  0.61934815411E+02  0.15250770071E+01  0.46841734737E+03  0.47249662278E+03  0.00000000000E+00 0.  1.
         11    1    1    2    0    0  0.78610442591E+01 -0.42885386834E+01 -0.44474270944E+03  0.44483285084E+03  0.00000000000E+00 0.  1.
        -15    1    1    2    0    0  0.20277853381E+00 -0.24998834336E+01  0.57625218540E+01  0.65310736815E+01  0.17770000000E+01 0. -1.
         15    1    1    2    0    0 -0.69998638204E+02  0.52633451099E+01 -0.29437159787E+02  0.76139452700E+02  0.17770000000E+01 0.  1.
</event>
<event>
 6   1  0.1826851E-04  0.4872321E+03  0.7546771E-02  0.9428841E-01
        -11   -1    0    0    0    0  0.00000000000E+00  0.00000000000E+00  0.50000000000E+03  0.50000000000E+03  0.00000000000E+00 0. -1.
         11   -1    0    0    0    0 -0.00000000000E+00 -0.00000000000E+00 -0.50000000000E+03  0.50000000000E+03  0.00000000000E+00 0. -1.
        -11    1    1    2    0    0 -0.89244900664E+01 -0.17047392626E+02  0.49195163444E+03  0.49232780822E+03  0.00000000000E+00 0. -1.
         11    1    1    2    0    0 -0.51755584265E+01  0.63292095177E+01 -0.48227605310E+03  0.48234535003E+03  0.00000000000E+00 0. -1.
        -15    1    1    2    0    0  0.91507607675E+01  0.67883953051E+00  0.14349969358E+01  0.94559077268E+01  0.17770000000E+01 0.  1.
         15    1    1    2    0    0  0.49492877254E+01  0.10039343577E+02 -0.11110578270E+02  0.15870934029E+02  0.17770000000E+01 0. -1.
</event>
<event>
 6   1  0.1826851E-04  0.5004922E+03  0.7546771E-02  0.9398709E-01
        -11   -1    0    0    0    0  0.00000000000E+00  0.00000000000E+00  0.50000000000E+03  0.50000000000E+03  0.00000000000E+00 0. -1.
         11   -1    0    0    0    0 -0.00000000000E+00 -0.00000000000E+00 -0.50000000000E+03  0.50000000000E+03  0.00000000000E+00 0.  1.
        -11    1    1    2    0    0  0.14746876477E+02 -0.23865390793E+02  0.49871941100E+03  0.49950783593E+03  0.00000000000E+00 0. -1.
         11    1    1    2    0    0  0.45205339133E+01  0.13017552442E+02 -0.85088290162E+02  0.86196920021E+02  0.00000000000E+00 0.  1.
        -15    1    1    2    0    0 -0.33394812476E+01 -0.22071874592E+00 -0.50372945636E+02  0.50515267324E+02  0.17770000000E+01 0.  1.
         15    1    1    2    0    0 -0.15927929143E+02  0.11068557097E+02 -0.36325817521E+03  0.36377997672E+03  0.17770000000E+01 0.  1.
</event>
<event>
 6   1  0.1826851E-04  0.5001480E+03  0.7546771E-02  0.9399479E-01
        -11   -1    0    0    0    0  0.00000000000E+00  0.00000000000E+00  0.50000000000E+03  0.50000000000E+03  0.00000000000E+00 0. -1.
         11   -1    0    0    0    0 -0.00000000000E+00 -0.00000000000E+00 -0.50000000000E+03  0.50000000000E+03  0.00000000000E+00 0.  1.
        -11    1    1    2    0    0  0.79600280853E+01 -0.13476228398E+02  0.49960685780E+03  0.49985196122E+03  0.00000000000E+00 0. -1.
         11    1    1    2    0    0  0.63018654212E+00  0.34559848835E+01 -0.23877327273E+03  0.23879911377E+03  0.00000000000E+00 0.  1.
        -15    1    1    2    0    0 -0.68038411081E+01  0.78185857327E+01 -0.11573099634E+03  0.11620776127E+03  0.17770000000E+01 0. -1.
         15    1    1    2    0    0 -0.17863735193E+01  0.22016577817E+01 -0.14510258873E+03  0.14514116374E+03  0.17770000000E+01 0.  1.
</event>
<event>
 6   1  0.1826851E-04  0.5044946E+03  0.7546771E-02  0.9389808E-01
        -11   -1    0    0    0    0  0.00000000000E+00  0.00000000000E+00  0.50000000000E+03  0.50000000000E+03  0.00000000000E+00 0.  1.
         11   -1    0    0    0    0 -0.00000000000E+00 -0.00000000000E+00 -0.50000000000E+03  0.50000000000E+03  0.00000000000E+00 0.  1.
        -11    1    1    2    0    0 -0.17236897032E+02  0.23870990014E+02  0.49462979601E+03  0.49550536817E+03  0.00000000000E+00 0.  1.
         11    1    1    2    0    0  0.55902393624E+01 -0.55119709041E+01 -0.42228874047E+03  0.42236170864E+03  0.00000000000E+00 0.  1.
        -15    1    1    2    0    0  0.10646236141E+02 -0.79857903449E+01 -0.70037794533E+02  0.71313151546E+02  0.17770000000E+01 0.  1.
         15    1    1    2    0    0  0.10004215284E+01 -0.10373228765E+02 -0.23032610095E+01  0.10819771649E+02  0.17770000000E+01 0. -1.
</event>
<event>
 6   1  0.1826851E-04  0.5224020E+03  0.7546771E-02  0.9351033E-01
        -11   -1    0    0    0    0  0.00000000000E+00  0.00000000000E+00  0.50000000000E+03  0.50000000000E+03  0.00000000000E+00 0. -1.
         11   -1    0    0    0    0 -0.00000000000E+00 -0.00000000000E+00 -0.50000000000E+03  0.50000000000E+03  0.00000000000E+00 0.  1.
        -11    1    1    2    0    0  0.12889631616E+02  0.30193147360E+02  0.38014249383E+03  0.38155744570E+03  0.00000000000E+00 0. -1.
         11    1    1    2    0    0  0.23434303672E+01 -0.72164955416E+01 -0.47753771426E+03  0.47759798787E+03  0.00000000000E+00 0.  1.
        -15    1    1    2    0    0 -0.10875466074E+02  0.35390426818E+01 -0.18521662710E+02  0.21840565560E+02  0.17770000000E+01 0.  1.
         15    1    1    2    0    0 -0.43575959091E+01 -0.26515694501E+02  0.11591688314E+03  0.11900400087E+03  0.17770000000E+01 0. -1.
</event>
<event>
 6   1  0.1826851E-04  0.5255907E+03  0.7546771E-02  0.9344301E-01
        -11   -1    0    0    0    0  0.00000000000E+00  0.00000000000E+00  0.50000000000E+03  0.50000000000E+03  0.00000000000E+00 0. -1.
         11   -1    0    0    0    0 -0.00000000000E+00 -0.00000000000E+00 -0.50000000000E+03  0.50000000000E+03  0.00000000000E+00 0.  1.
        -11    1    1    2    0    0  0.74620675585E+02 -0.14351536165E+02  0.39015556660E+03  0.39748657583E+03  0.00000000000E+00 0. -1.
         11    1    1    2    0    0  0.40216760289E+01 -0.17044945022E+02 -0.47408590917E+03  0.47440926772E+03  0.00000000000E+00 0.  1.
        -15    1    1    2    0    0 -0.53171511014E+02  0.21951194996E+02  0.82825761141E+02  0.10085796440E+03  0.17770000000E+01 0. -1.
         15    1    1    2    0    0 -0.25470840600E+02  0.94452861907E+01  0.11045814212E+01  0.27246192050E+02  0.17770000000E+01 0.  1.
</event>
<event>
 6   1  0.1826851E-04  0.4883816E+03  0.7546771E-02  0.9426189E-01
        -11   -1    0    0    0    0  0.00000000000E+00  0.00000000000E+00  0.50000000000E+03  0.50000000000E+03  0.00000000000E+00 0.  1.
         11   -1    0    0    0    0 -0.00000000000E+00 -0.00000000000E+00 -0.50000000000E+03  0.50000000000E+03  0.00000000000E+00 0.  1.
        -11    1    1    2    0    0 -0.14795446578E+02  0.45878624715E+01  0.49304227022E+03  0.49328555011E+03  0.00000000000E+00 0.  1.
         11    1    1    2    0    0 -0.32828289465E+01 -0.74370691020E+01 -0.48362605372E+03  0.48369437334E+03  0.00000000000E+00 0.  1.
        -15    1    1    2    0    0  0.17871355006E+02  0.39413991159E+01 -0.66567210360E+01  0.19554785110E+02  0.17770000000E+01 0. -1.
         15    1    1    2    0    0  0.20692051824E+00 -0.10921924854E+01 -0.27594954675E+01  0.34652914396E+01  0.17770000000E+01 0.  1.
</event>
<event>
 6   1  0.1826851E-04  0.5001132E+03  0.7546771E-02  0.9399556E-01
        -11   -1    0    0    0    0  0.00000000000E+00  0.00000000000E+00  0.50000000000E+03  0.50000000000E+03  0.00000000000E+00 0.  1.
         11   -1    0    0    0    0 -0.00000000000E+00 -0.00000000000E+00 -0.50000000000E+03  0.50000000000E+03  0.00000000000E+00 0.  1.
        -11    1    1    2    0    0 -0.70154253464E+01 -0.41336557490E+01  0.16441074781E+03  0.16461226351E+03  0.00000000000E+00 0.  1.
         11    1    1    2    0    0  0.15078253696E+01  0.84711023625E+01 -0.49981270322E+03  0.49988675859E+03  0.00000000000E+00 0.  1.
        -15    1    1    2    0    0  0.40469395215E+01 -0.30921793923E+01  0.19468771431E+03  0.19476242740E+03  0.17770000000E+01 0.  1.
         15    1    1    2    0    0  0.14606604553E+01 -0.12452672212E+01  0.14071424110E+03  0.14073855050E+03  0.17770000000E+01 0.  1.
</event>
<event>
 6   1  0.1826851E-04  0.5000513E+03  0.7546771E-02  0.9399695E-01
        -11   -1    0    0    0    0  0.00000000000E+00  0.00000000000E+00  0.50000000000E+03  0.50000000000E+03  0.00000000000E+00 0. -1.
         11   -1    0    0    0    0 -0.00000000000E+00 -0.00000000000E+00 -0.50000000000E+03  0.50000000000E+03  0.00000000000E+00 0. -1.
        -11    1    1    2    0    0 -0.38042736838E+01 -0.18441508668E+02  0.49959400233E+03  0.49994872628E+03  0.00000000000E+00 0. -1.
         11    1    1    2    0    0  0.21510773078E+01  0.13083205872E+01 -0.40420447835E+02  0.40498783185E+02  0.00000000000E+00 0. -1.
        -15    1    1    2    0    0 -0.17877209792E+01  0.75600501299E+01 -0.15643007549E+03  0.15663293572E+03  0.17770000000E+01 0.  1.
         15    1    1    2    0    0  0.34409173553E+01  0.95731379508E+01 -0.30274347900E+03  0.30291955482E+03  0.17770000000E+01 0. -1.
</event>
<event>
 6   1  0.1826851E-04  0.5036252E+03  0.7546771E-02  0.9391734E-01
        -11   -1    0    0    0    0  0.00000000000E+00  0.00000000000E+00  0.50000000000E+03  0.50000000000E+03  0.00000000000E+00 0. -1.
         11   -1    0    0    0    0 -0.00000000000E+00 -0.00000000000E+00 -0.50000000000E+03  0.50000000000E+03  0.00000000000E+00 0. -1.
        -11    1    1    2    0    0  0.18040387410E+02  0.10898608925E+02  0.30336152222E+03  0.30409282862E+03  0.00000000000E+00 0. -1.
         11    1    1    2    0    0  0.31018452692E+01  0.66116992918E+01 -0.49632102571E+03  0.49637475416E+03  0.00000000000E+00 0. -1.
        -15    1    1    2    0    0 -0.44676305044E+01 -0.12969828667E+02  0.13822377820E+02  0.19554846857E+02  0.17770000000E+01 0. -1.
         15    1    1    2    0    0 -0.16674602175E+02 -0.45404795497E+01  0.17913712567E+03  0.17997757036E+03  0.17770000000E+01 0. -1.
</event>
<event>
 6   1  0.1826851E-04  0.4679035E+03  0.7546771E-02  0.9474639E-01
        -11   -1    0    0    0    0  0.00000000000E+00  0.00000000000E+00  0.50000000000E+03  0.50000000000E+03  0.00000000000E+00 0.  1.
         11   -1    0    0    0    0 -0.00000000000E+00 -0.00000000000E+00 -0.50000000000E+03  0.50000000000E+03  0.00000000000E+00 0.  1.
        -11    1    1    2    0    0  0.33430134056E+02  0.40290002753E+02  0.46522503847E+03  0.46816150483E+03  0.00000000000E+00 0.  1.
         11    1    1    2    0    0  0.73397209060E+01  0.48686687429E+01 -0.46954842383E+03  0.46963102299E+03  0.00000000000E+00 0.  1.
        -15    1    1    2    0    0 -0.37894383673E+02 -0.37642959682E+02  0.60609743707E+01  0.53785405705E+02  0.17770000000E+01 0. -1.
         15    1    1    2    0    0 -0.28754712894E+01 -0.75157118130E+01 -0.17375890102E+01  0.84220664781E+01  0.17770000000E+01 0.  1.
</event>
<event>
 6   1  0.1826851E-04  0.5011246E+03  0.7546771E-02  0.9397297E-01
        -11   -1    0    0    0    0  0.00000000000E+00  0.00000000000E+00  0.50000000000E+03  0.50000000000E+03  0.00000000000E+00 0. -1.
         11   -1    0    0    0    0 -0.00000000000E+00 -0.00000000000E+00 -0.50000000000E+03  0.50000000000E+03  0.00000000000E+00 0. -1.
        -11    1    1    2    0    0 -0.19855778547E+02  0.63263564455E+01  0.76315241432E+02  0.79109359765E+02  0.00000000000E+00 0. -1.
         11    1    1    2    0    0  0.34635695053E+02 -0.24974911733E+02 -0.49704457913E+03  0.49887542657E+03  0.00000000000E+00 0. -1.
        -15    1    1    2    0    0 -0.14306828820E+02  0.23078237491E+02  0.31352045702E+03  0.31469910247E+03  0.17770000000E+01 0. -1.
         15    1    1    2    0    0 -0.47308768587E+00 -0.44296822034E+01  0.10720888068E+03  0.10731611119E+03  0.17770000000E+01 0.  1.
</event>
<event>
 6   1  0.1826851E-04  0.5000321E+03  0.7546771E-02  0.9399738E-01
        -11   -1    0    0    0    0  0.00000000000E+00  0.00000000000E+00  0.50000000000E+03  0.50000000000E+03  0.00000000000E+00 0.  1.
         11   -1    0    0    0    0 -0.00000000000E+00 -0.00000000000E+00 -0.50000000000E+03  0.50000000000E+03  0.00000000000E+00 0.  1.
        -11    1    1    2    0    0  0.12605650571E+02  0.34984532321E+01  0.49979673146E+03  0.49996791335E+03  0.00000000000E+00 0.  1.
         11    1    1    2    0    0 -0.32492635118E+01  0.58864120964E+00 -0.71556298280E+02  0.71632450993E+02  0.00000000000E+00 0.  1.
        -15    1    1    2    0    0 -0.33449196759E+01 -0.26430962095E+01 -0.25102934898E+03  0.25107183479E+03  0.17770000000E+01 0.  1.
         15    1    1    2    0    0 -0.60114673828E+01 -0.14439982322E+01 -0.17721108420E+03  0.17732780087E+03  0.17770000000E+01 0.  1.
</event>
<event>
 6   1  0.1826851E-04  0.5115139E+03  0.7546771E-02  0.9374409E-01
        -11   -1    0    0    0    0  0.00000000000E+00  0.00000000000E+00  0.50000000000E+03  0.50000000000E+03  0.00000000000E+00 0. -1.
         11   -1    0    0    0    0 -0.00000000000E+00 -0.00000000000E+00 -0.50000000000E+03  0.50000000000E+03  0.00000000000E+00 0.  1.
        -11    1    1    2    0    0  0.25564133044E+02  0.12816316249E+02  0.45034687629E+03  0.45125391061E+03  0.00000000000E+00 0. -1.
         11    1    1    2    0    0  0.44668990791E+01 -0.70363433799E+01 -0.48841497215E+03  0.48848607793E+03  0.00000000000E+00 0.  1.
        -15    1    1    2    0    0 -0.25239981050E+02 -0.19580077250E+02  0.26410641566E+02  0.41486332514E+02  0.17770000000E+01 0. -1.
         15    1    1    2    0    0 -0.47910510739E+01  0.13800104381E+02  0.11657454297E+02  0.18773678941E+02  0.17770000000E+01 0.  1.
</event>
<event>
 6   1  0.1826851E-04  0.5007498E+03  0.7546771E-02  0.9398134E-01
        -11   -1    0    0    0    0  0.00000000000E+00  0.00000000000E+00  0.50000000000E+03  0.50000000000E+03  0.00000000000E+00 0.  1.
         11   -1    0    0    0    0 -0.00000000000E+00 -0.00000000000E+00 -0.50000000000E+03  0.50000000000E+03  0.00000000000E+00 0. -1.
        -11    1    1    2    0    0  0.84844337830E+01 -0.13334656917E+02  0.49899994496E+03  0.49925018154E+03  0.00000000000E+00 0.  1.
         11    1    1    2    0    0  0.57611632896E+01  0.36874945666E+01 -0.38892939155E+03  0.38898953743E+03  0.00000000000E+00 0. -1.
        -15    1    1    2    0    0 -0.12914827443E+02  0.10182348166E+02 -0.85618861966E+02  0.87202180222E+02  0.17770000000E+01 0.  1.
         15    1    1    2    0    0 -0.13307696292E+01 -0.53518581539E+00 -0.24451691454E+02  0.24558100814E+02  0.17770000000E+01 0. -1.
</event>
<event>
 6   1  0.1826851E-04  0.5020228E+03  0.7546771E-02  0.9395295E-01
        -11   -1    0    0    0    0  0.00000000000E+00  0.00000000000E+00  0.50000000000E+03  0.50000000000E+03  0.00000000000E+00 0. -1.
         11   -1    0    0    0    0 -0.00000000000E+00 -0.00000000000E+00 -0.50000000000E+03  0.50000000000E+03  0.00000000000E+00 0.  1.
        -11    1    1    2    0    0  0.68636325803E+01 -0.28308647249E+01  0.47257869108E+03  0.47263700925E+03  0.00000000000E+00 0. -1.
         11    1    1    2    0    0 -0.10582281290E+01 -0.71232764196E+01 -0.49792508853E+03  0.49797716283E+03  0.00000000000E+00 0.  1.
        -15    1    1    2    0    0 -0.34390385640E+01  0.39254495299E+00  0.30430072778E+01  0.49395040315E+01  0.17770000000E+01 0.  1.
         15    1    1    2    0    0 -0.23663658873E+01  0.95615961915E+01  0.22303390171E+02  0.24446323883E+02  0.17770000000E+01 0. -1.
</event>
<event>
 6   1  0.1826851E-04  0.4709746E+03  0.7546771E-02  0.9467206E-01
        -11   -1    0    0    0    0  0.00000000000E+00  0.00000000000E+00  0.50000000000E+03  0.50000000000E+03  0.00000000000E+00 0. -1.
         11   -1    0    0    0    0 -0.00000000000E+00 -0.00000000000E+00 -0.50000000000E+03  0.50000000000E+03  0.00000000000E+00 0.  1.
        -11    1    1    2    0    0 -0.32557206738E+02  0.14278947259E+02  0.46271708186E+03  0.46408076656E+03  0.00000000000E+00 0. -1.
         11    1    1    2    0    0  0.38535839728E+01 -0.51909512436E+01 -0.47843689708E+03  0.47848057491E+03  0.00000000000E+00 0.  1.
        -15    1    1    2    0    0 -0.11281289754E+02 -0.25371470037E+01 -0.39709654821E+01  0.12354388261E+02  0.17770000000E+01 0.  1.
         15    1    1    2    0    0  0.39984912520E+02 -0.65508490115E+01  0.19690780697E+02  0.45084270267E+02  0.17770000000E+01 0. -1.
</event>
<event>
 6   1  0.1826851E-04  0.5038053E+03  0.7546771E-02  0.9391335E-01
        -11   -1    0    0    0    0  0.00000000000E+00  0.00000000000E+00  0.50000000000E+03  0.50000000000E+03  0.00000000000E+00 0. -1.
         11   -1    0    0    0    0 -0.00000000000E+00 -0.00000000000E+00 -0.50000000000E+03  0.50000000000E+03  0.00000000000E+00 0.  1.
        -11    1    1    2    0    0  0.69232522846E+01  0.13012873116E+02  0.45107295943E+03  0.45131372793E+03  0.00000000000E+00 0. -1.
         11    1    1    2    0    0 -0.13351636578E+02  0.11169717803E+01 -0.49601372710E+03  0.49619465062E+03  0.00000000000E+00 0.  1.
        -15    1    1    2    0    0  0.19904571216E+01 -0.14407617814E+02  0.45376211525E+02  0.47683326981E+02  0.17770000000E+01 0. -1.
         15    1    1    2    0    0  0.44379271722E+01  0.27777291740E+00 -0.43544385339E+00  0.48082944719E+01  0.17770000000E+01 0.  1.
</event>
<event>
 6   1  0.1826851E-04  0.4951219E+03  0.7546771E-02  0.9410792E-01
        -11   -1    0    0    0    0  0.00000000000E+00  0.00000000000E+00  0.50000000000E+03  0.50000000000E+03  0.00000000000E+00 0.  1.
         11   -1    0    0    0    0 -0.00000000000E+00 -0.00000000000E+00 -0.50000000000E+03  0.50000000000E+03  0.00000000000E+00 0.  1.
        -11    1    1    2    0    0  0.68780651692E+01 -0.23079167748E+01  0.49633209651E+03  0.49638511691E+03  0.00000000000E+00 0.  1.
         11    1    1    2    0    0 -0.10386018278E+01  0.77948732710E+01 -0.49383156861E+03  0.49389417581E+03  0.00000000000E+00 0.  1.
        -15    1    1    2    0    0 -0.13527023461E+01 -0.35350693326E+01 -0.12942729124E+01  0.43771440684E+01  0.17770000000E+01 0. -1.
         15    1    1    2    0    0 -0.44867609953E+01 -0.19518871637E+01 -0.12062549935E+01  0.53435632155E+01  0.17770000000E+01 0.  1.
</event>
<event>
 6   1  0.1826851E-04  0.5057032E+03  0.7546771E-02  0.9387138E-01
        -11   -1    0    0    0    0  0.00000000000E+00  0.00000000000E+00  0.50000000000E+03  0.50000000000E+03  0.00000000000E+00 0. -1.
         11   -1    0    0    0    0 -0.00000000000E+00 -0.00000000000E+00 -0.50000000000E+03  0.50000000000E+03  0.00000000000E+00 0.  1.
        -11    1    1    2    0    0  0.48136105309E+02 -0.32839859909E+02  0.32112273559E+03  0.32636689836E+03  0.00000000000E+00 0. -1.
         11    1    1    2    0    0 -0.71050001467E+01  0.13455743892E+02 -0.49406250736E+03  0.49429677244E+03  0.00000000000E+00 0.  1.
        -15    1    1    2    0    0 -0.89046625218E+01  0.31005023264E+01  0.60477078631E+02  0.61233494903E+02  0.17770000000E+01 0. -1.
         15    1    1    2    0    0 -0.32126442641E+02  0.16283613690E+02  0.11246269313E+03  0.11810283429E+03  0.17770000000E+01 0.  1.
</event>
<event>
 6   1  0.1826851E-04  0.5003395E+03  0.7546771E-02  0.9399050E-01
        -11   -1    0    0    0    0  0.00000000000E+00  0.00000000000E+00  0.50000000000E+03  0.50000000000E+03  0.00000000000E+00 0. -1.
         11   -1    0    0    0    0 -0.00000000000E+00 -0.00000000000E+00 -0.50000000000E+03  0.50000000000E+03  0.00000000000E+00 0. -1.
        -11    1    1    2    0    0  0.37062373933E+01  0.99220597883E+01  0.23168465555E+03  0.23192663297E+03  0.00000000000E+00 0. -1.
         11    1    1    2    0    0  0.18894854409E+01 -0.75585840213E+01 -0.49959971070E+03  0.49966045799E+03  0.00000000000E+00 0. -1.
        -15    1    1    2    0    0  0.17856737779E+01 -0.18558951714E+01  0.20710389311E+03  0.20712752894E+03  0.17770000000E+01 0. -1.
         15    1    1    2    0    0 -0.73813966121E+01 -0.50758059561E+00  0.60811162052E+02  0.61285380092E+02  0.17770000000E+01 0.  1.
</event>
<event>
 6   1  0.1826851E-04  0.5004173E+03  0.7546771E-02  0.9398876E-01
        -11   -1    0    0    0    0  0.00000000000E+00  0.00000000000E+00  0.50000000000E+03  0.50000000000E+03  0.00000000000E+00 0.  1.
         11   -1    0    0    0    0 -0.00000000000E+00 -0.00000000000E+00 -0.50000000000E+03  0.50000000000E+03  0.00000000000E+00 0.  1.
        -11    1    1    2    0    0  0.96712260052E+01  0.11360696519E+02  0.13859035315E+03  0.13939111888E+03  0.00000000000E+00 0.  1.
         11    1    1    2    0    0 -0.49529566559E+01 -0.60992342643E+01 -0.49952086299E+03  0.49958265082E+03  0.00000000000E+00 0.  1.
        -15    1    1    2    0    0 -0.52732864615E+00 -0.18164152114E+01  0.12073879227E+03  0.12076668054E+03  0.17770000000E+01 0.  1.
         15    1    1    2    0    0 -0.41909407031E+01 -0.34450470429E+01  0.24019171757E+03  0.24025954976E+03  0.17770000000E+01 0.  1.
</event>
<event>
 6   1  0.1826851E-04  0.5009511E+03  0.7546771E-02  0.9397684E-01
        -11   -1    0    0    0    0  0.00000000000E+00  0.00000000000E+00  0.50000000000E+03  0.50000000000E+03  0.00000000000E+00 0. -1.
         11   -1    0    0    0    0 -0.00000000000E+00 -0.00000000000E+00 -0.50000000000E+03  0.50000000000E+03  0.00000000000E+00 0. -1.
        -11    1    1    2    0    0 -0.65420407216E+02  0.41600957603E+01  0.49472481571E+03  0.49904887472E+03  0.00000000000E+00 0. -1.
         11    1    1    2    0    0  0.40555582794E+02  0.63190234678E+00 -0.29702698125E+03  0.29978355890E+03  0.00000000000E+00 0. -1.
        -15    1    1    2    0    0 -0.37778539085E+00  0.65923257658E+01 -0.16552697161E+02  0.17909522415E+02  0.17770000000E+01 0.  1.
         15    1    1    2    0    0  0.25242609813E+02 -0.11384323873E+02 -0.18114513730E+03  0.18325804396E+03  0.17770000000E+01 0. -1.
</event>
<event>
 6   1  0.1826851E-04  0.5001109E+03  0.7546771E-02  0.9399562E-01
        -11   -1    0    0    0    0  0.00000000000E+00  0.00000000000E+00  0.50000000000E+03  0.50000000000E+03  0.00000000000E+00 0. -1.
         11   -1    0    0    0    0 -0.00000000000E+00 -0.00000000000E+00 -0.50000000000E+03  0.50000000000E+03  0.00000000000E+00 0. -1.
        -11    1    1    2    0    0 -0.94875720149E+00 -0.58798295760E+01  0.35759740680E+03  0.35764700178E+03  0.00000000000E+00 0. -1.
         11    1    1    2    0    0 -0.53854233163E+01  0.96454955647E+01 -0.49976701116E+03  0.49988909151E+03  0.00000000000E+00 0. -1.
        -15    1    1    2    0    0  0.56984716694E+01 -0.38569297975E+01  0.12168181968E+03  0.12188917695E+03  0.17770000000E+01 0. -1.
         15    1    1    2    0    0  0.63570884841E+00  0.91263808771E-01  0.20487784676E+02  0.20574729761E+02  0.17770000000E+01 0. -1.
</event>
<event>
 6   1  0.1826851E-04  0.5002185E+03  0.7546771E-02  0.9399321E-01
        -11   -1    0    0    0    0  0.00000000000E+00  0.00000000000E+00  0.50000000000E+03  0.50000000000E+03  0.00000000000E+00 0. -1.
         11   -1    0    0    0    0 -0.00000000000E+00 -0.00000000000E+00 -0.50000000000E+03  0.50000000000E+03  0.00000000000E+00 0.  1.
        -11    1    1    2    0    0  0.14470829927E+02  0.45144965640E+01  0.19364864322E+03  0.19424104257E+03  0.00000000000E+00 0. -1.
         11    1    1    2    0    0 -0.13409847129E+02 -0.39306268094E+01 -0.49958609135E+03  0.49978148875E+03  0.00000000000E+00 0.  1.
        -15    1    1    2    0    0 -0.54866150751E+00  0.13250529694E+01  0.13315150989E+03  0.13317108962E+03  0.17770000000E+01 0. -1.
         15    1    1    2    0    0 -0.51232129060E+00 -0.19089227240E+01  0.17278593824E+03  0.17280637906E+03  0.17770000000E+01 0.  1.
</event>
<event>
 6   1  0.1826851E-04  0.5004781E+03  0.7546771E-02  0.9398741E-01
        -11   -1    0    0    0    0  0.00000000000E+00  0.00000000000E+00  0.50000000000E+03  0.50000000000E+03  0.00000000000E+00 0. -1.
         11   -1    0    0    0    0 -0.00000000000E+00 -0.00000000000E+00 -0.50000000000E+03  0.50000000000E+03  0.00000000000E+00 0.  1.
        -11    1    1    2    0    0 -0.14422263825E+02 -0.36840665719E+00  0.49931353348E+03  0.49952191356E+03  0.00000000000E+00 0. -1.
         11    1    1    2    0    0 -0.22056795741E+01  0.68047898800E+01 -0.16215061396E+03  0.16230832325E+03  0.00000000000E+00 0.  1.
        -15    1    1    2    0    0  0.16378035301E+02  0.24026289152E+01 -0.24562766024E+03  0.24619122216E+03  0.17770000000E+01 0. -1.
         15    1    1    2    0    0  0.24990809804E+00 -0.88390121379E+01 -0.91535259277E+02  0.91978541027E+02  0.17770000000E+01 0.  1.
</event>
<event>
 6   1  0.1826851E-04  0.5054599E+03  0.7546771E-02  0.9387675E-01
        -11   -1    0    0    0    0  0.00000000000E+00  0.00000000000E+00  0.50000000000E+03  0.50000000000E+03  0.00000000000E+00 0. -1.
         11   -1    0    0    0    0 -0.00000000000E+00 -0.00000000000E+00 -0.50000000000E+03  0.50000000000E+03  0.00000000000E+00 0. -1.
        -11    1    1    2    0    0  0.23960004414E+02  0.18588123321E+01  0.45590021242E+03  0.45653317588E+03  0.00000000000E+00 0. -1.
         11    1    1    2    0    0 -0.69773010714E+01 -0.22241414625E+02 -0.49399043115E+03  0.49454009880E+03  0.00000000000E+00 0. -1.
        -15    1    1    2    0    0 -0.17881496164E+02  0.17509723501E+02  0.37866106422E+02  0.45423981185E+02  0.17770000000E+01 0.  1.
         15    1    1    2    0    0  0.89879282123E+00  0.28728787912E+01  0.22411230625E+00  0.35027441257E+01  0.17770000000E+01 0. -1.
</event>
<event>
 6   1  0.1826851E-04  0.5046137E+03  0.7546771E-02  0.9389545E-01
        -11   -1    0    0    0    0  0.00000000000E+00  0.00000000000E+00  0.50000000000E+03  0.50000000000E+03  0.00000000000E+00 0. -1.
         11   -1    0    0    0    0 -0.00000000000E+00 -0.00000000000E+00 -0.50000000000E+03  0.50000000000E+03  0.00000000000E+00 0. -1.
        -11    1    1    2    0    0  0.17849522188E+02  0.85052294766E+01  0.49499153106E+03  0.49538627373E+03  0.00000000000E+00 0. -1.
         11    1    1    2    0    0 -0.80557720586E+01  0.26272460941E+01 -0.47748803578E+03  0.47756321278E+03  0.00000000000E+00 0. -1.
        -15    1    1    2    0    0 -0.29339730699E+01 -0.10271484269E+02 -0.35829547291E+01  0.11406440315E+02  0.17770000000E+01 0. -1.
         15    1    1    2    0    0 -0.68597770598E+01 -0.86099130182E+00 -0.13920540554E+02  0.15644073179E+02  0.17770000000E+01 0.  1.
</event>
<event>
 6   1  0.1826851E-04  0.5004751E+03  0.7546771E-02  0.9398747E-01
        -11   -1    0    0    0    0  0.00000000000E+00  0.00000000000E+00  0.50000000000E+03  0.50000000000E+03  0.00000000000E+00 0. -1.
         11   -1    0    0    0    0 -0.00000000000E+00 -0.00000000000E+00 -0.50000000000E+03  0.50000000000E+03  0.00000000000E+00 0.  1.
        -11    1    1    2    0    0 -0.11229076528E+02 -0.66932761607E+01  0.49935377326E+03  0.49952485721E+03  0.00000000000E+00 0. -1.
         11    1    1    2    0    0  0.17693808073E+01 -0.41912884566E+01 -0.19122973011E+03  0.19128383958E+03  0.00000000000E+00 0.  1.
        -15    1    1    2    0    0  0.15633365469E+02  0.10338466494E+02 -0.25085102008E+03  0.25155651057E+03  0.17770000000E+01 0.  1.
         15    1    1    2    0    0 -0.61736697479E+01  0.54609812316E+00 -0.57273023074E+02  0.57634792637E+02  0.17770000000E+01 0. -1.
</event>
<event>
 6   1  0.1826851E-04  0.5029247E+03  0.7546771E-02  0.9393289E-01
        -11   -1    0    0    0    0  0.00000000000E+00  0.00000000000E+00  0.50000000000E+03  0.50000000000E+03  0.00000000000E+00 0.  1.
         11   -1    0    0    0    0 -0.00000000000E+00 -0.00000000000E+00 -0.50000000000E+03  0.50000000000E+03  0.00000000000E+00 0. -1.
        -11    1    1    2    0    0  0.17548425591E+02 -0.67497343176E+00  0.49676502169E+03  0.49707533594E+03  0.00000000000E+00 0.  1.
         11    1    1    2    0    0 -0.51287846077E+00 -0.67016708542E+01 -0.45776394719E+03  0.45781328812E+03  0.00000000000E+00 0. -1.
        -15    1    1    2    0    0 -0.12627158808E+02  0.38522833167E+01 -0.13625760062E+02  0.19055295657E+02  0.17770000000E+01 0. -1.
         15    1    1    2    0    0 -0.44083883224E+01  0.35243609693E+01 -0.25375314436E+02  0.26056080280E+02  0.17770000000E+01 0.  1.
</event>
<event>
 6   1  0.1826851E-04  0.5045861E+03  0.7546771E-02  0.9389606E-01
        -11   -1    0    0    0    0  0.00000000000E+00  0.00000000000E+00  0.50000000000E+03  0.50000000000E+03  0.00000000000E+00 0.  1.
         11   -1    0    0    0    0 -0.00000000000E+00 -0.00000000000E+00 -0.50000000000E+03  0.50000000000E+03  0.00000000000E+00 0.  1.
        -11    1    1    2    0    0  0.17108031619E+02  0.49213963951E+01  0.49509393652E+03  0.49541387835E+03  0.00000000000E+00 0.  1.
         11    1    1    2    0    0 -0.30553384625E+01  0.52018107508E+01 -0.38232365767E+03  0.38237125041E+03  0.00000000000E+00 0.  1.
        -15    1    1    2    0    0  0.12425376960E+02  0.80627067417E+01 -0.34063952501E+02  0.37187468610E+02  0.17770000000E+01 0.  1.
         15    1    1    2    0    0 -0.26478070117E+02 -0.18185913888E+02 -0.78706326349E+02  0.85027402626E+02  0.17770000000E+01 0. -1.
</event>
<event>
 6   1  0.1826851E-04  0.5034554E+03  0.7546771E-02  0.9392111E-01
        -11   -1    0    0    0    0  0.00000000000E+00  0.00000000000E+00  0.50000000000E+03  0.50000000000E+03  0.00000000000E+00 0.  1.
         11   -1    0    0    0    0 -0.00000000000E+00 -0.00000000000E+00 -0.50000000000E+03  0.50000000000E+03  0.00000000000E+00 0. -1.
        -11    1    1    2    0    0  0.49818016547E+01  0.15532503763E+02  0.43828297489E+03  0.43858641464E+03  0.00000000000E+00 0.  1.
         11    1    1    2    0    0  0.44371090792E+01  0.99883346275E+01 -0.49642432140E+03  0.49654462201E+03  0.00000000000E+00 0. -1.
        -15    1    1    2    0    0  0.10858896544E+01 -0.49169109390E+01  0.79476778127E+01  0.95748880484E+01  0.17770000000E+01 0. -1.
         15    1    1    2    0    0 -0.10504800388E+02 -0.20603927451E+02  0.50193668698E+02  0.55294075306E+02  0.17770000000E+01 0.  1.
</event>
<event>
 6   1  0.1826851E-04  0.5001347E+03  0.7546771E-02  0.9399508E-01
        -11   -1    0    0    0    0  0.00000000000E+00  0.00000000000E+00  0.50000000000E+03  0.50000000000E+03  0.00000000000E+00 0. -1.
         11   -1    0    0    0    0 -0.00000000000E+00 -0.00000000000E+00 -0.50000000000E+03  0.50000000000E+03  0.00000000000E+00 0. -1.
        -11    1    1    2    0    0 -0.12741020351E+02  0.17027008716E+01  0.49969995642E+03  0.49986526109E+03  0.00000000000E+00 0. -1.
         11    1    1    2    0    0  0.71932911925E+00 -0.37770900145E+01 -0.13068746510E+03  0.13074401470E+03  0.00000000000E+00 0. -1.
        -15    1    1    2    0    0  0.44593776210E+01  0.56492224596E+01 -0.11802006137E+03  0.11825266330E+03  0.17770000000E+01 0.  1.
         15    1    1    2    0    0  0.75623136111E+01 -0.35748333167E+01 -0.25099242995E+03  0.25113806092E+03  0.17770000000E+01 0. -1.
</event>
<event>
 6   1  0.1826851E-04  0.5012892E+03  0.7546771E-02  0.9396930E-01
        -11   -1    0    0    0    0  0.00000000000E+00  0.00000000000E+00  0.50000000000E+03  0.50000000000E+03  0.00000000000E+00 0.  1.
         11   -1    0    0    0    0 -0.00000000000E+00 -0.00000000000E+00 -0.50000000000E+03  0.50000000000E+03  0.00000000000E+00 0. -1.
        -11    1    1    2    0    0 -0.92065687879E+01  0.10289923945E+02  0.49851960232E+03  0.49871077524E+03  0.00000000000E+00 0.  1.
         11    1    1    2    0    0  0.12982097468E+02  0.25651638147E+00 -0.46390213015E+03  0.46408381464E+03  0.00000000000E+00 0. -1.
        -15    1    1    2    0    0 -0.29719447884E+01 -0.49375714380E+01 -0.26319109005E+02  0.27001209146E+02  0.17770000000E+01 0. -1.
         15    1    1    2    0    0 -0.80358389150E+00 -0.56088688881E+01 -0.82983631651E+01  0.10204200973E+02  0.17770000000E+01 0.  1.
</event>
<event>
 6   1  0.1826851E-04  0.4705440E+03  0.7546771E-02  0.9468244E-01
        -11   -1    0    0    0    0  0.00000000000E+00  0.00000000000E+00  0.50000000000E+03  0.50000000000E+03  0.00000000000E+00 0.  1.
         11   -1    0    0    0    0 -0.00000000000E+00 -0.00000000000E+00 -0.50000000000E+03  0.50000000000E+03  0.00000000000E+00 0. -1.
        -11    1    1    2    0    0  0.18658033876E+02 -0.42038135049E+02  0.48159908241E+03  0.48379024711E+03  0.00000000000E+00 0.  1.
         11    1    1    2    0    0 -0.11809181358E+02 -0.53034631640E+01 -0.45861045410E+03  0.45879312559E+03  0.00000000000E+00 0. -1.
        -15    1    1    2    0    0 -0.11621342294E+02  0.40737617276E+02 -0.24458204127E+02  0.48948652036E+02  0.17770000000E+01 0.  1.
         15    1    1    2    0    0  0.47724897767E+01  0.66039809366E+01  0.14695758179E+01  0.84679752577E+01  0.17770000000E+01 0. -1.
</event>
<event>
 6   1  0.1826851E-04  0.5047393E+03  0.7546771E-02  0.9389267E-01
        -11   -1    0    0    0    0  0.00000000000E+00  0.00000000000E+00  0.50000000000E+03  0.50000000000E+03  0.00000000000E+00 0.  1.
         11   -1    0    0    0    0 -0.00000000000E+00 -0.00000000000E+00 -0.50000000000E+03  0.50000000000E+03  0.00000000000E+00 0.  1.
        -11    1    1    2    0    0  0.70180549829E+01  0.10630286714E+02  0.49509682143E+03  0.49526065732E+03  0.00000000000E+00 0.  1.
         11    1    1    2    0    0 -0.54560241278E+01  0.57491915455E+01 -0.48374067142E+03  0.48380560000E+03  0.00000000000E+00 0.  1.
        -15    1    1    2    0    0  0.55460017008E+00 -0.59647530426E+01 -0.67999744284E+01  0.92348926054E+01  0.17770000000E+01 0. -1.
         15    1    1    2    0    0 -0.21166310252E+01 -0.10414725216E+02 -0.45561755871E+01  0.11698850081E+02  0.17770000000E+01 0.  1.
</event>
<event>
 6   1  0.1826851E-04  0.5064443E+03  0.7546771E-02  0.9385504E-01
        -11   -1    0    0    0    0  0.00000000000E+00  0.00000000000E+00  0.50000000000E+03  0.50000000000E+03  0.00000000000E+00 0. -1.
         11   -1    0    0    0    0 -0.00000000000E+00 -0.00000000000E+00 -0.50000000000E+03  0.50000000000E+03  0.00000000000E+00 0. -1.
        -11    1    1    2    0    0 -0.45771727566E+01  0.17443435995E+02  0.42260926381E+03  0.42299386973E+03  0.00000000000E+00 0. -1.
         11    1    1    2    0    0 -0.80609056483E+01  0.13144846601E+01 -0.49348811944E+03  0.49355570111E+03  0.00000000000E+00 0. -1.
        -15    1    1    2    0    0  0.21382386450E+02  0.14331301018E+01  0.41053957022E+02  0.46344853310E+02  0.17770000000E+01 0. -1.
         15    1    1    2    0    0 -0.87443080447E+01 -0.20191050757E+02  0.29824898600E+02  0.37105575852E+02  0.17770000000E+01 0.  1.
</event>
<event>
 6   1  0.1826851E-04  0.5003214E+03  0.7546771E-02  0.9399091E-01
        -11   -1    0    0    0    0  0.00000000000E+00  0.00000000000E+00  0.50000000000E+03  0.50000000000E+03  0.00000000000E+00 0. -1.
         11   -1    0    0    0    0 -0.00000000000E+00 -0.00000000000E+00 -0.50000000000E+03  0.50000000000E+03  0.00000000000E+00 0. -1.
        -11    1    1    2    0    0  0.40829088009E+01  0.14840425572E+00  0.16440152366E+02  0.16940211862E+02  0.00000000000E+00 0. -1.
         11    1    1    2    0    0 -0.12159269619E+02  0.72995820784E+01 -0.49947733131E+03  0.49967863296E+03  0.00000000000E+00 0. -1.
        -15    1    1    2    0    0  0.14710943761E+01 -0.89930665280E+01  0.37594986156E+03  0.37606448316E+03  0.17770000000E+01 0. -1.
         15    1    1    2    0    0  0.66052664418E+01  0.15450801938E+01  0.10708731739E+03  0.10731667202E+03  0.17770000000E+01 0.  1.
</event>
<event>
 6   1  0.1826851E-04  0.5004379E+03  0.7546771E-02  0.9398830E-01
        -11   -1    0    0    0    0  0.00000000000E+00  0.00000000000E+00  0.50000000000E+03  0.50000000000E+03  0.00000000000E+00 0.  1.
         11   -1    0    0    0    0 -0.00000000000E+00 -0.00000000000E+00 -0.50000000000E+03  0.50000000000E+03  0.00000000000E+00 0.  1.
        -11    1    1    2    0    0  0.11108045014E+02 -0.10160658267E+02  0.11708121152E+03  0.11804506653E+03  0.00000000000E+00 0.  1.
         11    1    1    2    0    0 -0.13414372464E+02  0.42939856812E+01 -0.49936351488E+03  0.49956211195E+03  0.00000000000E+00 0.  1.
        -15    1    1    2    0    0 -0.35707553836E+00  0.47766341312E+01  0.15233970534E+03  0.15242534989E+03  0.17770000000E+01 0.  1.
         15    1    1    2    0    0  0.26634029886E+01  0.10900384545E+01  0.22994259802E+03  0.22996747164E+03  0.17770000000E+01 0.  1.
</event>
<event>
 6   1  0.1826851E-04  0.5029784E+03  0.7546771E-02  0.9393170E-01
        -11   -1    0    0    0    0  0.00000000000E+00  0.00000000000E+00  0.50000000000E+03  0.50000000000E+03  0.00000000000E+00 0.  1.
         11   -1    0    0    0    0 -0.00000000000E+00 -0.00000000000E+00 -0.50000000000E+03  0.50000000000E+03  0.00000000000E+00 0.  1.
        -11    1    1    2    0    0 -0.17636708531E+02 -0.83612086676E-01  0.44128897431E+03  0.44164127901E+03  0.00000000000E+00 0.  1.
         11    1    1    2    0    0  0.35962084292E+01 -0.89234329613E+01 -0.49692846235E+03  0.49702158611E+03  0.00000000000E+00 0.  1.
        -15    1    1    2    0    0  0.77068030768E+01  0.11289858935E+02  0.51329221040E+02  0.53147929311E+02  0.17770000000E+01 0. -1.
         15    1    1    2    0    0  0.63336970246E+01 -0.22828138871E+01  0.43102669945E+01  0.81892055663E+01  0.17770000000E+01 0.  1.
</event>
<event>
 6   1  0.1826851E-04  0.5038493E+03  0.7546771E-02  0.9391237E-01
        -11   -1    0    0    0    0  0.00000000000E+00  0.00000000000E+00  0.50000000000E+03  0.50000000000E+03  0.00000000000E+00 0.  1.
         11   -1    0    0    0    0 -0.00000000000E+00 -0.00000000000E+00 -0.50000000000E+03  0.50000000000E+03  0.00000000000E+00 0.  1.
        -11    1    1    2    0    0 -0.11346373608E+02  0.41909616633E+01  0.49600320229E+03  0.49615066364E+03  0.00000000000E+00 0.  1.
         11    1    1    2    0    0 -0.71523521636E+01 -0.51780082328E+01 -0.46593663949E+03  0.46602029991E+03  0.00000000000E+00 0.  1.
        -15    1    1    2    0    0  0.80960905145E+01 -0.44270724534E+01 -0.64389186955E+01  0.11391358791E+02  0.17770000000E+01 0.  1.
         15    1    1    2    0    0  0.10402635257E+02  0.54141190229E+01 -0.23627644102E+02  0.26437677657E+02  0.17770000000E+01 0. -1.
</event>
<event>
 6   1  0.1826851E-04  0.5020670E+03  0.7546771E-02  0.9395197E-01
        -11   -1    0    0    0    0  0.00000000000E+00  0.00000000000E+00  0.50000000000E+03  0.50000000000E+03  0.00000000000E+00 0. -1.
         11   -1    0    0    0    0 -0.00000000000E+00 -0.00000000000E+00 -0.50000000000E+03  0.50000000000E+03  0.00000000000E+00 0.  1.
        -11    1    1    2    0    0  0.90245518540E+01 -0.52331041608E+01  0.49782373454E+03  0.49793302621E+03  0.00000000000E+00 0. -1.
         11    1    1    2    0    0 -0.11522818794E+02  0.17694503924E+01 -0.48359643624E+03  0.48373693208E+03  0.00000000000E+00 0.  1.
        -15    1    1    2    0    0  0.60082318194E+01  0.19288997543E+00 -0.62413766449E+01  0.88458220399E+01  0.17770000000E+01 0. -1.
         15    1    1    2    0    0 -0.35099648793E+01  0.32707637929E+01 -0.79859216534E+01  0.94842196778E+01  0.17770000000E+01 0.  1.
</event>
<event>
 6   1  0.1826851E-04  0.5025971E+03  0.7546771E-02  0.9394017E-01
        -11   -1    0    0    0    0  0.00000000000E+00  0.00000000000E+00  0.50000000000E+03  0.50000000000E+03  0.00000000000E+00 0.  1.
         11   -1    0    0    0    0 -0.00000000000E+00 -0.00000000000E+00 -0.50000000000E+03  0.50000000000E+03  0.00000000000E+00 0.  1.
        -11    1    1    2    0    0  0.97338878790E+01  0.13420582223E+02  0.37326942450E+03  0.37363742300E+03  0.00000000000E+00 0.  1.
         11    1    1    2    0    0  0.66290459919E+01  0.80299909068E+01 -0.49729391973E+03  0.49740292279E+03  0.00000000000E+00 0.  1.
        -15    1    1    2    0    0 -0.15077321182E+02 -0.10555202704E+02  0.10728416920E+03  0.10886592032E+03  0.17770000000E+01 0.  1.
         15    1    1    2    0    0 -0.12856126887E+01 -0.10895370425E+02  0.16740326037E+02  0.20093733886E+02  0.17770000000E+01 0.  1.
</event>
<event>
 6   1  0.1826851E-04  0.3886920E+03  0.7546771E-02  0.9690415E-01
        -11   -1    0    0    0    0  0.00000000000E+00  0.00000000000E+00  0.50000000000E+03  0.50000000000E+03  0.00000000000E+00 0.  1.
         11   -1    0    0    0    0 -0.00000000000E+00 -0.00000000000E+00 -0.50000000000E+03  0.50000000000E+03  0.00000000000E+00 0. -1.
        -11    1    1    2    0    0  0.98869503588E+02 -0.55281672951E+02  0.16292693606E+03  0.19843494802E+03  0.00000000000E+00 0.  1.
         11    1    1    2    0    0  0.30356224957E+01 -0.49174555236E+02 -0.46373002408E+03  0.46633988369E+03  0.00000000000E+00 0. -1.
        -15    1    1    2    0    0 -0.59787028878E+01  0.16979044914E+02  0.34284116488E+02  0.38763271621E+02  0.17770000000E+01 0. -1.
         15    1    1    2    0    0 -0.95926423196E+02  0.87477183273E+02  0.26651897153E+03  0.29646189667E+03  0.17770000000E+01 0.  1.
</event>
<event>
 6   1  0.1826851E-04  0.5020671E+03  0.7546771E-02  0.9395196E-01
        -11   -1    0    0    0    0  0.00000000000E+00  0.00000000000E+00  0.50000000000E+03  0.50000000000E+03  0.00000000000E+00 0.  1.
         11   -1    0    0    0    0 -0.00000000000E+00 -0.00000000000E+00 -0.50000000000E+03  0.50000000000E+03  0.00000000000E+00 0. -1.
        -11    1    1    2    0    0  0.51323267836E+01 -0.10756123326E+02  0.49779023273E+03  0.49793287777E+03  0.00000000000E+00 0.  1.
         11    1    1    2    0    0 -0.30004663117E+01 -0.58270439787E+01 -0.46312863780E+03  0.46317501270E+03  0.00000000000E+00 0. -1.
        -15    1    1    2    0    0  0.11032753276E+01  0.63672723013E+01 -0.15010425981E+02  0.16438673612E+02  0.17770000000E+01 0.  1.
         15    1    1    2    0    0 -0.32351357995E+01  0.10215895003E+02 -0.19651168944E+02  0.22453435911E+02  0.17770000000E+01 0. -1.
</event>
<event>
 6   1  0.1826851E-04  0.5013375E+03  0.7546771E-02  0.9396822E-01
        -11   -1    0    0    0    0  0.00000000000E+00  0.00000000000E+00  0.50000000000E+03  0.50000000000E+03  0.00000000000E+00 0.  1.
         11   -1    0    0    0    0 -0.00000000000E+00 -0.00000000000E+00 -0.50000000000E+03  0.50000000000E+03  0.00000000000E+00 0.  1.
        -11    1    1    2    0    0 -0.20049857531E+02 -0.65963399257E+02  0.49387356482E+03  0.49866247589E+03  0.00000000000E+00 0.  1.
         11    1    1    2    0    0  0.24586035069E+01  0.45703058748E+00 -0.92337997360E+02  0.92371853747E+02  0.00000000000E+00 0.  1.
        -15    1    1    2    0    0  0.36472864475E+01  0.15133240577E+02 -0.30763374555E+02  0.34523334309E+02  0.17770000000E+01 0.  1.
         15    1    1    2    0    0  0.13943967576E+02  0.50373128092E+02 -0.37077219291E+03  0.37444233605E+03  0.17770000000E+01 0. -1.
</event>
<event>
 6   1  0.1826851E-04  0.5045739E+03  0.7546771E-02  0.9389633E-01
        -11   -1    0    0    0    0  0.00000000000E+00  0.00000000000E+00  0.50000000000E+03  0.50000000000E+03  0.00000000000E+00 0. -1.
         11   -1    0    0    0    0 -0.00000000000E+00 -0.00000000000E+00 -0.50000000000E+03  0.50000000000E+03  0.00000000000E+00 0. -1.
        -11    1    1    2    0    0  0.10742182232E+02  0.72978505352E+01  0.46578965823E+03  0.46597066304E+03  0.00000000000E+00 0. -1.
         11    1    1    2    0    0 -0.15745899566E+02  0.14843621969E+02 -0.49495329349E+03  0.49542610873E+03  0.00000000000E+00 0. -1.
        -15    1    1    2    0    0  0.45691918099E+00 -0.53632146085E+01  0.14671888183E+01  0.58551872817E+01  0.17770000000E+01 0.  1.
         15    1    1    2    0    0  0.45467981525E+01 -0.16778257896E+02  0.27696446445E+02  0.32748040951E+02  0.17770000000E+01 0. -1.
</event>
<event>
 6   1  0.1826851E-04  0.5001876E+03  0.7546771E-02  0.9399390E-01
        -11   -1    0    0    0    0  0.00000000000E+00  0.00000000000E+00  0.50000000000E+03  0.50000000000E+03  0.00000000000E+00 0. -1.
         11   -1    0    0    0    0 -0.00000000000E+00 -0.00000000000E+00 -0.50000000000E+03  0.50000000000E+03  0.00000000000E+00 0. -1.
        -11    1    1    2    0    0 -0.16280978432E+01  0.59464950565E+01  0.28979854626E+03  0.28986412148E+03  0.00000000000E+00 0. -1.
         11    1    1    2    0    0  0.75215337758E+01  0.36864916599E+01 -0.49974223323E+03  0.49981242819E+03  0.00000000000E+00 0. -1.
        -15    1    1    2    0    0 -0.33496913454E+01 -0.85150851245E+01  0.15930918188E+03  0.15958164139E+03  0.17770000000E+01 0.  1.
         15    1    1    2    0    0 -0.25437445872E+01 -0.11179015919E+01  0.50634505094E+02  0.50741808951E+02  0.17770000000E+01 0. -1.
</event>
<event>
 6   1  0.1826851E-04  0.5063969E+03  0.7546771E-02  0.9385609E-01
        -11   -1    0    0    0    0  0.00000000000E+00  0.00000000000E+00  0.50000000000E+03  0.50000000000E+03  0.00000000000E+00 0.  1.
         11   -1    0    0    0    0 -0.00000000000E+00 -0.00000000000E+00 -0.50000000000E+03  0.50000000000E+03  0.00000000000E+00 0. -1.
        -11    1    1    2    0    0  0.30570257679E+01  0.22940959755E+02  0.49306027538E+03  0.49360314849E+03  0.00000000000E+00 0.  1.
         11    1    1    2    0    0 -0.32277985621E+01 -0.58025790279E+01 -0.47449494822E+03  0.47454140440E+03  0.00000000000E+00 0. -1.
        -15    1    1    2    0    0  0.16869623076E+01  0.38309820850E+01 -0.17397525556E+01  0.48689561014E+01  0.17770000000E+01 0.  1.
         15    1    1    2    0    0 -0.15161895134E+01 -0.20969362812E+02 -0.16825574601E+02  0.26986491010E+02  0.17770000000E+01 0. -1.
</event>
<event>
 6   1  0.1826851E-04  0.5045966E+03  0.7546771E-02  0.9389583E-01
        -11   -1    0    0    0    0  0.00000000000E+00  0.00000000000E+00  0.50000000000E+03  0.50000000000E+03  0.00000000000E+00 0. -1.
         11   -1    0    0    0    0 -0.00000000000E+00 -0.00000000000E+00 -0.50000000000E+03  0.50000000000E+03  0.00000000000E+00 0.  1.
        -11    1    1    2    0    0  0.12448127364E+02 -0.15607932782E+02  0.46014125806E+03  0.46057414258E+03  0.00000000000E+00 0. -1.
         11    1    1    2    0    0  0.67134638007E+01  0.29163511268E+01 -0.49534928185E+03  0.49540335761E+03  0.00000000000E+00 0.  1.
        -15    1    1    2    0    0  0.11007167798E+01 -0.18538752270E+00  0.14130244644E+01  0.25298840091E+01  0.17770000000E+01 0.  1.
         15    1    1    2    0    0 -0.20262307945E+02  0.12876969178E+02  0.33794999322E+02  0.41492615808E+02  0.17770000000E+01 0. -1.
</event>
<event>
 6   1  0.1826851E-04  0.5011551E+03  0.7546771E-02  0.9397229E-01
        -11   -1    0    0    0    0  0.00000000000E+00  0.00000000000E+00  0.50000000000E+03  0.50000000000E+03  0.00000000000E+00 0.  1.
         11   -1    0    0    0    0 -0.00000000000E+00 -0.00000000000E+00 -0.50000000000E+03  0.50000000000E+03  0.00000000000E+00 0.  1.
        -11    1    1    2    0    0 -0.23142037949E+02  0.39556303048E+02  0.49673536123E+03  0.49884493997E+03  0.00000000000E+00 0.  1.
         11    1    1    2    0    0  0.10544874632E+02 -0.34878495096E+02 -0.44771850269E+03  0.44919879948E+03  0.00000000000E+00 0.  1.
        -15    1    1    2    0    0  0.56243873264E+01 -0.44587911215E+01 -0.10937060069E+02  0.13201953000E+02  0.17770000000E+01 0. -1.
         15    1    1    2    0    0  0.69727759910E+01 -0.21901683091E+00 -0.38079798470E+02  0.38754307553E+02  0.17770000000E+01 0.  1.
</event>
<event>
 6   1  0.1826851E-04  0.5002376E+03  0.7546771E-02  0.9399278E-01
        -11   -1    0    0    0    0  0.00000000000E+00  0.00000000000E+00  0.50000000000E+03  0.50000000000E+03  0.00000000000E+00 0.  1.
         11   -1    0    0    0    0 -0.00000000000E+00 -0.00000000000E+00 -0.50000000000E+03  0.50000000000E+03  0.00000000000E+00 0.  1.
        -11    1    1    2    0    0 -0.12236569273E+02 -0.19485476365E+01  0.17676510801E+03  0.17719885404E+03  0.00000000000E+00 0.  1.
         11    1    1    2    0    0  0.63526728625E+01  0.90674695297E+01 -0.49963974508E+03  0.49976239387E+03  0.00000000000E+00 0.  1.
        -15    1    1    2    0    0  0.36752794767E+01 -0.23825128067E+01  0.13333180766E+03  0.13341556397E+03  0.17770000000E+01 0.  1.
         15    1    1    2    0    0  0.22086169338E+01 -0.47364090865E+01  0.18954282942E+03  0.18962318812E+03  0.17770000000E+01 0.  1.
</event>
<event>
 6   1  0.1826851E-04  0.5001439E+03  0.7546771E-02  0.9399488E-01
        -11   -1    0    0    0    0  0.00000000000E+00  0.00000000000E+00  0.50000000000E+03  0.50000000000E+03  0.00000000000E+00 0. -1.
         11   -1    0    0    0    0 -0.00000000000E+00 -0.00000000000E+00 -0.50000000000E+03  0.50000000000E+03  0.00000000000E+00 0. -1.
        -11    1    1    2    0    0 -0.73128451181E+01 -0.21638893838E+01  0.72750997397E+02  0.73149625721E+02  0.00000000000E+00 0. -1.
         11    1    1    2    0    0  0.14661162267E+02 -0.92583871449E+00 -0.49964016389E+03  0.49985607951E+03  0.00000000000E+00 0. -1.
        -15    1    1    2    0    0 -0.14146486200E+01  0.95107195985E+00  0.66530592911E+02  0.66576146559E+02  0.17770000000E+01 0. -1.
         15    1    1    2    0    0 -0.59336685285E+01  0.21386561384E+01  0.36035857358E+03  0.36041814820E+03  0.17770000000E+01 0. -1.
</event>
<event>
 6   1  0.1826851E-04  0.5064962E+03  0.7546771E-02  0.9385390E-01
        -11   -1    0    0    0    0  0.00000000000E+00  0.00000000000E+00  0.50000000000E+03  0.50000000000E+03  0.00000000000E+00 0. -1.
         11   -1    0    0    0    0 -0.00000000000E+00 -0.00000000000E+00 -0.50000000000E+03  0.50000000000E+03  0.00000000000E+00 0.  1.
        -11    1    1    2    0    0 -0.86787766057E+01 -0.80783179833E+01  0.49336137340E+03  0.49350382485E+03  0.00000000000E+00 0. -1.
         11    1    1    2    0    0  0.54447640644E+01 -0.42789349525E+01 -0.48297643078E+03  0.48302607324E+03  0.00000000000E+00 0.  1.
        -15    1    1    2    0    0  0.43790696315E+01  0.67375562174E+01  0.30323804370E+01  0.87706313761E+01  0.17770000000E+01 0.  1.
         15    1    1    2    0    0 -0.11450570902E+01  0.56196967183E+01 -0.13417323054E+02  0.14699470530E+02  0.17770000000E+01 0. -1.
</event>
<event>
 6   1  0.1826851E-04  0.5016466E+03  0.7546771E-02  0.9396133E-01
        -11   -1    0    0    0    0  0.00000000000E+00  0.00000000000E+00  0.50000000000E+03  0.50000000000E+03  0.00000000000E+00 0. -1.
         11   -1    0    0    0    0 -0.00000000000E+00 -0.00000000000E+00 -0.50000000000E+03  0.50000000000E+03  0.00000000000E+00 0.  1.
        -11    1    1    2    0    0  0.90174344640E+01  0.21113986038E+02  0.68545037413E+02  0.72287873704E+02  0.00000000000E+00 0. -1.
         11    1    1    2    0    0 -0.88326100413E+01 -0.21045944936E+02 -0.49783047443E+03  0.49835341683E+03  0.00000000000E+00 0.  1.
        -15    1    1    2    0    0  0.24599465132E+01 -0.23042836958E+01  0.16128844119E+03  0.16133344368E+03  0.17770000000E+01 0.  1.
         15    1    1    2    0    0 -0.26447709359E+01  0.22362425939E+01  0.26799699583E+03  0.26802526578E+03  0.17770000000E+01 0. -1.
</event>
<event>
 6   1  0.1826851E-04  0.5002033E+03  0.7546771E-02  0.9399355E-01
        -11   -1    0    0    0    0  0.00000000000E+00  0.00000000000E+00  0.50000000000E+03  0.50000000000E+03  0.00000000000E+00 0.  1.
         11   -1    0    0    0    0 -0.00000000000E+00 -0.00000000000E+00 -0.50000000000E+03  0.50000000000E+03  0.00000000000E+00 0. -1.
        -11    1    1    2    0    0 -0.14782737370E+02  0.91697119446E+01  0.34251280967E+03  0.34295427936E+03  0.00000000000E+00 0.  1.
         11    1    1    2    0    0  0.12452791009E+02 -0.47205709552E+01 -0.49961919302E+03  0.49979665248E+03  0.00000000000E+00 0. -1.
        -15    1    1    2    0    0  0.11917062886E+01 -0.49569107495E+00  0.57480315003E+02  0.57522258435E+02  0.17770000000E+01 0. -1.
         15    1    1    2    0    0  0.11382400719E+01 -0.39534499145E+01  0.99626068342E+02  0.99726809730E+02  0.17770000000E+01 0.  1.
</event>
<event>
 6   1  0.1826851E-04  0.5011619E+03  0.7546771E-02  0.9397214E-01
        -11   -1    0    0    0    0  0.00000000000E+00  0.00000000000E+00  0.50000000000E+03  0.50000000000E+03  0.00000000000E+00 0. -1.
         11   -1    0    0    0    0 -0.00000000000E+00 -0.00000000000E+00 -0.50000000000E+03  0.50000000000E+03  0.00000000000E+00 0. -1.
        -11    1    1    2    0    0 -0.29271811437E+02  0.67339783700E+01  0.49793296073E+03  0.49883806871E+03  0.00000000000E+00 0. -1.
         11    1    1    2    0    0 -0.18975124796E+01  0.67524065790E+01 -0.25535719832E+03  0.25545350708E+03  0.00000000000E+00 0. -1.
        -15    1    1    2    0    0  0.31212273130E+02 -0.12735511602E+02 -0.18213800035E+03  0.18523986653E+03  0.17770000000E+01 0. -1.
         15    1    1    2    0    0 -0.42949214000E-01 -0.75087334750E+00 -0.60437762064E+02  0.60468557679E+02  0.17770000000E+01 0. -1.
</event>
<event>
 6   1  0.1826851E-04  0.5003297E+03  0.7546771E-02  0.9399072E-01
        -11   -1    0    0    0    0  0.00000000000E+00  0.00000000000E+00  0.50000000000E+03  0.50000000000E+03  0.00000000000E+00 0. -1.
         11   -1    0    0    0    0 -0.00000000000E+00 -0.00000000000E+00 -0.50000000000E+03  0.50000000000E+03  0.00000000000E+00 0. -1.
        -11    1    1    2    0    0  0.15913704845E+02 -0.39316705452E+01  0.15402028431E+03  0.15489012884E+03  0.00000000000E+00 0. -1.
         11    1    1    2    0    0 -0.15918436105E+02  0.78534233424E+01 -0.49935491074E+03  0.49967029104E+03  0.00000000000E+00 0. -1.
        -15    1    1    2    0    0 -0.47475752739E+00  0.27428163391E+00  0.23880523942E+02  0.23952824006E+02  0.17770000000E+01 0. -1.
         15    1    1    2    0    0  0.47948878730E+00 -0.41960344312E+01  0.32145410250E+03  0.32148675611E+03  0.17770000000E+01 0. -1.
</event>
<event>
 6   1  0.1826851E-04  0.5053477E+03  0.7546771E-02  0.9387923E-01
        -11   -1    0    0    0    0  0.00000000000E+00  0.00000000000E+00  0.50000000000E+03  0.50000000000E+03  0.00000000000E+00 0. -1.
         11   -1    0    0    0    0 -0.00000000000E+00 -0.00000000000E+00 -0.50000000000E+03  0.50000000000E+03  0.00000000000E+00 0. -1.
        -11    1    1    2    0    0  0.38477633714E+02  0.58152612159E+01  0.37222260634E+03  0.37425127151E+03  0.00000000000E+00 0. -1.
         11    1    1    2    0    0 -0.64880504642E+01  0.10010806248E+02 -0.49450842216E+03  0.49465229266E+03  0.00000000000E+00 0. -1.
        -15    1    1    2    0    0 -0.67622496434E+01 -0.18029338125E+02  0.32764926852E+02  0.38045804159E+02  0.17770000000E+01 0. -1.
         15    1    1    2    0    0 -0.25227333607E+02  0.22032706610E+01  0.89520888976E+02  0.93050631672E+02  0.17770000000E+01 0.  1.
</event>
<event>
 6   1  0.1826851E-04  0.5082706E+03  0.7546771E-02  0.9381491E-01
        -11   -1    0    0    0    0  0.00000000000E+00  0.00000000000E+00  0.50000000000E+03  0.50000000000E+03  0.00000000000E+00 0. -1.
         11   -1    0    0    0    0 -0.00000000000E+00 -0.00000000000E+00 -0.50000000000E+03  0.50000000000E+03  0.00000000000E+00 0.  1.
        -11    1    1    2    0    0 -0.24398162559E+02  0.50562361990E+01  0.49109767283E+03  0.49172935658E+03  0.00000000000E+00 0. -1.
         11    1    1    2    0    0 -0.10880848742E+02  0.75479595497E+01 -0.44663357112E+03  0.44682984615E+03  0.00000000000E+00 0.  1.
        -15    1    1    2    0    0  0.10172820018E+02 -0.74277579778E+01 -0.36894993020E+01  0.13244923170E+02  0.17770000000E+01 0.  1.
         15    1    1    2    0    0  0.25106191283E+02 -0.51764377709E+01 -0.40774602414E+02  0.48195874095E+02  0.17770000000E+01 0. -1.
</event>
<event>
 6   1  0.1826851E-04  0.4527110E+03  0.7546771E-02  0.9512321E-01
        -11   -1    0    0    0    0  0.00000000000E+00  0.00000000000E+00  0.50000000000E+03  0.50000000000E+03  0.00000000000E+00 0.  1.
         11   -1    0    0    0    0 -0.00000000000E+00 -0.00000000000E+00 -0.50000000000E+03  0.50000000000E+03  0.00000000000E+00 0. -1.
        -11    1    1    2    0    0  0.48990241697E+02 -0.39228657205E+02  0.43522740368E+03  0.43972926243E+03  0.00000000000E+00 0.  1.
         11    1    1    2    0    0  0.64294224162E+00 -0.65907155669E+01 -0.46878211568E+03  0.46882888444E+03  0.00000000000E+00 0. -1.
        -15    1    1    2    0    0 -0.41675930655E+02  0.24280352637E+02 -0.28656667882E+01  0.48350682470E+02  0.17770000000E+01 0.  1.
         15    1    1    2    0    0 -0.79572532837E+01  0.21539020135E+02  0.36420378791E+02  0.43091170656E+02  0.17770000000E+01 0. -1.
</event>
<event>
 6   1  0.1826851E-04  0.5003954E+03  0.7546771E-02  0.9398925E-01
        -11   -1    0    0    0    0  0.00000000000E+00  0.00000000000E+00  0.50000000000E+03  0.50000000000E+03  0.00000000000E+00 0.  1.
         11   -1    0    0    0    0 -0.00000000000E+00 -0.00000000000E+00 -0.50000000000E+03  0.50000000000E+03  0.00000000000E+00 0. -1.
        -11    1    1    2    0    0  0.47475272927E+01  0.13214756556E+02  0.49940718687E+03  0.49960455073E+03  0.00000000000E+00 0.  1.
         11    1    1    2    0    0 -0.40372230304E+01  0.18355121948E+01 -0.31249827839E+03  0.31252974622E+03  0.00000000000E+00 0. -1.
        -15    1    1    2    0    0 -0.13208726233E+01  0.92403958639E+00 -0.13419705977E+02  0.13632490277E+02  0.17770000000E+01 0.  1.
         15    1    1    2    0    0  0.61056836093E+00 -0.15974308337E+02 -0.17348920251E+03  0.17423321278E+03  0.17770000000E+01 0. -1.
</event>
<event>
 6   1  0.1826851E-04  0.4919380E+03  0.7546771E-02  0.9418032E-01
        -11   -1    0    0    0    0  0.00000000000E+00  0.00000000000E+00  0.50000000000E+03  0.50000000000E+03  0.00000000000E+00 0.  1.
         11   -1    0    0    0    0 -0.00000000000E+00 -0.00000000000E+00 -0.50000000000E+03  0.50000000000E+03  0.00000000000E+00 0.  1.
        -11    1    1    2    0    0 -0.85779740457E+01  0.62685164327E+01  0.48942469969E+03  0.48954000102E+03  0.00000000000E+00 0.  1.
         11    1    1    2    0    0 -0.62232668307E+00 -0.10757810364E+02 -0.49428381280E+03  0.49440125947E+03  0.00000000000E+00 0.  1.
        -15    1    1    2    0    0 -0.14590600287E+01  0.38231554183E+01  0.10693723640E+01  0.45876638688E+01  0.17770000000E+01 0. -1.
         15    1    1    2    0    0  0.10659360757E+02  0.66613851277E+00  0.37897407465E+01  0.11471075634E+02  0.17770000000E+01 0.  1.
</event>
<event>
 6   1  0.1826851E-04  0.5036898E+03  0.7546771E-02  0.9391591E-01
        -11   -1    0    0    0    0  0.00000000000E+00  0.00000000000E+00  0.50000000000E+03  0.50000000000E+03  0.00000000000E+00 0.  1.
         11   -1    0    0    0    0 -0.00000000000E+00 -0.00000000000E+00 -0.50000000000E+03  0.50000000000E+03  0.00000000000E+00 0.  1.
        -11    1    1    2    0    0  0.37288595091E+01  0.76419127642E+01  0.49623733419E+03  0.49631018030E+03  0.00000000000E+00 0.  1.
         11    1    1    2    0    0 -0.54812364095E+01  0.51379941932E+01 -0.42688443158E+03  0.42695053679E+03  0.00000000000E+00 0.  1.
        -15    1    1    2    0    0  0.48968377903E+01 -0.61765558135E+01 -0.11959889589E+01  0.81680463179E+01  0.17770000000E+01 0. -1.
         15    1    1    2    0    0 -0.31444608899E+01 -0.66033511439E+01 -0.68156913653E+02  0.68571236596E+02  0.17770000000E+01 0.  1.
</event>
<event>
 6   1  0.1826851E-04  0.5022387E+03  0.7546771E-02  0.9394814E-01
        -11   -1    0    0    0    0  0.00000000000E+00  0.00000000000E+00  0.50000000000E+03  0.50000000000E+03  0.00000000000E+00 0.  1.
         11   -1    0    0    0    0 -0.00000000000E+00 -0.00000000000E+00 -0.50000000000E+03  0.50000000000E+03  0.00000000000E+00 0.  1.
        -11    1    1    2    0    0 -0.15406206454E+02 -0.16085164796E+02  0.38279663443E+03  0.38344405987E+03  0.00000000000E+00 0.  1.
         11    1    1    2    0    0  0.16788125775E+01  0.85505309822E+01 -0.49768499528E+03  0.49776127262E+03  0.00000000000E+00 0.  1.
        -15    1    1    2    0    0  0.36401080774E+01 -0.17896185059E+01  0.16710204241E+01  0.47331975946E+01  0.17770000000E+01 0.  1.
         15    1    1    2    0    0  0.10087285799E+02  0.93242523196E+01  0.11321734043E+03  0.11406146991E+03  0.17770000000E+01 0. -1.
</event>
<event>
 6   1  0.1826851E-04  0.4032441E+03  0.7546771E-02  0.9646864E-01
        -11   -1    0    0    0    0  0.00000000000E+00  0.00000000000E+00  0.50000000000E+03  0.50000000000E+03  0.00000000000E+00 0.  1.
         11   -1    0    0    0    0 -0.00000000000E+00 -0.00000000000E+00 -0.50000000000E+03  0.50000000000E+03  0.00000000000E+00 0.  1.
        -11    1    1    2    0    0  0.81940700321E+02  0.22262984417E+02  0.36120191454E+03  0.37104816656E+03  0.00000000000E+00 0.  1.
         11    1    1    2    0    0  0.73121185444E+01  0.17568002809E+02 -0.44527274723E+03  0.44567916849E+03  0.00000000000E+00 0.  1.
        -15    1    1    2    0    0 -0.69293480246E+01  0.35918834324E+02 -0.90267261146E+01  0.37720260293E+02  0.17770000000E+01 0. -1.
         15    1    1    2    0    0 -0.82323470841E+02 -0.75749821550E+02  0.93097558807E+02  0.14555240466E+03  0.17770000000E+01 0.  1.
</event>
<event>
 6   1  0.1826851E-04  0.4925137E+03  0.7546771E-02  0.9416719E-01
        -11   -1    0    0    0    0  0.00000000000E+00  0.00000000000E+00  0.50000000000E+03  0.50000000000E+03  0.00000000000E+00 0.  1.
         11   -1    0    0    0    0 -0.00000000000E+00 -0.00000000000E+00 -0.50000000000E+03  0.50000000000E+03  0.00000000000E+00 0.  1.
        -11    1    1    2    0    0 -0.16041404624E+02 -0.40044127406E+01  0.49323372271E+03  0.49351075693E+03  0.00000000000E+00 0.  1.
         11    1    1    2    0    0  0.71633429100E+01  0.44112078629E+01 -0.49148623202E+03  0.49155822494E+03  0.00000000000E+00 0.  1.
        -15    1    1    2    0    0 -0.24754182452E+01  0.89862596198E+00  0.27916599793E+00  0.31891827735E+01  0.17770000000E+01 0. -1.
         15    1    1    2    0    0  0.11353479959E+02 -0.13054210842E+01 -0.20266566858E+01  0.11741835364E+02  0.17770000000E+01 0.  1.
</event>
<event>
 6   1  0.1826851E-04  0.4765472E+03  0.7546771E-02  0.9453873E-01
        -11   -1    0    0    0    0  0.00000000000E+00  0.00000000000E+00  0.50000000000E+03  0.50000000000E+03  0.00000000000E+00 0. -1.
         11   -1    0    0    0    0 -0.00000000000E+00 -0.00000000000E+00 -0.50000000000E+03  0.50000000000E+03  0.00000000000E+00 0. -1.
        -11    1    1    2    0    0  0.69853035789E+01  0.24461619236E+02  0.46833680432E+03  0.46902721410E+03  0.00000000000E+00 0. -1.
         11    1    1    2    0    0 -0.36157438156E+02 -0.26542403633E+02 -0.48254136458E+03  0.48462153074E+03  0.00000000000E+00 0. -1.
        -15    1    1    2    0    0  0.17024319845E+02 -0.12258634562E+02  0.17265121681E+02  0.27227628306E+02  0.17770000000E+01 0. -1.
         15    1    1    2    0    0  0.12147814732E+02  0.14339418959E+02 -0.30605614215E+01  0.19123626855E+02  0.17770000000E+01 0.  1.
</event>
<event>
 6   1  0.1826851E-04  0.5002846E+03  0.7546771E-02  0.9399173E-01
        -11   -1    0    0    0    0  0.00000000000E+00  0.00000000000E+00  0.50000000000E+03  0.50000000000E+03  0.00000000000E+00 0. -1.
         11   -1    0    0    0    0 -0.00000000000E+00 -0.00000000000E+00 -0.50000000000E+03  0.50000000000E+03  0.00000000000E+00 0. -1.
        -11    1    1    2    0    0 -0.35020810363E+01  0.38187576335E+01  0.34533174313E+03  0.34537061296E+03  0.00000000000E+00 0. -1.
         11    1    1    2    0    0 -0.63666446203E+01  0.24009109703E+01 -0.49966904238E+03  0.49971536944E+03  0.00000000000E+00 0. -1.
        -15    1    1    2    0    0  0.22762411614E+01 -0.62054846596E+00  0.18146122166E+02  0.18384934944E+02  0.17770000000E+01 0. -1.
         15    1    1    2    0    0  0.75924844951E+01 -0.55991201378E+01  0.13619117709E+03  0.13652908266E+03  0.17770000000E+01 0.  1.
</event>
<event>
 6   1  0.1826851E-04  0.5174764E+03  0.7546771E-02  0.9361532E-01
        -11   -1    0    0    0    0  0.00000000000E+00  0.00000000000E+00  0.50000000000E+03  0.50000000000E+03  0.00000000000E+00 0. -1.
         11   -1    0    0    0    0 -0.00000000000E+00 -0.00000000000E+00 -0.50000000000E+03  0.50000000000E+03  0.00000000000E+00 0. -1.
        -11    1    1    2    0    0  0.30560249090E+02  0.89645729008E+01  0.48147146857E+03  0.48252364443E+03  0.00000000000E+00 0. -1.
         11    1    1    2    0    0  0.98293120693E+01 -0.21086183168E+01 -0.45509525832E+03  0.45520627829E+03  0.00000000000E+00 0. -1.
        -15    1    1    2    0    0 -0.32002833423E+02 -0.15581987790E+02 -0.28489047213E+01  0.35752673715E+02  0.17770000000E+01 0. -1.
         15    1    1    2    0    0 -0.83867277362E+01  0.87260332064E+01 -0.23527305527E+02  0.26517403568E+02  0.17770000000E+01 0.  1.
</event>
<event>
 6   1  0.1826851E-04  0.5014765E+03  0.7546771E-02  0.9396512E-01
        -11   -1    0    0    0    0  0.00000000000E+00  0.00000000000E+00  0.50000000000E+03  0.50000000000E+03  0.00000000000E+00 0. -1.
         11   -1    0    0    0    0 -0.00000000000E+00 -0.00000000000E+00 -0.50000000000E+03  0.50000000000E+03  0.00000000000E+00 0.  1.
        -11    1    1    2    0    0  0.70231536723E+01  0.25497354563E+01  0.49846751857E+03  0.49852351290E+03  0.00000000000E+00 0. -1.
         11    1    1    2    0    0  0.13602598196E+00  0.92299413794E+01 -0.44716442374E+03  0.44725969210E+03  0.00000000000E+00 0.  1.
        -15    1    1    2    0    0 -0.27847283089E+01  0.40247386733E+00 -0.43329860847E+01  0.54634416240E+01  0.17770000000E+01 0.  1.
         15    1    1    2    0    0 -0.43744513454E+01 -0.12182150703E+02 -0.46970108754E+02  0.48753353379E+02  0.17770000000E+01 0. -1.
</event>
<event>
 6   1  0.1826851E-04  0.4836803E+03  0.7546771E-02  0.9437085E-01
        -11   -1    0    0    0    0  0.00000000000E+00  0.00000000000E+00  0.50000000000E+03  0.50000000000E+03  0.00000000000E+00 0. -1.
         11   -1    0    0    0    0 -0.00000000000E+00 -0.00000000000E+00 -0.50000000000E+03  0.50000000000E+03  0.00000000000E+00 0. -1.
        -11    1    1    2    0    0  0.18611969290E+02  0.33239507701E+01  0.47697444802E+03  0.47734901080E+03  0.00000000000E+00 0. -1.
         11    1    1    2    0    0 -0.69214376149E+00 -0.19076314781E+02 -0.49002216503E+03  0.49039382853E+03  0.00000000000E+00 0. -1.
        -15    1    1    2    0    0 -0.42356452387E+01  0.14919791471E+02  0.58457714431E+01  0.16669482322E+02  0.17770000000E+01 0.  1.
         15    1    1    2    0    0 -0.13684180289E+02  0.83257254019E+00  0.72019455645E+01  0.15587678344E+02  0.17770000000E+01 0. -1.
</event>
<event>
 6   1  0.1826851E-04  0.5013112E+03  0.7546771E-02  0.9396881E-01
        -11   -1    0    0    0    0  0.00000000000E+00  0.00000000000E+00  0.50000000000E+03  0.50000000000E+03  0.00000000000E+00 0. -1.
         11   -1    0    0    0    0 -0.00000000000E+00 -0.00000000000E+00 -0.50000000000E+03  0.50000000000E+03  0.00000000000E+00 0.  1.
        -11    1    1    2    0    0  0.38667240856E+01  0.16320365450E+02  0.45367055808E+03  0.45398048543E+03  0.00000000000E+00 0. -1.
         11    1    1    2    0    0 -0.57701699733E+01 -0.46465208426E+01 -0.49863374551E+03  0.49868877787E+03  0.00000000000E+00 0.  1.
        -15    1    1    2    0    0  0.45334885384E+01 -0.60985639849E+01  0.30951056160E+02  0.31919752622E+02  0.17770000000E+01 0.  1.
         15    1    1    2    0    0 -0.26300426507E+01 -0.55752806229E+01  0.14012131266E+02  0.15410984070E+02  0.17770000000E+01 0. -1.
</event>
<event>
 6   1  0.1826851E-04  0.5029369E+03  0.7546771E-02  0.9393262E-01
        -11   -1    0    0    0    0  0.00000000000E+00  0.00000000000E+00  0.50000000000E+03  0.50000000000E+03  0.00000000000E+00 0.  1.
         11   -1    0    0    0    0 -0.00000000000E+00 -0.00000000000E+00 -0.50000000000E+03  0.50000000000E+03  0.00000000000E+00 0. -1.
        -11    1    1    2    0    0  0.30535078056E+02  0.28985586823E+02  0.39511021065E+03  0.39734699419E+03  0.00000000000E+00 0.  1.
         11    1    1    2    0    0 -0.20441763377E+02 -0.59937974899E+01 -0.49660646027E+03  0.49706314255E+03  0.00000000000E+00 0. -1.
        -15    1    1    2    0    0  0.29783985036E+01 -0.10058509124E+02  0.36507930870E+02  0.38026717040E+02  0.17770000000E+01 0.  1.
         15    1    1    2    0    0 -0.13071713183E+02 -0.12933280210E+02  0.64988318758E+02  0.67563146215E+02  0.17770000000E+01 0.  1.
</event>
<event>
 6   1  0.1826851E-04  0.5013664E+03  0.7546771E-02  0.9396757E-01
        -11   -1    0    0    0    0  0.00000000000E+00  0.00000000000E+00  0.50000000000E+03  0.50000000000E+03  0.00000000000E+00 0. -1.
         11   -1    0    0    0    0 -0.00000000000E+00 -0.00000000000E+00 -0.50000000000E+03  0.50000000000E+03  0.00000000000E+00 0.  1.
        -11    1    1    2    0    0  0.14585968257E+02  0.26096039277E+01  0.39896033086E+03  0.39923540187E+03  0.00000000000E+00 0. -1.
         11    1    1    2    0    0  0.33303354850E+01 -0.79093775179E+01 -0.49855969522E+03  0.49863355190E+03  0.00000000000E+00 0.  1.
        -15    1    1    2    0    0 -0.12481926887E+01 -0.23396777022E+01  0.28724631142E+02  0.28901457402E+02  0.17770000000E+01 0.  1.
         15    1    1    2    0    0 -0.16668111053E+02  0.76394512925E+01  0.70874733214E+02  0.73229588823E+02  0.17770000000E+01 0. -1.
</event>
<event>
 6   1  0.1826851E-04  0.5011577E+03  0.7546771E-02  0.9397223E-01
        -11   -1    0    0    0    0  0.00000000000E+00  0.00000000000E+00  0.50000000000E+03  0.50000000000E+03  0.00000000000E+00 0. -1.
         11   -1    0    0    0    0 -0.00000000000E+00 -0.00000000000E+00 -0.50000000000E+03  0.50000000000E+03  0.00000000000E+00 0. -1.
        -11    1    1    2    0    0  0.10195905663E+02  0.12684411116E+02  0.49857680520E+03  0.49884234128E+03  0.00000000000E+00 0. -1.
         11    1    1    2    0    0 -0.71315165721E+00  0.57488329158E+01 -0.40380159816E+03  0.40384314819E+03  0.00000000000E+00 0. -1.
        -15    1    1    2    0    0 -0.43008157822E+01 -0.14330896881E+02 -0.59232888650E+02  0.61119264137E+02  0.17770000000E+01 0. -1.
         15    1    1    2    0    0 -0.51819382232E+01 -0.41023471507E+01 -0.35542318387E+02  0.36195246390E+02  0.17770000000E+01 0.  1.
</event>
<event>
 6   1  0.1826851E-04  0.5003629E+03  0.7546771E-02  0.9398998E-01
        -11   -1    0    0    0    0  0.00000000000E+00  0.00000000000E+00  0.50000000000E+03  0.50000000000E+03  0.00000000000E+00 0. -1.
         11   -1    0    0    0    0 -0.00000000000E+00 -0.00000000000E+00 -0.50000000000E+03  0.50000000000E+03  0.00000000000E+00 0.  1.
        -11    1    1    2    0    0 -0.15649829010E+02  0.22068821313E+01  0.46943230830E+03  0.46969828566E+03  0.00000000000E+00 0. -1.
         11    1    1    2    0    0  0.13369788428E+02 -0.50345084193E+01 -0.49943283160E+03  0.49963711912E+03  0.00000000000E+00 0.  1.
        -15    1    1    2    0    0 -0.89362898768E+00  0.59859549149E+00  0.10340981719E+02  0.10547536265E+02  0.17770000000E+01 0.  1.
         15    1    1    2    0    0  0.31736695696E+01  0.22290307965E+01  0.19659541579E+02  0.20117058953E+02  0.17770000000E+01 0.  1.
</event>
<event>
 6   1  0.1826851E-04  0.5001787E+03  0.7546771E-02  0.9399410E-01
        -11   -1    0    0    0    0  0.00000000000E+00  0.00000000000E+00  0.50000000000E+03  0.50000000000E+03  0.00000000000E+00 0. -1.
         11   -1    0    0    0    0 -0.00000000000E+00 -0.00000000000E+00 -0.50000000000E+03  0.50000000000E+03  0.00000000000E+00 0.  1.
        -11    1    1    2    0    0  0.11738670600E+01  0.36535286137E+01  0.23678471014E+03  0.23681580435E+03  0.00000000000E+00 0. -1.
         11    1    1    2    0    0 -0.89127016606E+01  0.50042213712E+01 -0.49971679345E+03  0.49982132021E+03  0.00000000000E+00 0.  1.
        -15    1    1    2    0    0  0.85830412192E+01 -0.84526720714E+01  0.24821022593E+03  0.24850873274E+03  0.17770000000E+01 0. -1.
         15    1    1    2    0    0 -0.84420661854E+00 -0.20507791349E+00  0.14721857380E+02  0.14854142704E+02  0.17770000000E+01 0. -1.
</event>
<event>
 6   1  0.1826851E-04  0.5004874E+03  0.7546771E-02  0.9398720E-01
        -11   -1    0    0    0    0  0.00000000000E+00  0.00000000000E+00  0.50000000000E+03  0.50000000000E+03  0.00000000000E+00 0.  1.
         11   -1    0    0    0    0 -0.00000000000E+00 -0.00000000000E+00 -0.50000000000E+03  0.50000000000E+03  0.00000000000E+00 0. -1.
        -11    1    1    2    0    0 -0.41454955358E+01 -0.43064736131E+01  0.27193786148E+03  0.27200355026E+03  0.00000000000E+00 0.  1.
         11    1    1    2    0    0 -0.46871755311E+01 -0.14672799388E+02 -0.49927505140E+03  0.49951260005E+03  0.00000000000E+00 0. -1.
        -15    1    1    2    0    0  0.82865275957E+01  0.12440913564E+02  0.18423395889E+03  0.18484791642E+03  0.17770000000E+01 0.  1.
         15    1    1    2    0    0  0.54614347121E+00  0.65383594373E+01  0.43103231034E+02  0.43635933259E+02  0.17770000000E+01 0. -1.
</event>
<event>
 6   1  0.1826851E-04  0.5020068E+03  0.7546771E-02  0.9395331E-01
        -11   -1    0    0    0    0  0.00000000000E+00  0.00000000000E+00  0.50000000000E+03  0.50000000000E+03  0.00000000000E+00 0. -1.
         11   -1    0    0    0    0 -0.00000000000E+00 -0.00000000000E+00 -0.50000000000E+03  0.50000000000E+03  0.00000000000E+00 0. -1.
        -11    1    1    2    0    0  0.55439938985E+01 -0.11956032874E+02  0.43314537412E+03  0.43334581770E+03  0.00000000000E+00 0. -1.
         11    1    1    2    0    0  0.65137733750E+01 -0.39673811941E+01 -0.49793483561E+03  0.49799324279E+03  0.00000000000E+00 0. -1.
        -15    1    1    2    0    0 -0.10489202480E+02  0.15360895635E+02  0.62784221453E+02  0.65505699568E+02  0.17770000000E+01 0. -1.
         15    1    1    2    0    0 -0.15685647939E+01  0.56251843367E+00  0.20052400298E+01  0.31552399399E+01  0.17770000000E+01 0.  1.
</event>
<event>
 6   1  0.1826851E-04  0.5001089E+03  0.7546771E-02  0.9399566E-01
        -11   -1    0    0    0    0  0.00000000000E+00  0.00000000000E+00  0.50000000000E+03  0.50000000000E+03  0.00000000000E+00 0.  1.
         11   -1    0    0    0    0 -0.00000000000E+00 -0.00000000000E+00 -0.50000000000E+03  0.50000000000E+03  0.00000000000E+00 0.  1.
        -11    1    1    2    0    0  0.24929590070E+02  0.13544769259E+02  0.49908536687E+03  0.49989113681E+03  0.00000000000E+00 0.  1.
         11    1    1    2    0    0 -0.22780042245E+02 -0.11756774571E+02 -0.43880819510E+03  0.43955634925E+03  0.00000000000E+00 0.  1.
        -15    1    1    2    0    0 -0.26349851380E+01 -0.24753349065E+00 -0.41531287348E+02  0.41653450965E+02  0.17770000000E+01 0.  1.
         15    1    1    2    0    0  0.48543731244E+00 -0.15404611976E+01 -0.18745884414E+02  0.18899062981E+02  0.17770000000E+01 0.  1.
</event>
<event>
 6   1  0.1826851E-04  0.5013720E+03  0.7546771E-02  0.9396745E-01
        -11   -1    0    0    0    0  0.00000000000E+00  0.00000000000E+00  0.50000000000E+03  0.50000000000E+03  0.00000000000E+00 0.  1.
         11   -1    0    0    0    0 -0.00000000000E+00 -0.00000000000E+00 -0.50000000000E+03  0.50000000000E+03  0.00000000000E+00 0.  1.
        -11    1    1    2    0    0 -0.22720431531E+02 -0.70737282282E+01  0.35869664354E+03  0.35948510085E+03  0.00000000000E+00 0.  1.
         11    1    1    2    0    0  0.12384748397E+02 -0.15080209301E+02 -0.49824599446E+03  0.49862798328E+03  0.00000000000E+00 0.  1.
        -15    1    1    2    0    0  0.82340656787E+00  0.15610243714E+01  0.23109351456E+02  0.23244669264E+02  0.17770000000E+01 0.  1.
         15    1    1    2    0    0  0.95122765663E+01  0.20592913157E+02  0.11643999946E+03  0.11864224662E+03  0.17770000000E+01 0. -1.
</event>
<event>
 6   1  0.1826851E-04  0.5150522E+03  0.7546771E-02  0.9366745E-01
        -11   -1    0    0    0    0  0.00000000000E+00  0.00000000000E+00  0.50000000000E+03  0.50000000000E+03  0.00000000000E+00 0. -1.
         11   -1    0    0    0    0 -0.00000000000E+00 -0.00000000000E+00 -0.50000000000E+03  0.50000000000E+03  0.00000000000E+00 0.  1.
        -11    1    1    2    0    0 -0.92891041226E+01  0.35228531180E+02  0.44772185857E+03  0.44920173587E+03  0.00000000000E+00 0. -1.
         11    1    1    2    0    0 -0.11538826822E+02  0.77676081125E+01 -0.48474829023E+03  0.48494781693E+03  0.00000000000E+00 0.  1.
        -15    1    1    2    0    0 -0.48824760737E+01 -0.65981007789E+01  0.12189960581E+02  0.14802917768E+02  0.17770000000E+01 0.  1.
         15    1    1    2    0    0  0.25710407019E+02 -0.36398038514E+02  0.24836471076E+02  0.51047529433E+02  0.17770000000E+01 0. -1.
</event>
<event>
 6   1  0.1826851E-04  0.5000865E+03  0.7546771E-02  0.9399616E-01
        -11   -1    0    0    0    0  0.00000000000E+00  0.00000000000E+00  0.50000000000E+03  0.50000000000E+03  0.00000000000E+00 0.  1.
         11   -1    0    0    0    0 -0.00000000000E+00 -0.00000000000E+00 -0.50000000000E+03  0.50000000000E+03  0.00000000000E+00 0. -1.
        -11    1    1    2    0    0 -0.10211880132E+01  0.73666833714E+01  0.49985816062E+03  0.49991348410E+03  0.00000000000E+00 0.  1.
         11    1    1    2    0    0 -0.21646020930E+01  0.14044804413E+01 -0.17101974569E+03  0.17103921037E+03  0.00000000000E+00 0. -1.
        -15    1    1    2    0    0  0.41478510094E+01 -0.81211102573E+01 -0.29201929983E+03  0.29216705205E+03  0.17770000000E+01 0. -1.
         15    1    1    2    0    0 -0.96206090318E+00 -0.65005355541E+00 -0.36819115101E+02  0.36880253478E+02  0.17770000000E+01 0.  1.
</event>
<event>
 6   1  0.1826851E-04  0.5011512E+03  0.7546771E-02  0.9397238E-01
        -11   -1    0    0    0    0  0.00000000000E+00  0.00000000000E+00  0.50000000000E+03  0.50000000000E+03  0.00000000000E+00 0.  1.
         11   -1    0    0    0    0 -0.00000000000E+00 -0.00000000000E+00 -0.50000000000E+03  0.50000000000E+03  0.00000000000E+00 0. -1.
        -11    1    1    2    0    0 -0.20002641791E+02 -0.10466699499E+02  0.49833775212E+03  0.49884884752E+03  0.00000000000E+00 0.  1.
         11    1    1    2    0    0  0.15474439418E+02 -0.39360466667E+01 -0.37130232014E+03  0.37164548117E+03  0.00000000000E+00 0. -1.
        -15    1    1    2    0    0 -0.43206160046E+01  0.10659843240E+02 -0.10149382366E+03  0.10215896412E+03  0.17770000000E+01 0.  1.
         15    1    1    2    0    0  0.88488183777E+01  0.37429029252E+01 -0.25541608329E+02  0.27346707188E+02  0.17770000000E+01 0. -1.
</event>
<event>
 6   1  0.1826851E-04  0.5005112E+03  0.7546771E-02  0.9398667E-01
        -11   -1    0    0    0    0  0.00000000000E+00  0.00000000000E+00  0.50000000000E+03  0.50000000000E+03  0.00000000000E+00 0.  1.
         11   -1    0    0    0    0 -0.00000000000E+00 -0.00000000000E+00 -0.50000000000E+03  0.50000000000E+03  0.00000000000E+00 0. -1.
        -11    1    1    2    0    0  0.11838754238E+02 -0.24084403441E+01  0.49934266207E+03  0.49948878952E+03  0.00000000000E+00 0.  1.
         11    1    1    2    0    0 -0.82511859849E-01 -0.65191493103E+01 -0.38051329645E+03  0.38056914601E+03  0.00000000000E+00 0. -1.
        -15    1    1    2    0    0 -0.61316012408E+01  0.81347018603E+01 -0.73663933297E+02  0.74386172814E+02  0.17770000000E+01 0. -1.
         15    1    1    2    0    0 -0.56246411377E+01  0.79288779410E+00 -0.45165432326E+02  0.45555891663E+02  0.17770000000E+01 0.  1.
</event>
<event>
 6   1  0.1826851E-04  0.5131207E+03  0.7546771E-02  0.9370920E-01
        -11   -1    0    0    0    0  0.00000000000E+00  0.00000000000E+00  0.50000000000E+03  0.50000000000E+03  0.00000000000E+00 0.  1.
         11   -1    0    0    0    0 -0.00000000000E+00 -0.00000000000E+00 -0.50000000000E+03  0.50000000000E+03  0.00000000000E+00 0. -1.
        -11    1    1    2    0    0 -0.19991141787E+02  0.27565065228E+02  0.43609154017E+03  0.43741891818E+03  0.00000000000E+00 0.  1.
         11    1    1    2    0    0 -0.37198013239E+01  0.65164962087E+01 -0.48682144033E+03  0.48687926267E+03  0.00000000000E+00 0. -1.
        -15    1    1    2    0    0  0.18562578753E+01 -0.45001917351E+01 -0.60884924845E+01  0.79953041647E+01  0.17770000000E+01 0. -1.
         15    1    1    2    0    0  0.21854685235E+02 -0.29581369701E+02  0.56818392647E+02  0.67706514990E+02  0.17770000000E+01 0.  1.
</event>
<event>
 6   1  0.1826851E-04  0.5020916E+03  0.7546771E-02  0.9395142E-01
        -11   -1    0    0    0    0  0.00000000000E+00  0.00000000000E+00  0.50000000000E+03  0.50000000000E+03  0.00000000000E+00 0.  1.
         11   -1    0    0    0    0 -0.00000000000E+00 -0.00000000000E+00 -0.50000000000E+03  0.50000000000E+03  0.00000000000E+00 0. -1.
        -11    1    1    2    0    0 -0.13066237283E+02 -0.10582639722E+02  0.45835209666E+03  0.45866040087E+03  0.00000000000E+00 0.  1.
         11    1    1    2    0    0  0.68304216051E+01 -0.51490151544E+01 -0.49783489700E+03  0.49790837680E+03  0.00000000000E+00 0. -1.
        -15    1    1    2    0    0  0.66574204500E+01  0.13214578396E+02  0.34104409974E+02  0.37218474417E+02  0.17770000000E+01 0.  1.
         15    1    1    2    0    0 -0.42160477233E+00  0.25170764805E+01  0.53783903707E+01  0.62127479083E+01  0.17770000000E+01 0. -1.
</event>
<event>
 6   1  0.1826851E-04  0.5012048E+03  0.7546771E-02  0.9397118E-01
        -11   -1    0    0    0    0  0.00000000000E+00  0.00000000000E+00  0.50000000000E+03  0.50000000000E+03  0.00000000000E+00 0. -1.
         11   -1    0    0    0    0 -0.00000000000E+00 -0.00000000000E+00 -0.50000000000E+03  0.50000000000E+03  0.00000000000E+00 0. -1.
        -11    1    1    2    0    0 -0.89947681560E+01  0.71469225785E+01  0.13367683526E+03  0.13416959656E+03  0.00000000000E+00 0. -1.
         11    1    1    2    0    0 -0.24260793519E+02 -0.20362452722E+02 -0.49778854304E+03  0.49879519761E+03  0.00000000000E+00 0. -1.
        -15    1    1    2    0    0  0.21647899270E+02 -0.46053108208E+01  0.24690029115E+03  0.24789665575E+03  0.17770000000E+01 0. -1.
         15    1    1    2    0    0  0.11607662405E+02  0.17820840964E+02  0.11721141663E+03  0.11913855008E+03  0.17770000000E+01 0.  1.
</event>
<event>
 6   1  0.1826851E-04  0.5007695E+03  0.7546771E-02  0.9398090E-01
        -11   -1    0    0    0    0  0.00000000000E+00  0.00000000000E+00  0.50000000000E+03  0.50000000000E+03  0.00000000000E+00 0. -1.
         11   -1    0    0    0    0 -0.00000000000E+00 -0.00000000000E+00 -0.50000000000E+03  0.50000000000E+03  0.00000000000E+00 0.  1.
        -11    1    1    2    0    0  0.17473092927E+02 -0.28433409521E+02  0.20671682076E+03  0.20939343767E+03  0.00000000000E+00 0. -1.
         11    1    1    2    0    0 -0.17347108118E+02  0.29823576034E+02 -0.49803688833E+03  0.49923051788E+03  0.00000000000E+00 0.  1.
        -15    1    1    2    0    0 -0.10366530120E+01  0.12041433064E+01  0.10349556559E+03  0.10352301404E+03  0.17770000000E+01 0.  1.
         15    1    1    2    0    0  0.91066820369E+00 -0.25943098196E+01  0.18782450198E+03  0.18785303040E+03  0.17770000000E+01 0. -1.
</event>
<event>
 6   1  0.1826851E-04  0.5185209E+03  0.7546771E-02  0.9359296E-01
        -11   -1    0    0    0    0  0.00000000000E+00  0.00000000000E+00  0.50000000000E+03  0.50000000000E+03  0.00000000000E+00 0.  1.
         11   -1    0    0    0    0 -0.00000000000E+00 -0.00000000000E+00 -0.50000000000E+03  0.50000000000E+03  0.00000000000E+00 0.  1.
        -11    1    1    2    0    0 -0.94979889795E+01  0.45235240257E+02  0.47925535782E+03  0.48147911352E+03  0.00000000000E+00 0.  1.
         11    1    1    2    0    0  0.55514765323E+01  0.43326351088E+01 -0.44593162029E+03  0.44598722022E+03  0.00000000000E+00 0.  1.
        -15    1    1    2    0    0  0.21907297090E+01 -0.44398212145E+02 -0.63297014898E+01  0.44935769586E+02  0.17770000000E+01 0.  1.
         15    1    1    2    0    0  0.17557827382E+01 -0.51696632203E+01 -0.26994036034E+02  0.27597896682E+02  0.17770000000E+01 0. -1.
</event>
<event>
 6   1  0.1826851E-04  0.4786907E+03  0.7546771E-02  0.9448795E-01
        -11   -1    0    0    0    0  0.00000000000E+00  0.00000000000E+00  0.50000000000E+03  0.50000000000E+03  0.00000000000E+00 0.  1.
         11   -1    0    0    0    0 -0.00000000000E+00 -0.00000000000E+00 -0.50000000000E+03  0.50000000000E+03  0.00000000000E+00 0. -1.
        -11    1    1    2    0    0  0.10852607029E+02 -0.32496041935E+02  0.47830044689E+03  0.47952590057E+03  0.00000000000E+00 0.  1.
         11    1    1    2    0    0 -0.10859905817E+02  0.26811807516E+00 -0.47827446552E+03  0.47839781961E+03  0.00000000000E+00 0. -1.
        -15    1    1    2    0    0  0.30970993508E+01  0.18027554360E+01 -0.92554968962E+01  0.10082851945E+02  0.17770000000E+01 0.  1.
         15    1    1    2    0    0 -0.30898005631E+01  0.30425168424E+02  0.92295155218E+01  0.31993427870E+02  0.17770000000E+01 0. -1.
</event>
<event>
 6   1  0.1826851E-04  0.5001819E+03  0.7546771E-02  0.9399403E-01
        -11   -1    0    0    0    0  0.00000000000E+00  0.00000000000E+00  0.50000000000E+03  0.50000000000E+03  0.00000000000E+00 0.  1.
         11   -1    0    0    0    0 -0.00000000000E+00 -0.00000000000E+00 -0.50000000000E+03  0.50000000000E+03  0.00000000000E+00 0.  1.
        -11    1    1    2    0    0 -0.26881646761E+02 -0.39186692997E+02  0.49755394124E+03  0.49981811120E+03  0.00000000000E+00 0.  1.
         11    1    1    2    0    0  0.24474248020E+02  0.35381021178E+02 -0.38072123103E+03  0.38314417812E+03  0.00000000000E+00 0.  1.
        -15    1    1    2    0    0  0.29229459343E+01  0.29513366334E+01 -0.95805749254E+02  0.95912216740E+02  0.17770000000E+01 0. -1.
         15    1    1    2    0    0 -0.51554719264E+00  0.85433518512E+00 -0.21026960964E+02  0.21125493932E+02  0.17770000000E+01 0. -1.
</event>
<event>
 6   1  0.1826851E-04  0.4719089E+03  0.7546771E-02  0.9464957E-01
        -11   -1    0    0    0    0  0.00000000000E+00  0.00000000000E+00  0.50000000000E+03  0.50000000000E+03  0.00000000000E+00 0.  1.
         11   -1    0    0    0    0 -0.00000000000E+00 -0.00000000000E+00 -0.50000000000E+03  0.50000000000E+03  0.00000000000E+00 0. -1.
        -11    1    1    2    0    0 -0.31499032863E+02  0.31832143726E+02  0.45981982873E+03  0.46199539969E+03  0.00000000000E+00 0.  1.
         11    1    1    2    0    0  0.84282542640E+01  0.53571385976E+00 -0.48286625592E+03  0.48294010349E+03  0.00000000000E+00 0. -1.
        -15    1    1    2    0    0 -0.45957933861E+01  0.24137669751E+01  0.32699402116E+01  0.63873175782E+01  0.17770000000E+01 0. -1.
         15    1    1    2    0    0  0.27666571985E+02 -0.34781624561E+02  0.19776486978E+02  0.48677179239E+02  0.17770000000E+01 0.  1.
</event>
<event>
 6   1  0.1826851E-04  0.5002547E+03  0.7546771E-02  0.9399240E-01
        -11   -1    0    0    0    0  0.00000000000E+00  0.00000000000E+00  0.50000000000E+03  0.50000000000E+03  0.00000000000E+00 0.  1.
         11   -1    0    0    0    0 -0.00000000000E+00 -0.00000000000E+00 -0.50000000000E+03  0.50000000000E+03  0.00000000000E+00 0.  1.
        -11    1    1    2    0    0  0.24784694702E+02  0.66535905746E+01  0.49908598278E+03  0.49974530470E+03  0.00000000000E+00 0.  1.
         11    1    1    2    0    0 -0.17402271774E+01  0.10670078425E+01 -0.13830236673E+03  0.13831743035E+03  0.00000000000E+00 0.  1.
        -15    1    1    2    0    0 -0.22915508608E+02 -0.62216097869E+01 -0.25052167269E+03  0.25165074047E+03  0.17770000000E+01 0.  1.
         15    1    1    2    0    0 -0.12895891695E+00 -0.14989886302E+01 -0.11026194337E+03  0.11028652448E+03  0.17770000000E+01 0.  1.
</event>
<event>
 6   1  0.1826851E-04  0.5021379E+03  0.7546771E-02  0.9395039E-01
        -11   -1    0    0    0    0  0.00000000000E+00  0.00000000000E+00  0.50000000000E+03  0.50000000000E+03  0.00000000000E+00 0.  1.
         11   -1    0    0    0    0 -0.00000000000E+00 -0.00000000000E+00 -0.50000000000E+03  0.50000000000E+03  0.00000000000E+00 0.  1.
        -11    1    1    2    0    0  0.14943883201E+02  0.12339053364E+02  0.38859848096E+03  0.38908141987E+03  0.00000000000E+00 0.  1.
         11    1    1    2    0    0  0.34288510744E+01 -0.67032679254E+01 -0.49780517765E+03  0.49786211516E+03  0.00000000000E+00 0.  1.
        -15    1    1    2    0    0 -0.16703750910E+02  0.36007122870E+01  0.45457497765E+02  0.48595496246E+02  0.17770000000E+01 0. -1.
         15    1    1    2    0    0 -0.16689833657E+01 -0.92364977254E+01  0.63749198929E+02  0.64460968723E+02  0.17770000000E+01 0.  1.
</event>
<event>
 6   1  0.1826851E-04  0.5004808E+03  0.7546771E-02  0.9398735E-01
        -11   -1    0    0    0    0  0.00000000000E+00  0.00000000000E+00  0.50000000000E+03  0.50000000000E+03  0.00000000000E+00 0.  1.
         11   -1    0    0    0    0 -0.00000000000E+00 -0.00000000000E+00 -0.50000000000E+03  0.50000000000E+03  0.00000000000E+00 0. -1.
        -11    1    1    2    0    0  0.14036570222E+02 -0.84253260130E+00  0.49932124981E+03  0.49951921453E+03  0.00000000000E+00 0.  1.
         11    1    1    2    0    0 -0.16124879238E+02 -0.42728237560E+01 -0.23542338511E+03  0.23601364157E+03  0.00000000000E+00 0. -1.
        -15    1    1    2    0    0  0.64468814492E+01 -0.22240254822E+01 -0.65554045489E+02  0.65931776699E+02  0.17770000000E+01 0.  1.
         15    1    1    2    0    0 -0.43585724339E+01  0.73393818395E+01 -0.19834381922E+03  0.19853536720E+03  0.17770000000E+01 0. -1.
</event>
<event>
 6   1  0.1826851E-04  0.5007115E+03  0.7546771E-02  0.9398219E-01
        -11   -1    0    0    0    0  0.00000000000E+00  0.00000000000E+00  0.50000000000E+03  0.50000000000E+03  0.00000000000E+00 0. -1.
         11   -1    0    0    0    0 -0.00000000000E+00 -0.00000000000E+00 -0.50000000000E+03  0.50000000000E+03  0.00000000000E+00 0. -1.
        -11    1    1    2    0    0  0.35287576638E+01  0.12010845483E+02  0.43758235106E+02  0.45513686726E+02  0.00000000000E+00 0. -1.
         11    1    1    2    0    0 -0.13505675134E+01 -0.21487431845E+02 -0.49882404990E+03  0.49928846023E+03  0.00000000000E+00 0. -1.
        -15    1    1    2    0    0 -0.19806183136E+01  0.21581163229E+01  0.14749304883E+03  0.14753283532E+03  0.17770000000E+01 0. -1.
         15    1    1    2    0    0 -0.19757183674E+00  0.73184700385E+01  0.30757276596E+03  0.30766501772E+03  0.17770000000E+01 0. -1.
</event>
<event>
 6   1  0.1826851E-04  0.5001074E+03  0.7546771E-02  0.9399569E-01
        -11   -1    0    0    0    0  0.00000000000E+00  0.00000000000E+00  0.50000000000E+03  0.50000000000E+03  0.00000000000E+00 0.  1.
         11   -1    0    0    0    0 -0.00000000000E+00 -0.00000000000E+00 -0.50000000000E+03  0.50000000000E+03  0.00000000000E+00 0. -1.
        -11    1    1    2    0    0  0.13321320973E+02 -0.92828457731E+01  0.49962883133E+03  0.49989258638E+03  0.00000000000E+00 0.  1.
         11    1    1    2    0    0 -0.14934916978E+01  0.12637444448E+01 -0.13548433272E+03  0.13549845748E+03  0.00000000000E+00 0. -1.
        -15    1    1    2    0    0 -0.11316232641E+02  0.82978356082E+01 -0.35465494346E+03  0.35493689277E+03  0.17770000000E+01 0. -1.
         15    1    1    2    0    0 -0.51159663424E+00 -0.27873427988E+00 -0.94895551523E+01  0.96720633736E+01  0.17770000000E+01 0. -1.
</event>
<event>
 6   1  0.1826851E-04  0.4878200E+03  0.7546771E-02  0.9427484E-01
        -11   -1    0    0    0    0  0.00000000000E+00  0.00000000000E+00  0.50000000000E+03  0.50000000000E+03  0.00000000000E+00 0. -1.
         11   -1    0    0    0    0 -0.00000000000E+00 -0.00000000000E+00 -0.50000000000E+03  0.50000000000E+03  0.00000000000E+00 0. -1.
        -11    1    1    2    0    0  0.11283235141E+02  0.30876692896E+01  0.48343489935E+03  0.48357641279E+03  0.00000000000E+00 0. -1.
         11    1    1    2    0    0  0.80089138500E+01 -0.99354780363E+01 -0.49215176069E+03  0.49231718635E+03  0.00000000000E+00 0. -1.
        -15    1    1    2    0    0 -0.12119977846E+02  0.81811105645E+01  0.40926038006E+01  0.15288282046E+02  0.17770000000E+01 0.  1.
         15    1    1    2    0    0 -0.71721711449E+01 -0.13333018178E+01  0.46242575407E+01  0.88181188171E+01  0.17770000000E+01 0. -1.
</event>
<event>
 6   1  0.1826851E-04  0.5007224E+03  0.7546771E-02  0.9398195E-01
        -11   -1    0    0    0    0  0.00000000000E+00  0.00000000000E+00  0.50000000000E+03  0.50000000000E+03  0.00000000000E+00 0. -1.
         11   -1    0    0    0    0 -0.00000000000E+00 -0.00000000000E+00 -0.50000000000E+03  0.50000000000E+03  0.00000000000E+00 0.  1.
        -11    1    1    2    0    0  0.48932787733E+01 -0.69718769439E+01  0.49920497054E+03  0.49927763205E+03  0.00000000000E+00 0. -1.
         11    1    1    2    0    0 -0.18926857672E+01  0.60801950785E+01 -0.45583649213E+03  0.45588096976E+03  0.00000000000E+00 0.  1.
        -15    1    1    2    0    0 -0.13468143697E+00 -0.39946947393E+01 -0.28461306056E+02  0.28795475279E+02  0.17770000000E+01 0.  1.
         15    1    1    2    0    0 -0.28659115691E+01  0.48863766047E+01 -0.14907172358E+02  0.16045922914E+02  0.17770000000E+01 0. -1.
</event>
<event>
 6   1  0.1826851E-04  0.5027847E+03  0.7546771E-02  0.9393600E-01
        -11   -1    0    0    0    0  0.00000000000E+00  0.00000000000E+00  0.50000000000E+03  0.50000000000E+03  0.00000000000E+00 0. -1.
         11   -1    0    0    0    0 -0.00000000000E+00 -0.00000000000E+00 -0.50000000000E+03  0.50000000000E+03  0.00000000000E+00 0. -1.
        -11    1    1    2    0    0  0.32990471414E+02  0.22478638878E+02  0.49561013249E+03  0.49721530934E+03  0.00000000000E+00 0. -1.
         11    1    1    2    0    0 -0.13568648324E+02  0.99708940550E+01 -0.36334413876E+03  0.36373409259E+03  0.00000000000E+00 0. -1.
        -15    1    1    2    0    0 -0.21382294040E+02 -0.28436619071E+02 -0.94703239194E+02  0.10118154498E+03  0.17770000000E+01 0. -1.
         15    1    1    2    0    0  0.19604709511E+01 -0.40129138614E+01 -0.37562754540E+02  0.37869053086E+02  0.17770000000E+01 0.  1.
</event>
<event>
 6   1  0.1826851E-04  0.5051042E+03  0.7546771E-02  0.9388461E-01
        -11   -1    0    0    0    0  0.00000000000E+00  0.00000000000E+00  0.50000000000E+03  0.50000000000E+03  0.00000000000E+00 0. -1.
         11   -1    0    0    0    0 -0.00000000000E+00 -0.00000000000E+00 -0.50000000000E+03  0.50000000000E+03  0.00000000000E+00 0. -1.
        -11    1    1    2    0    0 -0.16951387617E+02  0.10191127504E+02  0.49450038827E+03  0.49489578966E+03  0.00000000000E+00 0. -1.
         11    1    1    2    0    0  0.10599151208E+02  0.23092067794E+02 -0.41069252200E+03  0.41147774330E+03  0.00000000000E+00 0. -1.
        -15    1    1    2    0    0  0.13204876188E+02 -0.25110358064E+02 -0.44059768401E+02  0.52433956153E+02  0.17770000000E+01 0. -1.
         15    1    1    2    0    0 -0.68526397797E+01 -0.81728372342E+01 -0.39748097867E+02  0.41192510891E+02  0.17770000000E+01 0.  1.
</event>
<event>
 6   1  0.1826851E-04  0.5001646E+03  0.7546771E-02  0.9399442E-01
        -11   -1    0    0    0    0  0.00000000000E+00  0.00000000000E+00  0.50000000000E+03  0.50000000000E+03  0.00000000000E+00 0. -1.
         11   -1    0    0    0    0 -0.00000000000E+00 -0.00000000000E+00 -0.50000000000E+03  0.50000000000E+03  0.00000000000E+00 0.  1.
        -11    1    1    2    0    0  0.38245833156E+02 -0.87495070025E+01  0.49829324172E+03  0.49983542529E+03  0.00000000000E+00 0. -1.
         11    1    1    2    0    0 -0.59598989148E+01  0.67074680226E+01 -0.79213801167E+02  0.79720366392E+02  0.00000000000E+00 0.  1.
        -15    1    1    2    0    0 -0.28685892960E+02  0.42879444829E+01 -0.34473363249E+03  0.34595621402E+03  0.17770000000E+01 0.  1.
         15    1    1    2    0    0 -0.36000412810E+01 -0.22459055031E+01 -0.74345808065E+02  0.74487994298E+02  0.17770000000E+01 0. -1.
</event>
<event>
 6   1  0.1826851E-04  0.5035910E+03  0.7546771E-02  0.9391810E-01
        -11   -1    0    0    0    0  0.00000000000E+00  0.00000000000E+00  0.50000000000E+03  0.50000000000E+03  0.00000000000E+00 0. -1.
         11   -1    0    0    0    0 -0.00000000000E+00 -0.00000000000E+00 -0.50000000000E+03  0.50000000000E+03  0.00000000000E+00 0.  1.
        -11    1    1    2    0    0 -0.14159789708E+02 -0.44148395722E+00  0.49620677032E+03  0.49640895788E+03  0.00000000000E+00 0. -1.
         11    1    1    2    0    0  0.53218563593E+01 -0.77235311835E+01 -0.48465193410E+03  0.48474268670E+03  0.00000000000E+00 0.  1.
        -15    1    1    2    0    0 -0.45314685145E+00  0.35392786495E+01 -0.51905059057E+01  0.65445332901E+01  0.17770000000E+01 0. -1.
         15    1    1    2    0    0  0.92910802003E+01  0.46257364912E+01 -0.63643303224E+01  0.12303822123E+02  0.17770000000E+01 0.  1.
</event>
<event>
 6   1  0.1826851E-04  0.5012745E+03  0.7546771E-02  0.9396963E-01
        -11   -1    0    0    0    0  0.00000000000E+00  0.00000000000E+00  0.50000000000E+03  0.50000000000E+03  0.00000000000E+00 0. -1.
         11   -1    0    0    0    0 -0.00000000000E+00 -0.00000000000E+00 -0.50000000000E+03  0.50000000000E+03  0.00000000000E+00 0. -1.
        -11    1    1    2    0    0 -0.13674481171E+02 -0.48360546553E+01  0.49851458136E+03  0.49872554244E+03  0.00000000000E+00 0. -1.
         11    1    1    2    0    0  0.55168101087E+01  0.52162510577E+01 -0.45210988088E+03  0.45217362689E+03  0.00000000000E+00 0. -1.
        -15    1    1    2    0    0 -0.21202063099E+01 -0.41228549670E+01 -0.14464363334E+02  0.15292767688E+02  0.17770000000E+01 0. -1.
         15    1    1    2    0    0  0.10277877372E+02  0.37426585646E+01 -0.31940337147E+02  0.33808062980E+02  0.17770000000E+01 0.  1.
</event>
<event>
 6   1  0.1826851E-04  0.5030488E+03  0.7546771E-02  0.9393013E-01
        -11   -1    0    0    0    0  0.00000000000E+00  0.00000000000E+00  0.50000000000E+03  0.50000000000E+03  0.00000000000E+00 0. -1.
         11   -1    0    0    0    0 -0.00000000000E+00 -0.00000000000E+00 -0.50000000000E+03  0.50000000000E+03  0.00000000000E+00 0. -1.
        -11    1    1    2    0    0  0.50291299765E+01  0.20041655269E+02  0.49652139811E+03  0.49695116347E+03  0.00000000000E+00 0. -1.
         11    1    1    2    0    0 -0.78753880828E+01 -0.77075052967E+01 -0.47191168513E+03  0.47204032236E+03  0.00000000000E+00 0. -1.
        -15    1    1    2    0    0 -0.34674082550E+01 -0.28800954496E+01 -0.15772869361E+02  0.16500272928E+02  0.17770000000E+01 0. -1.
         15    1    1    2    0    0  0.63136663614E+01 -0.94540545226E+01 -0.88368436194E+01  0.14508241244E+02  0.17770000000E+01 0.  1.
</event>
<event>
 6   1  0.1826851E-04  0.5001637E+03  0.7546771E-02  0.9399443E-01
        -11   -1    0    0    0    0  0.00000000000E+00  0.00000000000E+00  0.50000000000E+03  0.50000000000E+03  0.00000000000E+00 0.  1.
         11   -1    0    0    0    0 -0.00000000000E+00 -0.00000000000E+00 -0.50000000000E+03  0.50000000000E+03  0.00000000000E+00 0. -1.
        -11    1    1    2    0    0 -0.26147456978E+00  0.32602339686E+01  0.70695783930E+02  0.70771402134E+02  0.00000000000E+00 0.  1.
         11    1    1    2    0    0 -0.11241196461E+01  0.10303248018E+02 -0.49972882167E+03  0.49983628897E+03  0.00000000000E+00 0. -1.
        -15    1    1    2    0    0  0.16105831956E+01  0.65554477922E-01  0.15155281225E+03  0.15157180116E+03  0.17770000000E+01 0. -1.
         15    1    1    2    0    0 -0.22498897973E+00 -0.13629036464E+02  0.27748022549E+03  0.27782050774E+03  0.17770000000E+01 0.  1.
</event>
<event>
 6   1  0.1826851E-04  0.5000392E+03  0.7546771E-02  0.9399722E-01
        -11   -1    0    0    0    0  0.00000000000E+00  0.00000000000E+00  0.50000000000E+03  0.50000000000E+03  0.00000000000E+00 0. -1.
         11   -1    0    0    0    0 -0.00000000000E+00 -0.00000000000E+00 -0.50000000000E+03  0.50000000000E+03  0.00000000000E+00 0. -1.
        -11    1    1    2    0    0 -0.18679129874E+01 -0.28147174259E+00  0.31169693634E+02  0.31226881472E+02  0.00000000000E+00 0. -1.
         11    1    1    2    0    0  0.80143049446E+01 -0.12088141951E+01 -0.49989513893E+03  0.49996083871E+03  0.00000000000E+00 0. -1.
        -15    1    1    2    0    0 -0.63323583675E+01 -0.30326297710E-02  0.31005155930E+03  0.31012130840E+03  0.17770000000E+01 0. -1.
         15    1    1    2    0    0  0.18596641033E+00  0.14933185675E+01  0.15867388599E+03  0.15869097142E+03  0.17770000000E+01 0.  1.
</event>
<event>
 6   1  0.1826851E-04  0.5006771E+03  0.7546771E-02  0.9398296E-01
        -11   -1    0    0    0    0  0.00000000000E+00  0.00000000000E+00  0.50000000000E+03  0.50000000000E+03  0.00000000000E+00 0.  1.
         11   -1    0    0    0    0 -0.00000000000E+00 -0.00000000000E+00 -0.50000000000E+03  0.50000000000E+03  0.00000000000E+00 0.  1.
        -11    1    1    2    0    0 -0.68418363371E+01  0.76452187931E+01  0.49921750269E+03  0.49932291665E+03  0.00000000000E+00 0.  1.
         11    1    1    2    0    0  0.77950229678E+01 -0.18832826461E+01 -0.44578219848E+03  0.44585432332E+03  0.00000000000E+00 0.  1.
        -15    1    1    2    0    0  0.10217053960E+01 -0.83193098284E+01 -0.37445389729E+02  0.38413145392E+02  0.17770000000E+01 0.  1.
         15    1    1    2    0    0 -0.19748920267E+01  0.25573736815E+01 -0.15989914479E+02  0.16409614642E+02  0.17770000000E+01 0.  1.
</event>
<event>
 6   1  0.1826851E-04  0.4866925E+03  0.7546771E-02  0.9430089E-01
        -11   -1    0    0    0    0  0.00000000000E+00  0.00000000000E+00  0.50000000000E+03  0.50000000000E+03  0.00000000000E+00 0. -1.
         11   -1    0    0    0    0 -0.00000000000E+00 -0.00000000000E+00 -0.50000000000E+03  0.50000000000E+03  0.00000000000E+00 0. -1.
        -11    1    1    2    0    0 -0.99857056548E+01 -0.12123330146E+02  0.49280869308E+03  0.49305891882E+03  0.00000000000E+00 0. -1.
         11    1    1    2    0    0  0.20620435698E+01 -0.72166474199E+01 -0.48056868364E+03  0.48062728982E+03  0.00000000000E+00 0. -1.
        -15    1    1    2    0    0 -0.13911390402E+01  0.51000471951E+01 -0.57647334805E+01  0.80209494652E+01  0.17770000000E+01 0.  1.
         15    1    1    2    0    0  0.93148011252E+01  0.14239930370E+02 -0.64752759522E+01  0.18292841895E+02  0.17770000000E+01 0. -1.
</event>
<event>
 6   1  0.1826851E-04  0.5001704E+03  0.7546771E-02  0.9399429E-01
        -11   -1    0    0    0    0  0.00000000000E+00  0.00000000000E+00  0.50000000000E+03  0.50000000000E+03  0.00000000000E+00 0. -1.
         11   -1    0    0    0    0 -0.00000000000E+00 -0.00000000000E+00 -0.50000000000E+03  0.50000000000E+03  0.00000000000E+00 0.  1.
        -11    1    1    2    0    0 -0.16540112604E+02 -0.15712919030E+02  0.39393146356E+03  0.39459152187E+03  0.00000000000E+00 0. -1.
         11    1    1    2    0    0  0.13481266767E+02  0.16847857131E+02 -0.49936365002E+03  0.49982962078E+03  0.00000000000E+00 0.  1.
        -15    1    1    2    0    0  0.74083644573E+00 -0.43803512238E+00  0.67174809425E+02  0.67203820305E+02  0.17770000000E+01 0. -1.
         15    1    1    2    0    0  0.23180093913E+01 -0.69690297784E+00  0.38257377035E+02  0.38375037041E+02  0.17770000000E+01 0.  1.
</event>
<event>
 6   1  0.1826851E-04  0.5004737E+03  0.7546771E-02  0.9398750E-01
        -11   -1    0    0    0    0  0.00000000000E+00  0.00000000000E+00  0.50000000000E+03  0.50000000000E+03  0.00000000000E+00 0.  1.
         11   -1    0    0    0    0 -0.00000000000E+00 -0.00000000000E+00 -0.50000000000E+03  0.50000000000E+03  0.00000000000E+00 0.  1.
        -11    1    1    2    0    0 -0.19148701331E+02  0.79249420218E+01  0.49909626834E+03  0.49952633818E+03  0.00000000000E+00 0.  1.
         11    1    1    2    0    0  0.52476232741E+01 -0.75907357053E+01 -0.32435121812E+03  0.32448246411E+03  0.00000000000E+00 0.  1.
        -15    1    1    2    0    0  0.55816157513E+01  0.47966999376E+01 -0.12689769349E+03  0.12712334603E+03  0.17770000000E+01 0.  1.
         15    1    1    2    0    0  0.83194623055E+01 -0.51309062540E+01 -0.47847356737E+02  0.48867851679E+02  0.17770000000E+01 0. -1.
</event>
<event>
 6   1  0.1826851E-04  0.5012300E+03  0.7546771E-02  0.9397062E-01
        -11   -1    0    0    0    0  0.00000000000E+00  0.00000000000E+00  0.50000000000E+03  0.50000000000E+03  0.00000000000E+00 0.  1.
         11   -1    0    0    0    0 -0.00000000000E+00 -0.00000000000E+00 -0.50000000000E+03  0.50000000000E+03  0.00000000000E+00 0. -1.
        -11    1    1    2    0    0 -0.26251112395E+02  0.81092191073E+01  0.49801270879E+03  0.49877002561E+03  0.00000000000E+00 0.  1.
         11    1    1    2    0    0 -0.50792425608E+00 -0.57566643628E+01 -0.36911287188E+03  0.36915810889E+03  0.00000000000E+00 0. -1.
        -15    1    1    2    0    0  0.16576326101E+02  0.12140445991E+01 -0.59008495998E+02  0.61330325454E+02  0.17770000000E+01 0.  1.
         15    1    1    2    0    0  0.10182710550E+02 -0.35665993437E+01 -0.69891340912E+02  0.70741540049E+02  0.17770000000E+01 0. -1.
</event>
<event>
 6   1  0.1826851E-04  0.5036032E+03  0.7546771E-02  0.9391783E-01
        -11   -1    0    0    0    0  0.00000000000E+00  0.00000000000E+00  0.50000000000E+03  0.50000000000E+03  0.00000000000E+00 0.  1.
         11   -1    0    0    0    0 -0.00000000000E+00 -0.00000000000E+00 -0.50000000000E+03  0.50000000000E+03  0.00000000000E+00 0. -1.
        -11    1    1    2    0    0  0.42525308384E+01 -0.80570917009E+01  0.48209374052E+03  0.48217981645E+03  0.00000000000E+00 0.  1.
         11    1    1    2    0    0 -0.14502649003E+02  0.26869530966E+01 -0.49617763622E+03  0.49639681025E+03  0.00000000000E+00 0. -1.
        -15    1    1    2    0    0  0.67101293445E+01  0.60440498626E+01  0.14714804758E+02  0.17356254856E+02  0.17770000000E+01 0. -1.
         15    1    1    2    0    0  0.35399888198E+01 -0.67391125829E+00 -0.63090905727E+00  0.40671184476E+01  0.17770000000E+01 0.  1.
</event>
<event>
 6   1  0.1826851E-04  0.5037775E+03  0.7546771E-02  0.9391397E-01
        -11   -1    0    0    0    0  0.00000000000E+00  0.00000000000E+00  0.50000000000E+03  0.50000000000E+03  0.00000000000E+00 0.  1.
         11   -1    0    0    0    0 -0.00000000000E+00 -0.00000000000E+00 -0.50000000000E+03  0.50000000000E+03  0.00000000000E+00 0.  1.
        -11    1    1    2    0    0 -0.26447791118E+02  0.14153022830E+02  0.23730499073E+03  0.23919333673E+03  0.00000000000E+00 0.  1.
         11    1    1    2    0    0 -0.11910827151E+02 -0.56145633769E+01 -0.49604777277E+03  0.49622251460E+03  0.00000000000E+00 0.  1.
        -15    1    1    2    0    0 -0.31578472674E+01 -0.10153841005E+02  0.96347072479E+02  0.96948381064E+02  0.17770000000E+01 0.  1.
         15    1    1    2    0    0  0.41516465537E+02  0.16153815520E+01  0.16239570956E+03  0.16763576760E+03  0.17770000000E+01 0. -1.
</event>
<event>
 6   1  0.1826851E-04  0.5004513E+03  0.7546771E-02  0.9398800E-01
        -11   -1    0    0    0    0  0.00000000000E+00  0.00000000000E+00  0.50000000000E+03  0.50000000000E+03  0.00000000000E+00 0.  1.
         11   -1    0    0    0    0 -0.00000000000E+00 -0.00000000000E+00 -0.50000000000E+03  0.50000000000E+03  0.00000000000E+00 0.  1.
        -11    1    1    2    0    0 -0.36105895500E+01  0.92317122613E+01  0.61705514623E+02  0.62496651135E+02  0.00000000000E+00 0.  1.
         11    1    1    2    0    0  0.72808584669E+01  0.57250677300E+00 -0.49949529183E+03  0.49954868153E+03  0.00000000000E+00 0.  1.
        -15    1    1    2    0    0  0.84785423239E+00 -0.19488770821E+01  0.10944091443E+03  0.10947597206E+03  0.17770000000E+01 0. -1.
         15    1    1    2    0    0 -0.45181231493E+01 -0.78553419522E+01  0.32834886277E+03  0.32847869527E+03  0.17770000000E+01 0.  1.
</event>
<event>
 6   1  0.1826851E-04  0.5006454E+03  0.7546771E-02  0.9398367E-01
        -11   -1    0    0    0    0  0.00000000000E+00  0.00000000000E+00  0.50000000000E+03  0.50000000000E+03  0.00000000000E+00 0.  1.
         11   -1    0    0    0    0 -0.00000000000E+00 -0.00000000000E+00 -0.50000000000E+03  0.50000000000E+03  0.00000000000E+00 0. -1.
        -11    1    1    2    0    0  0.79329656677E+01 -0.10931804978E+02  0.49917190421E+03  0.49935460973E+03  0.00000000000E+00 0.  1.
         11    1    1    2    0    0  0.45493255319E+01  0.27093309232E+01 -0.39219046577E+03  0.39222620804E+03  0.00000000000E+00 0. -1.
        -15    1    1    2    0    0 -0.32215711844E+01 -0.15411638565E+01 -0.27295479223E+02  0.27585405960E+02  0.17770000000E+01 0.  1.
         15    1    1    2    0    0 -0.92607200153E+01  0.97636379111E+01 -0.79685959217E+02  0.80833776268E+02  0.17770000000E+01 0. -1.
</event>
<event>
 6   1  0.1826851E-04  0.5013345E+03  0.7546771E-02  0.9396829E-01
        -11   -1    0    0    0    0  0.00000000000E+00  0.00000000000E+00  0.50000000000E+03  0.50000000000E+03  0.00000000000E+00 0. -1.
         11   -1    0    0    0    0 -0.00000000000E+00 -0.00000000000E+00 -0.50000000000E+03  0.50000000000E+03  0.00000000000E+00 0. -1.
        -11    1    1    2    0    0  0.33079225611E+01 -0.59676484368E+01  0.84725940671E+01  0.10878420371E+02  0.00000000000E+00 0. -1.
         11    1    1    2    0    0  0.49158811655E+01  0.31422291077E+02 -0.49765021814E+03  0.49866548494E+03  0.00000000000E+00 0. -1.
        -15    1    1    2    0    0 -0.13677033096E+02 -0.18394445007E+02  0.42679390403E+03  0.42741269411E+03  0.17770000000E+01 0. -1.
         15    1    1    2    0    0  0.54532293696E+01 -0.70601976327E+01  0.62383720040E+02  0.63043400576E+02  0.17770000000E+01 0.  1.
</event>
<event>
 6   1  0.1826851E-04  0.5018814E+03  0.7546771E-02  0.9395610E-01
        -11   -1    0    0    0    0  0.00000000000E+00  0.00000000000E+00  0.50000000000E+03  0.50000000000E+03  0.00000000000E+00 0. -1.
         11   -1    0    0    0    0 -0.00000000000E+00 -0.00000000000E+00 -0.50000000000E+03  0.50000000000E+03  0.00000000000E+00 0. -1.
        -11    1    1    2    0    0  0.20678591702E+02 -0.98221722171E+00  0.49768823467E+03  0.49811860820E+03  0.00000000000E+00 0. -1.
         11    1    1    2    0    0  0.21319185689E+01  0.12492553486E+02 -0.41006119580E+03  0.41025698443E+03  0.00000000000E+00 0. -1.
        -15    1    1    2    0    0 -0.16933924375E+02 -0.52085001584E+01 -0.63240583464E+02  0.65699432224E+02  0.17770000000E+01 0.  1.
         15    1    1    2    0    0 -0.58765858960E+01 -0.63018361059E+01 -0.24386455403E+02  0.25924975144E+02  0.17770000000E+01 0. -1.
</event>
<event>
 6   1  0.1826851E-04  0.5041086E+03  0.7546771E-02  0.9390663E-01
        -11   -1    0    0    0    0  0.00000000000E+00  0.00000000000E+00  0.50000000000E+03  0.50000000000E+03  0.00000000000E+00 0. -1.
         11   -1    0    0    0    0 -0.00000000000E+00 -0.00000000000E+00 -0.50000000000E+03  0.50000000000E+03  0.00000000000E+00 0. -1.
        -11    1    1    2    0    0  0.85466057223E+01  0.58027374763E+01  0.49578375920E+03  0.49589137129E+03  0.00000000000E+00 0. -1.
         11    1    1    2    0    0 -0.43050841303E+00  0.67455773568E+01 -0.48455135632E+03  0.48459849882E+03  0.00000000000E+00 0. -1.
        -15    1    1    2    0    0 -0.11277666210E+01 -0.53520554052E+01 -0.44494896253E+01  0.72713163552E+01  0.17770000000E+01 0.  1.
         15    1    1    2    0    0 -0.69883306883E+01 -0.71962594279E+01 -0.67829132573E+01  0.12238813538E+02  0.17770000000E+01 0. -1.
</event>
<event>
 6   1  0.1826851E-04  0.5031176E+03  0.7546771E-02  0.9392861E-01
        -11   -1    0    0    0    0  0.00000000000E+00  0.00000000000E+00  0.50000000000E+03  0.50000000000E+03  0.00000000000E+00 0. -1.
         11   -1    0    0    0    0 -0.00000000000E+00 -0.00000000000E+00 -0.50000000000E+03  0.50000000000E+03  0.00000000000E+00 0. -1.
        -11    1    1    2    0    0 -0.19574928586E+02  0.10718544697E+02  0.49638092892E+03  0.49688237202E+03  0.00000000000E+00 0. -1.
         11    1    1    2    0    0 -0.12351648088E+02 -0.83076225844E+01 -0.39866469718E+03  0.39894250285E+03  0.00000000000E+00 0. -1.
        -15    1    1    2    0    0  0.88393858107E+01  0.27451997040E+01 -0.12125014361E+02  0.15357231690E+02  0.17770000000E+01 0.  1.
         15    1    1    2    0    0  0.23087190863E+02 -0.51561218169E+01 -0.85591217377E+02  0.88817893441E+02  0.17770000000E+01 0. -1.
</event>
<event>
 6   1  0.1826851E-04  0.5054390E+03  0.7546771E-02  0.9387721E-01
        -11   -1    0    0    0    0  0.00000000000E+00  0.00000000000E+00  0.50000000000E+03  0.50000000000E+03  0.00000000000E+00 0.  1.
         11   -1    0    0    0    0 -0.00000000000E+00 -0.00000000000E+00 -0.50000000000E+03  0.50000000000E+03  0.00000000000E+00 0.  1.
        -11    1    1    2    0    0 -0.93190234851E+01  0.11520706687E+02  0.49008053072E+03  0.49030449465E+03  0.00000000000E+00 0.  1.
         11    1    1    2    0    0  0.72427781458E+01 -0.66381474482E+01 -0.49446337278E+03  0.49456096677E+03  0.00000000000E+00 0.  1.
        -15    1    1    2    0    0 -0.19070819054E+01  0.21042277541E+01 -0.26756092211E+01  0.42873476112E+01  0.17770000000E+01 0. -1.
         15    1    1    2    0    0  0.39833272447E+01 -0.69867869930E+01  0.70584512805E+01  0.10847190968E+02  0.17770000000E+01 0.  1.
</event>
<event>
 6   1  0.1826851E-04  0.5001614E+03  0.7546771E-02  0.9399449E-01
        -11   -1    0    0    0    0  0.00000000000E+00  0.00000000000E+00  0.50000000000E+03  0.50000000000E+03  0.00000000000E+00 0. -1.
         11   -1    0    0    0    0 -0.00000000000E+00 -0.00000000000E+00 -0.50000000000E+03  0.50000000000E+03  0.00000000000E+00 0.  1.
        -11    1    1    2    0    0  0.13037177153E+02  0.17109877692E+02  0.49937550608E+03  0.49983858592E+03  0.00000000000E+00 0. -1.
         11    1    1    2    0    0 -0.75847665571E+01 -0.55293024670E+01 -0.22132675676E+03  0.22152569858E+03  0.00000000000E+00 0.  1.
        -15    1    1    2    0    0 -0.72457325774E+01 -0.13125908521E+02 -0.22762562904E+03  0.22812578732E+03  0.17770000000E+01 0. -1.
         15    1    1    2    0    0  0.17933219814E+01  0.15453332959E+01 -0.50423120270E+02  0.50509928187E+02  0.17770000000E+01 0.  1.
</event>
<event>
 6   1  0.1826851E-04  0.5054645E+03  0.7546771E-02  0.9387665E-01
        -11   -1    0    0    0    0  0.00000000000E+00  0.00000000000E+00  0.50000000000E+03  0.50000000000E+03  0.00000000000E+00 0.  1.
         11   -1    0    0    0    0 -0.00000000000E+00 -0.00000000000E+00 -0.50000000000E+03  0.50000000000E+03  0.00000000000E+00 0. -1.
        -11    1    1    2    0    0 -0.17272847623E+02 -0.22726590502E+02  0.37226123404E+03  0.37335408870E+03  0.00000000000E+00 0.  1.
         11    1    1    2    0    0  0.11440402677E+02 -0.22162891006E+02 -0.49390619521E+03  0.49453554596E+03  0.00000000000E+00 0. -1.
        -15    1    1    2    0    0  0.11076479076E+01  0.17531129883E+02  0.19774899401E+02  0.26509842968E+02  0.17770000000E+01 0. -1.
         15    1    1    2    0    0  0.47247970387E+01  0.27358351625E+02  0.10187006177E+03  0.10560052237E+03  0.17770000000E+01 0.  1.
</event>
<event>
 6   1  0.1826851E-04  0.5000828E+03  0.7546771E-02  0.9399624E-01
        -11   -1    0    0    0    0  0.00000000000E+00  0.00000000000E+00  0.50000000000E+03  0.50000000000E+03  0.00000000000E+00 0.  1.
         11   -1    0    0    0    0 -0.00000000000E+00 -0.00000000000E+00 -0.50000000000E+03  0.50000000000E+03  0.00000000000E+00 0. -1.
        -11    1    1    2    0    0 -0.64986083150E+01  0.15763117475E+01  0.18978364579E+03  0.18990141884E+03  0.00000000000E+00 0.  1.
         11    1    1    2    0    0  0.25573636862E+01 -0.81981710292E+01 -0.49984342757E+03  0.49991719535E+03  0.00000000000E+00 0. -1.
        -15    1    1    2    0    0  0.31601235414E+01  0.37829824304E+01  0.19273243122E+03  0.19280364392E+03  0.17770000000E+01 0.  1.
         15    1    1    2    0    0  0.78112108746E+00  0.28388768514E+01  0.11732735057E+03  0.11737774189E+03  0.17770000000E+01 0.  1.
</event>
<event>
 6   1  0.1826851E-04  0.5001468E+03  0.7546771E-02  0.9399481E-01
        -11   -1    0    0    0    0  0.00000000000E+00  0.00000000000E+00  0.50000000000E+03  0.50000000000E+03  0.00000000000E+00 0. -1.
         11   -1    0    0    0    0 -0.00000000000E+00 -0.00000000000E+00 -0.50000000000E+03  0.50000000000E+03  0.00000000000E+00 0.  1.
        -11    1    1    2    0    0 -0.17398905677E+00  0.25406035461E+01  0.26194441148E+02  0.26317934676E+02  0.00000000000E+00 0. -1.
         11    1    1    2    0    0 -0.42182387465E+01  0.63801161979E+01 -0.49979472939E+03  0.49985324941E+03  0.00000000000E+00 0.  1.
        -15    1    1    2    0    0 -0.27506445224E+01 -0.33186970725E+01  0.93688392036E+02  0.93804330001E+02  0.17770000000E+01 0.  1.
         15    1    1    2    0    0  0.71428723257E+01 -0.56020226715E+01  0.37991189621E+03  0.38002448591E+03  0.17770000000E+01 0. -1.
</event>
<event>
 6   1  0.1826851E-04  0.5060501E+03  0.7546771E-02  0.9386373E-01
        -11   -1    0    0    0    0  0.00000000000E+00  0.00000000000E+00  0.50000000000E+03  0.50000000000E+03  0.00000000000E+00 0.  1.
         11   -1    0    0    0    0 -0.00000000000E+00 -0.00000000000E+00 -0.50000000000E+03  0.50000000000E+03  0.00000000000E+00 0. -1.
        -11    1    1    2    0    0  0.36311793654E+01 -0.74327446242E+01  0.48407882284E+03  0.48414949951E+03  0.00000000000E+00 0.  1.
         11    1    1    2    0    0 -0.68178330686E+01 -0.82523275236E+01 -0.49383385732E+03  0.49394985818E+03  0.00000000000E+00 0. -1.
        -15    1    1    2    0    0 -0.20666367786E+01  0.11326842589E+02  0.27721251920E+01  0.11975423069E+02  0.17770000000E+01 0. -1.
         15    1    1    2    0    0  0.52532904817E+01  0.43582295588E+01  0.69829092965E+01  0.99252192427E+01  0.17770000000E+01 0.  1.
</event>
<event>
 6   1  0.1826851E-04  0.5012184E+03  0.7546771E-02  0.9397087E-01
        -11   -1    0    0    0    0  0.00000000000E+00  0.00000000000E+00  0.50000000000E+03  0.50000000000E+03  0.00000000000E+00 0. -1.
         11   -1    0    0    0    0 -0.00000000000E+00 -0.00000000000E+00 -0.50000000000E+03  0.50000000000E+03  0.00000000000E+00 0. -1.
        -11    1    1    2    0    0  0.10716814111E+02  0.18036483608E+02  0.49834012062E+03  0.49878155606E+03  0.00000000000E+00 0. -1.
         11    1    1    2    0    0  0.18996364957E+01  0.34510907241E+01 -0.25737238356E+03  0.25740253003E+03  0.00000000000E+00 0. -1.
        -15    1    1    2    0    0 -0.11467862719E+02 -0.18194039637E+02 -0.81757658603E+02  0.84557716519E+02  0.17770000000E+01 0. -1.
         15    1    1    2    0    0 -0.11485878869E+01 -0.32935346957E+01 -0.15921007846E+03  0.15925819739E+03  0.17770000000E+01 0. -1.
</event>
<event>
 6   1  0.1826851E-04  0.5012020E+03  0.7546771E-02  0.9397124E-01
        -11   -1    0    0    0    0  0.00000000000E+00  0.00000000000E+00  0.50000000000E+03  0.50000000000E+03  0.00000000000E+00 0. -1.
         11   -1    0    0    0    0 -0.00000000000E+00 -0.00000000000E+00 -0.50000000000E+03  0.50000000000E+03  0.00000000000E+00 0.  1.
        -11    1    1    2    0    0 -0.14867653731E+02  0.45508488460E+01  0.49855559141E+03  0.49879799025E+03  0.00000000000E+00 0. -1.
         11    1    1    2    0    0 -0.20355778273E+01 -0.32846677394E+01 -0.24835497572E+03  0.24838503696E+03  0.00000000000E+00 0.  1.
        -15    1    1    2    0    0 -0.43272206978E+01 -0.82698990520E+01 -0.29792524834E+02  0.31270886368E+02  0.17770000000E+01 0. -1.
         15    1    1    2    0    0  0.21230452256E+02  0.70037179454E+01 -0.22040809085E+03  0.22154608642E+03  0.17770000000E+01 0.  1.
</event>
<event>
 6   1  0.1826851E-04  0.5039952E+03  0.7546771E-02  0.9390914E-01
        -11   -1    0    0    0    0  0.00000000000E+00  0.00000000000E+00  0.50000000000E+03  0.50000000000E+03  0.00000000000E+00 0. -1.
         11   -1    0    0    0    0 -0.00000000000E+00 -0.00000000000E+00 -0.50000000000E+03  0.50000000000E+03  0.00000000000E+00 0. -1.
        -11    1    1    2    0    0 -0.73987335139E+02  0.63956021235E+02  0.24736762697E+03  0.26599857384E+03  0.00000000000E+00 0. -1.
         11    1    1    2    0    0  0.91614690451E+02 -0.54929105152E+02 -0.48436590871E+03  0.49600483024E+03  0.00000000000E+00 0. -1.
        -15    1    1    2    0    0 -0.99393401485E+01 -0.91509346961E+01  0.13173392966E+03  0.13243683793E+03  0.17770000000E+01 0. -1.
         15    1    1    2    0    0 -0.76880151631E+01  0.12401861251E+00  0.10526435209E+03  0.10555975799E+03  0.17770000000E+01 0.  1.
</event>
<event>
 6   1  0.1826851E-04  0.5009485E+03  0.7546771E-02  0.9397690E-01
        -11   -1    0    0    0    0  0.00000000000E+00  0.00000000000E+00  0.50000000000E+03  0.50000000000E+03  0.00000000000E+00 0.  1.
         11   -1    0    0    0    0 -0.00000000000E+00 -0.00000000000E+00 -0.50000000000E+03  0.50000000000E+03  0.00000000000E+00 0. -1.
        -11    1    1    2    0    0  0.44184098464E+01 -0.53315047452E+01  0.11746260943E+02  0.13635319379E+02  0.00000000000E+00 0.  1.
         11    1    1    2    0    0 -0.42035970143E+00  0.99049634252E+01 -0.49895305288E+03  0.49905153439E+03  0.00000000000E+00 0. -1.
        -15    1    1    2    0    0 -0.48391782572E+01  0.22204936604E-01  0.22965114345E+03  0.22970899755E+03  0.17770000000E+01 0.  1.
         15    1    1    2    0    0  0.84112811219E+00 -0.45956636166E+01  0.25755564848E+03  0.25760414868E+03  0.17770000000E+01 0.  1.
</event>
<event>
 6   1  0.1826851E-04  0.5029747E+03  0.7546771E-02  0.9393178E-01
        -11   -1    0    0    0    0  0.00000000000E+00  0.00000000000E+00  0.50000000000E+03  0.50000000000E+03  0.00000000000E+00 0.  1.
         11   -1    0    0    0    0 -0.00000000000E+00 -0.00000000000E+00 -0.50000000000E+03  0.50000000000E+03  0.00000000000E+00 0.  1.
        -11    1    1    2    0    0 -0.11448802717E+02  0.36393932751E+02  0.24776179257E+03  0.25068206813E+03  0.00000000000E+00 0.  1.
         11    1    1    2    0    0 -0.15457127600E+01 -0.81440840336E+01 -0.49695612052E+03  0.49702525192E+03  0.00000000000E+00 0.  1.
        -15    1    1    2    0    0  0.15745128581E+02 -0.60233643811E+01  0.10667741827E+03  0.10801582889E+03  0.17770000000E+01 0.  1.
         15    1    1    2    0    0 -0.27506131048E+01 -0.22226484336E+02  0.14251690967E+03  0.14427685105E+03  0.17770000000E+01 0. -1.
</event>
<event>
 6   1  0.1826851E-04  0.5022491E+03  0.7546771E-02  0.9394791E-01
        -11   -1    0    0    0    0  0.00000000000E+00  0.00000000000E+00  0.50000000000E+03  0.50000000000E+03  0.00000000000E+00 0.  1.
         11   -1    0    0    0    0 -0.00000000000E+00 -0.00000000000E+00 -0.50000000000E+03  0.50000000000E+03  0.00000000000E+00 0. -1.
        -11    1    1    2    0    0 -0.16314391568E+02 -0.15565773968E+02  0.51508851448E+02  0.56228235513E+02  0.00000000000E+00 0.  1.
         11    1    1    2    0    0  0.98354393139E+01  0.14513223781E+02 -0.49744208948E+03  0.49775094366E+03  0.00000000000E+00 0. -1.
        -15    1    1    2    0    0  0.22545554733E+01  0.22220953571E+01  0.26855058607E+03  0.26857512121E+03  0.17770000000E+01 0.  1.
         15    1    1    2    0    0  0.42243967803E+01 -0.11695451706E+01  0.17738265196E+03  0.17744569961E+03  0.17770000000E+01 0.  1.
</event>
<event>
 6   1  0.1826851E-04  0.5017661E+03  0.7546771E-02  0.9395867E-01
        -11   -1    0    0    0    0  0.00000000000E+00  0.00000000000E+00  0.50000000000E+03  0.50000000000E+03  0.00000000000E+00 0.  1.
         11   -1    0    0    0    0 -0.00000000000E+00 -0.00000000000E+00 -0.50000000000E+03  0.50000000000E+03  0.00000000000E+00 0.  1.
        -11    1    1    2    0    0 -0.12784842354E+03  0.52182492762E+02  0.38966413265E+03  0.41340823435E+03  0.00000000000E+00 0.  1.
         11    1    1    2    0    0  0.15506907031E+03 -0.39239112270E+02 -0.47185896418E+03  0.49823388742E+03  0.00000000000E+00 0.  1.
        -15    1    1    2    0    0 -0.65052252912E+01 -0.24419326921E-01  0.94828264078E+01  0.11636162515E+02  0.17770000000E+01 0.  1.
         15    1    1    2    0    0 -0.20715421482E+02 -0.12918961165E+02  0.72712005123E+02  0.76721715718E+02  0.17770000000E+01 0. -1.
</event>
<event>
 6   1  0.1826851E-04  0.5061177E+03  0.7546771E-02  0.9386224E-01
        -11   -1    0    0    0    0  0.00000000000E+00  0.00000000000E+00  0.50000000000E+03  0.50000000000E+03  0.00000000000E+00 0.  1.
         11   -1    0    0    0    0 -0.00000000000E+00 -0.00000000000E+00 -0.50000000000E+03  0.50000000000E+03  0.00000000000E+00 0.  1.
        -11    1    1    2    0    0  0.32634557362E+02  0.14227145272E+02  0.42430577060E+03  0.42579668031E+03  0.00000000000E+00 0.  1.
         11    1    1    2    0    0 -0.70734878798E+01  0.82628451643E+01 -0.49376250531E+03  0.49388229417E+03  0.00000000000E+00 0.  1.
        -15    1    1    2    0    0 -0.15939129074E+02 -0.37518378821E+00  0.30694196045E+02  0.34633625256E+02  0.17770000000E+01 0.  1.
         15    1    1    2    0    0 -0.96219404079E+01 -0.22114806648E+02  0.38762538667E+02  0.45687400268E+02  0.17770000000E+01 0. -1.
</event>
<event>
 6   1  0.1826851E-04  0.5026043E+03  0.7546771E-02  0.9394001E-01
        -11   -1    0    0    0    0  0.00000000000E+00  0.00000000000E+00  0.50000000000E+03  0.50000000000E+03  0.00000000000E+00 0.  1.
         11   -1    0    0    0    0 -0.00000000000E+00 -0.00000000000E+00 -0.50000000000E+03  0.50000000000E+03  0.00000000000E+00 0.  1.
        -11    1    1    2    0    0  0.24541677258E+01 -0.26624264236E+02  0.42895593646E+03  0.42978840120E+03  0.00000000000E+00 0.  1.
         11    1    1    2    0    0  0.67438124168E+01  0.68557901034E+01 -0.49730277229E+03  0.49739574606E+03  0.00000000000E+00 0.  1.
        -15    1    1    2    0    0 -0.13908733556E+01 -0.10554764370E+01  0.11080360049E+02  0.11356965572E+02  0.17770000000E+01 0.  1.
         15    1    1    2    0    0 -0.78071067870E+01  0.20823950570E+02  0.57266475785E+02  0.61458887165E+02  0.17770000000E+01 0. -1.
</event>
<event>
 6   1  0.1826851E-04  0.5003892E+03  0.7546771E-02  0.9398939E-01
        -11   -1    0    0    0    0  0.00000000000E+00  0.00000000000E+00  0.50000000000E+03  0.50000000000E+03  0.00000000000E+00 0.  1.
         11   -1    0    0    0    0 -0.00000000000E+00 -0.00000000000E+00 -0.50000000000E+03  0.50000000000E+03  0.00000000000E+00 0.  1.
        -11    1    1    2    0    0 -0.10992477407E+02  0.28334202765E+02  0.49868556050E+03  0.49961079838E+03  0.00000000000E+00 0.  1.
         11    1    1    2    0    0  0.63884295852E+01 -0.26412281149E+02 -0.47151431928E+03  0.47229670115E+03  0.00000000000E+00 0.  1.
        -15    1    1    2    0    0  0.26515068630E+01  0.28466874342E+00 -0.18278807409E+02  0.18557587512E+02  0.17770000000E+01 0.  1.
         15    1    1    2    0    0  0.19525409585E+01 -0.22065903588E+01 -0.88924338035E+01  0.95349129601E+01  0.17770000000E+01 0. -1.
</event>
<event>
 6   1  0.1826851E-04  0.5013306E+03  0.7546771E-02  0.9396837E-01
        -11   -1    0    0    0    0  0.00000000000E+00  0.00000000000E+00  0.50000000000E+03  0.50000000000E+03  0.00000000000E+00 0.  1.
         11   -1    0    0    0    0 -0.00000000000E+00 -0.00000000000E+00 -0.50000000000E+03  0.50000000000E+03  0.00000000000E+00 0. -1.
        -11    1    1    2    0    0 -0.18961879172E+02 -0.14693826800E+02  0.31447446032E+03  0.31538809046E+03  0.00000000000E+00 0.  1.
         11    1    1    2    0    0 -0.21412651042E+01  0.71588944838E+01 -0.49861344207E+03  0.49866942898E+03  0.00000000000E+00 0. -1.
        -15    1    1    2    0    0  0.16858542233E+02  0.77573444085E+01  0.17111839472E+03  0.17213090827E+03  0.17770000000E+01 0. -1.
         15    1    1    2    0    0  0.42446020434E+01 -0.22241209205E+00  0.13020587030E+02  0.13811572294E+02  0.17770000000E+01 0.  1.
</event>
<event>
 6   1  0.1826851E-04  0.5001156E+03  0.7546771E-02  0.9399551E-01
        -11   -1    0    0    0    0  0.00000000000E+00  0.00000000000E+00  0.50000000000E+03  0.50000000000E+03  0.00000000000E+00 0.  1.
         11   -1    0    0    0    0 -0.00000000000E+00 -0.00000000000E+00 -0.50000000000E+03  0.50000000000E+03  0.00000000000E+00 0. -1.
        -11    1    1    2    0    0  0.17533518366E+02 -0.58887271943E+01  0.49954214556E+03  0.49988444321E+03  0.00000000000E+00 0.  1.
         11    1    1    2    0    0 -0.19431044981E+01  0.11322251574E+01 -0.10803702806E+03  0.10806043226E+03  0.00000000000E+00 0. -1.
        -15    1    1    2    0    0  0.16254691834E+01  0.21694891137E+01 -0.55387280992E+02  0.55482046265E+02  0.17770000000E+01 0. -1.
         15    1    1    2    0    0 -0.17215883051E+02  0.25870129231E+01 -0.33611783651E+03  0.33657307827E+03  0.17770000000E+01 0. -1.
</event>
<event>
 6   1  0.1826851E-04  0.5017049E+03  0.7546771E-02  0.9396003E-01
        -11   -1    0    0    0    0  0.00000000000E+00  0.00000000000E+00  0.50000000000E+03  0.50000000000E+03  0.00000000000E+00 0.  1.
         11   -1    0    0    0    0 -0.00000000000E+00 -0.00000000000E+00 -0.50000000000E+03  0.50000000000E+03  0.00000000000E+00 0.  1.
        -11    1    1    2    0    0  0.35000516639E+01 -0.15283093085E+02  0.49804834731E+03  0.49829507278E+03  0.00000000000E+00 0.  1.
         11    1    1    2    0    0  0.47041618747E+01 -0.39638844236E+01 -0.42597768113E+03  0.42602209607E+03  0.00000000000E+00 0.  1.
        -15    1    1    2    0    0 -0.38241289344E+01  0.17146983178E+02 -0.50410288182E+02  0.53413461579E+02  0.17770000000E+01 0.  1.
         15    1    1    2    0    0 -0.43800846042E+01  0.20999943302E+01 -0.21660377999E+02  0.22269369578E+02  0.17770000000E+01 0. -1.
</event>
<event>
 6   1  0.1826851E-04  0.5001874E+03  0.7546771E-02  0.9399391E-01
        -11   -1    0    0    0    0  0.00000000000E+00  0.00000000000E+00  0.50000000000E+03  0.50000000000E+03  0.00000000000E+00 0. -1.
         11   -1    0    0    0    0 -0.00000000000E+00 -0.00000000000E+00 -0.50000000000E+03  0.50000000000E+03  0.00000000000E+00 0. -1.
        -11    1    1    2    0    0  0.19175149338E+02  0.25930158678E+01  0.49943794107E+03  0.49981263196E+03  0.00000000000E+00 0. -1.
         11    1    1    2    0    0  0.11970578996E+01 -0.35375127597E+01 -0.14341237520E+03  0.14346099227E+03  0.00000000000E+00 0. -1.
        -15    1    1    2    0    0 -0.19009605925E+02 -0.12934441625E+01 -0.29681874142E+03  0.29743496953E+03  0.17770000000E+01 0. -1.
         15    1    1    2    0    0 -0.13626013127E+01  0.22379410544E+01 -0.59206824455E+02  0.59291406237E+02  0.17770000000E+01 0.  1.
</event>
<event>
 6   1  0.1826851E-04  0.5008358E+03  0.7546771E-02  0.9397941E-01
        -11   -1    0    0    0    0  0.00000000000E+00  0.00000000000E+00  0.50000000000E+03  0.50000000000E+03  0.00000000000E+00 0.  1.
         11   -1    0    0    0    0 -0.00000000000E+00 -0.00000000000E+00 -0.50000000000E+03  0.50000000000E+03  0.00000000000E+00 0. -1.
        -11    1    1    2    0    0  0.10030448303E+02 -0.11096171308E+01  0.38775630242E+02  0.40067326389E+02  0.00000000000E+00 0.  1.
         11    1    1    2    0    0  0.91384175775E+01  0.16895131811E+02 -0.49879446936E+03  0.49916418023E+03  0.00000000000E+00 0. -1.
        -15    1    1    2    0    0 -0.18327890159E+02 -0.13797066380E+02  0.43145826254E+03  0.43207136059E+03  0.17770000000E+01 0.  1.
         15    1    1    2    0    0 -0.84097572140E+00 -0.19884483009E+01  0.28560576580E+02  0.28697132791E+02  0.17770000000E+01 0.  1.
</event>
<event>
 6   1  0.1826851E-04  0.5024259E+03  0.7546771E-02  0.9394398E-01
        -11   -1    0    0    0    0  0.00000000000E+00  0.00000000000E+00  0.50000000000E+03  0.50000000000E+03  0.00000000000E+00 0. -1.
         11   -1    0    0    0    0 -0.00000000000E+00 -0.00000000000E+00 -0.50000000000E+03  0.50000000000E+03  0.00000000000E+00 0.  1.
        -11    1    1    2    0    0 -0.31207931621E+02 -0.63297298559E+02  0.49254388254E+03  0.49757407411E+03  0.00000000000E+00 0. -1.
         11    1    1    2    0    0  0.12725461085E+00  0.27034750812E+01 -0.17967845834E+03  0.17969884074E+03  0.00000000000E+00 0.  1.
        -15    1    1    2    0    0 -0.70306202319E+01 -0.27668334702E+00 -0.32998498253E+02  0.33787050633E+02  0.17770000000E+01 0. -1.
         15    1    1    2    0    0  0.38111297242E+02  0.60870506825E+02 -0.27986692595E+03  0.28894003452E+03  0.17770000000E+01 0.  1.
</event>
<event>
 6   1  0.1826851E-04  0.5009510E+03  0.7546771E-02  0.9397684E-01
        -11   -1    0    0    0    0  0.00000000000E+00  0.00000000000E+00  0.50000000000E+03  0.50000000000E+03  0.00000000000E+00 0.  1.
         11   -1    0    0    0    0 -0.00000000000E+00 -0.00000000000E+00 -0.50000000000E+03  0.50000000000E+03  0.00000000000E+00 0.  1.
        -11    1    1    2    0    0  0.13266858461E+02 -0.41748906074E+00  0.36276542014E+03  0.36300817330E+03  0.00000000000E+00 0.  1.
         11    1    1    2    0    0 -0.47165061740E+00 -0.17796077658E+02 -0.49873134454E+03  0.49904897241E+03  0.00000000000E+00 0.  1.
        -15    1    1    2    0    0 -0.94680989950E+01  0.97893345047E+01  0.70038740679E+02  0.71372676099E+02  0.17770000000E+01 0.  1.
         15    1    1    2    0    0 -0.33271088489E+01  0.84242322142E+01  0.65927183725E+02  0.66570178193E+02  0.17770000000E+01 0. -1.
</event>
<event>
 6   1  0.1826851E-04  0.4836927E+03  0.7546771E-02  0.9437057E-01
        -11   -1    0    0    0    0  0.00000000000E+00  0.00000000000E+00  0.50000000000E+03  0.50000000000E+03  0.00000000000E+00 0. -1.
         11   -1    0    0    0    0 -0.00000000000E+00 -0.00000000000E+00 -0.50000000000E+03  0.50000000000E+03  0.00000000000E+00 0.  1.
        -11    1    1    2    0    0 -0.27201420187E+02  0.19233077491E+02 -0.54043843360E+01  0.33749605924E+02  0.00000000000E+00 0. -1.
         11    1    1    2    0    0  0.16549789263E+02 -0.54151339671E+02 -0.47720105580E+03  0.48054876003E+03  0.00000000000E+00 0.  1.
        -15    1    1    2    0    0 -0.60484759750E+01 -0.36476139749E+01  0.21888788447E+02  0.23068722072E+02  0.17770000000E+01 0.  1.
         15    1    1    2    0    0  0.16700106899E+02  0.38565876154E+02  0.46071665168E+03  0.46263291197E+03  0.17770000000E+01 0. -1.
</event>
<event>
 6   1  0.1826851E-04  0.5007666E+03  0.7546771E-02  0.9398096E-01
        -11   -1    0    0    0    0  0.00000000000E+00  0.00000000000E+00  0.50000000000E+03  0.50000000000E+03  0.00000000000E+00 0. -1.
         11   -1    0    0    0    0 -0.00000000000E+00 -0.00000000000E+00 -0.50000000000E+03  0.50000000000E+03  0.00000000000E+00 0.  1.
        -11    1    1    2    0    0 -0.55609672947E+01  0.16162557123E+02  0.49894069910E+03  0.49923338614E+03  0.00000000000E+00 0. -1.
         11    1    1    2    0    0  0.53053370777E+01  0.33598685062E+01 -0.38318942553E+03  0.38324087876E+03  0.00000000000E+00 0.  1.
        -15    1    1    2    0    0 -0.12964783212E+01 -0.38072863186E+01 -0.21636584639E+02  0.22078854341E+02  0.17770000000E+01 0. -1.
         15    1    1    2    0    0  0.15521085381E+01 -0.15715139311E+02 -0.94114688936E+02  0.95446880761E+02  0.17770000000E+01 0.  1.
</event>
<event>
 6   1  0.1826851E-04  0.5010292E+03  0.7546771E-02  0.9397510E-01
        -11   -1    0    0    0    0  0.00000000000E+00  0.00000000000E+00  0.50000000000E+03  0.50000000000E+03  0.00000000000E+00 0. -1.
         11   -1    0    0    0    0 -0.00000000000E+00 -0.00000000000E+00 -0.50000000000E+03  0.50000000000E+03  0.00000000000E+00 0.  1.
        -11    1    1    2    0    0 -0.17134179998E+01  0.10975547666E+02  0.37312320196E+03  0.37328852419E+03  0.00000000000E+00 0. -1.
         11    1    1    2    0    0  0.80926219380E+01  0.15604981645E+01 -0.49890274467E+03  0.49897081510E+03  0.00000000000E+00 0.  1.
        -15    1    1    2    0    0  0.19169677410E+01 -0.87655539088E+01  0.26625401325E+02  0.28152787168E+02  0.17770000000E+01 0.  1.
         15    1    1    2    0    0 -0.82961716793E+01 -0.37704919218E+01  0.99154141382E+02  0.99587873539E+02  0.17770000000E+01 0. -1.
</event>
<event>
 6   1  0.1826851E-04  0.5004005E+03  0.7546771E-02  0.9398914E-01
        -11   -1    0    0    0    0  0.00000000000E+00  0.00000000000E+00  0.50000000000E+03  0.50000000000E+03  0.00000000000E+00 0. -1.
         11   -1    0    0    0    0 -0.00000000000E+00 -0.00000000000E+00 -0.50000000000E+03  0.50000000000E+03  0.00000000000E+00 0. -1.
        -11    1    1    2    0    0 -0.49580112886E+01  0.81201647671E+01  0.49950889775E+03  0.49959949748E+03  0.00000000000E+00 0. -1.
         11    1    1    2    0    0  0.71200277039E+00  0.60690830477E+01 -0.34218614330E+03  0.34224070094E+03  0.00000000000E+00 0. -1.
        -15    1    1    2    0    0  0.97497980904E-01 -0.52700768403E+01 -0.36150511920E+02  0.36575954627E+02  0.17770000000E+01 0.  1.
         15    1    1    2    0    0  0.41485105373E+01 -0.89191709745E+01 -0.12117224253E+03  0.12158384695E+03  0.17770000000E+01 0. -1.
</event>
<event>
 6   1  0.1826851E-04  0.5033906E+03  0.7546771E-02  0.9392255E-01
        -11   -1    0    0    0    0  0.00000000000E+00  0.00000000000E+00  0.50000000000E+03  0.50000000000E+03  0.00000000000E+00 0. -1.
         11   -1    0    0    0    0 -0.00000000000E+00 -0.00000000000E+00 -0.50000000000E+03  0.50000000000E+03  0.00000000000E+00 0.  1.
        -11    1    1    2    0    0  0.14443580017E+02  0.47666731893E+01  0.49637642450E+03  0.49660939679E+03  0.00000000000E+00 0. -1.
         11    1    1    2    0    0  0.25046990365E-01  0.75640262086E+01 -0.46703750256E+03  0.46709875178E+03  0.00000000000E+00 0.  1.
        -15    1    1    2    0    0 -0.11438492729E+02 -0.86734141895E+01 -0.13975516939E+02  0.20113180562E+02  0.17770000000E+01 0.  1.
         15    1    1    2    0    0 -0.30301342783E+01 -0.36572852084E+01 -0.15363405002E+02  0.16178670869E+02  0.17770000000E+01 0. -1.
</event>
<event>
 6   1  0.1826851E-04  0.4807822E+03  0.7546771E-02  0.9443869E-01
        -11   -1    0    0    0    0  0.00000000000E+00  0.00000000000E+00  0.50000000000E+03  0.50000000000E+03  0.00000000000E+00 0.  1.
         11   -1    0    0    0    0 -0.00000000000E+00 -0.00000000000E+00 -0.50000000000E+03  0.50000000000E+03  0.00000000000E+00 0.  1.
        -11    1    1    2    0    0  0.13892139218E+02 -0.19059368726E+02  0.47482146241E+03  0.47540684916E+03  0.00000000000E+00 0.  1.
         11    1    1    2    0    0  0.58962742781E+01  0.80934902667E+01 -0.48639006698E+03  0.48649313242E+03  0.00000000000E+00 0.  1.
        -15    1    1    2    0    0 -0.17959772803E+02  0.19841232698E+02  0.10502516096E+02  0.28804314390E+02  0.17770000000E+01 0. -1.
         15    1    1    2    0    0 -0.18286406937E+01 -0.88753542393E+01  0.10660884789E+01  0.92957040242E+01  0.17770000000E+01 0.  1.
</event>
<event>
 6   1  0.1826851E-04  0.5021211E+03  0.7546771E-02  0.9395076E-01
        -11   -1    0    0    0    0  0.00000000000E+00  0.00000000000E+00  0.50000000000E+03  0.50000000000E+03  0.00000000000E+00 0. -1.
         11   -1    0    0    0    0 -0.00000000000E+00 -0.00000000000E+00 -0.50000000000E+03  0.50000000000E+03  0.00000000000E+00 0. -1.
        -11    1    1    2    0    0  0.25572569264E+02 -0.15298808844E+02  0.30690698378E+03  0.30835029843E+03  0.00000000000E+00 0. -1.
         11    1    1    2    0    0  0.65592340842E+01  0.12447320880E+02 -0.49768007908E+03  0.49787892149E+03  0.00000000000E+00 0. -1.
        -15    1    1    2    0    0 -0.25582605217E+02 -0.18187114456E+01  0.14597591796E+03  0.14822248059E+03  0.17770000000E+01 0. -1.
         15    1    1    2    0    0 -0.65491981307E+01  0.46701994094E+01  0.44797177347E+02  0.45548299485E+02  0.17770000000E+01 0.  1.
</event>
<event>
 6   1  0.1826851E-04  0.5023010E+03  0.7546771E-02  0.9394676E-01
        -11   -1    0    0    0    0  0.00000000000E+00  0.00000000000E+00  0.50000000000E+03  0.50000000000E+03  0.00000000000E+00 0. -1.
         11   -1    0    0    0    0 -0.00000000000E+00 -0.00000000000E+00 -0.50000000000E+03  0.50000000000E+03  0.00000000000E+00 0. -1.
        -11    1    1    2    0    0  0.25789861577E+02  0.16273191240E+02  0.49676383916E+03  0.49769895078E+03  0.00000000000E+00 0. -1.
         11    1    1    2    0    0  0.47510281154E+01 -0.28332423216E+01 -0.37261388535E+03  0.37265494372E+03  0.00000000000E+00 0. -1.
        -15    1    1    2    0    0 -0.29982795596E+01 -0.13628961554E+01 -0.29706264535E+01  0.47780243589E+01  0.17770000000E+01 0.  1.
         15    1    1    2    0    0 -0.27542610133E+02 -0.12077052763E+02 -0.12117932736E+03  0.12486808113E+03  0.17770000000E+01 0. -1.
</event>
<event>
 6   1  0.1826851E-04  0.5009649E+03  0.7546771E-02  0.9397653E-01
        -11   -1    0    0    0    0  0.00000000000E+00  0.00000000000E+00  0.50000000000E+03  0.50000000000E+03  0.00000000000E+00 0.  1.
         11   -1    0    0    0    0 -0.00000000000E+00 -0.00000000000E+00 -0.50000000000E+03  0.50000000000E+03  0.00000000000E+00 0.  1.
        -11    1    1    2    0    0 -0.15905052550E+02  0.35969893917E+02  0.34059948766E+03  0.34286267653E+03  0.00000000000E+00 0.  1.
         11    1    1    2    0    0  0.12763801583E+02 -0.25930161902E+02 -0.49819745699E+03  0.49903506298E+03  0.00000000000E+00 0.  1.
        -15    1    1    2    0    0 -0.48389544520E+00 -0.41207564236E+01  0.34213371929E+02  0.34509815068E+02  0.17770000000E+01 0. -1.
         15    1    1    2    0    0  0.36251464117E+01 -0.59189755913E+01  0.12338459741E+03  0.12359244542E+03  0.17770000000E+01 0.  1.
</event>
<event>
 6   1  0.1826851E-04  0.5029842E+03  0.7546771E-02  0.9393157E-01
        -11   -1    0    0    0    0  0.00000000000E+00  0.00000000000E+00  0.50000000000E+03  0.50000000000E+03  0.00000000000E+00 0.  1.
         11   -1    0    0    0    0 -0.00000000000E+00 -0.00000000000E+00 -0.50000000000E+03  0.50000000000E+03  0.00000000000E+00 0.  1.
        -11    1    1    2    0    0 -0.86430936666E+01  0.71727256948E+01  0.47522138366E+03  0.47535409386E+03  0.00000000000E+00 0.  1.
         11    1    1    2    0    0 -0.71782399889E+01 -0.74292893200E+01 -0.49690841565E+03  0.49701578950E+03  0.00000000000E+00 0.  1.
        -15    1    1    2    0    0  0.14176063043E+02  0.94245242515E-02  0.20314954351E+02  0.24835779664E+02  0.17770000000E+01 0. -1.
         15    1    1    2    0    0  0.16452706129E+01  0.24713910095E+00  0.13720776401E+01  0.27943369831E+01  0.17770000000E+01 0.  1.
</event>
<event>
 6   1  0.1826851E-04  0.5002485E+03  0.7546771E-02  0.9399254E-01
        -11   -1    0    0    0    0  0.00000000000E+00  0.00000000000E+00  0.50000000000E+03  0.50000000000E+03  0.00000000000E+00 0.  1.
         11   -1    0    0    0    0 -0.00000000000E+00 -0.00000000000E+00 -0.50000000000E+03  0.50000000000E+03  0.00000000000E+00 0.  1.
        -11    1    1    2    0    0 -0.56426916998E+01  0.63717347071E+01  0.22578933051E+03  0.22594968632E+03  0.00000000000E+00 0.  1.
         11    1    1    2    0    0 -0.75700765978E+01 -0.57654186713E+01 -0.49966093127E+03  0.49975153061E+03  0.00000000000E+00 0.  1.
        -15    1    1    2    0    0  0.78379692138E+01 -0.36618268395E+01  0.14882504632E+03  0.14908687024E+03  0.17770000000E+01 0.  1.
         15    1    1    2    0    0  0.53747990837E+01  0.30555108037E+01  0.12504655444E+03  0.12521191284E+03  0.17770000000E+01 0. -1.
</event>
<event>
 6   1  0.1826851E-04  0.5027024E+03  0.7546771E-02  0.9393783E-01
        -11   -1    0    0    0    0  0.00000000000E+00  0.00000000000E+00  0.50000000000E+03  0.50000000000E+03  0.00000000000E+00 0.  1.
         11   -1    0    0    0    0 -0.00000000000E+00 -0.00000000000E+00 -0.50000000000E+03  0.50000000000E+03  0.00000000000E+00 0.  1.
        -11    1    1    2    0    0 -0.74982522684E+01 -0.90256278242E+01  0.49715915376E+03  0.49729760699E+03  0.00000000000E+00 0.  1.
         11    1    1    2    0    0 -0.65304746634E+01 -0.24303490480E+01 -0.46301311527E+03  0.46306554461E+03  0.00000000000E+00 0.  1.
        -15    1    1    2    0    0  0.66124345130E+01  0.85567755690E+01 -0.13190192130E+02  0.17148807415E+02  0.17770000000E+01 0.  1.
         15    1    1    2    0    0  0.74162924187E+01  0.28992013031E+01 -0.20955846369E+02  0.22488040988E+02  0.17770000000E+01 0. -1.
</event>
<event>
 6   1  0.1826851E-04  0.5012022E+03  0.7546771E-02  0.9397124E-01
        -11   -1    0    0    0    0  0.00000000000E+00  0.00000000000E+00  0.50000000000E+03  0.50000000000E+03  0.00000000000E+00 0. -1.
         11   -1    0    0    0    0 -0.00000000000E+00 -0.00000000000E+00 -0.50000000000E+03  0.50000000000E+03  0.00000000000E+00 0.  1.
        -11    1    1    2    0    0  0.20976587264E+01 -0.87565100393E+01  0.47372543112E+03  0.47381099685E+03  0.00000000000E+00 0. -1.
         11    1    1    2    0    0 -0.67875194643E+01  0.54883110956E+01 -0.49872138202E+03  0.49879776349E+03  0.00000000000E+00 0.  1.
        -15    1    1    2    0    0  0.69722320975E+01  0.25236687474E+01  0.21393087183E+02  0.22711293063E+02  0.17770000000E+01 0. -1.
         15    1    1    2    0    0 -0.22823713596E+01  0.74453019625E+00  0.36028637124E+01  0.46799465987E+01  0.17770000000E+01 0.  1.
</event>
<event>
 6   1  0.1826851E-04  0.5002301E+03  0.7546771E-02  0.9399295E-01
        -11   -1    0    0    0    0  0.00000000000E+00  0.00000000000E+00  0.50000000000E+03  0.50000000000E+03  0.00000000000E+00 0.  1.
         11   -1    0    0    0    0 -0.00000000000E+00 -0.00000000000E+00 -0.50000000000E+03  0.50000000000E+03  0.00000000000E+00 0.  1.
        -11    1    1    2    0    0 -0.67007144454E+00  0.23965159347E+01  0.76348112894E+01  0.80301075828E+01  0.00000000000E+00 0.  1.
         11    1    1    2    0    0  0.72624265265E+01 -0.37754761778E+00 -0.49971700023E+03  0.49976991276E+03  0.00000000000E+00 0.  1.
        -15    1    1    2    0    0 -0.63104499934E+01 -0.39675959796E+01  0.41819903046E+03  0.41826923196E+03  0.17770000000E+01 0.  1.
         15    1    1    2    0    0 -0.28190508856E+00  0.19486276626E+01  0.73883158472E+02  0.73930747697E+02  0.17770000000E+01 0.  1.
</event>
<event>
 6   1  0.1826851E-04  0.4954481E+03  0.7546771E-02  0.9410053E-01
        -11   -1    0    0    0    0  0.00000000000E+00  0.00000000000E+00  0.50000000000E+03  0.50000000000E+03  0.00000000000E+00 0.  1.
         11   -1    0    0    0    0 -0.00000000000E+00 -0.00000000000E+00 -0.50000000000E+03  0.50000000000E+03  0.00000000000E+00 0. -1.
        -11    1    1    2    0    0 -0.42013696395E+01 -0.52995884128E+01  0.49681586759E+03  0.49686189573E+03  0.00000000000E+00 0.  1.
         11    1    1    2    0    0  0.72613326342E+01  0.99467799771E+00 -0.49399805361E+03  0.49405241960E+03  0.00000000000E+00 0. -1.
        -15    1    1    2    0    0 -0.45587958774E+01  0.18918347651E+01 -0.21483947340E+01  0.56687730210E+01  0.17770000000E+01 0. -1.
         15    1    1    2    0    0  0.14988328828E+01  0.24130756501E+01 -0.66941924052E+00  0.34169116499E+01  0.17770000000E+01 0.  1.
</event>
<event>
 6   1  0.1826851E-04  0.5001720E+03  0.7546771E-02  0.9399425E-01
        -11   -1    0    0    0    0  0.00000000000E+00  0.00000000000E+00  0.50000000000E+03  0.50000000000E+03  0.00000000000E+00 0.  1.
         11   -1    0    0    0    0 -0.00000000000E+00 -0.00000000000E+00 -0.50000000000E+03  0.50000000000E+03  0.00000000000E+00 0. -1.
        -11    1    1    2    0    0  0.11702718247E+02  0.95507955968E+01  0.49959973339E+03  0.49982803534E+03  0.00000000000E+00 0.  1.
         11    1    1    2    0    0 -0.21234201922E+01  0.28341217298E+01 -0.11054434887E+03  0.11060105889E+03  0.00000000000E+00 0. -1.
        -15    1    1    2    0    0  0.22424783320E+00 -0.90242238728E+01 -0.14737562818E+03  0.14766252203E+03  0.17770000000E+01 0. -1.
         15    1    1    2    0    0 -0.98035458882E+01 -0.33606934538E+01 -0.24167975634E+03  0.24190838374E+03  0.17770000000E+01 0.  1.
</event>
<event>
 6   1  0.1826851E-04  0.5005895E+03  0.7546771E-02  0.9398492E-01
        -11   -1    0    0    0    0  0.00000000000E+00  0.00000000000E+00  0.50000000000E+03  0.50000000000E+03  0.00000000000E+00 0. -1.
         11   -1    0    0    0    0 -0.00000000000E+00 -0.00000000000E+00 -0.50000000000E+03  0.50000000000E+03  0.00000000000E+00 0.  1.
        -11    1    1    2    0    0 -0.14362577209E+02 -0.22734295723E+01  0.49919874012E+03  0.49941048672E+03  0.00000000000E+00 0. -1.
         11    1    1    2    0    0 -0.12788706199E+01 -0.65322779076E+01 -0.26643827435E+03  0.26652140665E+03  0.00000000000E+00 0.  1.
        -15    1    1    2    0    0  0.70249846167E+01  0.62266859773E+01 -0.19411763282E+03  0.19435260515E+03  0.17770000000E+01 0.  1.
         15    1    1    2    0    0  0.86164632119E+01  0.25790215026E+01 -0.38642832955E+02  0.39715501482E+02  0.17770000000E+01 0. -1.
</event>
<event>
 6   1  0.1826851E-04  0.5003900E+03  0.7546771E-02  0.9398937E-01
        -11   -1    0    0    0    0  0.00000000000E+00  0.00000000000E+00  0.50000000000E+03  0.50000000000E+03  0.00000000000E+00 0. -1.
         11   -1    0    0    0    0 -0.00000000000E+00 -0.00000000000E+00 -0.50000000000E+03  0.50000000000E+03  0.00000000000E+00 0.  1.
        -11    1    1    2    0    0 -0.16323364908E+02 -0.14704557732E+01  0.25588311403E+03  0.25640745412E+03  0.00000000000E+00 0. -1.
         11    1    1    2    0    0  0.46277827296E+02  0.13755319238E+02 -0.49727181886E+03  0.49960995581E+03  0.00000000000E+00 0.  1.
        -15    1    1    2    0    0 -0.22998156134E+02 -0.13637273466E+02  0.21256614307E+03  0.21424848499E+03  0.17770000000E+01 0. -1.
         15    1    1    2    0    0 -0.69563062538E+01  0.13524100013E+01  0.28822561759E+02  0.29734105079E+02  0.17770000000E+01 0.  1.
</event>
<event>
 6   1  0.1826851E-04  0.5003577E+03  0.7546771E-02  0.9399010E-01
        -11   -1    0    0    0    0  0.00000000000E+00  0.00000000000E+00  0.50000000000E+03  0.50000000000E+03  0.00000000000E+00 0.  1.
         11   -1    0    0    0    0 -0.00000000000E+00 -0.00000000000E+00 -0.50000000000E+03  0.50000000000E+03  0.00000000000E+00 0. -1.
        -11    1    1    2    0    0 -0.76884892660E+01  0.40216497958E+01  0.49956691532E+03  0.49964226144E+03  0.00000000000E+00 0.  1.
         11    1    1    2    0    0 -0.45504341234E+01 -0.54274081919E+01 -0.36520088362E+03  0.36526955609E+03  0.00000000000E+00 0. -1.
        -15    1    1    2    0    0  0.96034526222E+01 -0.76202935234E+00 -0.82482006761E+02  0.83061700918E+02  0.17770000000E+01 0.  1.
         15    1    1    2    0    0  0.26354707673E+01  0.21677877485E+01 -0.51884024940E+02  0.52026481554E+02  0.17770000000E+01 0. -1.
</event>
<event>
 6   1  0.1826851E-04  0.5027632E+03  0.7546771E-02  0.9393648E-01
        -11   -1    0    0    0    0  0.00000000000E+00  0.00000000000E+00  0.50000000000E+03  0.50000000000E+03  0.00000000000E+00 0. -1.
         11   -1    0    0    0    0 -0.00000000000E+00 -0.00000000000E+00 -0.50000000000E+03  0.50000000000E+03  0.00000000000E+00 0.  1.
        -11    1    1    2    0    0 -0.11366321239E+03 -0.17642851668E+03  0.45077497307E+03  0.49723678835E+03  0.00000000000E+00 0. -1.
         11    1    1    2    0    0  0.12346229720E+03  0.16774024162E+03 -0.42133138453E+03  0.46999985434E+03  0.00000000000E+00 0.  1.
        -15    1    1    2    0    0 -0.74409003511E+01  0.48030413825E+01 -0.14914430939E+02  0.17436576034E+02  0.17770000000E+01 0.  1.
         15    1    1    2    0    0 -0.23581844554E+01  0.38852336789E+01 -0.14529157598E+02  0.15326781273E+02  0.17770000000E+01 0. -1.
</event>
<event>
 6   1  0.1826851E-04  0.5000873E+03  0.7546771E-02  0.9399614E-01
        -11   -1    0    0    0    0  0.00000000000E+00  0.00000000000E+00  0.50000000000E+03  0.50000000000E+03  0.00000000000E+00 0.  1.
         11   -1    0    0    0    0 -0.00000000000E+00 -0.00000000000E+00 -0.50000000000E+03  0.50000000000E+03  0.00000000000E+00 0.  1.
        -11    1    1    2    0    0 -0.10453437838E+01  0.24734283785E+00  0.51571263251E+01  0.52678149207E+01  0.00000000000E+00 0.  1.
         11    1    1    2    0    0 -0.75191260616E+01  0.55851619750E+01 -0.49982496983E+03  0.49991272414E+03  0.00000000000E+00 0.  1.
        -15    1    1    2    0    0  0.67075629030E+01 -0.34995103032E+01  0.41897554897E+03  0.41904761822E+03  0.17770000000E+01 0.  1.
         15    1    1    2    0    0  0.18569069424E+01 -0.23329945097E+01  0.75692294544E+02  0.75771842720E+02  0.17770000000E+01 0. -1.
</event>
<event>
 6   1  0.1826851E-04  0.4771484E+03  0.7546771E-02  0.9452446E-01
        -11   -1    0    0    0    0  0.00000000000E+00  0.00000000000E+00  0.50000000000E+03  0.50000000000E+03  0.00000000000E+00 0.  1.
         11   -1    0    0    0    0 -0.00000000000E+00 -0.00000000000E+00 -0.50000000000E+03  0.50000000000E+03  0.00000000000E+00 0. -1.
        -11    1    1    2    0    0  0.21877167155E+02 -0.27190735365E+02  0.47919479654E+03  0.48046394200E+03  0.00000000000E+00 0.  1.
         11    1    1    2    0    0  0.13675432689E+02  0.30279035433E+01 -0.47460489206E+03  0.47481153022E+03  0.00000000000E+00 0. -1.
        -15    1    1    2    0    0 -0.11141674760E+02  0.10361765263E+02  0.30207988039E+01  0.15613649485E+02  0.17770000000E+01 0.  1.
         15    1    1    2    0    0 -0.24410925085E+02  0.13801066559E+02 -0.76107032859E+01  0.29110878296E+02  0.17770000000E+01 0. -1.
</event>
<event>
 6   1  0.1826851E-04  0.5007551E+03  0.7546771E-02  0.9398122E-01
        -11   -1    0    0    0    0  0.00000000000E+00  0.00000000000E+00  0.50000000000E+03  0.50000000000E+03  0.00000000000E+00 0.  1.
         11   -1    0    0    0    0 -0.00000000000E+00 -0.00000000000E+00 -0.50000000000E+03  0.50000000000E+03  0.00000000000E+00 0.  1.
        -11    1    1    2    0    0 -0.76339086777E+01 -0.92417855528E+00  0.46187494101E+03  0.46193894813E+03  0.00000000000E+00 0.  1.
         11    1    1    2    0    0  0.73893983788E+01  0.37757259423E+00 -0.49919009030E+03  0.49924492188E+03  0.00000000000E+00 0.  1.
        -15    1    1    2    0    0 -0.46381486702E+01 -0.10037941821E+01  0.14313784463E+02  0.15184274118E+02  0.17770000000E+01 0. -1.
         15    1    1    2    0    0  0.48826589690E+01  0.15504001431E+01  0.23001364825E+02  0.23631855873E+02  0.17770000000E+01 0.  1.
</event>
<event>
 6   1  0.1826851E-04  0.5054918E+03  0.7546771E-02  0.9387605E-01
        -11   -1    0    0    0    0  0.00000000000E+00  0.00000000000E+00  0.50000000000E+03  0.50000000000E+03  0.00000000000E+00 0.  1.
         11   -1    0    0    0    0 -0.00000000000E+00 -0.00000000000E+00 -0.50000000000E+03  0.50000000000E+03  0.00000000000E+00 0. -1.
        -11    1    1    2    0    0  0.18689750826E+02 -0.38202529422E+02  0.40983572259E+03  0.41203647843E+03  0.00000000000E+00 0.  1.
         11    1    1    2    0    0  0.34564797848E+01  0.11432982271E+02 -0.49436394312E+03  0.49450820882E+03  0.00000000000E+00 0. -1.
        -15    1    1    2    0    0 -0.98523826933E+01  0.25300180807E+02  0.54112320280E+02  0.60567891895E+02  0.17770000000E+01 0.  1.
         15    1    1    2    0    0 -0.12293847917E+02  0.14693663447E+01  0.30415900244E+02  0.32887420858E+02  0.17770000000E+01 0. -1.
</event>
<event>
 6   1  0.1826851E-04  0.5010787E+03  0.7546771E-02  0.9397399E-01
        -11   -1    0    0    0    0  0.00000000000E+00  0.00000000000E+00  0.50000000000E+03  0.50000000000E+03  0.00000000000E+00 0. -1.
         11   -1    0    0    0    0 -0.00000000000E+00 -0.00000000000E+00 -0.50000000000E+03  0.50000000000E+03  0.00000000000E+00 0. -1.
        -11    1    1    2    0    0  0.15991351476E+02  0.15515433653E+02  0.49842348029E+03  0.49892125402E+03  0.00000000000E+00 0. -1.
         11    1    1    2    0    0  0.33997935718E+01 -0.26275425727E+01 -0.31242444129E+03  0.31245398716E+03  0.00000000000E+00 0. -1.
        -15    1    1    2    0    0 -0.14153271092E+02 -0.15905529483E+02 -0.93435315828E+02  0.95846840969E+02  0.17770000000E+01 0. -1.
         15    1    1    2    0    0 -0.52378739558E+01  0.30176384032E+01 -0.92563723172E+02  0.92777917855E+02  0.17770000000E+01 0.  1.
</event>
<event>
 6   1  0.1826851E-04  0.4963548E+03  0.7546771E-02  0.9408003E-01
        -11   -1    0    0    0    0  0.00000000000E+00  0.00000000000E+00  0.50000000000E+03  0.50000000000E+03  0.00000000000E+00 0.  1.
         11   -1    0    0    0    0 -0.00000000000E+00 -0.00000000000E+00 -0.50000000000E+03  0.50000000000E+03  0.00000000000E+00 0. -1.
        -11    1    1    2    0    0  0.66027069248E+01 -0.23174936553E+01  0.20933036480E+01  0.73040013513E+01  0.00000000000E+00 0.  1.
         11    1    1    2    0    0 -0.11586735123E+02  0.51487256587E+01 -0.49727702381E+03  0.49743863965E+03  0.00000000000E+00 0. -1.
        -15    1    1    2    0    0  0.52532579410E+01 -0.71426297882E+00  0.37419324128E+03  0.37423501498E+03  0.17770000000E+01 0.  1.
         15    1    1    2    0    0 -0.26922974246E+00 -0.21169690246E+01  0.12099047889E+03  0.12102234402E+03  0.17770000000E+01 0. -1.
</event>
<event>
 6   1  0.1826851E-04  0.5013245E+03  0.7546771E-02  0.9396851E-01
        -11   -1    0    0    0    0  0.00000000000E+00  0.00000000000E+00  0.50000000000E+03  0.50000000000E+03  0.00000000000E+00 0.  1.
         11   -1    0    0    0    0 -0.00000000000E+00 -0.00000000000E+00 -0.50000000000E+03  0.50000000000E+03  0.00000000000E+00 0. -1.
        -11    1    1    2    0    0  0.12473725192E+02 -0.11738220062E+02  0.32915249952E+03  0.32959785735E+03  0.00000000000E+00 0.  1.
         11    1    1    2    0    0 -0.18262620826E+02  0.19277316219E+02 -0.49796799821E+03  0.49867551121E+03  0.00000000000E+00 0. -1.
        -15    1    1    2    0    0 -0.11793562415E+02 -0.27627805596E+01  0.89041580734E+02  0.89879262900E+02  0.17770000000E+01 0. -1.
         15    1    1    2    0    0  0.17582458049E+02 -0.47763155979E+01  0.79773917958E+02  0.81847368541E+02  0.17770000000E+01 0.  1.
</event>
<event>
 6   1  0.1826851E-04  0.5026604E+03  0.7546771E-02  0.9393876E-01
        -11   -1    0    0    0    0  0.00000000000E+00  0.00000000000E+00  0.50000000000E+03  0.50000000000E+03  0.00000000000E+00 0. -1.
         11   -1    0    0    0    0 -0.00000000000E+00 -0.00000000000E+00 -0.50000000000E+03  0.50000000000E+03  0.00000000000E+00 0. -1.
        -11    1    1    2    0    0 -0.56541591945E+01 -0.24108840506E+02  0.28482993977E+03  0.28590435516E+03  0.00000000000E+00 0. -1.
         11    1    1    2    0    0 -0.52901340338E+01 -0.52732783302E+01 -0.49728349206E+03  0.49733958666E+03  0.00000000000E+00 0. -1.
        -15    1    1    2    0    0  0.97022748046E+01  0.62856438564E+00  0.21820901051E+02  0.23954930208E+02  0.17770000000E+01 0.  1.
         15    1    1    2    0    0  0.12420184237E+01  0.28753554451E+02  0.19063265124E+03  0.19280112798E+03  0.17770000000E+01 0. -1.
</event>
<event>
 6   1  0.1826851E-04  0.5001492E+03  0.7546771E-02  0.9399476E-01
        -11   -1    0    0    0    0  0.00000000000E+00  0.00000000000E+00  0.50000000000E+03  0.50000000000E+03  0.00000000000E+00 0. -1.
         11   -1    0    0    0    0 -0.00000000000E+00 -0.00000000000E+00 -0.50000000000E+03  0.50000000000E+03  0.00000000000E+00 0. -1.
        -11    1    1    2    0    0 -0.54746037179E+00 -0.40727357736E+01  0.38548316747E+02  0.38766733337E+02  0.00000000000E+00 0. -1.
         11    1    1    2    0    0 -0.15866076492E+01  0.72311571198E+01 -0.49979602150E+03  0.49985084782E+03  0.00000000000E+00 0. -1.
        -15    1    1    2    0    0 -0.33874754379E+01  0.47261850241E+00  0.23387167247E+03  0.23390343151E+03  0.17770000000E+01 0.  1.
         15    1    1    2    0    0  0.55215434589E+01 -0.36310398486E+01  0.22737603229E+03  0.22747898734E+03  0.17770000000E+01 0. -1.
</event>
<event>
 6   1  0.1826851E-04  0.5001756E+03  0.7546771E-02  0.9399417E-01
        -11   -1    0    0    0    0  0.00000000000E+00  0.00000000000E+00  0.50000000000E+03  0.50000000000E+03  0.00000000000E+00 0.  1.
         11   -1    0    0    0    0 -0.00000000000E+00 -0.00000000000E+00 -0.50000000000E+03  0.50000000000E+03  0.00000000000E+00 0. -1.
        -11    1    1    2    0    0  0.29579005977E+01 -0.28585718048E+02  0.34888125600E+03  0.35006288469E+03  0.00000000000E+00 0.  1.
         11    1    1    2    0    0  0.22699861049E+01  0.32378871336E+02 -0.49876936001E+03  0.49982438779E+03  0.00000000000E+00 0. -1.
        -15    1    1    2    0    0 -0.35394781758E+01 -0.10148406537E+01  0.54717946600E+02  0.54870476729E+02  0.17770000000E+01 0. -1.
         15    1    1    2    0    0 -0.16884085268E+01 -0.27783126344E+01  0.95170157410E+02  0.95242250787E+02  0.17770000000E+01 0. -1.
</event>
<event>
 6   1  0.1826851E-04  0.5094418E+03  0.7546771E-02  0.9378927E-01
        -11   -1    0    0    0    0  0.00000000000E+00  0.00000000000E+00  0.50000000000E+03  0.50000000000E+03  0.00000000000E+00 0. -1.
         11   -1    0    0    0    0 -0.00000000000E+00 -0.00000000000E+00 -0.50000000000E+03  0.50000000000E+03  0.00000000000E+00 0. -1.
        -11    1    1    2    0    0 -0.16330387602E+02 -0.86756894361E+01  0.49020950734E+03  0.49055816193E+03  0.00000000000E+00 0. -1.
         11    1    1    2    0    0  0.10492468771E+02 -0.64826191054E+01 -0.47459156245E+03  0.47475179558E+03  0.00000000000E+00 0. -1.
        -15    1    1    2    0    0  0.15953318926E+02  0.12548201094E+02 -0.10541369890E+02  0.22940007490E+02  0.17770000000E+01 0.  1.
         15    1    1    2    0    0 -0.10115400096E+02  0.26101074474E+01 -0.50765749958E+01  0.11750035007E+02  0.17770000000E+01 0. -1.
</event>
<event>
 6   1  0.1826851E-04  0.5083187E+03  0.7546771E-02  0.9381386E-01
        -11   -1    0    0    0    0  0.00000000000E+00  0.00000000000E+00  0.50000000000E+03  0.50000000000E+03  0.00000000000E+00 0.  1.
         11   -1    0    0    0    0 -0.00000000000E+00 -0.00000000000E+00 -0.50000000000E+03  0.50000000000E+03  0.00000000000E+00 0. -1.
        -11    1    1    2    0    0  0.53397066400E+02  0.98542235771E+01  0.48867390338E+03  0.49168133610E+03  0.00000000000E+00 0.  1.
         11    1    1    2    0    0  0.70297628953E+01  0.23968014977E+01 -0.39007406693E+03  0.39014476790E+03  0.00000000000E+00 0. -1.
        -15    1    1    2    0    0 -0.53840460079E+02 -0.17364888800E+02 -0.84843870162E+02  0.10199007078E+03  0.17770000000E+01 0. -1.
         15    1    1    2    0    0 -0.65863692158E+01  0.51138637254E+01 -0.13755966284E+02  0.16183825229E+02  0.17770000000E+01 0.  1.
</event>
<event>
 6   1  0.1826851E-04  0.5036923E+03  0.7546771E-02  0.9391586E-01
        -11   -1    0    0    0    0  0.00000000000E+00  0.00000000000E+00  0.50000000000E+03  0.50000000000E+03  0.00000000000E+00 0. -1.
         11   -1    0    0    0    0 -0.00000000000E+00 -0.00000000000E+00 -0.50000000000E+03  0.50000000000E+03  0.00000000000E+00 0.  1.
        -11    1    1    2    0    0 -0.14176806478E+02  0.41488497121E+01  0.49608786196E+03  0.49630772871E+03  0.00000000000E+00 0. -1.
         11    1    1    2    0    0 -0.81223602984E+00 -0.21026282748E+02 -0.38557407319E+03  0.38614780876E+03  0.00000000000E+00 0.  1.
        -15    1    1    2    0    0  0.94065998823E+01 -0.26246536903E+01 -0.81475453814E+02  0.82077891247E+02  0.17770000000E+01 0. -1.
         15    1    1    2    0    0  0.55824426258E+01  0.19502086726E+02 -0.29038334960E+02  0.35466571283E+02  0.17770000000E+01 0.  1.
</event>
<event>
 6   1  0.1826851E-04  0.5020611E+03  0.7546771E-02  0.9395210E-01
        -11   -1    0    0    0    0  0.00000000000E+00  0.00000000000E+00  0.50000000000E+03  0.50000000000E+03  0.00000000000E+00 0.  1.
         11   -1    0    0    0    0 -0.00000000000E+00 -0.00000000000E+00 -0.50000000000E+03  0.50000000000E+03  0.00000000000E+00 0.  1.
        -11    1    1    2    0    0 -0.20513629942E+02 -0.52376233428E+02  0.49475147346E+03  0.49793885100E+03  0.00000000000E+00 0.  1.
         11    1    1    2    0    0 -0.34818579782E+01  0.34623991945E+01 -0.27291820666E+03  0.27296237666E+03  0.00000000000E+00 0.  1.
        -15    1    1    2    0    0  0.16032485661E+02  0.45618318307E+02 -0.18399801835E+03  0.19025377801E+03  0.17770000000E+01 0.  1.
         15    1    1    2    0    0  0.79630022595E+01  0.32955159265E+01 -0.37835248448E+02  0.38844994327E+02  0.17770000000E+01 0. -1.
</event>
<event>
 6   1  0.1826851E-04  0.5031313E+03  0.7546771E-02  0.9392830E-01
        -11   -1    0    0    0    0  0.00000000000E+00  0.00000000000E+00  0.50000000000E+03  0.50000000000E+03  0.00000000000E+00 0. -1.
         11   -1    0    0    0    0 -0.00000000000E+00 -0.00000000000E+00 -0.50000000000E+03  0.50000000000E+03  0.00000000000E+00 0. -1.
        -11    1    1    2    0    0  0.17129342845E+02 -0.32052749387E+02  0.38806998927E+03  0.38976802037E+03  0.00000000000E+00 0. -1.
         11    1    1    2    0    0  0.50967957796E+01  0.19824900573E+02 -0.49644685014E+03  0.49686867382E+03  0.00000000000E+00 0. -1.
        -15    1    1    2    0    0 -0.70314484042E+01 -0.11804755530E+01  0.65440309808E+02  0.65851550217E+02  0.17770000000E+01 0. -1.
         15    1    1    2    0    0 -0.15194690220E+02  0.13408324367E+02  0.42936551067E+02  0.47511755595E+02  0.17770000000E+01 0.  1.
</event>
<event>
 6   1  0.1826851E-04  0.5051461E+03  0.7546771E-02  0.9388368E-01
        -11   -1    0    0    0    0  0.00000000000E+00  0.00000000000E+00  0.50000000000E+03  0.50000000000E+03  0.00000000000E+00 0.  1.
         11   -1    0    0    0    0 -0.00000000000E+00 -0.00000000000E+00 -0.50000000000E+03  0.50000000000E+03  0.00000000000E+00 0.  1.
        -11    1    1    2    0    0  0.22782585497E+00  0.11106790945E+02  0.49472916618E+03  0.49485387801E+03  0.00000000000E+00 0.  1.
         11    1    1    2    0    0  0.35517227143E+01  0.58057021617E+01 -0.48104368299E+03  0.48109182684E+03  0.00000000000E+00 0.  1.
        -15    1    1    2    0    0 -0.49108920388E+01 -0.39660961499E+01 -0.57663677539E+01  0.87324398286E+01  0.17770000000E+01 0. -1.
         15    1    1    2    0    0  0.11313434696E+01 -0.12946396957E+02 -0.79191154410E+01  0.15321855324E+02  0.17770000000E+01 0.  1.
</event>
<event>
 6   1  0.1826851E-04  0.4813464E+03  0.7546771E-02  0.9442544E-01
        -11   -1    0    0    0    0  0.00000000000E+00  0.00000000000E+00  0.50000000000E+03  0.50000000000E+03  0.00000000000E+00 0.  1.
         11   -1    0    0    0    0 -0.00000000000E+00 -0.00000000000E+00 -0.50000000000E+03  0.50000000000E+03  0.00000000000E+00 0.  1.
        -11    1    1    2    0    0 -0.27502316081E+02  0.16719726457E+02  0.47488840602E+03  0.47597786169E+03  0.00000000000E+00 0.  1.
         11    1    1    2    0    0  0.11639808882E+02  0.36296827969E+01 -0.48698396487E+03  0.48713657406E+03  0.00000000000E+00 0.  1.
        -15    1    1    2    0    0  0.16455303347E+02 -0.65343621135E+01 -0.91302560663E+00  0.17817582362E+02  0.17770000000E+01 0. -1.
         15    1    1    2    0    0 -0.59279614801E+00 -0.13815047141E+02  0.13008584452E+02  0.19067981886E+02  0.17770000000E+01 0.  1.
</event>
<event>
 6   1  0.1826851E-04  0.5010150E+03  0.7546771E-02  0.9397541E-01
        -11   -1    0    0    0    0  0.00000000000E+00  0.00000000000E+00  0.50000000000E+03  0.50000000000E+03  0.00000000000E+00 0. -1.
         11   -1    0    0    0    0 -0.00000000000E+00 -0.00000000000E+00 -0.50000000000E+03  0.50000000000E+03  0.00000000000E+00 0.  1.
        -11    1    1    2    0    0  0.34854167327E+01 -0.19048110642E+02  0.13627742456E+03  0.13764634064E+03  0.00000000000E+00 0. -1.
         11    1    1    2    0    0  0.16719755154E+02  0.41915852626E+01 -0.49868718245E+03  0.49898499530E+03  0.00000000000E+00 0.  1.
        -15    1    1    2    0    0 -0.86302620436E+01  0.73226983659E+01  0.21421379193E+03  0.21451995179E+03  0.17770000000E+01 0.  1.
         15    1    1    2    0    0 -0.11574909844E+02  0.75338270136E+01  0.14819596596E+03  0.14884871226E+03  0.17770000000E+01 0. -1.
</event>
<event>
 6   1  0.1826851E-04  0.5027474E+03  0.7546771E-02  0.9393683E-01
        -11   -1    0    0    0    0  0.00000000000E+00  0.00000000000E+00  0.50000000000E+03  0.50000000000E+03  0.00000000000E+00 0.  1.
         11   -1    0    0    0    0 -0.00000000000E+00 -0.00000000000E+00 -0.50000000000E+03  0.50000000000E+03  0.00000000000E+00 0.  1.
        -11    1    1    2    0    0 -0.19603654324E+02 -0.64450932789E+01  0.38499102231E+03  0.38554368072E+03  0.00000000000E+00 0.  1.
         11    1    1    2    0    0 -0.59643834183E+01 -0.43048643456E+01 -0.49719816985E+03  0.49725257750E+03  0.00000000000E+00 0.  1.
        -15    1    1    2    0    0  0.26453917135E+02  0.85484310578E+01  0.11009212924E+03  0.11356196571E+03  0.17770000000E+01 0.  1.
         15    1    1    2    0    0 -0.88587939269E+00  0.22015265667E+01  0.21150183039E+01  0.36417760706E+01  0.17770000000E+01 0. -1.
</event>
<event>
 6   1  0.1826851E-04  0.5003676E+03  0.7546771E-02  0.9398988E-01
        -11   -1    0    0    0    0  0.00000000000E+00  0.00000000000E+00  0.50000000000E+03  0.50000000000E+03  0.00000000000E+00 0. -1.
         11   -1    0    0    0    0 -0.00000000000E+00 -0.00000000000E+00 -0.50000000000E+03  0.50000000000E+03  0.00000000000E+00 0. -1.
        -11    1    1    2    0    0 -0.12096844628E+00  0.13462724444E+02  0.49945097485E+03  0.49963240073E+03  0.00000000000E+00 0. -1.
         11    1    1    2    0    0  0.34109712680E+01  0.70451353668E+01 -0.15612929572E+03  0.15632538387E+03  0.00000000000E+00 0. -1.
        -15    1    1    2    0    0 -0.43543770173E+01 -0.17035432140E+02 -0.24450768185E+03  0.24514552975E+03  0.17770000000E+01 0. -1.
         15    1    1    2    0    0  0.10643741956E+01 -0.34724276713E+01 -0.98813997275E+02  0.98896685651E+02  0.17770000000E+01 0.  1.
</event>
<event>
 6   1  0.1826851E-04  0.4616703E+03  0.7546771E-02  0.9489912E-01
        -11   -1    0    0    0    0  0.00000000000E+00  0.00000000000E+00  0.50000000000E+03  0.50000000000E+03  0.00000000000E+00 0.  1.
         11   -1    0    0    0    0 -0.00000000000E+00 -0.00000000000E+00 -0.50000000000E+03  0.50000000000E+03  0.00000000000E+00 0. -1.
        -11    1    1    2    0    0 -0.48760029189E+02  0.41076614569E+02  0.45332800030E+03  0.45778936704E+03  0.00000000000E+00 0.  1.
         11    1    1    2    0    0  0.12278785179E+02  0.97452842141E+01 -0.46751418835E+03  0.46777692914E+03  0.00000000000E+00 0. -1.
        -15    1    1    2    0    0  0.34893855190E+02 -0.39028903467E+02  0.25193695041E+02  0.58126727369E+02  0.17770000000E+01 0. -1.
         15    1    1    2    0    0  0.15873888207E+01 -0.11792995316E+02 -0.11007506998E+02  0.16306976455E+02  0.17770000000E+01 0.  1.
</event>
<event>
 6   1  0.1826851E-04  0.5024441E+03  0.7546771E-02  0.9394357E-01
        -11   -1    0    0    0    0  0.00000000000E+00  0.00000000000E+00  0.50000000000E+03  0.50000000000E+03  0.00000000000E+00 0.  1.
         11   -1    0    0    0    0 -0.00000000000E+00 -0.00000000000E+00 -0.50000000000E+03  0.50000000000E+03  0.00000000000E+00 0. -1.
        -11    1    1    2    0    0 -0.14174652501E+02  0.51911727245E+01  0.46593488348E+03  0.46617934821E+03  0.00000000000E+00 0.  1.
         11    1    1    2    0    0  0.45884050533E+01  0.56140550366E+01 -0.49750302971E+03  0.49755586183E+03  0.00000000000E+00 0. -1.
        -15    1    1    2    0    0 -0.58904204028E+00 -0.28215499444E+01  0.13841276334E+02  0.14249448206E+02  0.17770000000E+01 0. -1.
         15    1    1    2    0    0  0.10175289488E+02 -0.79836778167E+01  0.17726869890E+02  0.22015341758E+02  0.17770000000E+01 0.  1.
</event>
<event>
 6   1  0.1826851E-04  0.5040179E+03  0.7546771E-02  0.9390864E-01
        -11   -1    0    0    0    0  0.00000000000E+00  0.00000000000E+00  0.50000000000E+03  0.50000000000E+03  0.00000000000E+00 0. -1.
         11   -1    0    0    0    0 -0.00000000000E+00 -0.00000000000E+00 -0.50000000000E+03  0.50000000000E+03  0.00000000000E+00 0.  1.
        -11    1    1    2    0    0 -0.17842181218E+02  0.10959255170E+02  0.49553986583E+03  0.49598206352E+03  0.00000000000E+00 0. -1.
         11    1    1    2    0    0  0.63766482097E+01  0.15912946874E+01 -0.46537980394E+03  0.46542620874E+03  0.00000000000E+00 0.  1.
        -15    1    1    2    0    0  0.97636081681E+01  0.84563618453E+00 -0.16688047263E+02  0.19434294314E+02  0.17770000000E+01 0. -1.
         15    1    1    2    0    0  0.17019248404E+01 -0.13396186042E+02 -0.13472014627E+02  0.19157433433E+02  0.17770000000E+01 0. -1.
</event>
<event>
 6   1  0.1826851E-04  0.5003487E+03  0.7546771E-02  0.9399030E-01
        -11   -1    0    0    0    0  0.00000000000E+00  0.00000000000E+00  0.50000000000E+03  0.50000000000E+03  0.00000000000E+00 0. -1.
         11   -1    0    0    0    0 -0.00000000000E+00 -0.00000000000E+00 -0.50000000000E+03  0.50000000000E+03  0.00000000000E+00 0.  1.
        -11    1    1    2    0    0  0.55813114054E+01  0.24257854455E+01  0.39447988366E+03  0.39452682303E+03  0.00000000000E+00 0. -1.
         11    1    1    2    0    0  0.45747180234E+01 -0.65559043101E+01 -0.49958733722E+03  0.49965129384E+03  0.00000000000E+00 0.  1.
        -15    1    1    2    0    0 -0.62117071761E+01  0.42161237046E+01  0.56900132529E+02  0.57420761193E+02  0.17770000000E+01 0.  1.
         15    1    1    2    0    0 -0.39443222528E+01 -0.86004840081E-01  0.48207321029E+02  0.48401121936E+02  0.17770000000E+01 0. -1.
</event>
<event>
 6   1  0.1826851E-04  0.5015889E+03  0.7546771E-02  0.9396261E-01
        -11   -1    0    0    0    0  0.00000000000E+00  0.00000000000E+00  0.50000000000E+03  0.50000000000E+03  0.00000000000E+00 0. -1.
         11   -1    0    0    0    0 -0.00000000000E+00 -0.00000000000E+00 -0.50000000000E+03  0.50000000000E+03  0.00000000000E+00 0.  1.
        -11    1    1    2    0    0 -0.12684549105E+02  0.28359574051E+02  0.49744194159E+03  0.49841112395E+03  0.00000000000E+00 0. -1.
         11    1    1    2    0    0  0.44349081846E+01 -0.28715756296E+00 -0.26293484548E+03  0.26297240129E+03  0.00000000000E+00 0.  1.
        -15    1    1    2    0    0  0.13524066002E+02 -0.29162091201E+02 -0.12898751136E+03  0.13294458899E+03  0.17770000000E+01 0.  1.
         15    1    1    2    0    0 -0.52744250813E+01  0.10896747126E+01 -0.10551958474E+03  0.10567188578E+03  0.17770000000E+01 0. -1.
</event>
<event>
 6   1  0.1826851E-04  0.4574403E+03  0.7546771E-02  0.9500424E-01
        -11   -1    0    0    0    0  0.00000000000E+00  0.00000000000E+00  0.50000000000E+03  0.50000000000E+03  0.00000000000E+00 0.  1.
         11   -1    0    0    0    0 -0.00000000000E+00 -0.00000000000E+00 -0.50000000000E+03  0.50000000000E+03  0.00000000000E+00 0.  1.
        -11    1    1    2    0    0  0.32113857640E+02  0.67023761981E+02  0.44248633750E+03  0.44868434717E+03  0.00000000000E+00 0.  1.
         11    1    1    2    0    0  0.28983985122E+01 -0.65769831942E+01 -0.46919280997E+03  0.46924785598E+03  0.00000000000E+00 0.  1.
        -15    1    1    2    0    0 -0.66410671690E+01 -0.41054033265E+01 -0.69006286143E+01  0.10570454763E+02  0.17770000000E+01 0.  1.
         15    1    1    2    0    0 -0.28371188983E+02 -0.56341375460E+02  0.33607101082E+02  0.71497342084E+02  0.17770000000E+01 0. -1.
</event>
<event>
 6   1  0.1826851E-04  0.5002952E+03  0.7546771E-02  0.9399149E-01
        -11   -1    0    0    0    0  0.00000000000E+00  0.00000000000E+00  0.50000000000E+03  0.50000000000E+03  0.00000000000E+00 0. -1.
         11   -1    0    0    0    0 -0.00000000000E+00 -0.00000000000E+00 -0.50000000000E+03  0.50000000000E+03  0.00000000000E+00 0. -1.
        -11    1    1    2    0    0 -0.82244920476E+00  0.79065095502E+01  0.60853119385E+02  0.61370118583E+02  0.00000000000E+00 0. -1.
         11    1    1    2    0    0  0.50942595557E+01 -0.84719047977E+01 -0.49960698636E+03  0.49970477831E+03  0.00000000000E+00 0. -1.
        -15    1    1    2    0    0  0.30471127998E+01 -0.22624156561E+01  0.13757256716E+03  0.13763637741E+03  0.17770000000E+01 0.  1.
         15    1    1    2    0    0 -0.73189231507E+01  0.28278109036E+01  0.30118129981E+03  0.30128872570E+03  0.17770000000E+01 0. -1.
</event>
<event>
 6   1  0.1826851E-04  0.5000493E+03  0.7546771E-02  0.9399699E-01
        -11   -1    0    0    0    0  0.00000000000E+00  0.00000000000E+00  0.50000000000E+03  0.50000000000E+03  0.00000000000E+00 0. -1.
         11   -1    0    0    0    0 -0.00000000000E+00 -0.00000000000E+00 -0.50000000000E+03  0.50000000000E+03  0.00000000000E+00 0.  1.
        -11    1    1    2    0    0 -0.27061646564E+01  0.83073658335E+01  0.49987436912E+03  0.49995071813E+03  0.00000000000E+00 0. -1.
         11    1    1    2    0    0  0.97781766565E+00 -0.75950831641E+01 -0.27820836637E+03  0.27831373760E+03  0.00000000000E+00 0.  1.
        -15    1    1    2    0    0  0.83800099304E+00  0.10541735914E+01 -0.15570778170E+03  0.15572374430E+03  0.17770000000E+01 0.  1.
         15    1    1    2    0    0  0.89034599773E+00 -0.17664562608E+01 -0.65958221040E+02  0.66011799972E+02  0.17770000000E+01 0.  1.
</event>
<event>
 6   1  0.1826851E-04  0.5013160E+03  0.7546771E-02  0.9396870E-01
        -11   -1    0    0    0    0  0.00000000000E+00  0.00000000000E+00  0.50000000000E+03  0.50000000000E+03  0.00000000000E+00 0. -1.
         11   -1    0    0    0    0 -0.00000000000E+00 -0.00000000000E+00 -0.50000000000E+03  0.50000000000E+03  0.00000000000E+00 0. -1.
        -11    1    1    2    0    0 -0.72002873068E+01  0.51054610316E+01  0.42610339621E+03  0.42619480773E+03  0.00000000000E+00 0. -1.
         11    1    1    2    0    0 -0.28019186439E+01  0.95699605356E+01 -0.49858431531E+03  0.49868402257E+03  0.00000000000E+00 0. -1.
        -15    1    1    2    0    0  0.15768651250E+01 -0.43180190783E+01  0.93500552394E+01  0.10569439643E+02  0.17770000000E+01 0.  1.
         15    1    1    2    0    0  0.84253408256E+01 -0.10357402489E+02  0.63130863852E+02  0.64551730062E+02  0.17770000000E+01 0. -1.
</event>
<event>
 6   1  0.1826851E-04  0.5005896E+03  0.7546771E-02  0.9398491E-01
        -11   -1    0    0    0    0  0.00000000000E+00  0.00000000000E+00  0.50000000000E+03  0.50000000000E+03  0.00000000000E+00 0. -1.
         11   -1    0    0    0    0 -0.00000000000E+00 -0.00000000000E+00 -0.50000000000E+03  0.50000000000E+03  0.00000000000E+00 0. -1.
        -11    1    1    2    0    0 -0.24175319396E+01  0.10793097542E+02  0.41738987962E+03  0.41753640203E+03  0.00000000000E+00 0. -1.
         11    1    1    2    0    0  0.12711964410E+02 -0.32463022198E+01 -0.49923805676E+03  0.49941042224E+03  0.00000000000E+00 0. -1.
        -15    1    1    2    0    0 -0.62906699946E+01 -0.71656563928E+01  0.56410045632E+02  0.57237838339E+02  0.17770000000E+01 0. -1.
         15    1    1    2    0    0 -0.40037624757E+01 -0.38113892935E+00  0.25438131514E+02  0.25815337394E+02  0.17770000000E+01 0.  1.
</event>
<event>
 6   1  0.1826851E-04  0.5038791E+03  0.7546771E-02  0.9391172E-01
        -11   -1    0    0    0    0  0.00000000000E+00  0.00000000000E+00  0.50000000000E+03  0.50000000000E+03  0.00000000000E+00 0.  1.
         11   -1    0    0    0    0 -0.00000000000E+00 -0.00000000000E+00 -0.50000000000E+03  0.50000000000E+03  0.00000000000E+00 0.  1.
        -11    1    1    2    0    0 -0.44890367428E+01 -0.16857335405E+02  0.43627433345E+03  0.43662296691E+03  0.00000000000E+00 0.  1.
         11    1    1    2    0    0 -0.35556222052E+01 -0.10577024926E+02 -0.49599544452E+03  0.49612094986E+03  0.00000000000E+00 0.  1.
        -15    1    1    2    0    0  0.80597680772E+00  0.31228333124E+01  0.20191309150E+01  0.41995601155E+01  0.17770000000E+01 0.  1.
         15    1    1    2    0    0  0.72386821403E+01  0.24311527018E+02  0.57701980150E+02  0.63056523115E+02  0.17770000000E+01 0. -1.
</event>
<event>
 6   1  0.1826851E-04  0.5029366E+03  0.7546771E-02  0.9393263E-01
        -11   -1    0    0    0    0  0.00000000000E+00  0.00000000000E+00  0.50000000000E+03  0.50000000000E+03  0.00000000000E+00 0.  1.
         11   -1    0    0    0    0 -0.00000000000E+00 -0.00000000000E+00 -0.50000000000E+03  0.50000000000E+03  0.00000000000E+00 0.  1.
        -11    1    1    2    0    0  0.53635510807E-01 -0.15889622071E+02  0.49680941009E+03  0.49706344959E+03  0.00000000000E+00 0.  1.
         11    1    1    2    0    0  0.66088354798E+01  0.44475936462E+01 -0.42767436925E+03  0.42774855220E+03  0.00000000000E+00 0.  1.
        -15    1    1    2    0    0  0.15588978572E+01  0.12432346060E+02 -0.12037527030E+02  0.17465771586E+02  0.17770000000E+01 0.  1.
         15    1    1    2    0    0 -0.82213688478E+01 -0.99031763459E+00 -0.57097513807E+02  0.57722226626E+02  0.17770000000E+01 0. -1.
</event>
<event>
 6   1  0.1826851E-04  0.5006654E+03  0.7546771E-02  0.9398322E-01
        -11   -1    0    0    0    0  0.00000000000E+00  0.00000000000E+00  0.50000000000E+03  0.50000000000E+03  0.00000000000E+00 0.  1.
         11   -1    0    0    0    0 -0.00000000000E+00 -0.00000000000E+00 -0.50000000000E+03  0.50000000000E+03  0.00000000000E+00 0.  1.
        -11    1    1    2    0    0  0.28728740306E+01 -0.11074828326E+02  0.39549073618E+03  0.39565619878E+03  0.00000000000E+00 0.  1.
         11    1    1    2    0    0 -0.62455123793E+01 -0.30929116239E+01 -0.49928592442E+03  0.49933456405E+03  0.00000000000E+00 0.  1.
        -15    1    1    2    0    0  0.20878998667E+01  0.13269316860E+02  0.88975569708E+02  0.90001354599E+02  0.17770000000E+01 0.  1.
         15    1    1    2    0    0  0.12847384819E+01  0.89842308908E+00  0.14819618529E+02  0.15007882574E+02  0.17770000000E+01 0. -1.
</event>
<event>
 6   1  0.1826851E-04  0.5008654E+03  0.7546771E-02  0.9397875E-01
        -11   -1    0    0    0    0  0.00000000000E+00  0.00000000000E+00  0.50000000000E+03  0.50000000000E+03  0.00000000000E+00 0. -1.
         11   -1    0    0    0    0 -0.00000000000E+00 -0.00000000000E+00 -0.50000000000E+03  0.50000000000E+03  0.00000000000E+00 0. -1.
        -11    1    1    2    0    0  0.14960513545E+02  0.80010566671E+01  0.49884616624E+03  0.49913458250E+03  0.00000000000E+00 0. -1.
         11    1    1    2    0    0 -0.72395674836E+01  0.58757768049E+01 -0.42031729895E+03  0.42042070344E+03  0.00000000000E+00 0. -1.
        -15    1    1    2    0    0  0.41969270367E+00 -0.11111246353E+01 -0.75155424242E+01  0.78135681255E+01  0.17770000000E+01 0.  1.
         15    1    1    2    0    0 -0.81406387646E+01 -0.12765708837E+02 -0.71013324868E+02  0.72631145932E+02  0.17770000000E+01 0.  1.
</event>
<event>
 6   1  0.1826851E-04  0.5015997E+03  0.7546771E-02  0.9396237E-01
        -11   -1    0    0    0    0  0.00000000000E+00  0.00000000000E+00  0.50000000000E+03  0.50000000000E+03  0.00000000000E+00 0.  1.
         11   -1    0    0    0    0 -0.00000000000E+00 -0.00000000000E+00 -0.50000000000E+03  0.50000000000E+03  0.00000000000E+00 0.  1.
        -11    1    1    2    0    0  0.14540899363E+01  0.12647245019E+02  0.49823772399E+03  0.49840033787E+03  0.00000000000E+00 0.  1.
         11    1    1    2    0    0  0.64905335470E+01 -0.29529447160E+01 -0.45797774294E+03  0.45803325200E+03  0.00000000000E+00 0.  1.
        -15    1    1    2    0    0 -0.26542000979E+01 -0.37882590164E+01 -0.30345934846E+02  0.30747832041E+02  0.17770000000E+01 0.  1.
         15    1    1    2    0    0 -0.52904233853E+01 -0.59060412864E+01 -0.99140462017E+01  0.12818578094E+02  0.17770000000E+01 0. -1.
</event>
<event>
 6   1  0.1826851E-04  0.5022455E+03  0.7546771E-02  0.9394799E-01
        -11   -1    0    0    0    0  0.00000000000E+00  0.00000000000E+00  0.50000000000E+03  0.50000000000E+03  0.00000000000E+00 0. -1.
         11   -1    0    0    0    0 -0.00000000000E+00 -0.00000000000E+00 -0.50000000000E+03  0.50000000000E+03  0.00000000000E+00 0. -1.
        -11    1    1    2    0    0  0.22261942302E+02  0.95767789819E+01  0.45257509903E+03  0.45322348685E+03  0.00000000000E+00 0. -1.
         11    1    1    2    0    0 -0.14522065856E+02 -0.23299707919E+01 -0.49753711395E+03  0.49775445646E+03  0.00000000000E+00 0. -1.
        -15    1    1    2    0    0  0.83139973468E+00  0.43633102243E+01  0.82703278400E+01  0.95543578127E+01  0.17770000000E+01 0.  1.
         15    1    1    2    0    0 -0.85712761810E+01 -0.11610118414E+02  0.36691687085E+02  0.39467698883E+02  0.17770000000E+01 0. -1.
</event>
<event>
 6   1  0.1826851E-04  0.5003784E+03  0.7546771E-02  0.9398963E-01
        -11   -1    0    0    0    0  0.00000000000E+00  0.00000000000E+00  0.50000000000E+03  0.50000000000E+03  0.00000000000E+00 0.  1.
         11   -1    0    0    0    0 -0.00000000000E+00 -0.00000000000E+00 -0.50000000000E+03  0.50000000000E+03  0.00000000000E+00 0. -1.
        -11    1    1    2    0    0  0.26934202788E+01  0.70285910638E+01  0.49956492003E+03  0.49962162176E+03  0.00000000000E+00 0.  1.
         11    1    1    2    0    0  0.16765933364E+01  0.38556233608E+01 -0.30681474597E+03  0.30684355157E+03  0.00000000000E+00 0. -1.
        -15    1    1    2    0    0 -0.39840499531E+01  0.12580792836E+01 -0.77409482600E+02  0.77542511843E+02  0.17770000000E+01 0.  1.
         15    1    1    2    0    0 -0.38596366210E+00 -0.12142293708E+02 -0.11534069146E+03  0.11599231483E+03  0.17770000000E+01 0. -1.
</event>
<event>
 6   1  0.1826851E-04  0.5015442E+03  0.7546771E-02  0.9396361E-01
        -11   -1    0    0    0    0  0.00000000000E+00  0.00000000000E+00  0.50000000000E+03  0.50000000000E+03  0.00000000000E+00 0. -1.
         11   -1    0    0    0    0 -0.00000000000E+00 -0.00000000000E+00 -0.50000000000E+03  0.50000000000E+03  0.00000000000E+00 0.  1.
        -11    1    1    2    0    0 -0.50181228792E+01  0.21325835304E+02  0.49797413447E+03  0.49845582694E+03  0.00000000000E+00 0. -1.
         11    1    1    2    0    0  0.29028036802E+01 -0.52345355682E+01 -0.39554323286E+03  0.39558851815E+03  0.00000000000E+00 0.  1.
        -15    1    1    2    0    0  0.10111840311E+01 -0.98032956047E+01 -0.13658966451E+02  0.16936711351E+02  0.17770000000E+01 0. -1.
         15    1    1    2    0    0  0.11041351679E+01 -0.62880041312E+01 -0.88771935162E+02  0.89018943556E+02  0.17770000000E+01 0.  1.
</event>
<event>
 6   1  0.1826851E-04  0.5041769E+03  0.7546771E-02  0.9390512E-01
        -11   -1    0    0    0    0  0.00000000000E+00  0.00000000000E+00  0.50000000000E+03  0.50000000000E+03  0.00000000000E+00 0.  1.
         11   -1    0    0    0    0 -0.00000000000E+00 -0.00000000000E+00 -0.50000000000E+03  0.50000000000E+03  0.00000000000E+00 0.  1.
        -11    1    1    2    0    0  0.22077259591E+02  0.53987155200E+01  0.49530195833E+03  0.49582313524E+03  0.00000000000E+00 0.  1.
         11    1    1    2    0    0  0.26873716008E+01 -0.55682819481E+01 -0.44454815868E+03  0.44459115277E+03  0.00000000000E+00 0.  1.
        -15    1    1    2    0    0 -0.64612279896E+01 -0.59649632535E+01 -0.29430524453E+02  0.30767543813E+02  0.17770000000E+01 0.  1.
         15    1    1    2    0    0 -0.18303403202E+02  0.61345296815E+01 -0.21323275190E+02  0.28818168176E+02  0.17770000000E+01 0. -1.
</event>
<event>
 6   1  0.1826851E-04  0.5003482E+03  0.7546771E-02  0.9399031E-01
        -11   -1    0    0    0    0  0.00000000000E+00  0.00000000000E+00  0.50000000000E+03  0.50000000000E+03  0.00000000000E+00 0.  1.
         11   -1    0    0    0    0 -0.00000000000E+00 -0.00000000000E+00 -0.50000000000E+03  0.50000000000E+03  0.00000000000E+00 0.  1.
        -11    1    1    2    0    0 -0.51252461643E+00  0.97003249372E+01  0.49955736283E+03  0.49965179650E+03  0.00000000000E+00 0.  1.
         11    1    1    2    0    0 -0.55359560648E+01 -0.39526312892E+01 -0.27507892598E+03  0.27516301645E+03  0.00000000000E+00 0.  1.
        -15    1    1    2    0    0  0.10215897265E+02 -0.82810802764E+00 -0.10332749624E+03  0.10384979311E+03  0.17770000000E+01 0. -1.
         15    1    1    2    0    0 -0.41674165840E+01 -0.49195856204E+01 -0.12115094061E+03  0.12133539394E+03  0.17770000000E+01 0.  1.
</event>
<event>
 6   1  0.1826851E-04  0.5003153E+03  0.7546771E-02  0.9399104E-01
        -11   -1    0    0    0    0  0.00000000000E+00  0.00000000000E+00  0.50000000000E+03  0.50000000000E+03  0.00000000000E+00 0.  1.
         11   -1    0    0    0    0 -0.00000000000E+00 -0.00000000000E+00 -0.50000000000E+03  0.50000000000E+03  0.00000000000E+00 0.  1.
        -11    1    1    2    0    0  0.14682097472E+02 -0.31147960144E+01  0.14573992511E+03  0.14651072217E+03  0.00000000000E+00 0.  1.
         11    1    1    2    0    0 -0.14570164072E+02  0.58677734384E-01 -0.49947220513E+03  0.49968467740E+03  0.00000000000E+00 0.  1.
        -15    1    1    2    0    0  0.22398171356E+01  0.22797263140E+01  0.25239338010E+03  0.25241986844E+03  0.17770000000E+01 0.  1.
         15    1    1    2    0    0 -0.23517505355E+01  0.77639196597E+00  0.10133889992E+03  0.10138473199E+03  0.17770000000E+01 0. -1.
</event>
<event>
 6   1  0.1826851E-04  0.5062437E+03  0.7546771E-02  0.9385946E-01
        -11   -1    0    0    0    0  0.00000000000E+00  0.00000000000E+00  0.50000000000E+03  0.50000000000E+03  0.00000000000E+00 0. -1.
         11   -1    0    0    0    0 -0.00000000000E+00 -0.00000000000E+00 -0.50000000000E+03  0.50000000000E+03  0.00000000000E+00 0. -1.
        -11    1    1    2    0    0  0.23994898057E+02 -0.35239462919E+02  0.37684081339E+03  0.37924474092E+03  0.00000000000E+00 0. -1.
         11    1    1    2    0    0 -0.11077765183E+02  0.95166974122E+01 -0.49354029143E+03  0.49375632013E+03  0.00000000000E+00 0. -1.
        -15    1    1    2    0    0 -0.11278394485E+01  0.33453895353E+02  0.61968756658E+02  0.70453670358E+02  0.17770000000E+01 0. -1.
         15    1    1    2    0    0 -0.11789293426E+02 -0.77311298470E+01  0.54730721379E+02  0.56545268589E+02  0.17770000000E+01 0.  1.
</event>
<event>
 6   1  0.1826851E-04  0.5000458E+03  0.7546771E-02  0.9399707E-01
        -11   -1    0    0    0    0  0.00000000000E+00  0.00000000000E+00  0.50000000000E+03  0.50000000000E+03  0.00000000000E+00 0.  1.
         11   -1    0    0    0    0 -0.00000000000E+00 -0.00000000000E+00 -0.50000000000E+03  0.50000000000E+03  0.00000000000E+00 0.  1.
        -11    1    1    2    0    0  0.33632575088E+01  0.21949118186E+02  0.49946080535E+03  0.49995416927E+03  0.00000000000E+00 0.  1.
         11    1    1    2    0    0  0.23466455653E+01 -0.52680404259E+01 -0.12848915387E+03  0.12861851212E+03  0.00000000000E+00 0.  1.
        -15    1    1    2    0    0 -0.40614880858E+01 -0.10359504120E+02 -0.26513471176E+03  0.26537405322E+03  0.17770000000E+01 0.  1.
         15    1    1    2    0    0 -0.16484149883E+01 -0.63215736409E+01 -0.10583693971E+03  0.10605326540E+03  0.17770000000E+01 0.  1.
</event>
<event>
 6   1  0.1826851E-04  0.5018966E+03  0.7546771E-02  0.9395576E-01
        -11   -1    0    0    0    0  0.00000000000E+00  0.00000000000E+00  0.50000000000E+03  0.50000000000E+03  0.00000000000E+00 0.  1.
         11   -1    0    0    0    0 -0.00000000000E+00 -0.00000000000E+00 -0.50000000000E+03  0.50000000000E+03  0.00000000000E+00 0.  1.
        -11    1    1    2    0    0  0.19778649881E+02 -0.31091035110E+00  0.27623228424E+03  0.27693964417E+03  0.00000000000E+00 0.  1.
         11    1    1    2    0    0  0.59690961363E+01  0.31609328089E+01 -0.49805762265E+03  0.49810342007E+03  0.00000000000E+00 0.  1.
        -15    1    1    2    0    0 -0.28393583269E+02  0.16121534634E+00  0.21479807592E+03  0.21667393177E+03  0.17770000000E+01 0.  1.
         15    1    1    2    0    0  0.26458372518E+01 -0.30112378042E+01  0.70272624989E+01  0.82830039904E+01  0.17770000000E+01 0. -1.
</event>
<event>
 6   1  0.1826851E-04  0.5015013E+03  0.7546771E-02  0.9396457E-01
        -11   -1    0    0    0    0  0.00000000000E+00  0.00000000000E+00  0.50000000000E+03  0.50000000000E+03  0.00000000000E+00 0.  1.
         11   -1    0    0    0    0 -0.00000000000E+00 -0.00000000000E+00 -0.50000000000E+03  0.50000000000E+03  0.00000000000E+00 0. -1.
        -11    1    1    2    0    0  0.80044181790E+01 -0.38129863108E+01  0.44137427660E+03  0.44146331855E+03  0.00000000000E+00 0.  1.
         11    1    1    2    0    0  0.68702678566E+01 -0.20002602974E+01 -0.49844734739E+03  0.49849870586E+03  0.00000000000E+00 0. -1.
        -15    1    1    2    0    0 -0.58514853664E+01  0.44287206075E+01  0.13355397976E+02  0.15342028266E+02  0.17770000000E+01 0. -1.
         15    1    1    2    0    0 -0.90232006692E+01  0.13845260007E+01  0.43717672811E+02  0.44695947328E+02  0.17770000000E+01 0.  1.
</event>
<event>
 6   1  0.1826851E-04  0.5039198E+03  0.7546771E-02  0.9391081E-01
        -11   -1    0    0    0    0  0.00000000000E+00  0.00000000000E+00  0.50000000000E+03  0.50000000000E+03  0.00000000000E+00 0. -1.
         11   -1    0    0    0    0 -0.00000000000E+00 -0.00000000000E+00 -0.50000000000E+03  0.50000000000E+03  0.00000000000E+00 0.  1.
        -11    1    1    2    0    0  0.18426684329E+02 -0.83977926931E-01  0.47443770862E+03  0.47479541816E+03  0.00000000000E+00 0. -1.
         11    1    1    2    0    0 -0.75048208077E+01 -0.33017177814E+01 -0.49601239262E+03  0.49608015210E+03  0.00000000000E+00 0.  1.
        -15    1    1    2    0    0 -0.13391960518E+01  0.81991523512E+01  0.11546824798E+02  0.14335495710E+02  0.17770000000E+01 0. -1.
         15    1    1    2    0    0 -0.95826674691E+01 -0.48134566428E+01  0.10027859198E+02  0.14788934031E+02  0.17770000000E+01 0.  1.
</event>
<event>
 6   1  0.1826851E-04  0.4948187E+03  0.7546771E-02  0.9411478E-01
        -11   -1    0    0    0    0  0.00000000000E+00  0.00000000000E+00  0.50000000000E+03  0.50000000000E+03  0.00000000000E+00 0.  1.
         11   -1    0    0    0    0 -0.00000000000E+00 -0.00000000000E+00 -0.50000000000E+03  0.50000000000E+03  0.00000000000E+00 0.  1.
        -11    1    1    2    0    0 -0.55583701563E+01 -0.52589046991E+01  0.96597018037E+01  0.12323205604E+02  0.00000000000E+00 0.  1.
         11    1    1    2    0    0  0.78124437269E+01 -0.59440458857E+01 -0.49752420512E+03  0.49762104120E+03  0.00000000000E+00 0.  1.
        -15    1    1    2    0    0 -0.21357346688E+02  0.11731094520E+02  0.18851656214E+03  0.19009315287E+03  0.17770000000E+01 0. -1.
         15    1    1    2    0    0  0.19103273118E+02 -0.52814393555E+00  0.29934794118E+03  0.29996260033E+03  0.17770000000E+01 0.  1.
</event>
<event>
 6   1  0.1826851E-04  0.5110094E+03  0.7546771E-02  0.9375507E-01
        -11   -1    0    0    0    0  0.00000000000E+00  0.00000000000E+00  0.50000000000E+03  0.50000000000E+03  0.00000000000E+00 0. -1.
         11   -1    0    0    0    0 -0.00000000000E+00 -0.00000000000E+00 -0.50000000000E+03  0.50000000000E+03  0.00000000000E+00 0. -1.
        -11    1    1    2    0    0  0.61259502660E+02 -0.20262637556E+02  0.36600499103E+03  0.37164896691E+03  0.00000000000E+00 0. -1.
         11    1    1    2    0    0 -0.15942790199E+02  0.13917672026E+02 -0.48853243263E+03  0.48899060511E+03  0.00000000000E+00 0. -1.
        -15    1    1    2    0    0 -0.17684405568E+02  0.22625424336E+01  0.10459793992E+03  0.10612136478E+03  0.17770000000E+01 0.  1.
         15    1    1    2    0    0 -0.27632306892E+02  0.40824230967E+01  0.17929501683E+02  0.33239063196E+02  0.17770000000E+01 0. -1.
</event>
<event>
 6   1  0.1826851E-04  0.5027087E+03  0.7546771E-02  0.9393769E-01
        -11   -1    0    0    0    0  0.00000000000E+00  0.00000000000E+00  0.50000000000E+03  0.50000000000E+03  0.00000000000E+00 0. -1.
         11   -1    0    0    0    0 -0.00000000000E+00 -0.00000000000E+00 -0.50000000000E+03  0.50000000000E+03  0.00000000000E+00 0. -1.
        -11    1    1    2    0    0  0.24806523988E+02  0.35073106439E+01  0.39857887431E+03  0.39936547661E+03  0.00000000000E+00 0. -1.
         11    1    1    2    0    0 -0.53682399854E+01 -0.56994617378E+01 -0.49722967852E+03  0.49729131811E+03  0.00000000000E+00 0. -1.
        -15    1    1    2    0    0 -0.63730761678E+01  0.98010867580E+01  0.20014143796E+02  0.23246528394E+02  0.17770000000E+01 0. -1.
         15    1    1    2    0    0 -0.13065207835E+02 -0.76089356641E+01  0.78636660418E+02  0.80096676887E+02  0.17770000000E+01 0.  1.
</event>
<event>
 6   1  0.1826851E-04  0.5003036E+03  0.7546771E-02  0.9399131E-01
        -11   -1    0    0    0    0  0.00000000000E+00  0.00000000000E+00  0.50000000000E+03  0.50000000000E+03  0.00000000000E+00 0. -1.
         11   -1    0    0    0    0 -0.00000000000E+00 -0.00000000000E+00 -0.50000000000E+03  0.50000000000E+03  0.00000000000E+00 0. -1.
        -11    1    1    2    0    0 -0.42363353710E+01 -0.52631984058E+01  0.49965071998E+03  0.49969639760E+03  0.00000000000E+00 0. -1.
         11    1    1    2    0    0  0.38054781414E+01  0.49974622685E+01 -0.32854691672E+02  0.33449769175E+02  0.00000000000E+00 0. -1.
        -15    1    1    2    0    0 -0.25066074050E+01  0.18260837843E+01 -0.22321967824E+03  0.22324829259E+03  0.17770000000E+01 0.  1.
         15    1    1    2    0    0  0.29374646347E+01 -0.15603476470E+01 -0.24357635008E+03  0.24360554064E+03  0.17770000000E+01 0. -1.
</event>
<event>
 6   1  0.1826851E-04  0.4745182E+03  0.7546771E-02  0.9458705E-01
        -11   -1    0    0    0    0  0.00000000000E+00  0.00000000000E+00  0.50000000000E+03  0.50000000000E+03  0.00000000000E+00 0.  1.
         11   -1    0    0    0    0 -0.00000000000E+00 -0.00000000000E+00 -0.50000000000E+03  0.50000000000E+03  0.00000000000E+00 0. -1.
        -11    1    1    2    0    0 -0.44162612298E+01 -0.22492223932E+02  0.46524903384E+03  0.46581333922E+03  0.00000000000E+00 0.  1.
         11    1    1    2    0    0  0.11754280594E+02 -0.13813026992E+02 -0.48378661190E+03  0.48412648004E+03  0.00000000000E+00 0. -1.
        -15    1    1    2    0    0  0.46414881798E+01  0.15365721913E+02 -0.43856880178E+01  0.16734419943E+02  0.17770000000E+01 0. -1.
         15    1    1    2    0    0 -0.11979507545E+02  0.20939529011E+02  0.22923266073E+02  0.33325760796E+02  0.17770000000E+01 0.  1.
</event>
<event>
 6   1  0.1826851E-04  0.4892816E+03  0.7546771E-02  0.9424118E-01
        -11   -1    0    0    0    0  0.00000000000E+00  0.00000000000E+00  0.50000000000E+03  0.50000000000E+03  0.00000000000E+00 0.  1.
         11   -1    0    0    0    0 -0.00000000000E+00 -0.00000000000E+00 -0.50000000000E+03  0.50000000000E+03  0.00000000000E+00 0.  1.
        -11    1    1    2    0    0  0.78169839960E+01 -0.34840703082E+01  0.49029204080E+03  0.49036672935E+03  0.00000000000E+00 0.  1.
         11    1    1    2    0    0  0.24523814063E+01 -0.68844474889E+01 -0.48825271260E+03  0.48830740436E+03  0.00000000000E+00 0.  1.
        -15    1    1    2    0    0 -0.83528624856E+01  0.12604645860E+02  0.27073238607E+01  0.15463982037E+02  0.17770000000E+01 0. -1.
         15    1    1    2    0    0 -0.19165029167E+01 -0.22361280632E+01 -0.47466520670E+01  0.58618842525E+01  0.17770000000E+01 0.  1.
</event>
<event>
 6   1  0.1826851E-04  0.5010299E+03  0.7546771E-02  0.9397508E-01
        -11   -1    0    0    0    0  0.00000000000E+00  0.00000000000E+00  0.50000000000E+03  0.50000000000E+03  0.00000000000E+00 0.  1.
         11   -1    0    0    0    0 -0.00000000000E+00 -0.00000000000E+00 -0.50000000000E+03  0.50000000000E+03  0.00000000000E+00 0.  1.
        -11    1    1    2    0    0 -0.25012813173E+01 -0.18751941003E+02  0.49861138692E+03  0.49897014627E+03  0.00000000000E+00 0.  1.
         11    1    1    2    0    0  0.29930595890E+01  0.44257816261E+01 -0.12246295958E+03  0.12257945349E+03  0.00000000000E+00 0.  1.
        -15    1    1    2    0    0  0.15143062023E+02  0.19668847440E+02 -0.20830459925E+03  0.20978593776E+03  0.17770000000E+01 0.  1.
         15    1    1    2    0    0 -0.15634840294E+02 -0.53426880630E+01 -0.16784382809E+03  0.16866446248E+03  0.17770000000E+01 0. -1.
</event>
<event>
 6   1  0.1826851E-04  0.5059198E+03  0.7546771E-02  0.9386660E-01
        -11   -1    0    0    0    0  0.00000000000E+00  0.00000000000E+00  0.50000000000E+03  0.50000000000E+03  0.00000000000E+00 0. -1.
         11   -1    0    0    0    0 -0.00000000000E+00 -0.00000000000E+00 -0.50000000000E+03  0.50000000000E+03  0.00000000000E+00 0.  1.
        -11    1    1    2    0    0 -0.17509457200E+02  0.47941939858E+02  0.33519838781E+03  0.33906189683E+03  0.00000000000E+00 0. -1.
         11    1    1    2    0    0 -0.64810853839E+01 -0.27630753088E+02 -0.49326440170E+03  0.49408018881E+03  0.00000000000E+00 0.  1.
        -15    1    1    2    0    0  0.68383922154E+01  0.85947130318E+01  0.98232639663E+01  0.14842066707E+02  0.17770000000E+01 0.  1.
         15    1    1    2    0    0  0.17152150368E+02 -0.28905899802E+02  0.14824274992E+03  0.15201584766E+03  0.17770000000E+01 0. -1.
</event>
<event>
 6   1  0.1826851E-04  0.5016896E+03  0.7546771E-02  0.9396037E-01
        -11   -1    0    0    0    0  0.00000000000E+00  0.00000000000E+00  0.50000000000E+03  0.50000000000E+03  0.00000000000E+00 0.  1.
         11   -1    0    0    0    0 -0.00000000000E+00 -0.00000000000E+00 -0.50000000000E+03  0.50000000000E+03  0.00000000000E+00 0. -1.
        -11    1    1    2    0    0  0.16259677112E+02  0.32493000537E+01  0.47312122554E+03  0.47341169093E+03  0.00000000000E+00 0.  1.
         11    1    1    2    0    0 -0.73496197232E+01 -0.13888340390E+01 -0.49825421633E+03  0.49831035496E+03  0.00000000000E+00 0. -1.
        -15    1    1    2    0    0 -0.66987082061E+01 -0.61026243750E+00  0.69547001244E+01  0.98372097006E+01  0.17770000000E+01 0. -1.
         15    1    1    2    0    0 -0.22113491826E+01 -0.12502035772E+01  0.18178290657E+02  0.18440744410E+02  0.17770000000E+01 0.  1.
</event>
<event>
 6   1  0.1826851E-04  0.5114002E+03  0.7546771E-02  0.9374656E-01
        -11   -1    0    0    0    0  0.00000000000E+00  0.00000000000E+00  0.50000000000E+03  0.50000000000E+03  0.00000000000E+00 0.  1.
         11   -1    0    0    0    0 -0.00000000000E+00 -0.00000000000E+00 -0.50000000000E+03  0.50000000000E+03  0.00000000000E+00 0.  1.
        -11    1    1    2    0    0 -0.70360895582E+01 -0.38179142953E+02  0.48705502912E+03  0.48859979012E+03  0.00000000000E+00 0.  1.
         11    1    1    2    0    0 -0.30898025374E+01  0.68976118291E+01 -0.46302980726E+03  0.46309148809E+03  0.00000000000E+00 0.  1.
        -15    1    1    2    0    0  0.39845484332E+01  0.25261948796E+01 -0.17399689189E+02  0.18115330515E+02  0.17770000000E+01 0. -1.
         15    1    1    2    0    0  0.61413436624E+01  0.28755336244E+02 -0.66255326706E+01  0.30193391275E+02  0.17770000000E+01 0.  1.
</event>
<event>
 6   1  0.1826851E-04  0.5087011E+03  0.7546771E-02  0.9380548E-01
        -11   -1    0    0    0    0  0.00000000000E+00  0.00000000000E+00  0.50000000000E+03  0.50000000000E+03  0.00000000000E+00 0.  1.
         11   -1    0    0    0    0 -0.00000000000E+00 -0.00000000000E+00 -0.50000000000E+03  0.50000000000E+03  0.00000000000E+00 0. -1.
        -11    1    1    2    0    0 -0.47532825344E+01 -0.14232540990E+02  0.49106973401E+03  0.49129893403E+03  0.00000000000E+00 0.  1.
         11    1    1    2    0    0 -0.14987360241E+02 -0.13955428808E+01 -0.45950051512E+03  0.45974698683E+03  0.00000000000E+00 0. -1.
        -15    1    1    2    0    0  0.26543193687E+02  0.10505111737E+02 -0.25772895301E+02  0.38500628111E+02  0.17770000000E+01 0.  1.
         15    1    1    2    0    0 -0.68025509116E+01  0.51229721330E+01 -0.57963235890E+01  0.10453451034E+02  0.17770000000E+01 0. -1.
</event>
<event>
 6   1  0.1826851E-04  0.5003145E+03  0.7546771E-02  0.9399106E-01
        -11   -1    0    0    0    0  0.00000000000E+00  0.00000000000E+00  0.50000000000E+03  0.50000000000E+03  0.00000000000E+00 0.  1.
         11   -1    0    0    0    0 -0.00000000000E+00 -0.00000000000E+00 -0.50000000000E+03  0.50000000000E+03  0.00000000000E+00 0.  1.
        -11    1    1    2    0    0  0.81344464301E+01  0.97157102638E+01  0.49952478128E+03  0.49968547243E+03  0.00000000000E+00 0.  1.
         11    1    1    2    0    0 -0.55795686284E+01 -0.17469669090E+01 -0.32190134767E+03  0.32195443950E+03  0.00000000000E+00 0.  1.
        -15    1    1    2    0    0 -0.64775368454E+00  0.13007243031E+01 -0.11299154923E+03  0.11301486360E+03  0.17770000000E+01 0.  1.
         15    1    1    2    0    0 -0.19071241171E+01 -0.92694676579E+01 -0.64631884385E+02  0.65345224471E+02  0.17770000000E+01 0. -1.
</event>
<event>
 6   1  0.1826851E-04  0.5000731E+03  0.7546771E-02  0.9399646E-01
        -11   -1    0    0    0    0  0.00000000000E+00  0.00000000000E+00  0.50000000000E+03  0.50000000000E+03  0.00000000000E+00 0.  1.
         11   -1    0    0    0    0 -0.00000000000E+00 -0.00000000000E+00 -0.50000000000E+03  0.50000000000E+03  0.00000000000E+00 0.  1.
        -11    1    1    2    0    0 -0.25489459465E+01 -0.11767141531E+02  0.49978186068E+03  0.49992686566E+03  0.00000000000E+00 0.  1.
         11    1    1    2    0    0 -0.79136092094E+00 -0.13949219795E+01 -0.81070657980E+02  0.81086519501E+02  0.00000000000E+00 0.  1.
        -15    1    1    2    0    0  0.20753108808E+01  0.18098246627E+01 -0.60248815094E+02  0.60337880555E+02  0.17770000000E+01 0. -1.
         15    1    1    2    0    0  0.12649959866E+01  0.11352238848E+02 -0.35846238761E+03  0.35864873428E+03  0.17770000000E+01 0.  1.
</event>
<event>
 6   1  0.1826851E-04  0.5026648E+03  0.7546771E-02  0.9393867E-01
        -11   -1    0    0    0    0  0.00000000000E+00  0.00000000000E+00  0.50000000000E+03  0.50000000000E+03  0.00000000000E+00 0. -1.
         11   -1    0    0    0    0 -0.00000000000E+00 -0.00000000000E+00 -0.50000000000E+03  0.50000000000E+03  0.00000000000E+00 0. -1.
        -11    1    1    2    0    0 -0.32367051040E+01 -0.16503656105E+02  0.49705078501E+03  0.49733522880E+03  0.00000000000E+00 0. -1.
         11    1    1    2    0    0 -0.16326028561E+02  0.11986063021E+02 -0.42334259572E+03  0.42382680221E+03  0.00000000000E+00 0. -1.
        -15    1    1    2    0    0  0.16252293626E+02 -0.18621889329E+01 -0.27551636501E+02  0.32091357070E+02  0.17770000000E+01 0.  1.
         15    1    1    2    0    0  0.33104400390E+01  0.63797820162E+01 -0.46156552790E+02  0.46746611923E+02  0.17770000000E+01 0. -1.
</event>
<event>
 6   1  0.1826851E-04  0.5021183E+03  0.7546771E-02  0.9395082E-01
        -11   -1    0    0    0    0  0.00000000000E+00  0.00000000000E+00  0.50000000000E+03  0.50000000000E+03  0.00000000000E+00 0.  1.
         11   -1    0    0    0    0 -0.00000000000E+00 -0.00000000000E+00 -0.50000000000E+03  0.50000000000E+03  0.00000000000E+00 0.  1.
        -11    1    1    2    0    0  0.53676154888E+01  0.86247383940E+01  0.49777807816E+03  0.49788172541E+03  0.00000000000E+00 0.  1.
         11    1    1    2    0    0  0.24437701296E+01 -0.88808721235E+01 -0.47817032702E+03  0.47825903394E+03  0.00000000000E+00 0.  1.
        -15    1    1    2    0    0 -0.73560813963E+01  0.17702391109E+01 -0.54241805448E+01  0.94776127586E+01  0.17770000000E+01 0.  1.
         15    1    1    2    0    0 -0.45530422199E+00 -0.15141053814E+01 -0.14183570586E+02  0.14381627884E+02  0.17770000000E+01 0. -1.
</event>
<event>
 6   1  0.1826851E-04  0.5006567E+03  0.7546771E-02  0.9398341E-01
        -11   -1    0    0    0    0  0.00000000000E+00  0.00000000000E+00  0.50000000000E+03  0.50000000000E+03  0.00000000000E+00 0.  1.
         11   -1    0    0    0    0 -0.00000000000E+00 -0.00000000000E+00 -0.50000000000E+03  0.50000000000E+03  0.00000000000E+00 0. -1.
        -11    1    1    2    0    0 -0.70001447137E+02 -0.16168679811E+03  0.39269092882E+03  0.43040560970E+03  0.00000000000E+00 0.  1.
         11    1    1    2    0    0  0.81591619673E+02  0.17503581597E+03 -0.46048777899E+03  0.49934329261E+03  0.00000000000E+00 0. -1.
        -15    1    1    2    0    0 -0.53561185102E+01 -0.75883360666E+01  0.41395216882E+02  0.42461659877E+02  0.17770000000E+01 0.  1.
         15    1    1    2    0    0 -0.62340540260E+01 -0.57606817986E+01  0.26401633296E+02  0.27789437815E+02  0.17770000000E+01 0. -1.
</event>
<event>
 6   1  0.1826851E-04  0.5008828E+03  0.7546771E-02  0.9397836E-01
        -11   -1    0    0    0    0  0.00000000000E+00  0.00000000000E+00  0.50000000000E+03  0.50000000000E+03  0.00000000000E+00 0. -1.
         11   -1    0    0    0    0 -0.00000000000E+00 -0.00000000000E+00 -0.50000000000E+03  0.50000000000E+03  0.00000000000E+00 0.  1.
        -11    1    1    2    0    0 -0.63088975786E+01 -0.25285361082E+02  0.49843633969E+03  0.49911715698E+03  0.00000000000E+00 0. -1.
         11    1    1    2    0    0 -0.40562844998E+00 -0.44857570450E+01 -0.29113885648E+03  0.29117369439E+03  0.00000000000E+00 0.  1.
        -15    1    1    2    0    0 -0.56610642618E+00  0.23827216709E+01 -0.30003048134E+02  0.30155239435E+02  0.17770000000E+01 0. -1.
         15    1    1    2    0    0  0.72806324548E+01  0.27388396456E+02 -0.17729443508E+03  0.17955390919E+03  0.17770000000E+01 0.  1.
</event>
<event>
 6   1  0.1826851E-04  0.5013794E+03  0.7546771E-02  0.9396729E-01
        -11   -1    0    0    0    0  0.00000000000E+00  0.00000000000E+00  0.50000000000E+03  0.50000000000E+03  0.00000000000E+00 0.  1.
         11   -1    0    0    0    0 -0.00000000000E+00 -0.00000000000E+00 -0.50000000000E+03  0.50000000000E+03  0.00000000000E+00 0.  1.
        -11    1    1    2    0    0 -0.21585119714E+02 -0.23270046576E+02  0.49760939282E+03  0.49862061758E+03  0.00000000000E+00 0.  1.
         11    1    1    2    0    0  0.67071516522E+01 -0.17253391188E+01 -0.34588740890E+03  0.34595673474E+03  0.00000000000E+00 0.  1.
        -15    1    1    2    0    0 -0.29839094481E+01  0.26115647760E+01 -0.32892355073E+02  0.33178136437E+02  0.17770000000E+01 0. -1.
         15    1    1    2    0    0  0.17861877510E+02  0.22383820919E+02 -0.11882962885E+03  0.12224451124E+03  0.17770000000E+01 0.  1.
</event>
<event>
 6   1  0.1826851E-04  0.5002307E+03  0.7546771E-02  0.9399294E-01
        -11   -1    0    0    0    0  0.00000000000E+00  0.00000000000E+00  0.50000000000E+03  0.50000000000E+03  0.00000000000E+00 0.  1.
         11   -1    0    0    0    0 -0.00000000000E+00 -0.00000000000E+00 -0.50000000000E+03  0.50000000000E+03  0.00000000000E+00 0. -1.
        -11    1    1    2    0    0  0.62810207849E+01 -0.67915789271E+01  0.49968365417E+03  0.49976927778E+03  0.00000000000E+00 0.  1.
         11    1    1    2    0    0  0.46956299882E+01  0.64746490765E+00 -0.25584081284E+03  0.25588471949E+03  0.00000000000E+00 0. -1.
        -15    1    1    2    0    0 -0.93259964791E+01  0.50595393618E+00 -0.15520198991E+03  0.15549291174E+03  0.17770000000E+01 0. -1.
         15    1    1    2    0    0 -0.16506542940E+01  0.56381600833E+01 -0.88640851425E+02  0.88853090993E+02  0.17770000000E+01 0.  1.
</event>
<event>
 6   1  0.1826851E-04  0.4722695E+03  0.7546771E-02  0.9464090E-01
        -11   -1    0    0    0    0  0.00000000000E+00  0.00000000000E+00  0.50000000000E+03  0.50000000000E+03  0.00000000000E+00 0.  1.
         11   -1    0    0    0    0 -0.00000000000E+00 -0.00000000000E+00 -0.50000000000E+03  0.50000000000E+03  0.00000000000E+00 0.  1.
        -11    1    1    2    0    0 -0.16588260802E+01  0.23111793787E+02  0.47435446448E+03  0.47492006136E+03  0.00000000000E+00 0.  1.
         11    1    1    2    0    0 -0.34784161324E+02 -0.26170558703E+00 -0.46932384934E+03  0.47061117914E+03  0.00000000000E+00 0.  1.
        -15    1    1    2    0    0  0.17747916799E+02 -0.52227663131E+01 -0.17787983788E+02  0.25726172177E+02  0.17770000000E+01 0. -1.
         15    1    1    2    0    0  0.18695070606E+02 -0.17627321887E+02  0.12757368657E+02  0.28742587321E+02  0.17770000000E+01 0.  1.
</event>
<event>
 6   1  0.1826851E-04  0.5001307E+03  0.7546771E-02  0.9399517E-01
        -11   -1    0    0    0    0  0.00000000000E+00  0.00000000000E+00  0.50000000000E+03  0.50000000000E+03  0.00000000000E+00 0.  1.
         11   -1    0    0    0    0 -0.00000000000E+00 -0.00000000000E+00 -0.50000000000E+03  0.50000000000E+03  0.00000000000E+00 0.  1.
        -11    1    1    2    0    0 -0.63065970969E+01 -0.83898827575E+01  0.49975911313E+03  0.49986931738E+03  0.00000000000E+00 0.  1.
         11    1    1    2    0    0  0.57360913371E+00 -0.21085653971E+01 -0.13952487664E+03  0.13954198750E+03  0.00000000000E+00 0.  1.
        -15    1    1    2    0    0  0.23625250424E+01  0.34034802891E+01 -0.25744218222E+03  0.25748165006E+03  0.17770000000E+01 0.  1.
         15    1    1    2    0    0  0.33704629208E+01  0.70949678655E+01 -0.10279205428E+03  0.10310704506E+03  0.17770000000E+01 0. -1.
</event>
<event>
 6   1  0.1826851E-04  0.4912195E+03  0.7546771E-02  0.9419674E-01
        -11   -1    0    0    0    0  0.00000000000E+00  0.00000000000E+00  0.50000000000E+03  0.50000000000E+03  0.00000000000E+00 0.  1.
         11   -1    0    0    0    0 -0.00000000000E+00 -0.00000000000E+00 -0.50000000000E+03  0.50000000000E+03  0.00000000000E+00 0.  1.
        -11    1    1    2    0    0  0.45887311381E+01 -0.67299213646E+01  0.49376694074E+03  0.49383412201E+03  0.00000000000E+00 0.  1.
         11    1    1    2    0    0  0.77525133121E+01 -0.31917320656E+00 -0.48865938098E+03  0.48872097761E+03  0.00000000000E+00 0.  1.
        -15    1    1    2    0    0 -0.64383163055E+01  0.57699110893E+01 -0.65436102834E+01  0.10987281528E+02  0.17770000000E+01 0.  1.
         15    1    1    2    0    0 -0.59029281447E+01  0.12791834819E+01  0.14360505250E+01  0.64576188470E+01  0.17770000000E+01 0. -1.
</event>
<event>
 6   1  0.1826851E-04  0.5000736E+03  0.7546771E-02  0.9399645E-01
        -11   -1    0    0    0    0  0.00000000000E+00  0.00000000000E+00  0.50000000000E+03  0.50000000000E+03  0.00000000000E+00 0.  1.
         11   -1    0    0    0    0 -0.00000000000E+00 -0.00000000000E+00 -0.50000000000E+03  0.50000000000E+03  0.00000000000E+00 0.  1.
        -11    1    1    2    0    0 -0.32143222663E+01  0.10217084642E+02  0.38297566126E+03  0.38312540741E+03  0.00000000000E+00 0.  1.
         11    1    1    2    0    0 -0.48802407466E+00 -0.11278321423E+02 -0.49979891333E+03  0.49992638705E+03  0.00000000000E+00 0.  1.
        -15    1    1    2    0    0  0.22390443017E+01  0.10910142838E+01  0.59252905793E+02  0.59331848155E+02  0.17770000000E+01 0.  1.
         15    1    1    2    0    0  0.14633020393E+01 -0.29777502809E-01  0.57570346277E+02  0.57616357391E+02  0.17770000000E+01 0.  1.
</event>
<event>
 6   1  0.1826851E-04  0.5002756E+03  0.7546771E-02  0.9399193E-01
        -11   -1    0    0    0    0  0.00000000000E+00  0.00000000000E+00  0.50000000000E+03  0.50000000000E+03  0.00000000000E+00 0. -1.
         11   -1    0    0    0    0 -0.00000000000E+00 -0.00000000000E+00 -0.50000000000E+03  0.50000000000E+03  0.00000000000E+00 0.  1.
        -11    1    1    2    0    0 -0.14017278051E+02  0.89510397010E+01  0.49944760187E+03  0.49972443627E+03  0.00000000000E+00 0. -1.
         11    1    1    2    0    0 -0.12339845740E+01  0.91579508421E+00 -0.86061728662E+02  0.86075446783E+02  0.00000000000E+00 0.  1.
        -15    1    1    2    0    0  0.11742580763E+02 -0.10338123813E+01 -0.10705807389E+03  0.10771975624E+03  0.17770000000E+01 0. -1.
         15    1    1    2    0    0  0.35086818625E+01 -0.88330224040E+01 -0.30632779932E+03  0.30648036071E+03  0.17770000000E+01 0.  1.
</event>
<event>
 6   1  0.1826851E-04  0.5040592E+03  0.7546771E-02  0.9390772E-01
        -11   -1    0    0    0    0  0.00000000000E+00  0.00000000000E+00  0.50000000000E+03  0.50000000000E+03  0.00000000000E+00 0. -1.
         11   -1    0    0    0    0 -0.00000000000E+00 -0.00000000000E+00 -0.50000000000E+03  0.50000000000E+03  0.00000000000E+00 0.  1.
        -11    1    1    2    0    0  0.28008289437E+01  0.33313610154E+02  0.91445141247E+02  0.97364547562E+02  0.00000000000E+00 0. -1.
         11    1    1    2    0    0 -0.79787657339E+01  0.28302189507E+01 -0.49586851055E+03  0.49594077327E+03  0.00000000000E+00 0.  1.
        -15    1    1    2    0    0  0.94793306752E+01 -0.42717071384E+01  0.85227058972E+02  0.85877322397E+02  0.17770000000E+01 0.  1.
         15    1    1    2    0    0 -0.43013938851E+01 -0.31872121966E+02  0.31919631033E+03  0.32081735677E+03  0.17770000000E+01 0. -1.
</event>
<event>
 6   1  0.1826851E-04  0.5041123E+03  0.7546771E-02  0.9390655E-01
        -11   -1    0    0    0    0  0.00000000000E+00  0.00000000000E+00  0.50000000000E+03  0.50000000000E+03  0.00000000000E+00 0.  1.
         11   -1    0    0    0    0 -0.00000000000E+00 -0.00000000000E+00 -0.50000000000E+03  0.50000000000E+03  0.00000000000E+00 0.  1.
        -11    1    1    2    0    0 -0.36516657064E+02  0.52019417134E+02  0.49179784008E+03  0.49588769042E+03  0.00000000000E+00 0.  1.
         11    1    1    2    0    0 -0.35149352155E+01 -0.66655749943E+01 -0.23512904977E+03  0.23524977090E+03  0.00000000000E+00 0.  1.
        -15    1    1    2    0    0  0.36376679703E+02 -0.49444104686E+02 -0.15062795923E+03  0.16266506123E+03  0.17770000000E+01 0.  1.
         15    1    1    2    0    0  0.36549125770E+01  0.40902625470E+01 -0.10604083107E+03  0.10619747745E+03  0.17770000000E+01 0. -1.
</event>
<event>
 6   1  0.1826851E-04  0.5007228E+03  0.7546771E-02  0.9398194E-01
        -11   -1    0    0    0    0  0.00000000000E+00  0.00000000000E+00  0.50000000000E+03  0.50000000000E+03  0.00000000000E+00 0. -1.
         11   -1    0    0    0    0 -0.00000000000E+00 -0.00000000000E+00 -0.50000000000E+03  0.50000000000E+03  0.00000000000E+00 0.  1.
        -11    1    1    2    0    0  0.13887529966E+02 -0.20257327558E+01  0.49907989842E+03  0.49927718963E+03  0.00000000000E+00 0. -1.
         11    1    1    2    0    0 -0.46907211415E+00 -0.79588964424E+01 -0.36227420127E+03  0.36236191986E+03  0.00000000000E+00 0.  1.
        -15    1    1    2    0    0 -0.61700755783E+01  0.35795181525E+01 -0.23352675566E+02  0.24482401188E+02  0.17770000000E+01 0.  1.
         15    1    1    2    0    0 -0.72483822735E+01  0.64051110457E+01 -0.11345302158E+03  0.11387848931E+03  0.17770000000E+01 0. -1.
</event>
<event>
 6   1  0.1826851E-04  0.5002775E+03  0.7546771E-02  0.9399189E-01
        -11   -1    0    0    0    0  0.00000000000E+00  0.00000000000E+00  0.50000000000E+03  0.50000000000E+03  0.00000000000E+00 0.  1.
         11   -1    0    0    0    0 -0.00000000000E+00 -0.00000000000E+00 -0.50000000000E+03  0.50000000000E+03  0.00000000000E+00 0. -1.
        -11    1    1    2    0    0  0.18766279702E+02 -0.95650287715E+01  0.30837667858E+03  0.30909519395E+03  0.00000000000E+00 0.  1.
         11    1    1    2    0    0 -0.13492961782E+02  0.14157434968E+02 -0.49933967830E+03  0.49972253032E+03  0.00000000000E+00 0. -1.
        -15    1    1    2    0    0 -0.25804530417E+01  0.27280196583E+00  0.50331039899E+02  0.50429202504E+02  0.17770000000E+01 0.  1.
         15    1    1    2    0    0 -0.26928648787E+01 -0.48652081626E+01  0.14063195982E+03  0.14075307323E+03  0.17770000000E+01 0. -1.
</event>
<event>
 6   1  0.1826851E-04  0.5007381E+03  0.7546771E-02  0.9398160E-01
        -11   -1    0    0    0    0  0.00000000000E+00  0.00000000000E+00  0.50000000000E+03  0.50000000000E+03  0.00000000000E+00 0. -1.
         11   -1    0    0    0    0 -0.00000000000E+00 -0.00000000000E+00 -0.50000000000E+03  0.50000000000E+03  0.00000000000E+00 0.  1.
        -11    1    1    2    0    0  0.49345678578E+00 -0.20192497954E+02  0.19199318201E+03  0.19305274516E+03  0.00000000000E+00 0. -1.
         11    1    1    2    0    0  0.71813059874E+01  0.10780717690E+02 -0.49909386435E+03  0.49926193572E+03  0.00000000000E+00 0.  1.
        -15    1    1    2    0    0  0.32125298836E+00  0.77536250823E+01  0.72493124143E+02  0.72928956405E+02  0.17770000000E+01 0.  1.
         15    1    1    2    0    0 -0.79960157616E+01  0.16581551824E+01  0.23460755819E+03  0.23475636272E+03  0.17770000000E+01 0. -1.
</event>
<event>
 6   1  0.1826851E-04  0.5001631E+03  0.7546771E-02  0.9399445E-01
        -11   -1    0    0    0    0  0.00000000000E+00  0.00000000000E+00  0.50000000000E+03  0.50000000000E+03  0.00000000000E+00 0. -1.
         11   -1    0    0    0    0 -0.00000000000E+00 -0.00000000000E+00 -0.50000000000E+03  0.50000000000E+03  0.00000000000E+00 0. -1.
        -11    1    1    2    0    0  0.48677366362E+02 -0.19730240792E+02  0.49706961292E+03  0.49983694190E+03  0.00000000000E+00 0. -1.
         11    1    1    2    0    0 -0.44385974013E+02  0.17660091985E+02 -0.44094916378E+03  0.44352920825E+03  0.00000000000E+00 0. -1.
        -15    1    1    2    0    0 -0.20544435828E+01 -0.14459424462E+01 -0.22295426215E+02  0.22506782246E+02  0.17770000000E+01 0. -1.
         15    1    1    2    0    0 -0.22369487666E+01  0.35160912532E+01 -0.33825022932E+02  0.34127067598E+02  0.17770000000E+01 0.  1.
</event>
<event>
 6   1  0.1826851E-04  0.5005193E+03  0.7546771E-02  0.9398649E-01
        -11   -1    0    0    0    0  0.00000000000E+00  0.00000000000E+00  0.50000000000E+03  0.50000000000E+03  0.00000000000E+00 0.  1.
         11   -1    0    0    0    0 -0.00000000000E+00 -0.00000000000E+00 -0.50000000000E+03  0.50000000000E+03  0.00000000000E+00 0.  1.
        -11    1    1    2    0    0  0.67132400979E+00 -0.68904403268E+01  0.29943535993E+02  0.30733437680E+02  0.00000000000E+00 0.  1.
         11    1    1    2    0    0  0.51046826968E+01 -0.49115254283E+01 -0.49943047895E+03  0.49948071451E+03  0.00000000000E+00 0.  1.
        -15    1    1    2    0    0 -0.72570095491E-01  0.43904431386E+01  0.29602505456E+03  0.29606295262E+03  0.17770000000E+01 0.  1.
         15    1    1    2    0    0 -0.57034366111E+01  0.74115226165E+01  0.17346188840E+03  0.17372289519E+03  0.17770000000E+01 0. -1.
</event>
<event>
 6   1  0.1826851E-04  0.5009593E+03  0.7546771E-02  0.9397666E-01
        -11   -1    0    0    0    0  0.00000000000E+00  0.00000000000E+00  0.50000000000E+03  0.50000000000E+03  0.00000000000E+00 0.  1.
         11   -1    0    0    0    0 -0.00000000000E+00 -0.00000000000E+00 -0.50000000000E+03  0.50000000000E+03  0.00000000000E+00 0. -1.
        -11    1    1    2    0    0 -0.51304761353E+01 -0.83862024489E+01  0.27589031965E+02  0.29288305886E+02  0.00000000000E+00 0.  1.
         11    1    1    2    0    0  0.55643904569E+01 -0.65996177600E+01 -0.49896607904E+03  0.49904074526E+03  0.00000000000E+00 0. -1.
        -15    1    1    2    0    0 -0.38734126260E+00  0.34234472232E+01  0.58551501686E+02  0.58679690718E+02  0.17770000000E+01 0. -1.
         15    1    1    2    0    0 -0.46573058987E-01  0.11562372986E+02  0.41282554539E+03  0.41299125813E+03  0.17770000000E+01 0.  1.
</event>
<event>
 6   1  0.1826851E-04  0.5025153E+03  0.7546771E-02  0.9394199E-01
        -11   -1    0    0    0    0  0.00000000000E+00  0.00000000000E+00  0.50000000000E+03  0.50000000000E+03  0.00000000000E+00 0. -1.
         11   -1    0    0    0    0 -0.00000000000E+00 -0.00000000000E+00 -0.50000000000E+03  0.50000000000E+03  0.00000000000E+00 0. -1.
        -11    1    1    2    0    0  0.22448781916E+02  0.14895369764E+02  0.24595027418E+03  0.24742141625E+03  0.00000000000E+00 0. -1.
         11    1    1    2    0    0 -0.28640499115E+01 -0.73668437142E+01 -0.49742188211E+03  0.49748467511E+03  0.00000000000E+00 0. -1.
        -15    1    1    2    0    0  0.68662555557E+01 -0.52861034229E+01  0.17441605107E+02  0.19556473928E+02  0.17770000000E+01 0. -1.
         15    1    1    2    0    0 -0.26450987560E+02 -0.22424226271E+01  0.23403000282E+03  0.23553743471E+03  0.17770000000E+01 0.  1.
</event>
<event>
 6   1  0.1826851E-04  0.5041198E+03  0.7546771E-02  0.9390638E-01
        -11   -1    0    0    0    0  0.00000000000E+00  0.00000000000E+00  0.50000000000E+03  0.50000000000E+03  0.00000000000E+00 0.  1.
         11   -1    0    0    0    0 -0.00000000000E+00 -0.00000000000E+00 -0.50000000000E+03  0.50000000000E+03  0.00000000000E+00 0.  1.
        -11    1    1    2    0    0  0.12058055344E+02  0.25636535336E+01  0.49572697309E+03  0.49588022835E+03  0.00000000000E+00 0.  1.
         11    1    1    2    0    0 -0.74960314526E+00  0.88359133478E+01 -0.47346122777E+03  0.47354426348E+03  0.00000000000E+00 0.  1.
        -15    1    1    2    0    0 -0.44459638850E+01 -0.10541680175E+02 -0.65231702365E+01  0.13289209710E+02  0.17770000000E+01 0. -1.
         15    1    1    2    0    0 -0.68624883133E+01 -0.85788670664E+00 -0.15742575083E+02  0.17286298468E+02  0.17770000000E+01 0.  1.
</event>
<event>
 6   1  0.1826851E-04  0.4247755E+03  0.7546771E-02  0.9585903E-01
        -11   -1    0    0    0    0  0.00000000000E+00  0.00000000000E+00  0.50000000000E+03  0.50000000000E+03  0.00000000000E+00 0. -1.
         11   -1    0    0    0    0 -0.00000000000E+00 -0.00000000000E+00 -0.50000000000E+03  0.50000000000E+03  0.00000000000E+00 0. -1.
        -11    1    1    2    0    0 -0.96106366339E+02 -0.86571913293E+02  0.39699823839E+03  0.41753889772E+03  0.00000000000E+00 0. -1.
         11    1    1    2    0    0 -0.31105053847E+00  0.92776082000E+01 -0.44203577353E+03  0.44213323314E+03  0.00000000000E+00 0. -1.
        -15    1    1    2    0    0 -0.47859603244E+01  0.21235740491E+01 -0.18229479743E+01  0.58220143667E+01  0.17770000000E+01 0.  1.
         15    1    1    2    0    0  0.10120337720E+03  0.75170731044E+02  0.46860483108E+02  0.13450585478E+03  0.17770000000E+01 0. -1.
</event>
<event>
 6   1  0.1826851E-04  0.5017276E+03  0.7546771E-02  0.9395952E-01
        -11   -1    0    0    0    0  0.00000000000E+00  0.00000000000E+00  0.50000000000E+03  0.50000000000E+03  0.00000000000E+00 0.  1.
         11   -1    0    0    0    0 -0.00000000000E+00 -0.00000000000E+00 -0.50000000000E+03  0.50000000000E+03  0.00000000000E+00 0. -1.
        -11    1    1    2    0    0 -0.27696482907E+01  0.23905535396E+02  0.28699249325E+03  0.28799971659E+03  0.00000000000E+00 0.  1.
         11    1    1    2    0    0 -0.31663821285E+01 -0.78225586036E+01 -0.49820088961E+03  0.49827236007E+03  0.00000000000E+00 0. -1.
        -15    1    1    2    0    0  0.10227921576E+02  0.35206413408E+01  0.45622876195E+02  0.46921315588E+02  0.17770000000E+01 0. -1.
         15    1    1    2    0    0 -0.42918911564E+01 -0.19603618134E+02  0.16558552017E+03  0.16680660776E+03  0.17770000000E+01 0.  1.
</event>
<event>
 6   1  0.1826851E-04  0.5003853E+03  0.7546771E-02  0.9398948E-01
        -11   -1    0    0    0    0  0.00000000000E+00  0.00000000000E+00  0.50000000000E+03  0.50000000000E+03  0.00000000000E+00 0. -1.
         11   -1    0    0    0    0 -0.00000000000E+00 -0.00000000000E+00 -0.50000000000E+03  0.50000000000E+03  0.00000000000E+00 0.  1.
        -11    1    1    2    0    0  0.23254531293E+01 -0.11562250067E+01  0.13312616355E+03  0.13315149270E+03  0.00000000000E+00 0. -1.
         11    1    1    2    0    0  0.17370045470E+02  0.27798890012E+00 -0.49931257327E+03  0.49961469312E+03  0.00000000000E+00 0.  1.
        -15    1    1    2    0    0 -0.33531629860E+01 -0.13213562292E+01  0.11914293138E+02  0.12573694536E+02  0.17770000000E+01 0. -1.
         15    1    1    2    0    0 -0.16342335613E+02  0.21995923358E+01  0.35427211659E+03  0.35466011964E+03  0.17770000000E+01 0.  1.
</event>
<event>
 6   1  0.1826851E-04  0.5001070E+03  0.7546771E-02  0.9399570E-01
        -11   -1    0    0    0    0  0.00000000000E+00  0.00000000000E+00  0.50000000000E+03  0.50000000000E+03  0.00000000000E+00 0. -1.
         11   -1    0    0    0    0 -0.00000000000E+00 -0.00000000000E+00 -0.50000000000E+03  0.50000000000E+03  0.00000000000E+00 0.  1.
        -11    1    1    2    0    0  0.32603829445E+01 -0.82251617360E+01  0.21485706969E+03  0.21503916801E+03  0.00000000000E+00 0. -1.
         11    1    1    2    0    0  0.18286558218E+01  0.86392644320E+01 -0.49981498958E+03  0.49989299323E+03  0.00000000000E+00 0.  1.
        -15    1    1    2    0    0 -0.42873191509E+01 -0.16703767240E+01  0.23950927897E+03  0.23956006284E+03  0.17770000000E+01 0. -1.
         15    1    1    2    0    0 -0.80171961535E+00  0.12562740280E+01  0.45448640920E+02  0.45507775921E+02  0.17770000000E+01 0.  1.
</event>
<event>
 6   1  0.1826851E-04  0.5009484E+03  0.7546771E-02  0.9397690E-01
        -11   -1    0    0    0    0  0.00000000000E+00  0.00000000000E+00  0.50000000000E+03  0.50000000000E+03  0.00000000000E+00 0. -1.
         11   -1    0    0    0    0 -0.00000000000E+00 -0.00000000000E+00 -0.50000000000E+03  0.50000000000E+03  0.00000000000E+00 0.  1.
        -11    1    1    2    0    0  0.11007502883E+02  0.95946961550E+01  0.49883792615E+03  0.49905160042E+03  0.00000000000E+00 0. -1.
         11    1    1    2    0    0  0.51583442297E+00 -0.60587596332E+01 -0.37080452473E+03  0.37085437872E+03  0.00000000000E+00 0.  1.
        -15    1    1    2    0    0 -0.14192326720E+02 -0.67461205356E+01 -0.64944999114E+02  0.66842672889E+02  0.17770000000E+01 0.  1.
         15    1    1    2    0    0  0.26689894136E+01  0.32101840138E+01 -0.63088402308E+02  0.63251347975E+02  0.17770000000E+01 0. -1.
</event>
<event>
 6   1  0.1826851E-04  0.5002273E+03  0.7546771E-02  0.9399301E-01
        -11   -1    0    0    0    0  0.00000000000E+00  0.00000000000E+00  0.50000000000E+03  0.50000000000E+03  0.00000000000E+00 0. -1.
         11   -1    0    0    0    0 -0.00000000000E+00 -0.00000000000E+00 -0.50000000000E+03  0.50000000000E+03  0.00000000000E+00 0. -1.
        -11    1    1    2    0    0 -0.48272016758E+01  0.46350730071E+01  0.17295412325E+03  0.17308354783E+03  0.00000000000E+00 0. -1.
         11    1    1    2    0    0 -0.84157211144E+01 -0.59691311002E+01 -0.49966615180E+03  0.49977266646E+03  0.00000000000E+00 0. -1.
        -15    1    1    2    0    0  0.23134847697E+01  0.35175632658E+01  0.52133280153E+02  0.52333183465E+02  0.17770000000E+01 0.  1.
         15    1    1    2    0    0  0.10929438020E+02 -0.21835051727E+01  0.27457874839E+03  0.27481060225E+03  0.17770000000E+01 0. -1.
</event>
<event>
 6   1  0.1826851E-04  0.5048882E+03  0.7546771E-02  0.9388938E-01
        -11   -1    0    0    0    0  0.00000000000E+00  0.00000000000E+00  0.50000000000E+03  0.50000000000E+03  0.00000000000E+00 0.  1.
         11   -1    0    0    0    0 -0.00000000000E+00 -0.00000000000E+00 -0.50000000000E+03  0.50000000000E+03  0.00000000000E+00 0. -1.
        -11    1    1    2    0    0  0.64546607337E+02  0.15763493157E+02  0.17045677423E+03  0.18294880190E+03  0.00000000000E+00 0.  1.
         11    1    1    2    0    0 -0.59474965812E+02 -0.11168245348E+02 -0.49139973191E+03  0.49511180331E+03  0.00000000000E+00 0. -1.
        -15    1    1    2    0    0 -0.14116111366E+02 -0.55445594206E+00  0.23022971889E+03  0.23066957583E+03  0.17770000000E+01 0. -1.
         15    1    1    2    0    0  0.90444698409E+01 -0.40407918672E+01  0.90713238785E+02  0.91269818963E+02  0.17770000000E+01 0.  1.
</event>
<event>
 6   1  0.1826851E-04  0.5097056E+03  0.7546771E-02  0.9378351E-01
        -11   -1    0    0    0    0  0.00000000000E+00  0.00000000000E+00  0.50000000000E+03  0.50000000000E+03  0.00000000000E+00 0.  1.
         11   -1    0    0    0    0 -0.00000000000E+00 -0.00000000000E+00 -0.50000000000E+03  0.50000000000E+03  0.00000000000E+00 0. -1.
        -11    1    1    2    0    0  0.41741366188E+02  0.69072139545E+01  0.40466436616E+03  0.40687012730E+03  0.00000000000E+00 0.  1.
         11    1    1    2    0    0  0.13621320296E+02  0.29473797225E+01 -0.49009624800E+03  0.49029436028E+03  0.00000000000E+00 0. -1.
        -15    1    1    2    0    0 -0.68725034247E+01 -0.34347838532E+01  0.16572638601E+02  0.18353177453E+02  0.17770000000E+01 0. -1.
         15    1    1    2    0    0 -0.48490183059E+02 -0.64198098238E+01  0.68859243249E+02  0.84482334964E+02  0.17770000000E+01 0.  1.
</event>
<event>
 6   1  0.1826851E-04  0.5001378E+03  0.7546771E-02  0.9399501E-01
        -11   -1    0    0    0    0  0.00000000000E+00  0.00000000000E+00  0.50000000000E+03  0.50000000000E+03  0.00000000000E+00 0. -1.
         11   -1    0    0    0    0 -0.00000000000E+00 -0.00000000000E+00 -0.50000000000E+03  0.50000000000E+03  0.00000000000E+00 0.  1.
        -11    1    1    2    0    0 -0.31418666438E+02  0.36431791247E+02  0.49754177842E+03  0.49986221031E+03  0.00000000000E+00 0. -1.
         11    1    1    2    0    0  0.35236972773E+01 -0.30234488573E+01 -0.20109442204E+02  0.20638491981E+02  0.00000000000E+00 0.  1.
        -15    1    1    2    0    0  0.86845177472E+01 -0.64250562732E+01 -0.14658502618E+03  0.14699329858E+03  0.17770000000E+01 0. -1.
         15    1    1    2    0    0  0.19210451414E+02 -0.26983286117E+02 -0.33084731004E+03  0.33250599913E+03  0.17770000000E+01 0.  1.
</event>
<event>
 6   1  0.1826851E-04  0.5010782E+03  0.7546771E-02  0.9397400E-01
        -11   -1    0    0    0    0  0.00000000000E+00  0.00000000000E+00  0.50000000000E+03  0.50000000000E+03  0.00000000000E+00 0. -1.
         11   -1    0    0    0    0 -0.00000000000E+00 -0.00000000000E+00 -0.50000000000E+03  0.50000000000E+03  0.00000000000E+00 0.  1.
        -11    1    1    2    0    0  0.12051861584E+02 -0.10214133795E+02  0.39447710311E+03  0.39479331399E+03  0.00000000000E+00 0. -1.
         11    1    1    2    0    0  0.49563366315E+01  0.47020674393E+01 -0.49887499807E+03  0.49892177584E+03  0.00000000000E+00 0.  1.
        -15    1    1    2    0    0 -0.14611994691E+02  0.16785505870E+01  0.85419848157E+02  0.86695075460E+02  0.17770000000E+01 0.  1.
         15    1    1    2    0    0 -0.23962035253E+01  0.38335157691E+01  0.18978046801E+02  0.19589834708E+02  0.17770000000E+01 0. -1.
</event>
<event>
 6   1  0.1826851E-04  0.4104429E+03  0.7546771E-02  0.9626039E-01
        -11   -1    0    0    0    0  0.00000000000E+00  0.00000000000E+00  0.50000000000E+03  0.50000000000E+03  0.00000000000E+00 0. -1.
         11   -1    0    0    0    0 -0.00000000000E+00 -0.00000000000E+00 -0.50000000000E+03  0.50000000000E+03  0.00000000000E+00 0.  1.
        -11    1    1    2    0    0  0.64277802423E+02  0.10369828288E+03  0.35488511693E+03  0.37527112329E+03  0.00000000000E+00 0. -1.
         11    1    1    2    0    0 -0.68304410491E+01 -0.59374432798E+01 -0.45995447762E+03  0.46004350842E+03  0.00000000000E+00 0.  1.
        -15    1    1    2    0    0 -0.14740787765E+02  0.45088464265E+01  0.85950108015E+01  0.17738445809E+02  0.17770000000E+01 0. -1.
         15    1    1    2    0    0 -0.42706573608E+02 -0.10226968603E+03  0.96474349889E+02  0.14694692247E+03  0.17770000000E+01 0.  1.
</event>
<event>
 6   1  0.1826851E-04  0.5001691E+03  0.7546771E-02  0.9399431E-01
        -11   -1    0    0    0    0  0.00000000000E+00  0.00000000000E+00  0.50000000000E+03  0.50000000000E+03  0.00000000000E+00 0. -1.
         11   -1    0    0    0    0 -0.00000000000E+00 -0.00000000000E+00 -0.50000000000E+03  0.50000000000E+03  0.00000000000E+00 0. -1.
        -11    1    1    2    0    0 -0.17757118688E+02  0.21473366933E+01  0.49951074228E+03  0.49983087937E+03  0.00000000000E+00 0. -1.
         11    1    1    2    0    0  0.14818681339E+02  0.43817884940E+01 -0.28269659964E+03  0.28311863386E+03  0.00000000000E+00 0. -1.
        -15    1    1    2    0    0  0.18186976924E+01  0.32924230303E+00 -0.87510054994E+02  0.87547607139E+02  0.17770000000E+01 0.  1.
         15    1    1    2    0    0  0.11197396564E+01 -0.68583674903E+01 -0.12930408765E+03  0.12950287963E+03  0.17770000000E+01 0. -1.
</event>
<event>
 6   1  0.1826851E-04  0.5049173E+03  0.7546771E-02  0.9388874E-01
        -11   -1    0    0    0    0  0.00000000000E+00  0.00000000000E+00  0.50000000000E+03  0.50000000000E+03  0.00000000000E+00 0. -1.
         11   -1    0    0    0    0 -0.00000000000E+00 -0.00000000000E+00 -0.50000000000E+03  0.50000000000E+03  0.00000000000E+00 0.  1.
        -11    1    1    2    0    0  0.29478557924E+02 -0.11457473981E+02  0.48410503742E+02  0.57825910800E+02  0.00000000000E+00 0. -1.
         11    1    1    2    0    0 -0.28007148934E+02 -0.63636984459E+01 -0.49424887705E+03  0.49508266937E+03  0.00000000000E+00 0.  1.
        -15    1    1    2    0    0  0.43003185682E+00  0.25383977465E+02  0.34124395419E+03  0.34219164987E+03  0.17770000000E+01 0. -1.
         15    1    1    2    0    0 -0.19014408477E+01 -0.75628050384E+01  0.10459441912E+03  0.10489976996E+03  0.17770000000E+01 0.  1.
</event>
<event>
 6   1  0.1826851E-04  0.5030253E+03  0.7546771E-02  0.9393066E-01
        -11   -1    0    0    0    0  0.00000000000E+00  0.00000000000E+00  0.50000000000E+03  0.50000000000E+03  0.00000000000E+00 0. -1.
         11   -1    0    0    0    0 -0.00000000000E+00 -0.00000000000E+00 -0.50000000000E+03  0.50000000000E+03  0.00000000000E+00 0. -1.
        -11    1    1    2    0    0  0.13687262734E+02  0.64810023587E+01  0.45382263783E+03  0.45407524835E+03  0.00000000000E+00 0. -1.
         11    1    1    2    0    0 -0.32190747465E+01 -0.68602330636E+01 -0.49691692161E+03  0.49697469978E+03  0.00000000000E+00 0. -1.
        -15    1    1    2    0    0 -0.13490500006E+02 -0.22587087235E+01  0.42298840500E+02  0.44490954048E+02  0.17770000000E+01 0.  1.
         15    1    1    2    0    0  0.30223120180E+01  0.26379394283E+01  0.79544327901E+00  0.44590978204E+01  0.17770000000E+01 0. -1.
</event>
<event>
 6   1  0.1826851E-04  0.5002349E+03  0.7546771E-02  0.9399284E-01
        -11   -1    0    0    0    0  0.00000000000E+00  0.00000000000E+00  0.50000000000E+03  0.50000000000E+03  0.00000000000E+00 0. -1.
         11   -1    0    0    0    0 -0.00000000000E+00 -0.00000000000E+00 -0.50000000000E+03  0.50000000000E+03  0.00000000000E+00 0. -1.
        -11    1    1    2    0    0 -0.34290950399E+01  0.73533777277E+01  0.49969921268E+03  0.49976507882E+03  0.00000000000E+00 0. -1.
         11    1    1    2    0    0  0.52890761437E+01 -0.51059224191E+01 -0.44601445144E+03  0.44607503367E+03  0.00000000000E+00 0. -1.
        -15    1    1    2    0    0 -0.32744854042E+01 -0.17449652387E+01 -0.21427377432E+02  0.21818739445E+02  0.17770000000E+01 0. -1.
         15    1    1    2    0    0  0.14145043004E+01 -0.50249006995E+00 -0.32257383808E+02  0.32341148060E+02  0.17770000000E+01 0.  1.
</event>
<event>
 6   1  0.1826851E-04  0.5022079E+03  0.7546771E-02  0.9394883E-01
        -11   -1    0    0    0    0  0.00000000000E+00  0.00000000000E+00  0.50000000000E+03  0.50000000000E+03  0.00000000000E+00 0.  1.
         11   -1    0    0    0    0 -0.00000000000E+00 -0.00000000000E+00 -0.50000000000E+03  0.50000000000E+03  0.00000000000E+00 0. -1.
        -11    1    1    2    0    0  0.14187201786E+02  0.14313535926E+02  0.49738400920E+03  0.49779213193E+03  0.00000000000E+00 0.  1.
         11    1    1    2    0    0 -0.49445527159E+00  0.11308007500E+02 -0.40386736428E+03  0.40402594403E+03  0.00000000000E+00 0. -1.
        -15    1    1    2    0    0 -0.94066618833E+01 -0.20649876152E+02 -0.77704541300E+02  0.80969476598E+02  0.17770000000E+01 0. -1.
         15    1    1    2    0    0 -0.42860846310E+01 -0.49716672743E+01 -0.15812103625E+02  0.17212447444E+02  0.17770000000E+01 0.  1.
</event>
<event>
 6   1  0.1826851E-04  0.5004747E+03  0.7546771E-02  0.9398748E-01
        -11   -1    0    0    0    0  0.00000000000E+00  0.00000000000E+00  0.50000000000E+03  0.50000000000E+03  0.00000000000E+00 0.  1.
         11   -1    0    0    0    0 -0.00000000000E+00 -0.00000000000E+00 -0.50000000000E+03  0.50000000000E+03  0.00000000000E+00 0.  1.
        -11    1    1    2    0    0  0.15138686517E+02 -0.12627832133E+02  0.49913612122E+03  0.49952528413E+03  0.00000000000E+00 0.  1.
         11    1    1    2    0    0 -0.10482436010E+01 -0.36206197422E+01 -0.25367843415E+03  0.25370643597E+03  0.00000000000E+00 0.  1.
        -15    1    1    2    0    0 -0.12139650813E+02  0.10518050673E+02 -0.11181612526E+03  0.11297789212E+03  0.17770000000E+01 0. -1.
         15    1    1    2    0    0 -0.19507921034E+01  0.57304012013E+01 -0.13364156182E+03  0.13379038778E+03  0.17770000000E+01 0.  1.
</event>
<event>
 6   1  0.1826851E-04  0.5069035E+03  0.7546771E-02  0.9384494E-01
        -11   -1    0    0    0    0  0.00000000000E+00  0.00000000000E+00  0.50000000000E+03  0.50000000000E+03  0.00000000000E+00 0.  1.
         11   -1    0    0    0    0 -0.00000000000E+00 -0.00000000000E+00 -0.50000000000E+03  0.50000000000E+03  0.00000000000E+00 0.  1.
        -11    1    1    2    0    0 -0.74165675675E+01 -0.27244647818E+02  0.44514363149E+03  0.44603825953E+03  0.00000000000E+00 0.  1.
         11    1    1    2    0    0  0.72230144624E+01 -0.40116185008E+01 -0.49302727855E+03  0.49309650416E+03  0.00000000000E+00 0.  1.
        -15    1    1    2    0    0 -0.86340910385E+01  0.57710191250E+01  0.12883735897E+02  0.16643334085E+02  0.17770000000E+01 0.  1.
         15    1    1    2    0    0  0.88276441436E+01  0.25485247194E+02  0.34999911166E+02  0.44221902224E+02  0.17770000000E+01 0. -1.
</event>
<event>
 6   1  0.1826851E-04  0.5002255E+03  0.7546771E-02  0.9399305E-01
        -11   -1    0    0    0    0  0.00000000000E+00  0.00000000000E+00  0.50000000000E+03  0.50000000000E+03  0.00000000000E+00 0.  1.
         11   -1    0    0    0    0 -0.00000000000E+00 -0.00000000000E+00 -0.50000000000E+03  0.50000000000E+03  0.00000000000E+00 0.  1.
        -11    1    1    2    0    0 -0.64371269070E+00  0.16728368011E+02  0.49949400347E+03  0.49977446130E+03  0.00000000000E+00 0.  1.
         11    1    1    2    0    0  0.95547216686E+00 -0.52375901995E+01 -0.12442473075E+03  0.12453858398E+03  0.00000000000E+00 0.  1.
        -15    1    1    2    0    0 -0.53320606982E+01 -0.11546865844E+02 -0.14825414089E+03  0.14880930415E+03  0.17770000000E+01 0. -1.
         15    1    1    2    0    0  0.50203012220E+01  0.56088032451E-01 -0.22681513183E+03  0.22687765057E+03  0.17770000000E+01 0.  1.
</event>
<event>
 6   1  0.1826851E-04  0.5096533E+03  0.7546771E-02  0.9378465E-01
        -11   -1    0    0    0    0  0.00000000000E+00  0.00000000000E+00  0.50000000000E+03  0.50000000000E+03  0.00000000000E+00 0.  1.
         11   -1    0    0    0    0 -0.00000000000E+00 -0.00000000000E+00 -0.50000000000E+03  0.50000000000E+03  0.00000000000E+00 0.  1.
        -11    1    1    2    0    0  0.80001620458E+01 -0.31165455774E+02  0.40804129747E+03  0.40930793868E+03  0.00000000000E+00 0.  1.
         11    1    1    2    0    0 -0.76455810874E+01 -0.19184266685E+02 -0.48991164581E+03  0.49034672600E+03  0.00000000000E+00 0.  1.
        -15    1    1    2    0    0 -0.46334984764E+01  0.46218767626E+02  0.81860554376E+02  0.94137940708E+02  0.17770000000E+01 0. -1.
         15    1    1    2    0    0  0.42789175179E+01  0.41309548324E+01  0.97939648110E-02  0.62073946124E+01  0.17770000000E+01 0.  1.
</event>
<event>
 6   1  0.1826851E-04  0.5007549E+03  0.7546771E-02  0.9398122E-01
        -11   -1    0    0    0    0  0.00000000000E+00  0.00000000000E+00  0.50000000000E+03  0.50000000000E+03  0.00000000000E+00 0. -1.
         11   -1    0    0    0    0 -0.00000000000E+00 -0.00000000000E+00 -0.50000000000E+03  0.50000000000E+03  0.00000000000E+00 0. -1.
        -11    1    1    2    0    0 -0.92735483770E+01 -0.66355945487E+01  0.32694851258E+03  0.32714730580E+03  0.00000000000E+00 0. -1.
         11    1    1    2    0    0 -0.11311502698E+02  0.46941605342E+01 -0.49909482853E+03  0.49924506317E+03  0.00000000000E+00 0. -1.
        -15    1    1    2    0    0  0.13936925312E+02  0.41151708626E+01  0.94584478427E+02  0.95710782081E+02  0.17770000000E+01 0.  1.
         15    1    1    2    0    0  0.66481257629E+01 -0.21737368482E+01  0.77561837519E+02  0.77896848950E+02  0.17770000000E+01 0. -1.
</event>
<event>
 6   1  0.1826851E-04  0.5337659E+03  0.7546771E-02  0.9327272E-01
        -11   -1    0    0    0    0  0.00000000000E+00  0.00000000000E+00  0.50000000000E+03  0.50000000000E+03  0.00000000000E+00 0. -1.
         11   -1    0    0    0    0 -0.00000000000E+00 -0.00000000000E+00 -0.50000000000E+03  0.50000000000E+03  0.00000000000E+00 0.  1.
        -11    1    1    2    0    0 -0.67348297528E+01  0.95878536261E+02  0.45621943947E+03  0.46623409206E+03  0.00000000000E+00 0. -1.
         11    1    1    2    0    0 -0.12235486290E+01  0.59493476760E+01 -0.36489596613E+03  0.36494651377E+03  0.00000000000E+00 0.  1.
        -15    1    1    2    0    0  0.98841983652E+01  0.11159850330E+02 -0.43646638408E+02  0.46156542440E+02  0.17770000000E+01 0.  1.
         15    1    1    2    0    0 -0.19258199834E+01 -0.11298773427E+03 -0.47676834931E+02  0.12266285173E+03  0.17770000000E+01 0.  1.
</event>
<event>
 6   1  0.1826851E-04  0.5012903E+03  0.7546771E-02  0.9396927E-01
        -11   -1    0    0    0    0  0.00000000000E+00  0.00000000000E+00  0.50000000000E+03  0.50000000000E+03  0.00000000000E+00 0.  1.
         11   -1    0    0    0    0 -0.00000000000E+00 -0.00000000000E+00 -0.50000000000E+03  0.50000000000E+03  0.00000000000E+00 0.  1.
        -11    1    1    2    0    0 -0.38691624466E+02 -0.10630809171E+02  0.49709289028E+03  0.49870973269E+03  0.00000000000E+00 0.  1.
         11    1    1    2    0    0 -0.49081752073E+01 -0.14143201085E+01 -0.91528773199E+02  0.91671188541E+02  0.00000000000E+00 0.  1.
        -15    1    1    2    0    0  0.13669727482E+02  0.17415166024E+02 -0.94861332721E+02  0.97426791139E+02  0.17770000000E+01 0. -1.
         15    1    1    2    0    0  0.29930072191E+02 -0.53700367442E+01 -0.31070278436E+03  0.31219228763E+03  0.17770000000E+01 0.  1.
</event>
<event>
 6   1  0.1826851E-04  0.5042629E+03  0.7546771E-02  0.9390321E-01
        -11   -1    0    0    0    0  0.00000000000E+00  0.00000000000E+00  0.50000000000E+03  0.50000000000E+03  0.00000000000E+00 0. -1.
         11   -1    0    0    0    0 -0.00000000000E+00 -0.00000000000E+00 -0.50000000000E+03  0.50000000000E+03  0.00000000000E+00 0. -1.
        -11    1    1    2    0    0 -0.61655326841E+01  0.73943012603E+01  0.47544772254E+03  0.47554518855E+03  0.00000000000E+00 0. -1.
         11    1    1    2    0    0 -0.73073281011E+01  0.43398814936E+01 -0.49566419681E+03  0.49573705491E+03  0.00000000000E+00 0. -1.
        -15    1    1    2    0    0  0.15076578712E+01 -0.70280697587E+01  0.68699172523E+01  0.10100509336E+02  0.17770000000E+01 0.  1.
         15    1    1    2    0    0  0.11965202914E+02 -0.47061129952E+01  0.13346557019E+02  0.18617247207E+02  0.17770000000E+01 0.  1.
</event>
<event>
 6   1  0.1826851E-04  0.4881667E+03  0.7546771E-02  0.9426684E-01
        -11   -1    0    0    0    0  0.00000000000E+00  0.00000000000E+00  0.50000000000E+03  0.50000000000E+03  0.00000000000E+00 0. -1.
         11   -1    0    0    0    0 -0.00000000000E+00 -0.00000000000E+00 -0.50000000000E+03  0.50000000000E+03  0.00000000000E+00 0.  1.
        -11    1    1    2    0    0 -0.10661277467E+02 -0.11792006108E+02  0.48763304887E+03  0.48789210343E+03  0.00000000000E+00 0. -1.
         11    1    1    2    0    0 -0.11663625776E+02  0.86808840120E+01 -0.48848553076E+03  0.48870186379E+03  0.00000000000E+00 0.  1.
        -15    1    1    2    0    0  0.18638973085E+02  0.33758926408E+01  0.20467636132E+01  0.19135175438E+02  0.17770000000E+01 0.  1.
         15    1    1    2    0    0  0.36859301583E+01 -0.26477054466E+00 -0.11942817196E+01  0.42708573377E+01  0.17770000000E+01 0. -1.
</event>
<event>
 6   1  0.1826851E-04  0.5031713E+03  0.7546771E-02  0.9392742E-01
        -11   -1    0    0    0    0  0.00000000000E+00  0.00000000000E+00  0.50000000000E+03  0.50000000000E+03  0.00000000000E+00 0.  1.
         11   -1    0    0    0    0 -0.00000000000E+00 -0.00000000000E+00 -0.50000000000E+03  0.50000000000E+03  0.00000000000E+00 0.  1.
        -11    1    1    2    0    0 -0.40463799290E+02  0.28420325626E+02  0.49436195351E+03  0.49682871801E+03  0.00000000000E+00 0.  1.
         11    1    1    2    0    0  0.50146360762E+01 -0.20564294505E+01 -0.30517115064E+03  0.30521927636E+03  0.00000000000E+00 0.  1.
        -15    1    1    2    0    0  0.55379271092E+01  0.96600935360E+01 -0.32165947651E+02  0.34085069475E+02  0.17770000000E+01 0. -1.
         15    1    1    2    0    0  0.29911236105E+02 -0.36023989711E+02 -0.15702485522E+03  0.16386693616E+03  0.17770000000E+01 0.  1.
</event>
<event>
 6   1  0.1826851E-04  0.5002609E+03  0.7546771E-02  0.9399226E-01
        -11   -1    0    0    0    0  0.00000000000E+00  0.00000000000E+00  0.50000000000E+03  0.50000000000E+03  0.00000000000E+00 0.  1.
         11   -1    0    0    0    0 -0.00000000000E+00 -0.00000000000E+00 -0.50000000000E+03  0.50000000000E+03  0.00000000000E+00 0. -1.
        -11    1    1    2    0    0 -0.15480514487E+02  0.92943376377E+01  0.49941280422E+03  0.49973911199E+03  0.00000000000E+00 0.  1.
         11    1    1    2    0    0 -0.49218877637E+00  0.14850268946E+01 -0.60096537256E+02  0.60116897332E+02  0.00000000000E+00 0. -1.
        -15    1    1    2    0    0 -0.39482214958E+01 -0.19017275722E+00 -0.65159313690E+02  0.65303280991E+02  0.17770000000E+01 0.  1.
         15    1    1    2    0    0  0.19920924759E+02 -0.10589191775E+02 -0.37415695327E+03  0.37484070968E+03  0.17770000000E+01 0. -1.
</event>
<event>
 6   1  0.1826851E-04  0.5020575E+03  0.7546771E-02  0.9395218E-01
        -11   -1    0    0    0    0  0.00000000000E+00  0.00000000000E+00  0.50000000000E+03  0.50000000000E+03  0.00000000000E+00 0. -1.
         11   -1    0    0    0    0 -0.00000000000E+00 -0.00000000000E+00 -0.50000000000E+03  0.50000000000E+03  0.00000000000E+00 0.  1.
        -11    1    1    2    0    0  0.10802542250E+02 -0.58836146252E+01  0.21446742699E+02  0.24723968381E+02  0.00000000000E+00 0. -1.
         11    1    1    2    0    0 -0.46043514800E+01 -0.86587303566E+01 -0.49784587837E+03  0.49794245880E+03  0.00000000000E+00 0.  1.
        -15    1    1    2    0    0  0.48678186424E+01 -0.19558921522E+01  0.31196343280E+02  0.31684234810E+02  0.17770000000E+01 0.  1.
         15    1    1    2    0    0 -0.11066009412E+02  0.16498237134E+02  0.44520279239E+03  0.44564933801E+03  0.17770000000E+01 0. -1.
</event>
<event>
 6   1  0.1826851E-04  0.5006672E+03  0.7546771E-02  0.9398318E-01
        -11   -1    0    0    0    0  0.00000000000E+00  0.00000000000E+00  0.50000000000E+03  0.50000000000E+03  0.00000000000E+00 0.  1.
         11   -1    0    0    0    0 -0.00000000000E+00 -0.00000000000E+00 -0.50000000000E+03  0.50000000000E+03  0.00000000000E+00 0. -1.
        -11    1    1    2    0    0 -0.27388513100E+01  0.51051131092E+01  0.13647037230E+02  0.14825825829E+02  0.00000000000E+00 0.  1.
         11    1    1    2    0    0  0.54746353898E+00  0.70987646379E+01 -0.49928205237E+03  0.49933281486E+03  0.00000000000E+00 0. -1.
        -15    1    1    2    0    0  0.18535247091E+01 -0.10022559203E+01  0.11310124759E+03  0.11313483109E+03  0.17770000000E+01 0.  1.
         15    1    1    2    0    0  0.33786306200E+00 -0.11201621827E+02  0.37253376755E+03  0.37270652822E+03  0.17770000000E+01 0. -1.
</event>
<event>
 6   1  0.1826851E-04  0.5036706E+03  0.7546771E-02  0.9391634E-01
        -11   -1    0    0    0    0  0.00000000000E+00  0.00000000000E+00  0.50000000000E+03  0.50000000000E+03  0.00000000000E+00 0. -1.
         11   -1    0    0    0    0 -0.00000000000E+00 -0.00000000000E+00 -0.50000000000E+03  0.50000000000E+03  0.00000000000E+00 0. -1.
        -11    1    1    2    0    0  0.23800292052E+01 -0.69866342221E+01  0.49627449206E+03  0.49632937558E+03  0.00000000000E+00 0. -1.
         11    1    1    2    0    0 -0.61032730926E+01 -0.42406930066E+01 -0.48739145821E+03  0.48744811719E+03  0.00000000000E+00 0. -1.
        -15    1    1    2    0    0  0.28432168304E+01  0.26367807497E+01 -0.96692352738E+00  0.43736900638E+01  0.17770000000E+01 0.  1.
         15    1    1    2    0    0  0.88002705701E+00  0.85905464790E+01 -0.79161103277E+01  0.11848817162E+02  0.17770000000E+01 0. -1.
</event>
<event>
 6   1  0.1826851E-04  0.4835702E+03  0.7546771E-02  0.9437342E-01
        -11   -1    0    0    0    0  0.00000000000E+00  0.00000000000E+00  0.50000000000E+03  0.50000000000E+03  0.00000000000E+00 0. -1.
         11   -1    0    0    0    0 -0.00000000000E+00 -0.00000000000E+00 -0.50000000000E+03  0.50000000000E+03  0.00000000000E+00 0.  1.
        -11    1    1    2    0    0 -0.17465114339E+02  0.28255427884E+02  0.52196187218E+01  0.33625047857E+02  0.00000000000E+00 0. -1.
         11    1    1    2    0    0 -0.54376863836E+01 -0.83935753209E+01 -0.48458893526E+03  0.48469212570E+03  0.00000000000E+00 0.  1.
        -15    1    1    2    0    0  0.26356778127E+01 -0.25644182501E+02  0.28328369235E+03  0.28445980203E+03  0.17770000000E+01 0. -1.
         15    1    1    2    0    0  0.20267122910E+02  0.57823299384E+01  0.19608562419E+03  0.19722302440E+03  0.17770000000E+01 0.  1.
</event>
<event>
 6   1  0.1826851E-04  0.5005776E+03  0.7546771E-02  0.9398518E-01
        -11   -1    0    0    0    0  0.00000000000E+00  0.00000000000E+00  0.50000000000E+03  0.50000000000E+03  0.00000000000E+00 0. -1.
         11   -1    0    0    0    0 -0.00000000000E+00 -0.00000000000E+00 -0.50000000000E+03  0.50000000000E+03  0.00000000000E+00 0. -1.
        -11    1    1    2    0    0 -0.57780759054E+01 -0.43379232410E+01  0.39067371461E+03  0.39074052135E+03  0.00000000000E+00 0. -1.
         11    1    1    2    0    0 -0.65416393903E+01  0.30077696720E+01 -0.49937045103E+03  0.49942235341E+03  0.00000000000E+00 0. -1.
        -15    1    1    2    0    0  0.13127494616E+01 -0.29917572741E+01  0.31691353755E+02  0.31908831921E+02  0.17770000000E+01 0.  1.
         15    1    1    2    0    0  0.11006965834E+02  0.43219108431E+01  0.77005382670E+02  0.77928293318E+02  0.17770000000E+01 0. -1.
</event>
<event>
 6   1  0.1826851E-04  0.5032184E+03  0.7546771E-02  0.9392637E-01
        -11   -1    0    0    0    0  0.00000000000E+00  0.00000000000E+00  0.50000000000E+03  0.50000000000E+03  0.00000000000E+00 0. -1.
         11   -1    0    0    0    0 -0.00000000000E+00 -0.00000000000E+00 -0.50000000000E+03  0.50000000000E+03  0.00000000000E+00 0.  1.
        -11    1    1    2    0    0  0.63994785628E+01 -0.47771802621E+01  0.47974142935E+03  0.47980789261E+03  0.00000000000E+00 0. -1.
         11    1    1    2    0    0  0.16098544010E+01 -0.73857227521E+01 -0.49672412056E+03  0.49678163460E+03  0.00000000000E+00 0.  1.
        -15    1    1    2    0    0 -0.21178439567E+01  0.35097567710E+00  0.26688758999E+01  0.38586363550E+01  0.17770000000E+01 0. -1.
         15    1    1    2    0    0 -0.58914890071E+01  0.11811927337E+02  0.14313815310E+02  0.19551836432E+02  0.17770000000E+01 0.  1.
</event>
<event>
 6   1  0.1826851E-04  0.5030491E+03  0.7546771E-02  0.9393013E-01
        -11   -1    0    0    0    0  0.00000000000E+00  0.00000000000E+00  0.50000000000E+03  0.50000000000E+03  0.00000000000E+00 0. -1.
         11   -1    0    0    0    0 -0.00000000000E+00 -0.00000000000E+00 -0.50000000000E+03  0.50000000000E+03  0.00000000000E+00 0.  1.
        -11    1    1    2    0    0 -0.47388832011E+01 -0.17697851342E+01 -0.15210798097E+02  0.16029894952E+02  0.00000000000E+00 0. -1.
         11    1    1    2    0    0 -0.11181958190E+02 -0.93042383798E+01 -0.48070091785E+03  0.48092096800E+03  0.00000000000E+00 0.  1.
        -15    1    1    2    0    0 -0.26394463020E+00  0.17129771142E+02  0.18333177512E+02  0.25154758055E+02  0.17770000000E+01 0.  1.
         15    1    1    2    0    0  0.16184786021E+02 -0.60557476276E+01  0.47757853843E+03  0.47789437900E+03  0.17770000000E+01 0. -1.
</event>
<event>
 6   1  0.1826851E-04  0.5003000E+03  0.7546771E-02  0.9399139E-01
        -11   -1    0    0    0    0  0.00000000000E+00  0.00000000000E+00  0.50000000000E+03  0.50000000000E+03  0.00000000000E+00 0.  1.
         11   -1    0    0    0    0 -0.00000000000E+00 -0.00000000000E+00 -0.50000000000E+03  0.50000000000E+03  0.00000000000E+00 0.  1.
        -11    1    1    2    0    0  0.96794251039E+01 -0.28897682086E+01  0.49959788783E+03  0.49970000156E+03  0.00000000000E+00 0.  1.
         11    1    1    2    0    0  0.44908788509E+01 -0.80684267807E+00 -0.28997335127E+03  0.29000924715E+03  0.00000000000E+00 0.  1.
        -15    1    1    2    0    0 -0.12124290448E+02  0.53135379458E+01 -0.15463312994E+03  0.15520887445E+03  0.17770000000E+01 0.  1.
         15    1    1    2    0    0 -0.20460135071E+01 -0.16169270591E+01 -0.54991406628E+02  0.55081876841E+02  0.17770000000E+01 0. -1.
</event>
<event>
 6   1  0.1826851E-04  0.5000351E+03  0.7546771E-02  0.9399731E-01
        -11   -1    0    0    0    0  0.00000000000E+00  0.00000000000E+00  0.50000000000E+03  0.50000000000E+03  0.00000000000E+00 0.  1.
         11   -1    0    0    0    0 -0.00000000000E+00 -0.00000000000E+00 -0.50000000000E+03  0.50000000000E+03  0.00000000000E+00 0. -1.
        -11    1    1    2    0    0  0.25466481848E+01  0.31163961005E+01  0.86814490772E+02  0.86907727790E+02  0.00000000000E+00 0.  1.
         11    1    1    2    0    0 -0.54902610703E+01 -0.89959901974E+01 -0.49985384295E+03  0.49996493388E+03  0.00000000000E+00 0. -1.
        -15    1    1    2    0    0  0.27300608088E+01  0.39272378145E+01  0.34296067993E+03  0.34299863285E+03  0.17770000000E+01 0.  1.
         15    1    1    2    0    0  0.21355207677E+00  0.19523562824E+01  0.70078672244E+02  0.70128705478E+02  0.17770000000E+01 0.  1.
</event>
<event>
 6   1  0.1826851E-04  0.5001203E+03  0.7546771E-02  0.9399541E-01
        -11   -1    0    0    0    0  0.00000000000E+00  0.00000000000E+00  0.50000000000E+03  0.50000000000E+03  0.00000000000E+00 0. -1.
         11   -1    0    0    0    0 -0.00000000000E+00 -0.00000000000E+00 -0.50000000000E+03  0.50000000000E+03  0.00000000000E+00 0.  1.
        -11    1    1    2    0    0  0.19136912789E+02 -0.73389763664E+01  0.49945931355E+03  0.49987967342E+03  0.00000000000E+00 0. -1.
         11    1    1    2    0    0 -0.52859480964E+01  0.56120508069E+01 -0.30817010410E+03  0.30826652336E+03  0.00000000000E+00 0.  1.
        -15    1    1    2    0    0 -0.85440247110E+01  0.18722358671E+01 -0.10227693060E+03  0.10266564122E+03  0.17770000000E+01 0. -1.
         15    1    1    2    0    0 -0.53069399814E+01 -0.14531030748E+00 -0.89012278844E+02  0.89188162001E+02  0.17770000000E+01 0.  1.
</event>
<event>
 6   1  0.1826851E-04  0.5034378E+03  0.7546771E-02  0.9392150E-01
        -11   -1    0    0    0    0  0.00000000000E+00  0.00000000000E+00  0.50000000000E+03  0.50000000000E+03  0.00000000000E+00 0.  1.
         11   -1    0    0    0    0 -0.00000000000E+00 -0.00000000000E+00 -0.50000000000E+03  0.50000000000E+03  0.00000000000E+00 0.  1.
        -11    1    1    2    0    0  0.73271917784E+01 -0.45523984636E+02  0.49441668391E+03  0.49656215950E+03  0.00000000000E+00 0.  1.
         11    1    1    2    0    0 -0.31175560826E+02  0.29520476225E+02 -0.38908436619E+03  0.39144606030E+03  0.00000000000E+00 0.  1.
        -15    1    1    2    0    0  0.21403683584E+02 -0.25025995136E+00 -0.57240596942E+02  0.61137745855E+02  0.17770000000E+01 0. -1.
         15    1    1    2    0    0  0.24446854642E+01  0.16253768362E+02 -0.48091720780E+02  0.50854034350E+02  0.17770000000E+01 0.  1.
</event>
<event>
 6   1  0.1826851E-04  0.5234295E+03  0.7546771E-02  0.9348858E-01
        -11   -1    0    0    0    0  0.00000000000E+00  0.00000000000E+00  0.50000000000E+03  0.50000000000E+03  0.00000000000E+00 0.  1.
         11   -1    0    0    0    0 -0.00000000000E+00 -0.00000000000E+00 -0.50000000000E+03  0.50000000000E+03  0.00000000000E+00 0.  1.
        -11    1    1    2    0    0 -0.55268832888E+02  0.36466761271E+02  0.42830399908E+03  0.43339218290E+03  0.00000000000E+00 0.  1.
         11    1    1    2    0    0  0.47422765896E+01 -0.10999907140E+02 -0.47641994870E+03  0.47657051384E+03  0.00000000000E+00 0.  1.
        -15    1    1    2    0    0  0.53595633377E+02 -0.27278974447E+02  0.55367569042E+02  0.81764049524E+02  0.17770000000E+01 0. -1.
         15    1    1    2    0    0 -0.30690770791E+01  0.18121203165E+01 -0.72516194226E+01  0.82732537377E+01  0.17770000000E+01 0.  1.
</event>
<event>
 6   1  0.1826851E-04  0.4782739E+03  0.7546771E-02  0.9449780E-01
        -11   -1    0    0    0    0  0.00000000000E+00  0.00000000000E+00  0.50000000000E+03  0.50000000000E+03  0.00000000000E+00 0. -1.
         11   -1    0    0    0    0 -0.00000000000E+00 -0.00000000000E+00 -0.50000000000E+03  0.50000000000E+03  0.00000000000E+00 0. -1.
        -11    1    1    2    0    0 -0.94512500348E+01 -0.24068805730E+02  0.47925157931E+03  0.47994865330E+03  0.00000000000E+00 0. -1.
         11    1    1    2    0    0  0.66792215492E+01  0.17071777670E+00 -0.47685784736E+03  0.47690465266E+03  0.00000000000E+00 0. -1.
        -15    1    1    2    0    0 -0.53811802102E+01 -0.81704101876E+01 -0.46677141174E+00  0.99543110078E+01  0.17770000000E+01 0. -1.
         15    1    1    2    0    0  0.81532086958E+01  0.32068498141E+02 -0.19269605378E+01  0.33192383027E+02  0.17770000000E+01 0.  1.
</event>
<event>
 6   1  0.1826851E-04  0.4992143E+03  0.7546771E-02  0.9401570E-01
        -11   -1    0    0    0    0  0.00000000000E+00  0.00000000000E+00  0.50000000000E+03  0.50000000000E+03  0.00000000000E+00 0. -1.
         11   -1    0    0    0    0 -0.00000000000E+00 -0.00000000000E+00 -0.50000000000E+03  0.50000000000E+03  0.00000000000E+00 0. -1.
        -11    1    1    2    0    0  0.49662370806E+00  0.14981902420E+01  0.12102546778E+01  0.19889508525E+01  0.00000000000E+00 0. -1.
         11    1    1    2    0    0 -0.77275160126E+01  0.33406429092E+01 -0.49932718413E+03  0.49939814899E+03  0.00000000000E+00 0. -1.
        -15    1    1    2    0    0 -0.36886481437E+01 -0.91774587399E+01  0.18804085417E+03  0.18830919373E+03  0.17770000000E+01 0. -1.
         15    1    1    2    0    0  0.10919540448E+02  0.43386255888E+01  0.31007607528E+03  0.31030370643E+03  0.17770000000E+01 0.  1.
</event>
<event>
 6   1  0.1826851E-04  0.4854853E+03  0.7546771E-02  0.9432886E-01
        -11   -1    0    0    0    0  0.00000000000E+00  0.00000000000E+00  0.50000000000E+03  0.50000000000E+03  0.00000000000E+00 0. -1.
         11   -1    0    0    0    0 -0.00000000000E+00 -0.00000000000E+00 -0.50000000000E+03  0.50000000000E+03  0.00000000000E+00 0.  1.
        -11    1    1    2    0    0 -0.92415682017E+01 -0.15592744118E+02  0.48586225608E+03  0.48620023872E+03  0.00000000000E+00 0. -1.
         11    1    1    2    0    0 -0.55700479987E+01 -0.39293511150E+01 -0.48503207754E+03  0.48507997431E+03  0.00000000000E+00 0.  1.
        -15    1    1    2    0    0  0.73075402338E+01  0.19439525753E+02 -0.19171233091E+01  0.20931516824E+02  0.17770000000E+01 0. -1.
         15    1    1    2    0    0  0.75040759667E+01  0.82569480449E-01  0.10869447690E+01  0.77882701393E+01  0.17770000000E+01 0.  1.
</event>
<event>
 6   1  0.1826851E-04  0.5040939E+03  0.7546771E-02  0.9390696E-01
        -11   -1    0    0    0    0  0.00000000000E+00  0.00000000000E+00  0.50000000000E+03  0.50000000000E+03  0.00000000000E+00 0.  1.
         11   -1    0    0    0    0 -0.00000000000E+00 -0.00000000000E+00 -0.50000000000E+03  0.50000000000E+03  0.00000000000E+00 0. -1.
        -11    1    1    2    0    0  0.25375866989E+02  0.29329688480E+02  0.27982781346E+03  0.28250269103E+03  0.00000000000E+00 0.  1.
         11    1    1    2    0    0 -0.22335584082E+02  0.23079214319E+02 -0.49486500585E+03  0.49590614280E+03  0.00000000000E+00 0. -1.
        -15    1    1    2    0    0 -0.28980099390E+01 -0.78805579409E+01  0.45004524736E+02  0.45815571925E+02  0.17770000000E+01 0. -1.
         15    1    1    2    0    0 -0.14227296865E+00 -0.44528344858E+02  0.17003266765E+03  0.17577559425E+03  0.17770000000E+01 0.  1.
</event>
<event>
 6   1  0.1826851E-04  0.5070726E+03  0.7546771E-02  0.9384122E-01
        -11   -1    0    0    0    0  0.00000000000E+00  0.00000000000E+00  0.50000000000E+03  0.50000000000E+03  0.00000000000E+00 0. -1.
         11   -1    0    0    0    0 -0.00000000000E+00 -0.00000000000E+00 -0.50000000000E+03  0.50000000000E+03  0.00000000000E+00 0.  1.
        -11    1    1    2    0    0 -0.73843718265E+01  0.10996966650E+02  0.46318055520E+03  0.46336992667E+03  0.00000000000E+00 0. -1.
         11    1    1    2    0    0  0.53584277380E+01 -0.10505808896E+02 -0.49278627053E+03  0.49292737111E+03  0.00000000000E+00 0.  1.
        -15    1    1    2    0    0 -0.29739737728E+01 -0.12186655811E+02  0.14450102733E+01  0.12751661991E+02  0.17770000000E+01 0. -1.
         15    1    1    2    0    0  0.49999178614E+01  0.11695498057E+02  0.28160705050E+02  0.30951040230E+02  0.17770000000E+01 0.  1.
</event>
<event>
 6   1  0.1826851E-04  0.5057692E+03  0.7546771E-02  0.9386992E-01
        -11   -1    0    0    0    0  0.00000000000E+00  0.00000000000E+00  0.50000000000E+03  0.50000000000E+03  0.00000000000E+00 0.  1.
         11   -1    0    0    0    0 -0.00000000000E+00 -0.00000000000E+00 -0.50000000000E+03  0.50000000000E+03  0.00000000000E+00 0. -1.
        -11    1    1    2    0    0  0.20166348357E+02  0.17322093423E+01  0.48156576205E+03  0.48199093906E+03  0.00000000000E+00 0.  1.
         11    1    1    2    0    0 -0.39020534691E+01 -0.86346786060E+01 -0.49413993227E+03  0.49423077238E+03  0.00000000000E+00 0. -1.
        -15    1    1    2    0    0 -0.12185760195E+01  0.24390289495E+01 -0.47745888253E+00  0.32892986663E+01  0.17770000000E+01 0.  1.
         15    1    1    2    0    0 -0.15045718868E+02  0.44634403143E+01  0.13051629106E+02  0.20488989898E+02  0.17770000000E+01 0. -1.
</event>
<event>
 6   1  0.1826851E-04  0.5004195E+03  0.7546771E-02  0.9398872E-01
        -11   -1    0    0    0    0  0.00000000000E+00  0.00000000000E+00  0.50000000000E+03  0.50000000000E+03  0.00000000000E+00 0.  1.
         11   -1    0    0    0    0 -0.00000000000E+00 -0.00000000000E+00 -0.50000000000E+03  0.50000000000E+03  0.00000000000E+00 0.  1.
        -11    1    1    2    0    0 -0.19102093983E+02  0.57849902649E+01  0.18270677951E+03  0.18379369790E+03  0.00000000000E+00 0.  1.
         11    1    1    2    0    0  0.20558008151E+02 -0.47364174143E+01 -0.49913487602E+03  0.49958051384E+03  0.00000000000E+00 0.  1.
        -15    1    1    2    0    0  0.37421714202E+01 -0.32248184320E+01  0.13767072515E+03  0.13777078643E+03  0.17770000000E+01 0.  1.
         15    1    1    2    0    0 -0.51980855889E+01  0.21762455813E+01  0.17875737136E+03  0.17885500184E+03  0.17770000000E+01 0. -1.
</event>
<event>
 6   1  0.1826851E-04  0.4878433E+03  0.7546771E-02  0.9427430E-01
        -11   -1    0    0    0    0  0.00000000000E+00  0.00000000000E+00  0.50000000000E+03  0.50000000000E+03  0.00000000000E+00 0.  1.
         11   -1    0    0    0    0 -0.00000000000E+00 -0.00000000000E+00 -0.50000000000E+03  0.50000000000E+03  0.00000000000E+00 0. -1.
        -11    1    1    2    0    0 -0.16059370536E+02 -0.16090483439E+02  0.48994272789E+03  0.49046986009E+03  0.00000000000E+00 0.  1.
         11    1    1    2    0    0  0.69122902547E+01 -0.38227781410E+01 -0.48540904764E+03  0.48547331226E+03  0.00000000000E+00 0. -1.
        -15    1    1    2    0    0  0.10177921999E+02  0.15111559907E+02 -0.44242181451E+01  0.18832970404E+02  0.17770000000E+01 0.  1.
         15    1    1    2    0    0 -0.10308417169E+01  0.48017016728E+01 -0.10946211380E+00  0.52238572486E+01  0.17770000000E+01 0. -1.
</event>
<event>
 6   1  0.1826851E-04  0.5052341E+03  0.7546771E-02  0.9388174E-01
        -11   -1    0    0    0    0  0.00000000000E+00  0.00000000000E+00  0.50000000000E+03  0.50000000000E+03  0.00000000000E+00 0. -1.
         11   -1    0    0    0    0 -0.00000000000E+00 -0.00000000000E+00 -0.50000000000E+03  0.50000000000E+03  0.00000000000E+00 0. -1.
        -11    1    1    2    0    0  0.12212307087E+02  0.14336394413E+02  0.49440730830E+03  0.49476586296E+03  0.00000000000E+00 0. -1.
         11    1    1    2    0    0 -0.74618985661E+01  0.41223136896E+01 -0.47844905680E+03  0.47852499762E+03  0.00000000000E+00 0. -1.
        -15    1    1    2    0    0  0.43469372852E+00 -0.11894957234E+02 -0.55908289899E+01  0.13270043859E+02  0.17770000000E+01 0.  1.
         15    1    1    2    0    0 -0.51851022495E+01 -0.65637508683E+01 -0.10367422514E+02  0.13439095557E+02  0.17770000000E+01 0. -1.
</event>
<event>
 6   1  0.1826851E-04  0.4795852E+03  0.7546771E-02  0.9446685E-01
        -11   -1    0    0    0    0  0.00000000000E+00  0.00000000000E+00  0.50000000000E+03  0.50000000000E+03  0.00000000000E+00 0. -1.
         11   -1    0    0    0    0 -0.00000000000E+00 -0.00000000000E+00 -0.50000000000E+03  0.50000000000E+03  0.00000000000E+00 0.  1.
        -11    1    1    2    0    0 -0.30361852711E+02 -0.45639744759E+01  0.47325388449E+03  0.47424878613E+03  0.00000000000E+00 0. -1.
         11    1    1    2    0    0  0.16728221924E+01 -0.88130583516E+01 -0.48543824695E+03  0.48552112203E+03  0.00000000000E+00 0.  1.
        -15    1    1    2    0    0  0.27683125304E+01  0.11440230082E+01  0.10945223274E+02  0.11485990790E+02  0.17770000000E+01 0.  1.
         15    1    1    2    0    0  0.25920717988E+02  0.12233009819E+02  0.12391391917E+01  0.28744101050E+02  0.17770000000E+01 0. -1.
</event>
<event>
 6   1  0.1826851E-04  0.5031695E+03  0.7546771E-02  0.9392745E-01
        -11   -1    0    0    0    0  0.00000000000E+00  0.00000000000E+00  0.50000000000E+03  0.50000000000E+03  0.00000000000E+00 0. -1.
         11   -1    0    0    0    0 -0.00000000000E+00 -0.00000000000E+00 -0.50000000000E+03  0.50000000000E+03  0.00000000000E+00 0.  1.
        -11    1    1    2    0    0  0.33978033040E+01 -0.15463386266E+02  0.46265553144E+03  0.46292634636E+03  0.00000000000E+00 0. -1.
         11    1    1    2    0    0 -0.85156001644E+01  0.10672894109E+01 -0.49675634606E+03  0.49683047602E+03  0.00000000000E+00 0.  1.
        -15    1    1    2    0    0  0.73230417774E+00  0.84981127516E+01  0.30771440766E+02  0.31981142656E+02  0.17770000000E+01 0.  1.
         15    1    1    2    0    0  0.43854926827E+01  0.58979841032E+01  0.33293738559E+01  0.82620349687E+01  0.17770000000E+01 0. -1.
</event>
<event>
 6   1  0.1826851E-04  0.5001582E+03  0.7546771E-02  0.9399456E-01
        -11   -1    0    0    0    0  0.00000000000E+00  0.00000000000E+00  0.50000000000E+03  0.50000000000E+03  0.00000000000E+00 0. -1.
         11   -1    0    0    0    0 -0.00000000000E+00 -0.00000000000E+00 -0.50000000000E+03  0.50000000000E+03  0.00000000000E+00 0.  1.
        -11    1    1    2    0    0 -0.54289442374E+00  0.18121438503E+02  0.49951288205E+03  0.49984177557E+03  0.00000000000E+00 0. -1.
         11    1    1    2    0    0 -0.13580299723E+01  0.23982736465E+01 -0.10844528822E+03  0.10848030466E+03  0.00000000000E+00 0.  1.
        -15    1    1    2    0    0 -0.13997371007E+01 -0.23567514168E+01 -0.68065261314E+02  0.68143606214E+02  0.17770000000E+01 0. -1.
         15    1    1    2    0    0  0.33006614967E+01 -0.18162960733E+02 -0.32300233252E+03  0.32353431356E+03  0.17770000000E+01 0.  1.
</event>
<event>
 6   1  0.1826851E-04  0.5004102E+03  0.7546771E-02  0.9398892E-01
        -11   -1    0    0    0    0  0.00000000000E+00  0.00000000000E+00  0.50000000000E+03  0.50000000000E+03  0.00000000000E+00 0. -1.
         11   -1    0    0    0    0 -0.00000000000E+00 -0.00000000000E+00 -0.50000000000E+03  0.50000000000E+03  0.00000000000E+00 0.  1.
        -11    1    1    2    0    0 -0.54545262344E+01 -0.83199807151E+01  0.16252128496E+03  0.16282549555E+03  0.00000000000E+00 0. -1.
         11    1    1    2    0    0  0.10208559128E+02  0.37785537758E+01 -0.49947117393E+03  0.49958977745E+03  0.00000000000E+00 0.  1.
        -15    1    1    2    0    0 -0.59148048266E+00  0.80861121786E+00  0.32757121694E+01  0.38589792018E+01  0.17770000000E+01 0. -1.
         15    1    1    2    0    0 -0.41625524110E+01  0.37328157214E+01  0.33367417680E+03  0.33372574780E+03  0.17770000000E+01 0. -1.
</event>
<event>
 6   1  0.1826851E-04  0.5023925E+03  0.7546771E-02  0.9394472E-01
        -11   -1    0    0    0    0  0.00000000000E+00  0.00000000000E+00  0.50000000000E+03  0.50000000000E+03  0.00000000000E+00 0.  1.
         11   -1    0    0    0    0 -0.00000000000E+00 -0.00000000000E+00 -0.50000000000E+03  0.50000000000E+03  0.00000000000E+00 0.  1.
        -11    1    1    2    0    0 -0.85320698065E+00  0.11688391003E+02  0.49746942797E+03  0.49760745394E+03  0.00000000000E+00 0.  1.
         11    1    1    2    0    0  0.54595768479E+01  0.40704724925E+01 -0.46822321538E+03  0.46827273586E+03  0.00000000000E+00 0.  1.
        -15    1    1    2    0    0 -0.24576602159E+01 -0.22460893355E+01 -0.60782998147E+01  0.71546117070E+01  0.17770000000E+01 0. -1.
         15    1    1    2    0    0 -0.21487096513E+01 -0.13512774160E+02 -0.23167912774E+02  0.26965198497E+02  0.17770000000E+01 0.  1.
</event>
<event>
 6   1  0.1826851E-04  0.5000452E+03  0.7546771E-02  0.9399709E-01
        -11   -1    0    0    0    0  0.00000000000E+00  0.00000000000E+00  0.50000000000E+03  0.50000000000E+03  0.00000000000E+00 0. -1.
         11   -1    0    0    0    0 -0.00000000000E+00 -0.00000000000E+00 -0.50000000000E+03  0.50000000000E+03  0.00000000000E+00 0.  1.
        -11    1    1    2    0    0 -0.16446536568E+01 -0.50120865828E+01  0.20911118399E+03  0.20917770714E+03  0.00000000000E+00 0. -1.
         11    1    1    2    0    0  0.81510418832E+01  0.67537479634E+01 -0.49984271838E+03  0.49995479367E+03  0.00000000000E+00 0.  1.
        -15    1    1    2    0    0 -0.30795580496E+01 -0.27903438172E+01  0.19509919193E+03  0.19515153629E+03  0.17770000000E+01 0.  1.
         15    1    1    2    0    0 -0.34268301769E+01  0.10486824367E+01  0.95632342464E+02  0.95715962901E+02  0.17770000000E+01 0. -1.
</event>
<event>
 6   1  0.1826851E-04  0.4775522E+03  0.7546771E-02  0.9451488E-01
        -11   -1    0    0    0    0  0.00000000000E+00  0.00000000000E+00  0.50000000000E+03  0.50000000000E+03  0.00000000000E+00 0. -1.
         11   -1    0    0    0    0 -0.00000000000E+00 -0.00000000000E+00 -0.50000000000E+03  0.50000000000E+03  0.00000000000E+00 0. -1.
        -11    1    1    2    0    0  0.23032243371E+01 -0.32510513907E+02  0.47672468213E+03  0.47783748378E+03  0.00000000000E+00 0. -1.
         11    1    1    2    0    0  0.72867674557E+00 -0.94537953302E+01 -0.47810020698E+03  0.47819422114E+03  0.00000000000E+00 0. -1.
        -15    1    1    2    0    0  0.49050847023E+00  0.38917349849E+02  0.11300277719E+01  0.38977370481E+02  0.17770000000E+01 0. -1.
         15    1    1    2    0    0 -0.35224095529E+01  0.30469593880E+01  0.24549708256E+00  0.49909246026E+01  0.17770000000E+01 0.  1.
</event>
<event>
 6   1  0.1826851E-04  0.5001491E+03  0.7546771E-02  0.9399476E-01
        -11   -1    0    0    0    0  0.00000000000E+00  0.00000000000E+00  0.50000000000E+03  0.50000000000E+03  0.00000000000E+00 0. -1.
         11   -1    0    0    0    0 -0.00000000000E+00 -0.00000000000E+00 -0.50000000000E+03  0.50000000000E+03  0.00000000000E+00 0. -1.
        -11    1    1    2    0    0  0.38684844722E+00 -0.10403365486E+02  0.24246585161E+03  0.24268924340E+03  0.00000000000E+00 0. -1.
         11    1    1    2    0    0 -0.11755200739E+01  0.15016731782E+02 -0.49962394573E+03  0.49985094901E+03  0.00000000000E+00 0. -1.
        -15    1    1    2    0    0  0.26595439869E-01 -0.28686866998E+01  0.24512005105E+03  0.24514327898E+03  0.17770000000E+01 0. -1.
         15    1    1    2    0    0  0.76207618677E+00 -0.17446795960E+01  0.12038043065E+02  0.12316528603E+02  0.17770000000E+01 0. -1.
</event>
<event>
 6   1  0.1826851E-04  0.5059208E+03  0.7546771E-02  0.9386658E-01
        -11   -1    0    0    0    0  0.00000000000E+00  0.00000000000E+00  0.50000000000E+03  0.50000000000E+03  0.00000000000E+00 0. -1.
         11   -1    0    0    0    0 -0.00000000000E+00 -0.00000000000E+00 -0.50000000000E+03  0.50000000000E+03  0.00000000000E+00 0.  1.
        -11    1    1    2    0    0  0.40979770117E+02 -0.86964011187E+01  0.49229998790E+03  0.49407919106E+03  0.00000000000E+00 0. -1.
         11    1    1    2    0    0 -0.31343997740E+01 -0.49267415282E+01 -0.40779934525E+03  0.40784114950E+03  0.00000000000E+00 0.  1.
        -15    1    1    2    0    0  0.25088877805E+00  0.59435521468E+01 -0.32771201381E+02  0.33354132072E+02  0.17770000000E+01 0. -1.
         15    1    1    2    0    0 -0.38096259121E+02  0.76795905001E+01 -0.51729441273E+02  0.64725527365E+02  0.17770000000E+01 0.  1.
</event>
<event>
 6   1  0.1826851E-04  0.5008018E+03  0.7546771E-02  0.9398017E-01
        -11   -1    0    0    0    0  0.00000000000E+00  0.00000000000E+00  0.50000000000E+03  0.50000000000E+03  0.00000000000E+00 0.  1.
         11   -1    0    0    0    0 -0.00000000000E+00 -0.00000000000E+00 -0.50000000000E+03  0.50000000000E+03  0.00000000000E+00 0.  1.
        -11    1    1    2    0    0  0.24371388603E+02 -0.26461703330E+01  0.32397120606E+03  0.32489738250E+03  0.00000000000E+00 0.  1.
         11    1    1    2    0    0 -0.15869241278E+02 -0.10769900652E+02 -0.49882961578E+03  0.49919816622E+03  0.00000000000E+00 0.  1.
        -15    1    1    2    0    0  0.21829927354E+01  0.23422997051E+01  0.34556356978E+02  0.34749839738E+02  0.17770000000E+01 0.  1.
         15    1    1    2    0    0 -0.10685140061E+02  0.11073771280E+02  0.14030205274E+03  0.14115461154E+03  0.17770000000E+01 0.  1.
</event>
<event>
 6   1  0.1826851E-04  0.5004460E+03  0.7546771E-02  0.9398812E-01
        -11   -1    0    0    0    0  0.00000000000E+00  0.00000000000E+00  0.50000000000E+03  0.50000000000E+03  0.00000000000E+00 0.  1.
         11   -1    0    0    0    0 -0.00000000000E+00 -0.00000000000E+00 -0.50000000000E+03  0.50000000000E+03  0.00000000000E+00 0. -1.
        -11    1    1    2    0    0  0.19337790861E+02  0.48819778821E+02  0.36423705116E+03  0.36800264998E+03  0.00000000000E+00 0.  1.
         11    1    1    2    0    0 -0.15126301599E+02 -0.54569159644E+02 -0.49633415744E+03  0.49955399511E+03  0.00000000000E+00 0. -1.
        -15    1    1    2    0    0 -0.85181632030E+00  0.38665781138E+01  0.95977698265E+02  0.96075763388E+02  0.17770000000E+01 0.  1.
         15    1    1    2    0    0 -0.33596729417E+01  0.18828027098E+01  0.36119408020E+02  0.36367591521E+02  0.17770000000E+01 0.  1.
</event>
<event>
 6   1  0.1826851E-04  0.4596077E+03  0.7546771E-02  0.9495022E-01
        -11   -1    0    0    0    0  0.00000000000E+00  0.00000000000E+00  0.50000000000E+03  0.50000000000E+03  0.00000000000E+00 0.  1.
         11   -1    0    0    0    0 -0.00000000000E+00 -0.00000000000E+00 -0.50000000000E+03  0.50000000000E+03  0.00000000000E+00 0. -1.
        -11    1    1    2    0    0  0.13264240347E+02 -0.37989605792E+02  0.45317327920E+03  0.45495622999E+03  0.00000000000E+00 0.  1.
         11    1    1    2    0    0 -0.13028499675E+02 -0.31168974929E+01 -0.46506185183E+03  0.46525475052E+03  0.00000000000E+00 0. -1.
        -15    1    1    2    0    0 -0.26724219934E+02  0.25469104108E+02 -0.14023152253E+02  0.39530566948E+02  0.17770000000E+01 0.  1.
         15    1    1    2    0    0  0.26488479262E+02  0.15637399177E+02  0.25911724874E+02  0.40258452548E+02  0.17770000000E+01 0. -1.
</event>
<event>
 6   1  0.1826851E-04  0.5013851E+03  0.7546771E-02  0.9396716E-01
        -11   -1    0    0    0    0  0.00000000000E+00  0.00000000000E+00  0.50000000000E+03  0.50000000000E+03  0.00000000000E+00 0. -1.
         11   -1    0    0    0    0 -0.00000000000E+00 -0.00000000000E+00 -0.50000000000E+03  0.50000000000E+03  0.00000000000E+00 0.  1.
        -11    1    1    2    0    0 -0.15735196492E+02  0.73016842182E+01  0.49831303383E+03  0.49861487211E+03  0.00000000000E+00 0. -1.
         11    1    1    2    0    0  0.46274894636E+01 -0.40073491089E+01 -0.38881402687E+03  0.38886221210E+03  0.00000000000E+00 0.  1.
        -15    1    1    2    0    0  0.34937496943E+01 -0.22659070508E+01 -0.10031785588E+03  0.10041997092E+03  0.17770000000E+01 0.  1.
         15    1    1    2    0    0  0.76139573339E+01 -0.10284280585E+01 -0.91811510803E+01  0.12102944878E+02  0.17770000000E+01 0. -1.
</event>
<event>
 6   1  0.1826851E-04  0.5003692E+03  0.7546771E-02  0.9398984E-01
        -11   -1    0    0    0    0  0.00000000000E+00  0.00000000000E+00  0.50000000000E+03  0.50000000000E+03  0.00000000000E+00 0. -1.
         11   -1    0    0    0    0 -0.00000000000E+00 -0.00000000000E+00 -0.50000000000E+03  0.50000000000E+03  0.00000000000E+00 0. -1.
        -11    1    1    2    0    0  0.14788181248E+02 -0.34615392139E+02  0.37760778795E+03  0.37947932380E+03  0.00000000000E+00 0. -1.
         11    1    1    2    0    0 -0.16590539968E+02  0.34736447928E+02 -0.49814558659E+03  0.49963075593E+03  0.00000000000E+00 0. -1.
        -15    1    1    2    0    0 -0.98886064534E+00 -0.90150683017E+00  0.10309004608E+03  0.10311404312E+03  0.17770000000E+01 0. -1.
         15    1    1    2    0    0  0.27912193651E+01  0.78045104113E+00  0.17447752569E+02  0.17775877139E+02  0.17770000000E+01 0.  1.
</event>
<event>
 6   1  0.1826851E-04  0.5003401E+03  0.7546771E-02  0.9399049E-01
        -11   -1    0    0    0    0  0.00000000000E+00  0.00000000000E+00  0.50000000000E+03  0.50000000000E+03  0.00000000000E+00 0. -1.
         11   -1    0    0    0    0 -0.00000000000E+00 -0.00000000000E+00 -0.50000000000E+03  0.50000000000E+03  0.00000000000E+00 0. -1.
        -11    1    1    2    0    0  0.60390628542E+01  0.40211560574E+01  0.49960725467E+03  0.49965993325E+03  0.00000000000E+00 0. -1.
         11    1    1    2    0    0 -0.32892706335E+01  0.76001329949E+01 -0.35171136898E+03  0.35180885207E+03  0.00000000000E+00 0. -1.
        -15    1    1    2    0    0 -0.17539488395E+01 -0.82439157867E+01 -0.68810276285E+02  0.69347316714E+02  0.17770000000E+01 0. -1.
         15    1    1    2    0    0 -0.99584338117E+00 -0.33773732656E+01 -0.79085609401E+02  0.79183897969E+02  0.17770000000E+01 0.  1.
</event>
<event>
 6   1  0.1826851E-04  0.5087723E+03  0.7546771E-02  0.9380392E-01
        -11   -1    0    0    0    0  0.00000000000E+00  0.00000000000E+00  0.50000000000E+03  0.50000000000E+03  0.00000000000E+00 0.  1.
         11   -1    0    0    0    0 -0.00000000000E+00 -0.00000000000E+00 -0.50000000000E+03  0.50000000000E+03  0.00000000000E+00 0. -1.
        -11    1    1    2    0    0  0.36270801163E+01 -0.16748319857E+02  0.49092867221E+03  0.49122766934E+03  0.00000000000E+00 0.  1.
         11    1    1    2    0    0  0.23605035736E+01 -0.16461763587E+02 -0.46387240652E+03  0.46417041178E+03  0.00000000000E+00 0. -1.
        -15    1    1    2    0    0 -0.67197561171E+00  0.73748788029E+01 -0.13621590007E+01  0.77365105004E+01  0.17770000000E+01 0. -1.
         15    1    1    2    0    0 -0.53156080782E+01  0.25835204641E+02 -0.25694106683E+02  0.36865408384E+02  0.17770000000E+01 0.  1.
</event>
<event>
 6   1  0.1826851E-04  0.5007191E+03  0.7546771E-02  0.9398202E-01
        -11   -1    0    0    0    0  0.00000000000E+00  0.00000000000E+00  0.50000000000E+03  0.50000000000E+03  0.00000000000E+00 0. -1.
         11   -1    0    0    0    0 -0.00000000000E+00 -0.00000000000E+00 -0.50000000000E+03  0.50000000000E+03  0.00000000000E+00 0. -1.
        -11    1    1    2    0    0 -0.26242587743E+02  0.14416262544E+02  0.49838231316E+03  0.49928091502E+03  0.00000000000E+00 0. -1.
         11    1    1    2    0    0  0.38887933424E+01 -0.22291875635E+00 -0.25909591294E+03  0.25912519080E+03  0.00000000000E+00 0. -1.
        -15    1    1    2    0    0  0.20984574293E+02 -0.18456462105E+02 -0.21652817219E+03  0.21833140048E+03  0.17770000000E+01 0.  1.
         15    1    1    2    0    0  0.13692201077E+01  0.42631183172E+01 -0.22758228025E+02  0.23262493704E+02  0.17770000000E+01 0. -1.
</event>
<event>
 6   1  0.1826851E-04  0.5004200E+03  0.7546771E-02  0.9398870E-01
        -11   -1    0    0    0    0  0.00000000000E+00  0.00000000000E+00  0.50000000000E+03  0.50000000000E+03  0.00000000000E+00 0. -1.
         11   -1    0    0    0    0 -0.00000000000E+00 -0.00000000000E+00 -0.50000000000E+03  0.50000000000E+03  0.00000000000E+00 0.  1.
        -11    1    1    2    0    0 -0.84382659447E+00 -0.38854069233E+02  0.49806604938E+03  0.49957996385E+03  0.00000000000E+00 0. -1.
         11    1    1    2    0    0  0.11202981626E+01  0.36018645998E+02 -0.29257247307E+03  0.29478339493E+03  0.00000000000E+00 0.  1.
        -15    1    1    2    0    0  0.22506380562E+01  0.33797215837E+01 -0.13619115403E+03  0.13626326010E+03  0.17770000000E+01 0. -1.
         15    1    1    2    0    0 -0.25271096244E+01 -0.54429834801E+00 -0.69302422280E+02  0.69373381110E+02  0.17770000000E+01 0.  1.
</event>
<event>
 6   1  0.1826851E-04  0.5011382E+03  0.7546771E-02  0.9397266E-01
        -11   -1    0    0    0    0  0.00000000000E+00  0.00000000000E+00  0.50000000000E+03  0.50000000000E+03  0.00000000000E+00 0. -1.
         11   -1    0    0    0    0 -0.00000000000E+00 -0.00000000000E+00 -0.50000000000E+03  0.50000000000E+03  0.00000000000E+00 0. -1.
        -11    1    1    2    0    0  0.12749161685E+01  0.15285465149E+02  0.49862589862E+03  0.49886176204E+03  0.00000000000E+00 0. -1.
         11    1    1    2    0    0 -0.74857482518E+01  0.63214865768E+00 -0.42391663738E+03  0.42398319718E+03  0.00000000000E+00 0. -1.
        -15    1    1    2    0    0  0.25017305721E+01 -0.91040409506E+01 -0.56079891473E+02  0.56896873149E+02  0.17770000000E+01 0. -1.
         15    1    1    2    0    0  0.37091015112E+01 -0.68135728556E+01 -0.18629369764E+02  0.20258167634E+02  0.17770000000E+01 0.  1.
</event>
<event>
 6   1  0.1826851E-04  0.5001939E+03  0.7546771E-02  0.9399376E-01
        -11   -1    0    0    0    0  0.00000000000E+00  0.00000000000E+00  0.50000000000E+03  0.50000000000E+03  0.00000000000E+00 0.  1.
         11   -1    0    0    0    0 -0.00000000000E+00 -0.00000000000E+00 -0.50000000000E+03  0.50000000000E+03  0.00000000000E+00 0. -1.
        -11    1    1    2    0    0  0.57627596400E+01  0.56040385463E+01  0.49974145171E+03  0.49980609560E+03  0.00000000000E+00 0.  1.
         11    1    1    2    0    0  0.41563194873E+01  0.10712590722E+01 -0.27043593951E+03  0.27046999827E+03  0.00000000000E+00 0. -1.
        -15    1    1    2    0    0 -0.83334430411E+01 -0.22355241017E+01 -0.14142084668E+03  0.14169494503E+03  0.17770000000E+01 0.  1.
         15    1    1    2    0    0 -0.15856360863E+01 -0.44397735168E+01 -0.87884665516E+02  0.88028961101E+02  0.17770000000E+01 0. -1.
</event>
<event>
 6   1  0.1826851E-04  0.5090968E+03  0.7546771E-02  0.9379682E-01
        -11   -1    0    0    0    0  0.00000000000E+00  0.00000000000E+00  0.50000000000E+03  0.50000000000E+03  0.00000000000E+00 0. -1.
         11   -1    0    0    0    0 -0.00000000000E+00 -0.00000000000E+00 -0.50000000000E+03  0.50000000000E+03  0.00000000000E+00 0. -1.
        -11    1    1    2    0    0  0.20830052852E+02 -0.13444524735E+02  0.49027672279E+03  0.49090315874E+03  0.00000000000E+00 0. -1.
         11    1    1    2    0    0 -0.12674188209E+01  0.95157093852E+01 -0.46645301716E+03  0.46655178951E+03  0.00000000000E+00 0. -1.
        -15    1    1    2    0    0 -0.70752438652E+01 -0.95151569420E+01  0.52947009927E+00  0.12001473033E+02  0.17770000000E+01 0. -1.
         15    1    1    2    0    0 -0.12487390166E+02  0.13443972291E+02 -0.24353175724E+02  0.30543578719E+02  0.17770000000E+01 0.  1.
</event>
<event>
 6   1  0.1826851E-04  0.5004065E+03  0.7546771E-02  0.9398900E-01
        -11   -1    0    0    0    0  0.00000000000E+00  0.00000000000E+00  0.50000000000E+03  0.50000000000E+03  0.00000000000E+00 0.  1.
         11   -1    0    0    0    0 -0.00000000000E+00 -0.00000000000E+00 -0.50000000000E+03  0.50000000000E+03  0.00000000000E+00 0. -1.
        -11    1    1    2    0    0 -0.14292574208E+02 -0.24685148101E+00  0.15761313473E+03  0.15826003555E+03  0.00000000000E+00 0.  1.
         11    1    1    2    0    0  0.50248496941E+01 -0.46142598015E+01 -0.49954687402E+03  0.49959345457E+03  0.00000000000E+00 0. -1.
        -15    1    1    2    0    0  0.18346603127E+01  0.36564011786E+00  0.13256271882E+03  0.13258782682E+03  0.17770000000E+01 0.  1.
         15    1    1    2    0    0  0.74330642009E+01  0.44954711646E+01  0.20937102047E+03  0.20955868306E+03  0.17770000000E+01 0.  1.
</event>
<event>
 6   1  0.1826851E-04  0.5000442E+03  0.7546771E-02  0.9399711E-01
        -11   -1    0    0    0    0  0.00000000000E+00  0.00000000000E+00  0.50000000000E+03  0.50000000000E+03  0.00000000000E+00 0.  1.
         11   -1    0    0    0    0 -0.00000000000E+00 -0.00000000000E+00 -0.50000000000E+03  0.50000000000E+03  0.00000000000E+00 0.  1.
        -11    1    1    2    0    0 -0.12035256857E+01 -0.35902165402E-02  0.18818968929E+02  0.18857414418E+02  0.00000000000E+00 0.  1.
         11    1    1    2    0    0 -0.24953463207E+01 -0.76130001044E+01 -0.49989162758E+03  0.49995582190E+03  0.00000000000E+00 0.  1.
        -15    1    1    2    0    0  0.46623540798E+01  0.63969849191E+01  0.36635086975E+03  0.36644068614E+03  0.17770000000E+01 0.  1.
         15    1    1    2    0    0 -0.96348207336E+00  0.12196054019E+01  0.11472178890E+03  0.11474607754E+03  0.17770000000E+01 0.  1.
</event>
<event>
 6   1  0.1826851E-04  0.4883603E+03  0.7546771E-02  0.9426238E-01
        -11   -1    0    0    0    0  0.00000000000E+00  0.00000000000E+00  0.50000000000E+03  0.50000000000E+03  0.00000000000E+00 0.  1.
         11   -1    0    0    0    0 -0.00000000000E+00 -0.00000000000E+00 -0.50000000000E+03  0.50000000000E+03  0.00000000000E+00 0.  1.
        -11    1    1    2    0    0 -0.60371212437E+01 -0.11194190986E+02  0.48647594465E+03  0.48664216984E+03  0.00000000000E+00 0.  1.
         11    1    1    2    0    0 -0.18873572654E+01 -0.82062937710E+01 -0.49023822646E+03  0.49031053839E+03  0.00000000000E+00 0.  1.
        -15    1    1    2    0    0  0.86386989094E+01  0.16329468053E+02  0.50026095532E+01  0.19221406741E+02  0.17770000000E+01 0.  1.
         15    1    1    2    0    0 -0.71422040022E+00  0.30710167044E+01 -0.12403277418E+01  0.38258850330E+01  0.17770000000E+01 0. -1.
</event>
<event>
 6   1  0.1826851E-04  0.5038225E+03  0.7546771E-02  0.9391297E-01
        -11   -1    0    0    0    0  0.00000000000E+00  0.00000000000E+00  0.50000000000E+03  0.50000000000E+03  0.00000000000E+00 0. -1.
         11   -1    0    0    0    0 -0.00000000000E+00 -0.00000000000E+00 -0.50000000000E+03  0.50000000000E+03  0.00000000000E+00 0.  1.
        -11    1    1    2    0    0 -0.27430231119E+02 -0.29230830184E+02  0.49455560737E+03  0.49617749626E+03  0.00000000000E+00 0. -1.
         11    1    1    2    0    0  0.43689304085E+01 -0.88810166826E+01 -0.34180724452E+03  0.34195051165E+03  0.00000000000E+00 0.  1.
        -15    1    1    2    0    0  0.19059373675E+02  0.29703471863E+02 -0.68364335504E+02  0.76957105347E+02  0.17770000000E+01 0.  1.
         15    1    1    2    0    0  0.40019270355E+01  0.84083750035E+01 -0.84384027351E+02  0.84914886747E+02  0.17770000000E+01 0. -1.
</event>
<event>
 6   1  0.1826851E-04  0.5013873E+03  0.7546771E-02  0.9396711E-01
        -11   -1    0    0    0    0  0.00000000000E+00  0.00000000000E+00  0.50000000000E+03  0.50000000000E+03  0.00000000000E+00 0.  1.
         11   -1    0    0    0    0 -0.00000000000E+00 -0.00000000000E+00 -0.50000000000E+03  0.50000000000E+03  0.00000000000E+00 0. -1.
        -11    1    1    2    0    0 -0.16858605821E+02  0.24397911674E+01  0.34417380011E+03  0.34459508101E+03  0.00000000000E+00 0.  1.
         11    1    1    2    0    0 -0.45992624564E+01  0.55028755904E+01 -0.49856109840E+03  0.49861267903E+03  0.00000000000E+00 0. -1.
        -15    1    1    2    0    0  0.10747670759E+02 -0.17668334554E+01  0.33714770816E+02  0.35475028222E+02  0.17770000000E+01 0. -1.
         15    1    1    2    0    0  0.10710197518E+02 -0.61758333025E+01  0.12067252747E+03  0.12131721173E+03  0.17770000000E+01 0.  1.
</event>
<event>
 6   1  0.1826851E-04  0.5001199E+03  0.7546771E-02  0.9399541E-01
        -11   -1    0    0    0    0  0.00000000000E+00  0.00000000000E+00  0.50000000000E+03  0.50000000000E+03  0.00000000000E+00 0.  1.
         11   -1    0    0    0    0 -0.00000000000E+00 -0.00000000000E+00 -0.50000000000E+03  0.50000000000E+03  0.00000000000E+00 0.  1.
        -11    1    1    2    0    0 -0.97616772777E+01  0.51592252922E+01  0.13095855538E+03  0.13142317595E+03  0.00000000000E+00 0.  1.
         11    1    1    2    0    0  0.13771568216E+02 -0.12056925827E+02 -0.49954484178E+03  0.49988006012E+03  0.00000000000E+00 0.  1.
        -15    1    1    2    0    0 -0.13735105930E+01  0.23378867012E+01  0.17764679853E+03  0.17767637716E+03  0.17770000000E+01 0.  1.
         15    1    1    2    0    0 -0.26363803458E+01  0.45598138336E+01  0.19093948787E+03  0.19102038677E+03  0.17770000000E+01 0.  1.
</event>
<event>
 6   1  0.1826851E-04  0.5025305E+03  0.7546771E-02  0.9394165E-01
        -11   -1    0    0    0    0  0.00000000000E+00  0.00000000000E+00  0.50000000000E+03  0.50000000000E+03  0.00000000000E+00 0. -1.
         11   -1    0    0    0    0 -0.00000000000E+00 -0.00000000000E+00 -0.50000000000E+03  0.50000000000E+03  0.00000000000E+00 0. -1.
        -11    1    1    2    0    0 -0.44057548275E+02  0.24464152261E+03  0.40049669336E+03  0.47136837350E+03  0.00000000000E+00 0. -1.
         11    1    1    2    0    0  0.42906308672E+02 -0.24808628396E+03 -0.42905499699E+03  0.49746954284E+03  0.00000000000E+00 0. -1.
        -15    1    1    2    0    0 -0.38343127217E+01 -0.21418328534E+01  0.97464736287E+01  0.10837014313E+02  0.17770000000E+01 0. -1.
         15    1    1    2    0    0  0.49855523250E+01  0.55865942093E+01  0.18811830000E+02  0.20325069343E+02  0.17770000000E+01 0.  1.
</event>
<event>
 6   1  0.1826851E-04  0.5000616E+03  0.7546771E-02  0.9399672E-01
        -11   -1    0    0    0    0  0.00000000000E+00  0.00000000000E+00  0.50000000000E+03  0.50000000000E+03  0.00000000000E+00 0. -1.
         11   -1    0    0    0    0 -0.00000000000E+00 -0.00000000000E+00 -0.50000000000E+03  0.50000000000E+03  0.00000000000E+00 0.  1.
        -11    1    1    2    0    0 -0.51261539530E+01  0.17096540867E+01  0.91581587769E+02  0.91740871970E+02  0.00000000000E+00 0. -1.
         11    1    1    2    0    0  0.71478081551E+01 -0.61258799309E+01 -0.49984978661E+03  0.49993842295E+03  0.00000000000E+00 0.  1.
        -15    1    1    2    0    0 -0.17815670419E+01  0.10362513215E+01  0.16721868799E+03  0.16724082977E+03  0.17770000000E+01 0. -1.
         15    1    1    2    0    0 -0.24008716020E+00  0.33799745227E+01  0.24104951085E+03  0.24107987531E+03  0.17770000000E+01 0. -1.
</event>
<event>
 6   1  0.1826851E-04  0.4841611E+03  0.7546771E-02  0.9435965E-01
        -11   -1    0    0    0    0  0.00000000000E+00  0.00000000000E+00  0.50000000000E+03  0.50000000000E+03  0.00000000000E+00 0. -1.
         11   -1    0    0    0    0 -0.00000000000E+00 -0.00000000000E+00 -0.50000000000E+03  0.50000000000E+03  0.00000000000E+00 0. -1.
        -11    1    1    2    0    0 -0.18633746329E+01 -0.18791669311E+02  0.48059665459E+03  0.48096750764E+03  0.00000000000E+00 0. -1.
         11    1    1    2    0    0 -0.19071466127E+02 -0.19134804298E+00 -0.48741798909E+03  0.48779099369E+03  0.00000000000E+00 0. -1.
        -15    1    1    2    0    0  0.85711532852E+01  0.13589744047E+02  0.33328581316E+00  0.16168321507E+02  0.17770000000E+01 0.  1.
         15    1    1    2    0    0  0.12363687475E+02  0.53932733064E+01  0.64880486894E+01  0.15073177161E+02  0.17770000000E+01 0. -1.
</event>
<event>
 6   1  0.1826851E-04  0.5044766E+03  0.7546771E-02  0.9389848E-01
        -11   -1    0    0    0    0  0.00000000000E+00  0.00000000000E+00  0.50000000000E+03  0.50000000000E+03  0.00000000000E+00 0. -1.
         11   -1    0    0    0    0 -0.00000000000E+00 -0.00000000000E+00 -0.50000000000E+03  0.50000000000E+03  0.00000000000E+00 0.  1.
        -11    1    1    2    0    0  0.16327913123E+02  0.72209958578E+01  0.49520164070E+03  0.49552336825E+03  0.00000000000E+00 0. -1.
         11    1    1    2    0    0 -0.21993092408E+01  0.80115807615E+01 -0.45168743813E+03  0.45176383670E+03  0.00000000000E+00 0.  1.
        -15    1    1    2    0    0 -0.13517110281E+02  0.54886324008E+00 -0.23272030576E+02  0.26977002379E+02  0.17770000000E+01 0. -1.
         15    1    1    2    0    0 -0.61149360147E+00 -0.15781439859E+02 -0.20242171990E+02  0.25735792669E+02  0.17770000000E+01 0.  1.
</event>
<event>
 6   1  0.1826851E-04  0.5200944E+03  0.7546771E-02  0.9355936E-01
        -11   -1    0    0    0    0  0.00000000000E+00  0.00000000000E+00  0.50000000000E+03  0.50000000000E+03  0.00000000000E+00 0.  1.
         11   -1    0    0    0    0 -0.00000000000E+00 -0.00000000000E+00 -0.50000000000E+03  0.50000000000E+03  0.00000000000E+00 0. -1.
        -11    1    1    2    0    0 -0.46532545972E+02  0.71730963608E+02  0.13693072016E+03  0.16143305454E+03  0.00000000000E+00 0.  1.
         11    1    1    2    0    0 -0.73177487628E+01 -0.13554318296E+02 -0.47965829457E+03  0.47990556210E+03  0.00000000000E+00 0. -1.
        -15    1    1    2    0    0  0.46598280128E+01 -0.37705300222E+02  0.23929681435E+03  0.24230048854E+03  0.17770000000E+01 0.  1.
         15    1    1    2    0    0  0.49190466722E+02 -0.20471345090E+02  0.10343076006E+03  0.11636089481E+03  0.17770000000E+01 0. -1.
</event>
<event>
 6   1  0.1826851E-04  0.5191478E+03  0.7546771E-02  0.9357956E-01
        -11   -1    0    0    0    0  0.00000000000E+00  0.00000000000E+00  0.50000000000E+03  0.50000000000E+03  0.00000000000E+00 0.  1.
         11   -1    0    0    0    0 -0.00000000000E+00 -0.00000000000E+00 -0.50000000000E+03  0.50000000000E+03  0.00000000000E+00 0. -1.
        -11    1    1    2    0    0  0.39285233878E+02  0.20715471198E+02  0.47879684252E+03  0.48085224005E+03  0.00000000000E+00 0.  1.
         11    1    1    2    0    0 -0.25447031271E+02  0.85130724286E+01 -0.43660653419E+03  0.43743032531E+03  0.00000000000E+00 0. -1.
        -15    1    1    2    0    0  0.17139358260E+02 -0.34362471635E+02 -0.25289600240E+02  0.46013679137E+02  0.17770000000E+01 0. -1.
         15    1    1    2    0    0 -0.30977560866E+02  0.51339280083E+01 -0.16900708088E+02  0.35703755502E+02  0.17770000000E+01 0. -1.
</event>
<event>
 6   1  0.1826851E-04  0.5001426E+03  0.7546771E-02  0.9399491E-01
        -11   -1    0    0    0    0  0.00000000000E+00  0.00000000000E+00  0.50000000000E+03  0.50000000000E+03  0.00000000000E+00 0. -1.
         11   -1    0    0    0    0 -0.00000000000E+00 -0.00000000000E+00 -0.50000000000E+03  0.50000000000E+03  0.00000000000E+00 0.  1.
        -11    1    1    2    0    0 -0.61046193177E+01  0.30329494126E+01  0.49981091062E+03  0.49985739119E+03  0.00000000000E+00 0. -1.
         11    1    1    2    0    0  0.19657929530E+01  0.36614805737E+01 -0.21559123795E+03  0.21563128869E+03  0.00000000000E+00 0.  1.
        -15    1    1    2    0    0  0.24206176320E+01 -0.22574842502E+01 -0.23505049413E+03  0.23508051417E+03  0.17770000000E+01 0.  1.
         15    1    1    2    0    0  0.17182087327E+01 -0.44369457361E+01 -0.49169178540E+02  0.49430805942E+02  0.17770000000E+01 0. -1.
</event>
<event>
 6   1  0.1826851E-04  0.5008500E+03  0.7546771E-02  0.9397910E-01
        -11   -1    0    0    0    0  0.00000000000E+00  0.00000000000E+00  0.50000000000E+03  0.50000000000E+03  0.00000000000E+00 0.  1.
         11   -1    0    0    0    0 -0.00000000000E+00 -0.00000000000E+00 -0.50000000000E+03  0.50000000000E+03  0.00000000000E+00 0.  1.
        -11    1    1    2    0    0  0.41116887446E+01  0.71760450243E+01  0.49908146858E+03  0.49914999137E+03  0.00000000000E+00 0.  1.
         11    1    1    2    0    0 -0.57872936500E+01 -0.37636161392E+01 -0.47055858959E+03  0.47060922622E+03  0.00000000000E+00 0.  1.
        -15    1    1    2    0    0  0.12628726008E+01  0.27600963606E+01 -0.12128069641E+02  0.12627778164E+02  0.17770000000E+01 0. -1.
         15    1    1    2    0    0  0.41273230458E+00 -0.61725252457E+01 -0.16394809350E+02  0.17613004244E+02  0.17770000000E+01 0. -1.
</event>
<event>
 6   1  0.1826851E-04  0.5017585E+03  0.7546771E-02  0.9395883E-01
        -11   -1    0    0    0    0  0.00000000000E+00  0.00000000000E+00  0.50000000000E+03  0.50000000000E+03  0.00000000000E+00 0.  1.
         11   -1    0    0    0    0 -0.00000000000E+00 -0.00000000000E+00 -0.50000000000E+03  0.50000000000E+03  0.00000000000E+00 0. -1.
        -11    1    1    2    0    0 -0.16493632820E+02  0.68860906550E+01  0.44041663100E+03  0.44077915903E+03  0.00000000000E+00 0.  1.
         11    1    1    2    0    0  0.99431535742E+01  0.10490700678E+02 -0.49803179135E+03  0.49824149396E+03  0.00000000000E+00 0. -1.
        -15    1    1    2    0    0 -0.82129135499E+00 -0.18824561550E+01  0.84498809328E+01  0.88756057508E+01  0.17770000000E+01 0. -1.
         15    1    1    2    0    0  0.73717706009E+01 -0.15494335178E+02  0.49165279419E+02  0.52103741264E+02  0.17770000000E+01 0.  1.
</event>
<event>
 6   1  0.1826851E-04  0.5005634E+03  0.7546771E-02  0.9398550E-01
        -11   -1    0    0    0    0  0.00000000000E+00  0.00000000000E+00  0.50000000000E+03  0.50000000000E+03  0.00000000000E+00 0.  1.
         11   -1    0    0    0    0 -0.00000000000E+00 -0.00000000000E+00 -0.50000000000E+03  0.50000000000E+03  0.00000000000E+00 0. -1.
        -11    1    1    2    0    0 -0.42776057142E+01 -0.12386094527E+02  0.20547953906E+03  0.20589695049E+03  0.00000000000E+00 0.  1.
         11    1    1    2    0    0  0.10541146822E+02 -0.56246600474E+01 -0.49929365180E+03  0.49943658587E+03  0.00000000000E+00 0. -1.
        -15    1    1    2    0    0 -0.25716665836E+01  0.65431625403E+01  0.47384984894E+02  0.47936634920E+02  0.17770000000E+01 0. -1.
         15    1    1    2    0    0 -0.36918745241E+01  0.11467592034E+02  0.24642912784E+03  0.24672982872E+03  0.17770000000E+01 0.  1.
</event>
<event>
 6   1  0.1826851E-04  0.5023300E+03  0.7546771E-02  0.9394611E-01
        -11   -1    0    0    0    0  0.00000000000E+00  0.00000000000E+00  0.50000000000E+03  0.50000000000E+03  0.00000000000E+00 0. -1.
         11   -1    0    0    0    0 -0.00000000000E+00 -0.00000000000E+00 -0.50000000000E+03  0.50000000000E+03  0.00000000000E+00 0.  1.
        -11    1    1    2    0    0  0.10455141100E+01 -0.77186383419E+01  0.49760907882E+03  0.49767003707E+03  0.00000000000E+00 0. -1.
         11    1    1    2    0    0 -0.42131006798E+01 -0.53807921210E+01 -0.47812297378E+03  0.47817181138E+03  0.00000000000E+00 0.  1.
        -15    1    1    2    0    0  0.33000747171E+01  0.75131941350E+01 -0.12095571818E+02  0.14724101530E+02  0.17770000000E+01 0. -1.
         15    1    1    2    0    0 -0.13248814731E+00  0.55862363279E+01 -0.73905332188E+01  0.94340500146E+01  0.17770000000E+01 0.  1.
</event>
<event>
 6   1  0.1826851E-04  0.5057413E+03  0.7546771E-02  0.9387054E-01
        -11   -1    0    0    0    0  0.00000000000E+00  0.00000000000E+00  0.50000000000E+03  0.50000000000E+03  0.00000000000E+00 0.  1.
         11   -1    0    0    0    0 -0.00000000000E+00 -0.00000000000E+00 -0.50000000000E+03  0.50000000000E+03  0.00000000000E+00 0. -1.
        -11    1    1    2    0    0  0.15618500600E+02 -0.12666114215E+02  0.49384944088E+03  0.49425867546E+03  0.00000000000E+00 0.  1.
         11    1    1    2    0    0 -0.63488412686E+00 -0.13160994731E+02 -0.45877556929E+03  0.45896474575E+03  0.00000000000E+00 0. -1.
        -15    1    1    2    0    0 -0.31656213813E+01  0.16845228120E+01 -0.41684052370E+01  0.57785904037E+01  0.17770000000E+01 0.  1.
         15    1    1    2    0    0 -0.11817995091E+02  0.24142586134E+02 -0.30905466348E+02  0.40997988395E+02  0.17770000000E+01 0. -1.
</event>
<event>
 6   1  0.1826851E-04  0.5003768E+03  0.7546771E-02  0.9398967E-01
        -11   -1    0    0    0    0  0.00000000000E+00  0.00000000000E+00  0.50000000000E+03  0.50000000000E+03  0.00000000000E+00 0.  1.
         11   -1    0    0    0    0 -0.00000000000E+00 -0.00000000000E+00 -0.50000000000E+03  0.50000000000E+03  0.00000000000E+00 0.  1.
        -11    1    1    2    0    0  0.67453897783E+01 -0.97249968163E+01  0.16280361136E+03  0.16323324330E+03  0.00000000000E+00 0.  1.
         11    1    1    2    0    0  0.61188839939E+01  0.36238206823E+01 -0.49957262052E+03  0.49962323404E+03  0.00000000000E+00 0.  1.
        -15    1    1    2    0    0 -0.12166305178E+02  0.37443141955E+01  0.27377674098E+03  0.27407827441E+03  0.17770000000E+01 0.  1.
         15    1    1    2    0    0 -0.69796859410E+00  0.23568619386E+01  0.62992268176E+02  0.63065248254E+02  0.17770000000E+01 0. -1.
</event>
<event>
 6   1  0.1826851E-04  0.5094266E+03  0.7546771E-02  0.9378961E-01
        -11   -1    0    0    0    0  0.00000000000E+00  0.00000000000E+00  0.50000000000E+03  0.50000000000E+03  0.00000000000E+00 0.  1.
         11   -1    0    0    0    0 -0.00000000000E+00 -0.00000000000E+00 -0.50000000000E+03  0.50000000000E+03  0.00000000000E+00 0.  1.
        -11    1    1    2    0    0  0.16167773830E+02 -0.14221974838E+02  0.49010062294E+03  0.49057342170E+03  0.00000000000E+00 0.  1.
         11    1    1    2    0    0  0.14624334074E+02 -0.53059508532E+00 -0.45204106866E+03  0.45227787966E+03  0.00000000000E+00 0.  1.
        -15    1    1    2    0    0 -0.22003049037E+02  0.19700567670E+02 -0.18017415770E+02  0.34641471295E+02  0.17770000000E+01 0.  1.
         15    1    1    2    0    0 -0.87890588676E+01 -0.49479977466E+01 -0.20042138507E+02  0.22507227338E+02  0.17770000000E+01 0. -1.
</event>
<event>
 6   1  0.1826851E-04  0.5020597E+03  0.7546771E-02  0.9395213E-01
        -11   -1    0    0    0    0  0.00000000000E+00  0.00000000000E+00  0.50000000000E+03  0.50000000000E+03  0.00000000000E+00 0.  1.
         11   -1    0    0    0    0 -0.00000000000E+00 -0.00000000000E+00 -0.50000000000E+03  0.50000000000E+03  0.00000000000E+00 0. -1.
        -11    1    1    2    0    0  0.84083814024E+01  0.85872513862E+00  0.49786854130E+03  0.49794028026E+03  0.00000000000E+00 0.  1.
         11    1    1    2    0    0 -0.81631894046E+01  0.22519739011E+01 -0.49463763389E+03  0.49471011503E+03  0.00000000000E+00 0. -1.
        -15    1    1    2    0    0  0.21372927376E+01 -0.20071638377E+01 -0.17782154259E+01  0.38621892779E+01  0.17770000000E+01 0. -1.
         15    1    1    2    0    0 -0.23824847354E+01 -0.11035352020E+01 -0.14526919793E+01  0.34874154389E+01  0.17770000000E+01 0.  1.
</event>
<event>
 6   1  0.1826851E-04  0.5004637E+03  0.7546771E-02  0.9398773E-01
        -11   -1    0    0    0    0  0.00000000000E+00  0.00000000000E+00  0.50000000000E+03  0.50000000000E+03  0.00000000000E+00 0. -1.
         11   -1    0    0    0    0 -0.00000000000E+00 -0.00000000000E+00 -0.50000000000E+03  0.50000000000E+03  0.00000000000E+00 0. -1.
        -11    1    1    2    0    0 -0.80415662507E+01 -0.11327865879E+02  0.49934310636E+03  0.49953631019E+03  0.00000000000E+00 0. -1.
         11    1    1    2    0    0 -0.99354108534E+01  0.93920927713E+01 -0.24002281426E+03  0.24041188647E+03  0.00000000000E+00 0. -1.
        -15    1    1    2    0    0  0.82706124540E+01 -0.11208852129E+01 -0.85488027987E+02  0.85912863252E+02  0.17770000000E+01 0.  1.
         15    1    1    2    0    0  0.97063646501E+01  0.30566583201E+01 -0.17383226412E+03  0.17413894008E+03  0.17770000000E+01 0. -1.
</event>
<event>
 6   1  0.1826851E-04  0.5002788E+03  0.7546771E-02  0.9399186E-01
        -11   -1    0    0    0    0  0.00000000000E+00  0.00000000000E+00  0.50000000000E+03  0.50000000000E+03  0.00000000000E+00 0.  1.
         11   -1    0    0    0    0 -0.00000000000E+00 -0.00000000000E+00 -0.50000000000E+03  0.50000000000E+03  0.00000000000E+00 0. -1.
        -11    1    1    2    0    0  0.40946255931E+01 -0.42947215949E+01  0.34541103411E+03  0.34546199947E+03  0.00000000000E+00 0.  1.
         11    1    1    2    0    0 -0.92572764203E-01 -0.74283241205E+01 -0.49966596676E+03  0.49972118917E+03  0.00000000000E+00 0. -1.
        -15    1    1    2    0    0 -0.29517714965E+01  0.74327265972E+01  0.11060629122E+03  0.11090927719E+03  0.17770000000E+01 0.  1.
         15    1    1    2    0    0 -0.10502813324E+01  0.42903191182E+01  0.43648641431E+02  0.43907534168E+02  0.17770000000E+01 0. -1.
</event>
<event>
 6   1  0.1826851E-04  0.5003580E+03  0.7546771E-02  0.9399009E-01
        -11   -1    0    0    0    0  0.00000000000E+00  0.00000000000E+00  0.50000000000E+03  0.50000000000E+03  0.00000000000E+00 0. -1.
         11   -1    0    0    0    0 -0.00000000000E+00 -0.00000000000E+00 -0.50000000000E+03  0.50000000000E+03  0.00000000000E+00 0.  1.
        -11    1    1    2    0    0 -0.12857087670E+02 -0.18128048388E+02  0.49914742883E+03  0.49964195835E+03  0.00000000000E+00 0. -1.
         11    1    1    2    0    0  0.70643950151E+01  0.29987130086E+01 -0.35370721878E+02  0.36193727672E+02  0.00000000000E+00 0.  1.
        -15    1    1    2    0    0 -0.23789153385E+01  0.51119863998E+01 -0.14011723325E+03  0.14024189255E+03  0.17770000000E+01 0. -1.
         15    1    1    2    0    0  0.81716079930E+01  0.10017348980E+02 -0.32365947370E+03  0.32392242143E+03  0.17770000000E+01 0.  1.
</event>
<event>
 6   1  0.1826851E-04  0.5016388E+03  0.7546771E-02  0.9396150E-01
        -11   -1    0    0    0    0  0.00000000000E+00  0.00000000000E+00  0.50000000000E+03  0.50000000000E+03  0.00000000000E+00 0. -1.
         11   -1    0    0    0    0 -0.00000000000E+00 -0.00000000000E+00 -0.50000000000E+03  0.50000000000E+03  0.00000000000E+00 0.  1.
        -11    1    1    2    0    0 -0.74472294803E+01  0.46285596029E+01  0.45514989628E+03  0.45523434940E+03  0.00000000000E+00 0. -1.
         11    1    1    2    0    0 -0.27621672023E+01 -0.75611228648E+01 -0.49829613361E+03  0.49836115109E+03  0.00000000000E+00 0.  1.
        -15    1    1    2    0    0  0.64263534407E+01 -0.84462995020E+00  0.65757151857E+01  0.94026154607E+01  0.17770000000E+01 0.  1.
         15    1    1    2    0    0  0.37830432419E+01  0.37771932121E+01  0.36570522137E+02  0.37001884048E+02  0.17770000000E+01 0. -1.
</event>
<event>
 6   1  0.1826851E-04  0.5000393E+03  0.7546771E-02  0.9399722E-01
        -11   -1    0    0    0    0  0.00000000000E+00  0.00000000000E+00  0.50000000000E+03  0.50000000000E+03  0.00000000000E+00 0. -1.
         11   -1    0    0    0    0 -0.00000000000E+00 -0.00000000000E+00 -0.50000000000E+03  0.50000000000E+03  0.00000000000E+00 0.  1.
        -11    1    1    2    0    0  0.37495195844E+01  0.16982788643E+00  0.10065614858E+03  0.10072610379E+03  0.00000000000E+00 0. -1.
         11    1    1    2    0    0 -0.65617576125E+01 -0.42343459916E+01 -0.49989967624E+03  0.49996067111E+03  0.00000000000E+00 0.  1.
        -15    1    1    2    0    0  0.74995319160E+00 -0.58607771266E+00  0.88310472577E+02  0.88333477304E+02  0.17770000000E+01 0.  1.
         15    1    1    2    0    0  0.20622848365E+01  0.46505958179E+01  0.31093305509E+03  0.31097974779E+03  0.17770000000E+01 0. -1.
</event>
<event>
 6   1  0.1826851E-04  0.5007016E+03  0.7546771E-02  0.9398241E-01
        -11   -1    0    0    0    0  0.00000000000E+00  0.00000000000E+00  0.50000000000E+03  0.50000000000E+03  0.00000000000E+00 0. -1.
         11   -1    0    0    0    0 -0.00000000000E+00 -0.00000000000E+00 -0.50000000000E+03  0.50000000000E+03  0.00000000000E+00 0. -1.
        -11    1    1    2    0    0  0.17104492979E+00 -0.59705916745E+01  0.15268685034E+02  0.16395425093E+02  0.00000000000E+00 0. -1.
         11    1    1    2    0    0 -0.11070970904E+02  0.11189078621E+01 -0.49917443563E+03  0.49929844336E+03  0.00000000000E+00 0. -1.
        -15    1    1    2    0    0  0.11755527213E+02  0.87558921215E+01  0.31783244757E+03  0.31817523556E+03  0.17770000000E+01 0. -1.
         15    1    1    2    0    0 -0.85560123819E+00 -0.39042083091E+01  0.16607330303E+03  0.16613089599E+03  0.17770000000E+01 0.  1.
</event>
<event>
 6   1  0.1826851E-04  0.5000589E+03  0.7546771E-02  0.9399678E-01
        -11   -1    0    0    0    0  0.00000000000E+00  0.00000000000E+00  0.50000000000E+03  0.50000000000E+03  0.00000000000E+00 0.  1.
         11   -1    0    0    0    0 -0.00000000000E+00 -0.00000000000E+00 -0.50000000000E+03  0.50000000000E+03  0.00000000000E+00 0.  1.
        -11    1    1    2    0    0 -0.80825599314E+01 -0.53835360774E+01  0.49984681130E+03  0.49994114153E+03  0.00000000000E+00 0.  1.
         11    1    1    2    0    0 -0.58792894785E+00  0.58618149670E+00 -0.22588223631E+02  0.22603475750E+02  0.00000000000E+00 0.  1.
        -15    1    1    2    0    0  0.99736301760E+01  0.52339743143E+01 -0.41365006825E+03  0.41380720690E+03  0.17770000000E+01 0.  1.
         15    1    1    2    0    0 -0.13031412968E+01 -0.43661973358E+00 -0.63608519413E+02  0.63648175818E+02  0.17770000000E+01 0.  1.
</event>
<event>
 6   1  0.1826851E-04  0.5234507E+03  0.7546771E-02  0.9348814E-01
        -11   -1    0    0    0    0  0.00000000000E+00  0.00000000000E+00  0.50000000000E+03  0.50000000000E+03  0.00000000000E+00 0.  1.
         11   -1    0    0    0    0 -0.00000000000E+00 -0.00000000000E+00 -0.50000000000E+03  0.50000000000E+03  0.00000000000E+00 0.  1.
        -11    1    1    2    0    0  0.26186897513E+03 -0.77499599292E+02  0.39053507385E+03  0.47654925446E+03  0.00000000000E+00 0.  1.
         11    1    1    2    0    0 -0.26793442182E+03  0.69392670481E+02 -0.22505705320E+03  0.35672801167E+03  0.00000000000E+00 0.  1.
        -15    1    1    2    0    0  0.15197851466E+01  0.13067827065E+02 -0.10046611963E+03  0.10133941372E+03  0.17770000000E+01 0. -1.
         15    1    1    2    0    0  0.45456615489E+01 -0.49608982543E+01 -0.65011901012E+02  0.65383320141E+02  0.17770000000E+01 0.  1.
</event>
<event>
 6   1  0.1826851E-04  0.5054783E+03  0.7546771E-02  0.9387634E-01
        -11   -1    0    0    0    0  0.00000000000E+00  0.00000000000E+00  0.50000000000E+03  0.50000000000E+03  0.00000000000E+00 0.  1.
         11   -1    0    0    0    0 -0.00000000000E+00 -0.00000000000E+00 -0.50000000000E+03  0.50000000000E+03  0.00000000000E+00 0. -1.
        -11    1    1    2    0    0 -0.18452524185E+02  0.16396061190E+02  0.45355854100E+03  0.45422976189E+03  0.00000000000E+00 0.  1.
         11    1    1    2    0    0 -0.70325827942E+01 -0.57489998611E+01 -0.49443829019E+03  0.49452171947E+03  0.00000000000E+00 0. -1.
        -15    1    1    2    0    0  0.57217915416E+01  0.24513701761E+01  0.48844668865E+01  0.81094919663E+01  0.17770000000E+01 0.  1.
         15    1    1    2    0    0  0.19763315437E+02 -0.13098431505E+02  0.35995282309E+02  0.43139026675E+02  0.17770000000E+01 0. -1.
</event>
<event>
 6   1  0.1826851E-04  0.5004520E+03  0.7546771E-02  0.9398799E-01
        -11   -1    0    0    0    0  0.00000000000E+00  0.00000000000E+00  0.50000000000E+03  0.50000000000E+03  0.00000000000E+00 0. -1.
         11   -1    0    0    0    0 -0.00000000000E+00 -0.00000000000E+00 -0.50000000000E+03  0.50000000000E+03  0.00000000000E+00 0. -1.
        -11    1    1    2    0    0 -0.19774015312E+01  0.96431475931E+01  0.18329556597E+03  0.18355970396E+03  0.00000000000E+00 0. -1.
         11    1    1    2    0    0 -0.88883528818E+00 -0.74570606984E+01 -0.49949150299E+03  0.49954795500E+03  0.00000000000E+00 0. -1.
        -15    1    1    2    0    0  0.77112218866E+01  0.21050429673E+00  0.48959661439E+02  0.49595498104E+02  0.17770000000E+01 0.  1.
         15    1    1    2    0    0 -0.48449850672E+01 -0.23965911914E+01  0.26723627558E+03  0.26729684294E+03  0.17770000000E+01 0. -1.
</event>
<event>
 6   1  0.1826851E-04  0.5011745E+03  0.7546771E-02  0.9397186E-01
        -11   -1    0    0    0    0  0.00000000000E+00  0.00000000000E+00  0.50000000000E+03  0.50000000000E+03  0.00000000000E+00 0. -1.
         11   -1    0    0    0    0 -0.00000000000E+00 -0.00000000000E+00 -0.50000000000E+03  0.50000000000E+03  0.00000000000E+00 0.  1.
        -11    1    1    2    0    0 -0.11288234138E+02 -0.68543176460E+01  0.49865069411E+03  0.49882554128E+03  0.00000000000E+00 0. -1.
         11    1    1    2    0    0 -0.89965764593E+01 -0.54424236972E+01 -0.34938629636E+03  0.34954447849E+03  0.00000000000E+00 0.  1.
        -15    1    1    2    0    0 -0.51378941998E+00  0.36035892254E+01 -0.20820004711E+02  0.21210378593E+02  0.17770000000E+01 0.  1.
         15    1    1    2    0    0  0.20798600017E+02  0.86931521178E+01 -0.12844439304E+03  0.13041960163E+03  0.17770000000E+01 0. -1.
</event>
<event>
 6   1  0.1826851E-04  0.5031882E+03  0.7546771E-02  0.9392704E-01
        -11   -1    0    0    0    0  0.00000000000E+00  0.00000000000E+00  0.50000000000E+03  0.50000000000E+03  0.00000000000E+00 0. -1.
         11   -1    0    0    0    0 -0.00000000000E+00 -0.00000000000E+00 -0.50000000000E+03  0.50000000000E+03  0.00000000000E+00 0.  1.
        -11    1    1    2    0    0  0.49469434621E+02  0.31108188765E+02  0.17344101992E+03  0.18302112381E+03  0.00000000000E+00 0. -1.
         11    1    1    2    0    0 -0.50285447542E+02 -0.28689913837E+02 -0.49342706346E+03  0.49681183998E+03  0.00000000000E+00 0.  1.
        -15    1    1    2    0    0 -0.22791688570E+01 -0.31656835910E+01  0.58994347542E+02  0.59149868421E+02  0.17770000000E+01 0. -1.
         15    1    1    2    0    0  0.30951817778E+01  0.74740866313E+00  0.26099169600E+03  0.26101716779E+03  0.17770000000E+01 0.  1.
</event>
<event>
 6   1  0.1826851E-04  0.5002818E+03  0.7546771E-02  0.9399179E-01
        -11   -1    0    0    0    0  0.00000000000E+00  0.00000000000E+00  0.50000000000E+03  0.50000000000E+03  0.00000000000E+00 0. -1.
         11   -1    0    0    0    0 -0.00000000000E+00 -0.00000000000E+00 -0.50000000000E+03  0.50000000000E+03  0.00000000000E+00 0.  1.
        -11    1    1    2    0    0  0.19854507646E+01 -0.18802011434E+02  0.14843219413E+03  0.14963146027E+03  0.00000000000E+00 0. -1.
         11    1    1    2    0    0  0.18095229910E+02  0.42929313038E+02 -0.49754187222E+03  0.49971819847E+03  0.00000000000E+00 0.  1.
        -15    1    1    2    0    0 -0.15668663148E+02 -0.22428538118E+02  0.27301043523E+03  0.27438367627E+03  0.17770000000E+01 0.  1.
         15    1    1    2    0    0 -0.44120175262E+01 -0.16987634849E+01  0.76099242863E+02  0.76266664995E+02  0.17770000000E+01 0. -1.
</event>
<event>
 6   1  0.1826851E-04  0.5002289E+03  0.7546771E-02  0.9399298E-01
        -11   -1    0    0    0    0  0.00000000000E+00  0.00000000000E+00  0.50000000000E+03  0.50000000000E+03  0.00000000000E+00 0.  1.
         11   -1    0    0    0    0 -0.00000000000E+00 -0.00000000000E+00 -0.50000000000E+03  0.50000000000E+03  0.00000000000E+00 0. -1.
        -11    1    1    2    0    0  0.17288688020E+02  0.71315783672E+01  0.49942108135E+03  0.49977112226E+03  0.00000000000E+00 0.  1.
         11    1    1    2    0    0  0.19946767070E+01 -0.17149371923E+01 -0.10935207539E+03  0.10938371056E+03  0.00000000000E+00 0. -1.
        -15    1    1    2    0    0 -0.19524341718E+00 -0.45279625793E+01 -0.50437621772E+02  0.50672003948E+02  0.17770000000E+01 0.  1.
         15    1    1    2    0    0 -0.19088121310E+02 -0.88867859563E+00 -0.33963138419E+03  0.34017316323E+03  0.17770000000E+01 0. -1.
</event>
<event>
 6   1  0.1826851E-04  0.5081562E+03  0.7546771E-02  0.9381742E-01
        -11   -1    0    0    0    0  0.00000000000E+00  0.00000000000E+00  0.50000000000E+03  0.50000000000E+03  0.00000000000E+00 0.  1.
         11   -1    0    0    0    0 -0.00000000000E+00 -0.00000000000E+00 -0.50000000000E+03  0.50000000000E+03  0.00000000000E+00 0.  1.
        -11    1    1    2    0    0 -0.33384482020E+02 -0.11229373466E+02  0.49058095813E+03  0.49184377494E+03  0.00000000000E+00 0.  1.
         11    1    1    2    0    0 -0.98826470541E+01 -0.32286033445E+01 -0.43395439701E+03  0.43407892057E+03  0.00000000000E+00 0.  1.
        -15    1    1    2    0    0  0.18488228123E+02  0.72234990552E+00 -0.16057151931E+02  0.24562699885E+02  0.17770000000E+01 0. -1.
         15    1    1    2    0    0  0.24778900952E+02  0.13735626905E+02 -0.40569409187E+02  0.49514604609E+02  0.17770000000E+01 0.  1.
</event>
<event>
 6   1  0.1826851E-04  0.5006439E+03  0.7546771E-02  0.9398370E-01
        -11   -1    0    0    0    0  0.00000000000E+00  0.00000000000E+00  0.50000000000E+03  0.50000000000E+03  0.00000000000E+00 0. -1.
         11   -1    0    0    0    0 -0.00000000000E+00 -0.00000000000E+00 -0.50000000000E+03  0.50000000000E+03  0.00000000000E+00 0. -1.
        -11    1    1    2    0    0  0.99672262415E+01 -0.25539514029E+01  0.49925010441E+03  0.49935612044E+03  0.00000000000E+00 0. -1.
         11    1    1    2    0    0  0.97451391434E+00 -0.56123118160E+01 -0.41846217183E+03  0.41850094023E+03  0.00000000000E+00 0. -1.
        -15    1    1    2    0    0 -0.79747054230E+01  0.79110055259E+01 -0.60153290155E+02  0.61218918485E+02  0.17770000000E+01 0. -1.
         15    1    1    2    0    0 -0.29670347329E+01  0.25525769307E+00 -0.20634642421E+02  0.20924020848E+02  0.17770000000E+01 0.  1.
</event>
<event>
 6   1  0.1826851E-04  0.5021450E+03  0.7546771E-02  0.9395023E-01
        -11   -1    0    0    0    0  0.00000000000E+00  0.00000000000E+00  0.50000000000E+03  0.50000000000E+03  0.00000000000E+00 0. -1.
         11   -1    0    0    0    0 -0.00000000000E+00 -0.00000000000E+00 -0.50000000000E+03  0.50000000000E+03  0.00000000000E+00 0. -1.
        -11    1    1    2    0    0 -0.21028140028E+01 -0.91568637910E+01  0.44481796742E+03  0.44491717670E+03  0.00000000000E+00 0. -1.
         11    1    1    2    0    0 -0.61860486117E+00 -0.11591479751E+02 -0.49771961441E+03  0.49785495844E+03  0.00000000000E+00 0. -1.
        -15    1    1    2    0    0  0.38558703661E+01  0.11700153975E+02  0.27685428795E+02  0.30354604854E+02  0.17770000000E+01 0.  1.
         15    1    1    2    0    0 -0.11344515022E+01  0.90481895678E+01  0.25216218193E+02  0.26873260011E+02  0.17770000000E+01 0. -1.
</event>
<event>
 6   1  0.1826851E-04  0.5063895E+03  0.7546771E-02  0.9385625E-01
        -11   -1    0    0    0    0  0.00000000000E+00  0.00000000000E+00  0.50000000000E+03  0.50000000000E+03  0.00000000000E+00 0.  1.
         11   -1    0    0    0    0 -0.00000000000E+00 -0.00000000000E+00 -0.50000000000E+03  0.50000000000E+03  0.00000000000E+00 0.  1.
        -11    1    1    2    0    0  0.69517340082E+01 -0.25881673912E+02  0.45793613635E+03  0.45871962311E+03  0.00000000000E+00 0.  1.
         11    1    1    2    0    0 -0.59211158179E+01 -0.45254239086E+01 -0.49355423712E+03  0.49361049833E+03  0.00000000000E+00 0.  1.
        -15    1    1    2    0    0  0.24542505867E+01  0.64487105019E+01  0.55882438027E+01  0.90551317427E+01  0.17770000000E+01 0.  1.
         15    1    1    2    0    0 -0.34848687770E+01  0.23958387319E+02  0.30029856970E+02  0.38614746820E+02  0.17770000000E+01 0. -1.
</event>
<event>
 6   1  0.1826851E-04  0.5055094E+03  0.7546771E-02  0.9387566E-01
        -11   -1    0    0    0    0  0.00000000000E+00  0.00000000000E+00  0.50000000000E+03  0.50000000000E+03  0.00000000000E+00 0. -1.
         11   -1    0    0    0    0 -0.00000000000E+00 -0.00000000000E+00 -0.50000000000E+03  0.50000000000E+03  0.00000000000E+00 0. -1.
        -11    1    1    2    0    0  0.45597781476E+01  0.13163343079E+02  0.49429431731E+03  0.49449058363E+03  0.00000000000E+00 0. -1.
         11    1    1    2    0    0 -0.99857102836E+01 -0.42152483372E+01 -0.48061038020E+03  0.48073258708E+03  0.00000000000E+00 0. -1.
        -15    1    1    2    0    0  0.36324183928E+01 -0.12410430462E+02 -0.31828408970E+01  0.13435082911E+02  0.17770000000E+01 0. -1.
         15    1    1    2    0    0  0.17935137433E+01  0.34623357202E+01 -0.10501096212E+02  0.11341746375E+02  0.17770000000E+01 0.  1.
</event>
<event>
 6   1  0.1826851E-04  0.5002625E+03  0.7546771E-02  0.9399222E-01
        -11   -1    0    0    0    0  0.00000000000E+00  0.00000000000E+00  0.50000000000E+03  0.50000000000E+03  0.00000000000E+00 0.  1.
         11   -1    0    0    0    0 -0.00000000000E+00 -0.00000000000E+00 -0.50000000000E+03  0.50000000000E+03  0.00000000000E+00 0. -1.
        -11    1    1    2    0    0  0.86691840939E+01  0.10642409885E+01  0.71046085390E+02  0.71580958439E+02  0.00000000000E+00 0.  1.
         11    1    1    2    0    0 -0.87563395493E+01  0.10253150243E+02 -0.49955552689E+03  0.49973745609E+03  0.00000000000E+00 0. -1.
        -15    1    1    2    0    0 -0.83440467761E-01 -0.49259890184E+01  0.14517192573E+03  0.14526636940E+03  0.17770000000E+01 0.  1.
         15    1    1    2    0    0  0.17059592317E+00 -0.63914022128E+01  0.28333751578E+03  0.28341521607E+03  0.17770000000E+01 0.  1.
</event>
<event>
 6   1  0.1826851E-04  0.5003084E+03  0.7546771E-02  0.9399120E-01
        -11   -1    0    0    0    0  0.00000000000E+00  0.00000000000E+00  0.50000000000E+03  0.50000000000E+03  0.00000000000E+00 0. -1.
         11   -1    0    0    0    0 -0.00000000000E+00 -0.00000000000E+00 -0.50000000000E+03  0.50000000000E+03  0.00000000000E+00 0.  1.
        -11    1    1    2    0    0  0.74862064892E+01 -0.39072811785E+00  0.87961027279E+02  0.88279886022E+02  0.00000000000E+00 0. -1.
         11    1    1    2    0    0 -0.63062229614E+01 -0.15989027794E+02 -0.49939595527E+03  0.49969164251E+03  0.00000000000E+00 0.  1.
        -15    1    1    2    0    0 -0.67298195697E+00  0.13624660842E+02  0.39610020826E+03  0.39633901776E+03  0.17770000000E+01 0. -1.
         15    1    1    2    0    0 -0.50700157083E+00  0.27550950705E+01  0.15334719727E+02  0.15689453704E+02  0.17770000000E+01 0. -1.
</event>
<event>
 6   1  0.1826851E-04  0.5000905E+03  0.7546771E-02  0.9399607E-01
        -11   -1    0    0    0    0  0.00000000000E+00  0.00000000000E+00  0.50000000000E+03  0.50000000000E+03  0.00000000000E+00 0. -1.
         11   -1    0    0    0    0 -0.00000000000E+00 -0.00000000000E+00 -0.50000000000E+03  0.50000000000E+03  0.00000000000E+00 0. -1.
        -11    1    1    2    0    0  0.56206694345E+01 -0.18040636103E+02  0.35851879396E+03  0.35901640923E+03  0.00000000000E+00 0. -1.
         11    1    1    2    0    0 -0.68251786289E+01  0.21210098628E+02 -0.49941274894E+03  0.49990953697E+03  0.00000000000E+00 0. -1.
        -15    1    1    2    0    0  0.26654529518E+01 -0.33012032765E+01  0.10897003227E+03  0.10906708140E+03  0.17770000000E+01 0.  1.
         15    1    1    2    0    0 -0.14609437574E+01  0.13174075203E+00  0.31923922709E+02  0.32006972403E+02  0.17770000000E+01 0.  1.
</event>
<event>
 6   1  0.1826851E-04  0.5000851E+03  0.7546771E-02  0.9399619E-01
        -11   -1    0    0    0    0  0.00000000000E+00  0.00000000000E+00  0.50000000000E+03  0.50000000000E+03  0.00000000000E+00 0.  1.
         11   -1    0    0    0    0 -0.00000000000E+00 -0.00000000000E+00 -0.50000000000E+03  0.50000000000E+03  0.00000000000E+00 0. -1.
        -11    1    1    2    0    0 -0.83674003972E+01  0.16571415617E+01  0.49984210676E+03  0.49991488395E+03  0.00000000000E+00 0.  1.
         11    1    1    2    0    0  0.16490126670E+00 -0.44309599462E+01 -0.21674744869E+03  0.21679279765E+03  0.00000000000E+00 0. -1.
        -15    1    1    2    0    0  0.45496740375E+01 -0.90695058287E+00 -0.11254971330E+03  0.11265929960E+03  0.17770000000E+01 0. -1.
         15    1    1    2    0    0  0.36528250929E+01  0.36807689674E+01 -0.17054494477E+03  0.17063301880E+03  0.17770000000E+01 0.  1.
</event>
<event>
 6   1  0.1826851E-04  0.5048854E+03  0.7546771E-02  0.9388944E-01
        -11   -1    0    0    0    0  0.00000000000E+00  0.00000000000E+00  0.50000000000E+03  0.50000000000E+03  0.00000000000E+00 0.  1.
         11   -1    0    0    0    0 -0.00000000000E+00 -0.00000000000E+00 -0.50000000000E+03  0.50000000000E+03  0.00000000000E+00 0. -1.
        -11    1    1    2    0    0  0.23156044199E+02 -0.85411731996E+02  0.48714171652E+03  0.49511455070E+03  0.00000000000E+00 0.  1.
         11    1    1    2    0    0 -0.17427685608E+02  0.65785048336E+02 -0.12735671834E+03  0.14439920539E+03  0.00000000000E+00 0. -1.
        -15    1    1    2    0    0 -0.24051465546E+01  0.14667057705E+02 -0.30104264763E+03  0.30141456622E+03  0.17770000000E+01 0. -1.
         15    1    1    2    0    0 -0.33232120360E+01  0.49596259557E+01 -0.58742350545E+02  0.59071677684E+02  0.17770000000E+01 0.  1.
</event>
<event>
 6   1  0.1826851E-04  0.5041450E+03  0.7546771E-02  0.9390582E-01
        -11   -1    0    0    0    0  0.00000000000E+00  0.00000000000E+00  0.50000000000E+03  0.50000000000E+03  0.00000000000E+00 0.  1.
         11   -1    0    0    0    0 -0.00000000000E+00 -0.00000000000E+00 -0.50000000000E+03  0.50000000000E+03  0.00000000000E+00 0. -1.
        -11    1    1    2    0    0  0.73251628735E+01  0.14248877783E+02  0.38397299819E+03  0.38430710619E+03  0.00000000000E+00 0.  1.
         11    1    1    2    0    0  0.26843865148E+01  0.24113821636E+02 -0.49526103320E+03  0.49585499224E+03  0.00000000000E+00 0. -1.
        -15    1    1    2    0    0 -0.83030894098E+01 -0.36450845343E+01  0.30563253025E+02  0.31929580321E+02  0.17770000000E+01 0.  1.
         15    1    1    2    0    0 -0.17064599785E+01 -0.34717614885E+02  0.80724781980E+02  0.87908321243E+02  0.17770000000E+01 0. -1.
</event>
<event>
 6   1  0.1826851E-04  0.5031390E+03  0.7546771E-02  0.9392813E-01
        -11   -1    0    0    0    0  0.00000000000E+00  0.00000000000E+00  0.50000000000E+03  0.50000000000E+03  0.00000000000E+00 0.  1.
         11   -1    0    0    0    0 -0.00000000000E+00 -0.00000000000E+00 -0.50000000000E+03  0.50000000000E+03  0.00000000000E+00 0.  1.
        -11    1    1    2    0    0  0.69795002325E+01  0.11413448265E+02  0.46556790879E+03  0.46576008623E+03  0.00000000000E+00 0.  1.
         11    1    1    2    0    0 -0.96670631008E+01  0.70797010554E+01 -0.49671647795E+03  0.49686098030E+03  0.00000000000E+00 0.  1.
        -15    1    1    2    0    0  0.39250320455E+00 -0.50818480274E+01  0.32824124506E+01  0.63175310554E+01  0.17770000000E+01 0. -1.
         15    1    1    2    0    0  0.22950596638E+01 -0.13411301293E+02  0.27866156710E+02  0.31061402416E+02  0.17770000000E+01 0.  1.
</event>
<event>
 6   1  0.1826851E-04  0.4927745E+03  0.7546771E-02  0.9416124E-01
        -11   -1    0    0    0    0  0.00000000000E+00  0.00000000000E+00  0.50000000000E+03  0.50000000000E+03  0.00000000000E+00 0.  1.
         11   -1    0    0    0    0 -0.00000000000E+00 -0.00000000000E+00 -0.50000000000E+03  0.50000000000E+03  0.00000000000E+00 0.  1.
        -11    1    1    2    0    0  0.23329230822E+01  0.53350746475E+01  0.13401117935E+02  0.14611485671E+02  0.00000000000E+00 0.  1.
         11    1    1    2    0    0  0.32660311439E+01  0.10341650539E+02 -0.49905705896E+03  0.49917488398E+03  0.00000000000E+00 0.  1.
        -15    1    1    2    0    0 -0.97846022730E+01 -0.39569385241E+01  0.22925856325E+03  0.22950826206E+03  0.17770000000E+01 0. -1.
         15    1    1    2    0    0  0.41856480469E+01 -0.11719786663E+02  0.25639737778E+03  0.25670536829E+03  0.17770000000E+01 0.  1.
</event>
<event>
 6   1  0.1826851E-04  0.5017567E+03  0.7546771E-02  0.9395887E-01
        -11   -1    0    0    0    0  0.00000000000E+00  0.00000000000E+00  0.50000000000E+03  0.50000000000E+03  0.00000000000E+00 0. -1.
         11   -1    0    0    0    0 -0.00000000000E+00 -0.00000000000E+00 -0.50000000000E+03  0.50000000000E+03  0.00000000000E+00 0.  1.
        -11    1    1    2    0    0  0.56265208819E+01  0.36767940676E+01  0.49819792323E+03  0.49824326114E+03  0.00000000000E+00 0. -1.
         11    1    1    2    0    0  0.36202756339E+01 -0.57080600241E+01 -0.47653264936E+03  0.47658058527E+03  0.00000000000E+00 0.  1.
        -15    1    1    2    0    0 -0.35593173006E+01 -0.25351396821E+01 -0.48735105614E+01  0.67826622388E+01  0.17770000000E+01 0. -1.
         15    1    1    2    0    0 -0.56874792152E+01  0.45664056387E+01 -0.16791763310E+02  0.18393491358E+02  0.17770000000E+01 0. -1.
</event>
<event>
 6   1  0.1826851E-04  0.5009133E+03  0.7546771E-02  0.9397769E-01
        -11   -1    0    0    0    0  0.00000000000E+00  0.00000000000E+00  0.50000000000E+03  0.50000000000E+03  0.00000000000E+00 0. -1.
         11   -1    0    0    0    0 -0.00000000000E+00 -0.00000000000E+00 -0.50000000000E+03  0.50000000000E+03  0.00000000000E+00 0.  1.
        -11    1    1    2    0    0  0.36298453415E+01  0.35139411128E+02  0.23635513459E+03  0.23898055076E+03  0.00000000000E+00 0. -1.
         11    1    1    2    0    0  0.24447362589E+02 -0.45369950791E+02 -0.49641863862E+03  0.49908673669E+03  0.00000000000E+00 0.  1.
        -15    1    1    2    0    0 -0.94653813201E+01  0.24817355350E+01  0.12045476684E+03  0.12086463932E+03  0.17770000000E+01 0. -1.
         15    1    1    2    0    0 -0.18611826611E+02  0.77488041279E+01  0.13960873719E+03  0.14106807323E+03  0.17770000000E+01 0.  1.
</event>
<event>
 6   1  0.1826851E-04  0.5088238E+03  0.7546771E-02  0.9380279E-01
        -11   -1    0    0    0    0  0.00000000000E+00  0.00000000000E+00  0.50000000000E+03  0.50000000000E+03  0.00000000000E+00 0.  1.
         11   -1    0    0    0    0 -0.00000000000E+00 -0.00000000000E+00 -0.50000000000E+03  0.50000000000E+03  0.00000000000E+00 0. -1.
        -11    1    1    2    0    0 -0.20988391705E+02  0.39492407874E+02  0.49700058094E+02  0.66859992825E+02  0.00000000000E+00 0.  1.
         11    1    1    2    0    0  0.74086987306E+01 -0.24545343592E+02 -0.49050658973E+03  0.49117621815E+03  0.00000000000E+00 0. -1.
        -15    1    1    2    0    0  0.11317614647E+02 -0.17100300981E+02  0.18658822869E+03  0.18772009351E+03  0.17770000000E+01 0. -1.
         15    1    1    2    0    0  0.22620783277E+01  0.21532366993E+01  0.25421830295E+03  0.25424369551E+03  0.17770000000E+01 0.  1.
</event>
<event>
 6   1  0.1826851E-04  0.5101690E+03  0.7546771E-02  0.9377339E-01
        -11   -1    0    0    0    0  0.00000000000E+00  0.00000000000E+00  0.50000000000E+03  0.50000000000E+03  0.00000000000E+00 0. -1.
         11   -1    0    0    0    0 -0.00000000000E+00 -0.00000000000E+00 -0.50000000000E+03  0.50000000000E+03  0.00000000000E+00 0.  1.
        -11    1    1    2    0    0 -0.14950073710E+02  0.14790213463E+02  0.46279132453E+03  0.46326889080E+03  0.00000000000E+00 0. -1.
         11    1    1    2    0    0 -0.14008915616E+02  0.42954151544E+01 -0.48961183657E+03  0.48983104313E+03  0.00000000000E+00 0.  1.
        -15    1    1    2    0    0  0.22446004708E+02 -0.21454193926E+02  0.19753664122E+02  0.36843867055E+02  0.17770000000E+01 0.  1.
         15    1    1    2    0    0  0.65129846176E+01  0.23685653082E+01  0.70668479117E+01  0.10056199016E+02  0.17770000000E+01 0. -1.
</event>
<event>
 6   1  0.1826851E-04  0.5059407E+03  0.7546771E-02  0.9386614E-01
        -11   -1    0    0    0    0  0.00000000000E+00  0.00000000000E+00  0.50000000000E+03  0.50000000000E+03  0.00000000000E+00 0. -1.
         11   -1    0    0    0    0 -0.00000000000E+00 -0.00000000000E+00 -0.50000000000E+03  0.50000000000E+03  0.00000000000E+00 0.  1.
        -11    1    1    2    0    0 -0.97031487511E+01 -0.12562370023E+02  0.10702682706E+02  0.19144494075E+02  0.00000000000E+00 0. -1.
         11    1    1    2    0    0  0.18242617689E+02  0.40275130289E+01 -0.49370598123E+03  0.49405931817E+03  0.00000000000E+00 0.  1.
        -15    1    1    2    0    0 -0.12238635389E+02 -0.23441967447E+01  0.46615675619E+03  0.46632666504E+03  0.17770000000E+01 0. -1.
         15    1    1    2    0    0  0.36991664514E+01  0.10879053738E+02  0.16846542337E+02  0.20469522720E+02  0.17770000000E+01 0.  1.
</event>
<event>
 6   1  0.1826851E-04  0.5003319E+03  0.7546771E-02  0.9399067E-01
        -11   -1    0    0    0    0  0.00000000000E+00  0.00000000000E+00  0.50000000000E+03  0.50000000000E+03  0.00000000000E+00 0.  1.
         11   -1    0    0    0    0 -0.00000000000E+00 -0.00000000000E+00 -0.50000000000E+03  0.50000000000E+03  0.00000000000E+00 0. -1.
        -11    1    1    2    0    0  0.25098313723E+01 -0.75864008357E+01  0.78214983653E+02  0.78622111388E+02  0.00000000000E+00 0.  1.
         11    1    1    2    0    0  0.72292461641E+01  0.54001882840E+01 -0.49958666474E+03  0.49966814949E+03  0.00000000000E+00 0. -1.
        -15    1    1    2    0    0  0.15023293460E+01 -0.33415420962E+01  0.79825637528E+02  0.79929425325E+02  0.17770000000E+01 0. -1.
         15    1    1    2    0    0 -0.11241406882E+02  0.55277546478E+01  0.34154604356E+03  0.34178031380E+03  0.17770000000E+01 0.  1.
</event>
<event>
 6   1  0.1826851E-04  0.5027863E+03  0.7546771E-02  0.9393597E-01
        -11   -1    0    0    0    0  0.00000000000E+00  0.00000000000E+00  0.50000000000E+03  0.50000000000E+03  0.00000000000E+00 0. -1.
         11   -1    0    0    0    0 -0.00000000000E+00 -0.00000000000E+00 -0.50000000000E+03  0.50000000000E+03  0.00000000000E+00 0. -1.
        -11    1    1    2    0    0 -0.11082218458E+02  0.69826993843E+01  0.44250572699E+03  0.44269955057E+03  0.00000000000E+00 0. -1.
         11    1    1    2    0    0  0.80549082770E+01  0.51445210157E+01 -0.49712182330E+03  0.49721369133E+03  0.00000000000E+00 0. -1.
        -15    1    1    2    0    0 -0.63354893696E+01  0.25421899747E+01  0.10712012754E+02  0.12825993203E+02  0.17770000000E+01 0.  1.
         15    1    1    2    0    0  0.93627995510E+01 -0.14669410375E+02  0.43904083562E+02  0.47260764896E+02  0.17770000000E+01 0. -1.
</event>
<event>
 6   1  0.1826851E-04  0.5005416E+03  0.7546771E-02  0.9398599E-01
        -11   -1    0    0    0    0  0.00000000000E+00  0.00000000000E+00  0.50000000000E+03  0.50000000000E+03  0.00000000000E+00 0.  1.
         11   -1    0    0    0    0 -0.00000000000E+00 -0.00000000000E+00 -0.50000000000E+03  0.50000000000E+03  0.00000000000E+00 0. -1.
        -11    1    1    2    0    0 -0.25951241554E+02 -0.90667807517E+01  0.23894252534E+03  0.24051861439E+03  0.00000000000E+00 0.  1.
         11    1    1    2    0    0  0.23682850798E+02  0.41060421930E+01 -0.49887971775E+03  0.49945841648E+03  0.00000000000E+00 0. -1.
        -15    1    1    2    0    0  0.49885228429E+00  0.28715156488E+01  0.13085828078E+03  0.13090279536E+03  0.17770000000E+01 0.  1.
         15    1    1    2    0    0  0.17695384712E+01  0.20892229098E+01  0.12907891163E+03  0.12912017377E+03  0.17770000000E+01 0. -1.
</event>
<event>
 6   1  0.1826851E-04  0.5004448E+03  0.7546771E-02  0.9398815E-01
        -11   -1    0    0    0    0  0.00000000000E+00  0.00000000000E+00  0.50000000000E+03  0.50000000000E+03  0.00000000000E+00 0.  1.
         11   -1    0    0    0    0 -0.00000000000E+00 -0.00000000000E+00 -0.50000000000E+03  0.50000000000E+03  0.00000000000E+00 0.  1.
        -11    1    1    2    0    0  0.13900559327E+02 -0.58187657594E+01  0.49932782532E+03  0.49955516284E+03  0.00000000000E+00 0.  1.
         11    1    1    2    0    0 -0.45398756680E+01 -0.13057724658E+01 -0.29147847296E+03  0.29151675031E+03  0.00000000000E+00 0.  1.
        -15    1    1    2    0    0 -0.10437324453E+02  0.10482334959E+02 -0.19261395609E+03  0.19318931362E+03  0.17770000000E+01 0.  1.
         15    1    1    2    0    0  0.10766407936E+01 -0.33577967336E+01 -0.15235396265E+02  0.15738773226E+02  0.17770000000E+01 0. -1.
</event>
<event>
 6   1  0.1826851E-04  0.5037429E+03  0.7546771E-02  0.9391473E-01
        -11   -1    0    0    0    0  0.00000000000E+00  0.00000000000E+00  0.50000000000E+03  0.50000000000E+03  0.00000000000E+00 0.  1.
         11   -1    0    0    0    0 -0.00000000000E+00 -0.00000000000E+00 -0.50000000000E+03  0.50000000000E+03  0.00000000000E+00 0.  1.
        -11    1    1    2    0    0 -0.25960188390E+02 -0.55475964986E+01  0.49554655721E+03  0.49625708818E+03  0.00000000000E+00 0.  1.
         11    1    1    2    0    0  0.58860651308E+00  0.14574400447E+02 -0.40227920285E+03  0.40254355870E+03  0.00000000000E+00 0.  1.
        -15    1    1    2    0    0  0.10885317422E+02 -0.14196035994E+02 -0.22715022576E+02  0.28968043651E+02  0.17770000000E+01 0. -1.
         15    1    1    2    0    0  0.14486264455E+02  0.51692320457E+01 -0.70552331782E+02  0.72231309462E+02  0.17770000000E+01 0.  1.
</event>
<event>
 6   1  0.1826851E-04  0.5047360E+03  0.7546771E-02  0.9389274E-01
        -11   -1    0    0    0    0  0.00000000000E+00  0.00000000000E+00  0.50000000000E+03  0.50000000000E+03  0.00000000000E+00 0. -1.
         11   -1    0    0    0    0 -0.00000000000E+00 -0.00000000000E+00 -0.50000000000E+03  0.50000000000E+03  0.00000000000E+00 0.  1.
        -11    1    1    2    0    0  0.54683559093E+01 -0.12497090592E+02  0.47302100022E+03  0.47321765271E+03  0.00000000000E+00 0. -1.
         11    1    1    2    0    0  0.67232616679E+01 -0.38136760740E+01 -0.49520363075E+03  0.49526395213E+03  0.00000000000E+00 0.  1.
        -15    1    1    2    0    0 -0.21658373151E+01  0.18893805558E+00  0.55317628891E+01  0.62036020606E+01  0.17770000000E+01 0.  1.
         15    1    1    2    0    0 -0.10025780262E+02  0.16121828611E+02  0.16650867638E+02  0.25314793100E+02  0.17770000000E+01 0. -1.
</event>
<event>
 6   1  0.1826851E-04  0.5002976E+03  0.7546771E-02  0.9399144E-01
        -11   -1    0    0    0    0  0.00000000000E+00  0.00000000000E+00  0.50000000000E+03  0.50000000000E+03  0.00000000000E+00 0.  1.
         11   -1    0    0    0    0 -0.00000000000E+00 -0.00000000000E+00 -0.50000000000E+03  0.50000000000E+03  0.00000000000E+00 0.  1.
        -11    1    1    2    0    0 -0.10905171080E+02  0.71698359431E+01  0.49953194099E+03  0.49970240081E+03  0.00000000000E+00 0.  1.
         11    1    1    2    0    0 -0.13772544763E+01 -0.51759909562E+01 -0.34606640506E+03  0.34610785085E+03  0.00000000000E+00 0.  1.
        -15    1    1    2    0    0  0.38125846425E+01 -0.67992799209E+00 -0.92601401489E+02  0.92699381824E+02  0.17770000000E+01 0.  1.
         15    1    1    2    0    0  0.84698409138E+01 -0.13139169949E+01 -0.60864134444E+02  0.61490366511E+02  0.17770000000E+01 0. -1.
</event>
<event>
 6   1  0.1826851E-04  0.5003696E+03  0.7546771E-02  0.9398983E-01
        -11   -1    0    0    0    0  0.00000000000E+00  0.00000000000E+00  0.50000000000E+03  0.50000000000E+03  0.00000000000E+00 0.  1.
         11   -1    0    0    0    0 -0.00000000000E+00 -0.00000000000E+00 -0.50000000000E+03  0.50000000000E+03  0.00000000000E+00 0.  1.
        -11    1    1    2    0    0  0.21222067475E+01 -0.28892311309E+01  0.13860904294E+02  0.14316985920E+02  0.00000000000E+00 0.  1.
         11    1    1    2    0    0  0.83223862024E+01 -0.18183908895E+02 -0.49923002628E+03  0.49963039919E+03  0.00000000000E+00 0.  1.
        -15    1    1    2    0    0 -0.97774843249E+01  0.18686860782E+02  0.34392085532E+03  0.34457148811E+03  0.17770000000E+01 0.  1.
         15    1    1    2    0    0 -0.66710862496E+00  0.23862792439E+01  0.14144826667E+03  0.14148112678E+03  0.17770000000E+01 0.  1.
</event>
<event>
 6   1  0.1826851E-04  0.5021392E+03  0.7546771E-02  0.9395036E-01
        -11   -1    0    0    0    0  0.00000000000E+00  0.00000000000E+00  0.50000000000E+03  0.50000000000E+03  0.00000000000E+00 0.  1.
         11   -1    0    0    0    0 -0.00000000000E+00 -0.00000000000E+00 -0.50000000000E+03  0.50000000000E+03  0.00000000000E+00 0.  1.
        -11    1    1    2    0    0 -0.20505077502E+02 -0.36813384831E+01  0.39569146485E+03  0.39623950561E+03  0.00000000000E+00 0.  1.
         11    1    1    2    0    0 -0.57524001356E+01 -0.36394521737E+01 -0.49781423067E+03  0.49786076766E+03  0.00000000000E+00 0.  1.
        -15    1    1    2    0    0  0.47943912919E+01  0.18503738055E+01  0.27782733838E+02  0.28309858700E+02  0.17770000000E+01 0. -1.
         15    1    1    2    0    0  0.21463086345E+02  0.54704168513E+01  0.74340031985E+02  0.77589868027E+02  0.17770000000E+01 0.  1.
</event>
<event>
 6   1  0.1826851E-04  0.5055564E+03  0.7546771E-02  0.9387462E-01
        -11   -1    0    0    0    0  0.00000000000E+00  0.00000000000E+00  0.50000000000E+03  0.50000000000E+03  0.00000000000E+00 0. -1.
         11   -1    0    0    0    0 -0.00000000000E+00 -0.00000000000E+00 -0.50000000000E+03  0.50000000000E+03  0.00000000000E+00 0. -1.
        -11    1    1    2    0    0  0.93133801115E+01  0.64544162412E+01  0.49431370922E+03  0.49444356773E+03  0.00000000000E+00 0. -1.
         11    1    1    2    0    0 -0.24928797225E+01  0.10359018432E+02 -0.47660420996E+03  0.47672329150E+03  0.00000000000E+00 0. -1.
        -15    1    1    2    0    0 -0.18860344787E+01 -0.14776439043E+02 -0.66192753387E+01  0.16397341609E+02  0.17770000000E+01 0. -1.
         15    1    1    2    0    0 -0.49344659103E+01 -0.20369956298E+01 -0.11090223930E+02  0.12435799163E+02  0.17770000000E+01 0.  1.
</event>
<event>
 6   1  0.1826851E-04  0.5024892E+03  0.7546771E-02  0.9394257E-01
        -11   -1    0    0    0    0  0.00000000000E+00  0.00000000000E+00  0.50000000000E+03  0.50000000000E+03  0.00000000000E+00 0.  1.
         11   -1    0    0    0    0 -0.00000000000E+00 -0.00000000000E+00 -0.50000000000E+03  0.50000000000E+03  0.00000000000E+00 0.  1.
        -11    1    1    2    0    0  0.16839728430E+02 -0.10933353249E+02  0.49710548618E+03  0.49751078285E+03  0.00000000000E+00 0.  1.
         11    1    1    2    0    0  0.31032413301E+01  0.54196361931E+01 -0.45447238454E+03  0.45451529223E+03  0.00000000000E+00 0.  1.
        -15    1    1    2    0    0 -0.31352174509E+01  0.25918466288E+01 -0.12973059571E+02  0.13711501050E+02  0.17770000000E+01 0.  1.
         15    1    1    2    0    0 -0.16807752309E+02  0.29218704270E+01 -0.29660042067E+02  0.34262423862E+02  0.17770000000E+01 0. -1.
</event>
<event>
 6   1  0.1826851E-04  0.5066481E+03  0.7546771E-02  0.9385056E-01
        -11   -1    0    0    0    0  0.00000000000E+00  0.00000000000E+00  0.50000000000E+03  0.50000000000E+03  0.00000000000E+00 0.  1.
         11   -1    0    0    0    0 -0.00000000000E+00 -0.00000000000E+00 -0.50000000000E+03  0.50000000000E+03  0.00000000000E+00 0. -1.
        -11    1    1    2    0    0 -0.42220807693E+01 -0.17316483119E+02  0.49302984335E+03  0.49335191597E+03  0.00000000000E+00 0.  1.
         11    1    1    2    0    0 -0.17894691259E+02  0.63869522280E+00 -0.45140485390E+03  0.45175985881E+03  0.00000000000E+00 0. -1.
        -15    1    1    2    0    0  0.15612797214E+02  0.22012822842E+02 -0.29466861390E+02  0.39997218097E+02  0.17770000000E+01 0. -1.
         15    1    1    2    0    0  0.65039748150E+01 -0.53350349466E+01 -0.12158128057E+02  0.14891007122E+02  0.17770000000E+01 0.  1.
</event>
<event>
 6   1  0.1826851E-04  0.5000418E+03  0.7546771E-02  0.9399716E-01
        -11   -1    0    0    0    0  0.00000000000E+00  0.00000000000E+00  0.50000000000E+03  0.50000000000E+03  0.00000000000E+00 0.  1.
         11   -1    0    0    0    0 -0.00000000000E+00 -0.00000000000E+00 -0.50000000000E+03  0.50000000000E+03  0.00000000000E+00 0.  1.
        -11    1    1    2    0    0  0.55916284648E+01  0.56293893278E+01  0.22154364161E+03  0.22168568170E+03  0.00000000000E+00 0.  1.
         11    1    1    2    0    0 -0.10649246087E+02 -0.44149236169E+01 -0.49982531421E+03  0.49995824097E+03  0.00000000000E+00 0.  1.
        -15    1    1    2    0    0  0.23238482778E+01  0.58374987214E-01  0.13422718467E+03  0.13425907236E+03  0.17770000000E+01 0.  1.
         15    1    1    2    0    0  0.27337693439E+01 -0.12728406981E+01  0.14405448793E+03  0.14409700496E+03  0.17770000000E+01 0.  1.
</event>
<event>
 6   1  0.1826851E-04  0.5007471E+03  0.7546771E-02  0.9398140E-01
        -11   -1    0    0    0    0  0.00000000000E+00  0.00000000000E+00  0.50000000000E+03  0.50000000000E+03  0.00000000000E+00 0. -1.
         11   -1    0    0    0    0 -0.00000000000E+00 -0.00000000000E+00 -0.50000000000E+03  0.50000000000E+03  0.00000000000E+00 0. -1.
        -11    1    1    2    0    0 -0.92309030766E+02  0.29084161409E+02  0.47163998520E+03  0.48146767415E+03  0.00000000000E+00 0. -1.
         11    1    1    2    0    0  0.95967833094E+02 -0.25826605453E+02 -0.48926132723E+03  0.49925292674E+03  0.00000000000E+00 0. -1.
        -15    1    1    2    0    0 -0.30678741846E+00 -0.21711483677E+01  0.29340725723E+01  0.40711809852E+01  0.17770000000E+01 0. -1.
         15    1    1    2    0    0 -0.33520149093E+01 -0.10864075885E+01  0.14687269457E+02  0.15208218123E+02  0.17770000000E+01 0. -1.
</event>
<event>
 6   1  0.1826851E-04  0.5003170E+03  0.7546771E-02  0.9399101E-01
        -11   -1    0    0    0    0  0.00000000000E+00  0.00000000000E+00  0.50000000000E+03  0.50000000000E+03  0.00000000000E+00 0.  1.
         11   -1    0    0    0    0 -0.00000000000E+00 -0.00000000000E+00 -0.50000000000E+03  0.50000000000E+03  0.00000000000E+00 0.  1.
        -11    1    1    2    0    0 -0.25243036371E+01  0.76078989833E+01  0.49961869106E+03  0.49968298819E+03  0.00000000000E+00 0.  1.
         11    1    1    2    0    0 -0.48337231921E+01 -0.21195005623E+01 -0.32240095919E+03  0.32244415896E+03  0.00000000000E+00 0.  1.
        -15    1    1    2    0    0  0.41486642937E+01 -0.88763666535E+01 -0.13349572957E+03  0.13386660839E+03  0.17770000000E+01 0.  1.
         15    1    1    2    0    0  0.32093625356E+01  0.33879682325E+01 -0.43722002305E+02  0.44006244456E+02  0.17770000000E+01 0. -1.
</event>
<event>
 6   1  0.1826851E-04  0.5094511E+03  0.7546771E-02  0.9378907E-01
        -11   -1    0    0    0    0  0.00000000000E+00  0.00000000000E+00  0.50000000000E+03  0.50000000000E+03  0.00000000000E+00 0. -1.
         11   -1    0    0    0    0 -0.00000000000E+00 -0.00000000000E+00 -0.50000000000E+03  0.50000000000E+03  0.00000000000E+00 0.  1.
        -11    1    1    2    0    0  0.37902301079E+02  0.92876277290E+01  0.39850954502E+03  0.40041566144E+03  0.00000000000E+00 0. -1.
         11    1    1    2    0    0  0.64273239963E+01 -0.87634892049E+01 -0.49042852345E+03  0.49054892300E+03  0.00000000000E+00 0.  1.
        -15    1    1    2    0    0 -0.33190412546E+02 -0.69140160285E+01  0.89664810549E+02  0.95876707716E+02  0.17770000000E+01 0. -1.
         15    1    1    2    0    0 -0.11139212529E+02  0.63898775045E+01  0.22541678863E+01  0.13158707845E+02  0.17770000000E+01 0. -1.
</event>
<event>
 6   1  0.1826851E-04  0.5007326E+03  0.7546771E-02  0.9398172E-01
        -11   -1    0    0    0    0  0.00000000000E+00  0.00000000000E+00  0.50000000000E+03  0.50000000000E+03  0.00000000000E+00 0. -1.
         11   -1    0    0    0    0 -0.00000000000E+00 -0.00000000000E+00 -0.50000000000E+03  0.50000000000E+03  0.00000000000E+00 0. -1.
        -11    1    1    2    0    0 -0.16738694303E+01 -0.17960741388E+02  0.49894140252E+03  0.49926737649E+03  0.00000000000E+00 0. -1.
         11    1    1    2    0    0 -0.55939316729E+01 -0.33427665666E+01 -0.27976455267E+03  0.27984043863E+03  0.00000000000E+00 0. -1.
        -15    1    1    2    0    0  0.96887618476E+01  0.17485158864E+02 -0.12595121719E+03  0.12754007106E+03  0.17770000000E+01 0.  1.
         15    1    1    2    0    0 -0.24209607444E+01  0.38183490910E+01 -0.93225632662E+02  0.93352113822E+02  0.17770000000E+01 0. -1.
</event>
<event>
 6   1  0.1826851E-04  0.5000781E+03  0.7546771E-02  0.9399635E-01
        -11   -1    0    0    0    0  0.00000000000E+00  0.00000000000E+00  0.50000000000E+03  0.50000000000E+03  0.00000000000E+00 0. -1.
         11   -1    0    0    0    0 -0.00000000000E+00 -0.00000000000E+00 -0.50000000000E+03  0.50000000000E+03  0.00000000000E+00 0.  1.
        -11    1    1    2    0    0 -0.84528769568E+01  0.97789503995E+00  0.49984942646E+03  0.49992185043E+03  0.00000000000E+00 0. -1.
         11    1    1    2    0    0 -0.92517589281E+00 -0.20728234488E+01 -0.23672325955E+02  0.23780907544E+02  0.00000000000E+00 0.  1.
        -15    1    1    2    0    0  0.44493286819E+01  0.10712813482E+01 -0.15587277680E+03  0.15595007036E+03  0.17770000000E+01 0. -1.
         15    1    1    2    0    0  0.49287241678E+01  0.23647060656E-01 -0.32030432370E+03  0.32034717166E+03  0.17770000000E+01 0.  1.
</event>
<event>
 6   1  0.1826851E-04  0.5026667E+03  0.7546771E-02  0.9393862E-01
        -11   -1    0    0    0    0  0.00000000000E+00  0.00000000000E+00  0.50000000000E+03  0.50000000000E+03  0.00000000000E+00 0. -1.
         11   -1    0    0    0    0 -0.00000000000E+00 -0.00000000000E+00 -0.50000000000E+03  0.50000000000E+03  0.00000000000E+00 0.  1.
        -11    1    1    2    0    0  0.60584175889E+01  0.42846100109E+01  0.46619462801E+03  0.46625367933E+03  0.00000000000E+00 0. -1.
         11    1    1    2    0    0  0.47535131367E+01  0.48892076508E+01 -0.49728651602E+03  0.49733326780E+03  0.00000000000E+00 0.  1.
        -15    1    1    2    0    0 -0.12109609031E+02 -0.70802892793E+01  0.30035612589E+02  0.33197422788E+02  0.17770000000E+01 0.  1.
         15    1    1    2    0    0  0.12976783054E+01 -0.20935283825E+01  0.10562754263E+01  0.32156300858E+01  0.17770000000E+01 0.  1.
</event>
<event>
 6   1  0.1826851E-04  0.5000663E+03  0.7546771E-02  0.9399661E-01
        -11   -1    0    0    0    0  0.00000000000E+00  0.00000000000E+00  0.50000000000E+03  0.50000000000E+03  0.00000000000E+00 0. -1.
         11   -1    0    0    0    0 -0.00000000000E+00 -0.00000000000E+00 -0.50000000000E+03  0.50000000000E+03  0.00000000000E+00 0. -1.
        -11    1    1    2    0    0  0.75689587082E-01  0.86149695790E+01  0.49985941652E+03  0.49993365532E+03  0.00000000000E+00 0. -1.
         11    1    1    2    0    0  0.14988760975E+01 -0.14725169427E+01 -0.15283685799E+03  0.15285130060E+03  0.00000000000E+00 0. -1.
        -15    1    1    2    0    0  0.14848304729E+01 -0.14352873442E+01 -0.30545829656E+02  0.30667086749E+02  0.17770000000E+01 0.  1.
         15    1    1    2    0    0 -0.30593961575E+01 -0.57071652921E+01 -0.31647672888E+03  0.31654795733E+03  0.17770000000E+01 0. -1.
</event>
<event>
 6   1  0.1826851E-04  0.5012665E+03  0.7546771E-02  0.9396980E-01
        -11   -1    0    0    0    0  0.00000000000E+00  0.00000000000E+00  0.50000000000E+03  0.50000000000E+03  0.00000000000E+00 0.  1.
         11   -1    0    0    0    0 -0.00000000000E+00 -0.00000000000E+00 -0.50000000000E+03  0.50000000000E+03  0.00000000000E+00 0. -1.
        -11    1    1    2    0    0  0.42573269171E+01  0.63459931833E+01  0.49867499424E+03  0.49873354243E+03  0.00000000000E+00 0.  1.
         11    1    1    2    0    0 -0.45882322455E+01  0.53913532808E+01 -0.46855073527E+03  0.46860421475E+03  0.00000000000E+00 0. -1.
        -15    1    1    2    0    0  0.15045441177E+01 -0.71188156197E+01 -0.19311530919E+02  0.20713139411E+02  0.17770000000E+01 0. -1.
         15    1    1    2    0    0 -0.11736387892E+01 -0.46185308443E+01 -0.10812728058E+02  0.11949103406E+02  0.17770000000E+01 0.  1.
</event>
<event>
 6   1  0.1826851E-04  0.5000962E+03  0.7546771E-02  0.9399595E-01
        -11   -1    0    0    0    0  0.00000000000E+00  0.00000000000E+00  0.50000000000E+03  0.50000000000E+03  0.00000000000E+00 0. -1.
         11   -1    0    0    0    0 -0.00000000000E+00 -0.00000000000E+00 -0.50000000000E+03  0.50000000000E+03  0.00000000000E+00 0.  1.
        -11    1    1    2    0    0 -0.32951477655E+01  0.29413739043E+01  0.16811968686E+03  0.16817770004E+03  0.00000000000E+00 0. -1.
         11    1    1    2    0    0 -0.59130071149E+01 -0.60040281036E+01 -0.49983279602E+03  0.49990382673E+03  0.00000000000E+00 0.  1.
        -15    1    1    2    0    0  0.74228086647E+01  0.36195725260E+01  0.29169929896E+03  0.29182158614E+03  0.17770000000E+01 0. -1.
         15    1    1    2    0    0  0.17853462158E+01 -0.55691832662E+00  0.40013810198E+02  0.40096887095E+02  0.17770000000E+01 0. -1.
</event>
<event>
 6   1  0.1826851E-04  0.5033708E+03  0.7546771E-02  0.9392299E-01
        -11   -1    0    0    0    0  0.00000000000E+00  0.00000000000E+00  0.50000000000E+03  0.50000000000E+03  0.00000000000E+00 0.  1.
         11   -1    0    0    0    0 -0.00000000000E+00 -0.00000000000E+00 -0.50000000000E+03  0.50000000000E+03  0.00000000000E+00 0. -1.
        -11    1    1    2    0    0  0.19536797686E+02  0.16142395163E+01  0.49624218561E+03  0.49662923697E+03  0.00000000000E+00 0.  1.
         11    1    1    2    0    0 -0.29505350742E+00 -0.82185743227E+01 -0.46725302148E+03  0.46732538782E+03  0.00000000000E+00 0. -1.
        -15    1    1    2    0    0 -0.17254457133E+02  0.45572147140E+01 -0.25729286805E+02  0.31363010465E+02  0.17770000000E+01 0. -1.
         15    1    1    2    0    0 -0.19872870457E+01  0.20471200924E+01 -0.32598773250E+01  0.46823647496E+01  0.17770000000E+01 0.  1.
</event>
<event>
 6   1  0.1826851E-04  0.5008192E+03  0.7546771E-02  0.9397979E-01
        -11   -1    0    0    0    0  0.00000000000E+00  0.00000000000E+00  0.50000000000E+03  0.50000000000E+03  0.00000000000E+00 0. -1.
         11   -1    0    0    0    0 -0.00000000000E+00 -0.00000000000E+00 -0.50000000000E+03  0.50000000000E+03  0.00000000000E+00 0.  1.
        -11    1    1    2    0    0  0.95012102986E+01 -0.80509726801E+01  0.49902541453E+03  0.49918078439E+03  0.00000000000E+00 0. -1.
         11    1    1    2    0    0 -0.67496424273E+01 -0.23827648060E+01 -0.45134294728E+03  0.45139970237E+03  0.00000000000E+00 0.  1.
        -15    1    1    2    0    0  0.39333541899E+00  0.34651137487E+01 -0.73179266383E+01  0.82988857882E+01  0.17770000000E+01 0. -1.
         15    1    1    2    0    0 -0.31449032902E+01  0.69686237374E+01 -0.40364540615E+02  0.41120627446E+02  0.17770000000E+01 0.  1.
</event>
<event>
 6   1  0.1826851E-04  0.4786499E+03  0.7546771E-02  0.9448892E-01
        -11   -1    0    0    0    0  0.00000000000E+00  0.00000000000E+00  0.50000000000E+03  0.50000000000E+03  0.00000000000E+00 0.  1.
         11   -1    0    0    0    0 -0.00000000000E+00 -0.00000000000E+00 -0.50000000000E+03  0.50000000000E+03  0.00000000000E+00 0. -1.
        -11    1    1    2    0    0  0.30757583775E+02 -0.10588719367E+02  0.48526172960E+03  0.48635079537E+03  0.00000000000E+00 0.  1.
         11    1    1    2    0    0 -0.15761586948E+01 -0.71416725510E+01 -0.47159858264E+03  0.47165528822E+03  0.00000000000E+00 0. -1.
        -15    1    1    2    0    0 -0.31179300903E+02  0.16150942848E+02 -0.88330690075E+01  0.36251656469E+02  0.17770000000E+01 0.  1.
         15    1    1    2    0    0  0.19978758227E+01  0.15794490698E+01 -0.48300779590E+01  0.57422599433E+01  0.17770000000E+01 0. -1.
</event>
<event>
 6   1  0.1826851E-04  0.5005117E+03  0.7546771E-02  0.9398666E-01
        -11   -1    0    0    0    0  0.00000000000E+00  0.00000000000E+00  0.50000000000E+03  0.50000000000E+03  0.00000000000E+00 0. -1.
         11   -1    0    0    0    0 -0.00000000000E+00 -0.00000000000E+00 -0.50000000000E+03  0.50000000000E+03  0.00000000000E+00 0. -1.
        -11    1    1    2    0    0  0.60311459854E+01 -0.56775230363E+01  0.49941964903E+03  0.49948833303E+03  0.00000000000E+00 0. -1.
         11    1    1    2    0    0  0.63752507287E+01 -0.59017646234E+00 -0.33840672879E+03  0.33846728973E+03  0.00000000000E+00 0. -1.
        -15    1    1    2    0    0 -0.34940918782E+01 -0.16962440104E+01 -0.82163274819E+02  0.82274220627E+02  0.17770000000E+01 0. -1.
         15    1    1    2    0    0 -0.89123048359E+01  0.79639435091E+01 -0.78849645427E+02  0.79770156617E+02  0.17770000000E+01 0. -1.
</event>
<event>
 6   1  0.1826851E-04  0.4758886E+03  0.7546771E-02  0.9455438E-01
        -11   -1    0    0    0    0  0.00000000000E+00  0.00000000000E+00  0.50000000000E+03  0.50000000000E+03  0.00000000000E+00 0. -1.
         11   -1    0    0    0    0 -0.00000000000E+00 -0.00000000000E+00 -0.50000000000E+03  0.50000000000E+03  0.00000000000E+00 0.  1.
        -11    1    1    2    0    0 -0.27665371720E+02 -0.28208656438E+02  0.47503547067E+03  0.47667578025E+03  0.00000000000E+00 0. -1.
         11    1    1    2    0    0  0.11434426225E+02 -0.12732119518E+02 -0.47581253556E+03  0.47612017597E+03  0.00000000000E+00 0.  1.
        -15    1    1    2    0    0  0.14674553141E+02  0.19957135911E+02  0.57895132833E+01  0.25501097559E+02  0.17770000000E+01 0. -1.
         15    1    1    2    0    0  0.15563923535E+01  0.20983640045E+02 -0.50124483914E+01  0.21702946219E+02  0.17770000000E+01 0.  1.
</event>
<event>
 6   1  0.1826851E-04  0.5011192E+03  0.7546771E-02  0.9397309E-01
        -11   -1    0    0    0    0  0.00000000000E+00  0.00000000000E+00  0.50000000000E+03  0.50000000000E+03  0.00000000000E+00 0.  1.
         11   -1    0    0    0    0 -0.00000000000E+00 -0.00000000000E+00 -0.50000000000E+03  0.50000000000E+03  0.00000000000E+00 0.  1.
        -11    1    1    2    0    0  0.91926888007E+02 -0.46353298036E+02  0.45659621348E+03  0.46805905946E+03  0.00000000000E+00 0.  1.
         11    1    1    2    0    0 -0.96629536800E+02  0.41490261526E+02 -0.48767138296E+03  0.49888083441E+03  0.00000000000E+00 0.  1.
        -15    1    1    2    0    0 -0.10548182939E+01  0.27973301682E+01  0.42629492020E+01  0.55016508978E+01  0.17770000000E+01 0. -1.
         15    1    1    2    0    0  0.57574670872E+01  0.20657063411E+01  0.26812220274E+02  0.27558455236E+02  0.17770000000E+01 0.  1.
</event>
<event>
 6   1  0.1826851E-04  0.5005473E+03  0.7546771E-02  0.9398586E-01
        -11   -1    0    0    0    0  0.00000000000E+00  0.00000000000E+00  0.50000000000E+03  0.50000000000E+03  0.00000000000E+00 0. -1.
         11   -1    0    0    0    0 -0.00000000000E+00 -0.00000000000E+00 -0.50000000000E+03  0.50000000000E+03  0.00000000000E+00 0.  1.
        -11    1    1    2    0    0  0.75457899037E+01  0.59693444898E+01  0.49936005159E+03  0.49945273364E+03  0.00000000000E+00 0. -1.
         11    1    1    2    0    0  0.71569167658E+01 -0.11963640580E+01 -0.35247229329E+03  0.35254697599E+03  0.00000000000E+00 0.  1.
        -15    1    1    2    0    0 -0.10588632158E+02 -0.27959615665E+01 -0.62987045063E+02  0.63956720576E+02  0.17770000000E+01 0.  1.
         15    1    1    2    0    0 -0.41140745114E+01 -0.19770188653E+01 -0.83900713239E+02  0.84043569794E+02  0.17770000000E+01 0. -1.
</event>
<event>
 6   1  0.1826851E-04  0.4958850E+03  0.7546771E-02  0.9409065E-01
        -11   -1    0    0    0    0  0.00000000000E+00  0.00000000000E+00  0.50000000000E+03  0.50000000000E+03  0.00000000000E+00 0. -1.
         11   -1    0    0    0    0 -0.00000000000E+00 -0.00000000000E+00 -0.50000000000E+03  0.50000000000E+03  0.00000000000E+00 0. -1.
        -11    1    1    2    0    0  0.34876802743E+01  0.68306681463E+01  0.41553369206E+01  0.87228874775E+01  0.00000000000E+00 0. -1.
         11    1    1    2    0    0 -0.16309651161E+01 -0.15968416679E+02 -0.49727586075E+03  0.49753485512E+03  0.00000000000E+00 0. -1.
        -15    1    1    2    0    0  0.49152338358E+01  0.69478512991E+01  0.67388351077E+02  0.67946889195E+02  0.17770000000E+01 0.  1.
         15    1    1    2    0    0 -0.67719489941E+01  0.21898972339E+01  0.42573217275E+03  0.42579536821E+03  0.17770000000E+01 0. -1.
</event>
<event>
 6   1  0.1826851E-04  0.5070449E+03  0.7546771E-02  0.9384183E-01
        -11   -1    0    0    0    0  0.00000000000E+00  0.00000000000E+00  0.50000000000E+03  0.50000000000E+03  0.00000000000E+00 0.  1.
         11   -1    0    0    0    0 -0.00000000000E+00 -0.00000000000E+00 -0.50000000000E+03  0.50000000000E+03  0.00000000000E+00 0. -1.
        -11    1    1    2    0    0 -0.40783077010E+02 -0.97815846207E+01  0.30803155374E+03  0.31087357056E+03  0.00000000000E+00 0.  1.
         11    1    1    2    0    0 -0.14628808362E+02 -0.13148340896E+01 -0.49273628646E+03  0.49295514889E+03  0.00000000000E+00 0. -1.
        -15    1    1    2    0    0  0.45010015229E+02  0.12179674662E+02  0.17703403694E+03  0.18308045748E+03  0.17770000000E+01 0.  1.
         15    1    1    2    0    0  0.10401870143E+02 -0.10832559521E+01  0.76706957756E+01  0.13090823068E+02  0.17770000000E+01 0. -1.
</event>
<event>
 6   1  0.1826851E-04  0.5008604E+03  0.7546771E-02  0.9397886E-01
        -11   -1    0    0    0    0  0.00000000000E+00  0.00000000000E+00  0.50000000000E+03  0.50000000000E+03  0.00000000000E+00 0.  1.
         11   -1    0    0    0    0 -0.00000000000E+00 -0.00000000000E+00 -0.50000000000E+03  0.50000000000E+03  0.00000000000E+00 0. -1.
        -11    1    1    2    0    0 -0.12560049830E+02  0.34526200296E+02  0.20708653532E+03  0.21032034250E+03  0.00000000000E+00 0.  1.
         11    1    1    2    0    0  0.14010364923E+02 -0.36863845962E+02 -0.49757920371E+03  0.49913955707E+03  0.00000000000E+00 0. -1.
        -15    1    1    2    0    0 -0.18572884749E+01  0.12432136891E+01  0.20977341375E+03  0.20979284532E+03  0.17770000000E+01 0.  1.
         15    1    1    2    0    0  0.40697338148E+00  0.10944319773E+01  0.80719254639E+02  0.80747255106E+02  0.17770000000E+01 0.  1.
</event>
<event>
 6   1  0.1826851E-04  0.5024637E+03  0.7546771E-02  0.9394314E-01
        -11   -1    0    0    0    0  0.00000000000E+00  0.00000000000E+00  0.50000000000E+03  0.50000000000E+03  0.00000000000E+00 0.  1.
         11   -1    0    0    0    0 -0.00000000000E+00 -0.00000000000E+00 -0.50000000000E+03  0.50000000000E+03  0.00000000000E+00 0.  1.
        -11    1    1    2    0    0 -0.13636857172E+01  0.25415916189E+02  0.41304424024E+03  0.41382770911E+03  0.00000000000E+00 0.  1.
         11    1    1    2    0    0  0.15963692762E+02 -0.71294974536E+01 -0.49722897764E+03  0.49753625538E+03  0.00000000000E+00 0.  1.
        -15    1    1    2    0    0 -0.15055124351E+01 -0.28678682485E+01  0.38063201507E+02  0.38242074656E+02  0.17770000000E+01 0.  1.
         15    1    1    2    0    0 -0.13094494610E+02 -0.15418550487E+02  0.46121535890E+02  0.50393960849E+02  0.17770000000E+01 0. -1.
</event>
<event>
 6   1  0.1826851E-04  0.5001066E+03  0.7546771E-02  0.9399571E-01
        -11   -1    0    0    0    0  0.00000000000E+00  0.00000000000E+00  0.50000000000E+03  0.50000000000E+03  0.00000000000E+00 0.  1.
         11   -1    0    0    0    0 -0.00000000000E+00 -0.00000000000E+00 -0.50000000000E+03  0.50000000000E+03  0.00000000000E+00 0. -1.
        -11    1    1    2    0    0 -0.63121082240E+01 -0.37042219384E+01  0.49983977818E+03  0.49989335645E+03  0.00000000000E+00 0.  1.
         11    1    1    2    0    0  0.44263440030E+01 -0.75798381453E+00 -0.84206023320E+02  0.84325686621E+02  0.00000000000E+00 0. -1.
        -15    1    1    2    0    0 -0.26872171313E+01  0.30209093402E+01 -0.91165129792E+02  0.91272041985E+02  0.17770000000E+01 0.  1.
         15    1    1    2    0    0  0.45729813524E+01  0.14412964127E+01 -0.32446862507E+03  0.32450891494E+03  0.17770000000E+01 0. -1.
</event>
<event>
 6   1  0.1826851E-04  0.5072094E+03  0.7546771E-02  0.9383821E-01
        -11   -1    0    0    0    0  0.00000000000E+00  0.00000000000E+00  0.50000000000E+03  0.50000000000E+03  0.00000000000E+00 0.  1.
         11   -1    0    0    0    0 -0.00000000000E+00 -0.00000000000E+00 -0.50000000000E+03  0.50000000000E+03  0.00000000000E+00 0.  1.
        -11    1    1    2    0    0  0.40609925424E+02  0.37026606217E+01  0.53526905006E+02  0.67290454732E+02  0.00000000000E+00 0.  1.
         11    1    1    2    0    0 -0.21565491158E+02 -0.62783290149E+01 -0.49227849790E+03  0.49279063233E+03  0.00000000000E+00 0.  1.
        -15    1    1    2    0    0 -0.19187046079E+02  0.93933151917E+01  0.39687708763E+03  0.39745560447E+03  0.17770000000E+01 0.  1.
         15    1    1    2    0    0  0.14261181263E+00 -0.68176467985E+01  0.41874505257E+02  0.42463308462E+02  0.17770000000E+01 0. -1.
</event>
<event>
 6   1  0.1826851E-04  0.5019245E+03  0.7546771E-02  0.9395514E-01
        -11   -1    0    0    0    0  0.00000000000E+00  0.00000000000E+00  0.50000000000E+03  0.50000000000E+03  0.00000000000E+00 0.  1.
         11   -1    0    0    0    0 -0.00000000000E+00 -0.00000000000E+00 -0.50000000000E+03  0.50000000000E+03  0.00000000000E+00 0.  1.
        -11    1    1    2    0    0  0.15732090504E+02  0.97927865341E+01  0.29010722056E+03  0.29069846364E+03  0.00000000000E+00 0.  1.
         11    1    1    2    0    0  0.52692376405E+01  0.55138719723E+01 -0.49801705535E+03  0.49807545118E+03  0.00000000000E+00 0.  1.
        -15    1    1    2    0    0  0.58223777224E+01 -0.49113253903E+01  0.30324882323E+02  0.31317366050E+02  0.17770000000E+01 0. -1.
         15    1    1    2    0    0 -0.26823705867E+02 -0.10395333116E+02  0.17758495247E+03  0.17990871913E+03  0.17770000000E+01 0.  1.
</event>
<event>
 6   1  0.1826851E-04  0.4667671E+03  0.7546771E-02  0.9477404E-01
        -11   -1    0    0    0    0  0.00000000000E+00  0.00000000000E+00  0.50000000000E+03  0.50000000000E+03  0.00000000000E+00 0. -1.
         11   -1    0    0    0    0 -0.00000000000E+00 -0.00000000000E+00 -0.50000000000E+03  0.50000000000E+03  0.00000000000E+00 0. -1.
        -11    1    1    2    0    0  0.30279360738E+02 -0.76277262303E+01  0.47482450652E+03  0.47585011704E+03  0.00000000000E+00 0. -1.
         11    1    1    2    0    0  0.17713829425E+02  0.33771175598E+01 -0.45871113063E+03  0.45906544853E+03  0.00000000000E+00 0. -1.
        -15    1    1    2    0    0 -0.36778917644E+02  0.15844628094E+02 -0.24333327060E+02  0.46893598255E+02  0.17770000000E+01 0. -1.
         15    1    1    2    0    0 -0.11214272519E+02 -0.11594019424E+02  0.82199511692E+01  0.18190836175E+02  0.17770000000E+01 0.  1.
</event>
<event>
 6   1  0.1826851E-04  0.5008248E+03  0.7546771E-02  0.9397966E-01
        -11   -1    0    0    0    0  0.00000000000E+00  0.00000000000E+00  0.50000000000E+03  0.50000000000E+03  0.00000000000E+00 0. -1.
         11   -1    0    0    0    0 -0.00000000000E+00 -0.00000000000E+00 -0.50000000000E+03  0.50000000000E+03  0.00000000000E+00 0. -1.
        -11    1    1    2    0    0 -0.17015391807E+02  0.28125454981E+01  0.49887719913E+03  0.49917521351E+03  0.00000000000E+00 0. -1.
         11    1    1    2    0    0 -0.24181533846E+01  0.49201240077E+01 -0.31334166243E+03  0.31338961772E+03  0.00000000000E+00 0. -1.
        -15    1    1    2    0    0  0.10934996407E+02 -0.77923744725E+01 -0.15761175352E+03  0.15819266046E+03  0.17770000000E+01 0. -1.
         15    1    1    2    0    0  0.84985487851E+01  0.59704966772E-01 -0.27923783181E+02  0.29242508310E+02  0.17770000000E+01 0.  1.
</event>
<event>
 6   1  0.1826851E-04  0.5001110E+03  0.7546771E-02  0.9399561E-01
        -11   -1    0    0    0    0  0.00000000000E+00  0.00000000000E+00  0.50000000000E+03  0.50000000000E+03  0.00000000000E+00 0.  1.
         11   -1    0    0    0    0 -0.00000000000E+00 -0.00000000000E+00 -0.50000000000E+03  0.50000000000E+03  0.00000000000E+00 0.  1.
        -11    1    1    2    0    0  0.13730159437E+00 -0.18216011562E+02  0.49955694786E+03  0.49988897376E+03  0.00000000000E+00 0.  1.
         11    1    1    2    0    0  0.11706871999E+01  0.15145485953E+02 -0.28599529969E+03  0.28639844221E+03  0.00000000000E+00 0.  1.
        -15    1    1    2    0    0 -0.37459666089E+01  0.72471255517E+00 -0.11253451488E+03  0.11261319746E+03  0.17770000000E+01 0.  1.
         15    1    1    2    0    0  0.24379778146E+01  0.23458130535E+01 -0.10102713329E+03  0.10109938657E+03  0.17770000000E+01 0. -1.
</event>
<event>
 6   1  0.1826851E-04  0.5029188E+03  0.7546771E-02  0.9393302E-01
        -11   -1    0    0    0    0  0.00000000000E+00  0.00000000000E+00  0.50000000000E+03  0.50000000000E+03  0.00000000000E+00 0. -1.
         11   -1    0    0    0    0 -0.00000000000E+00 -0.00000000000E+00 -0.50000000000E+03  0.50000000000E+03  0.00000000000E+00 0.  1.
        -11    1    1    2    0    0 -0.16393780358E+02  0.16090829045E+02  0.41125899620E+03  0.41190002763E+03  0.00000000000E+00 0. -1.
         11    1    1    2    0    0 -0.85546941902E+01 -0.29847900664E+01 -0.49699859587E+03  0.49708117653E+03  0.00000000000E+00 0.  1.
        -15    1    1    2    0    0  0.12415333243E+02 -0.33832623272E+01  0.24470202111E+02  0.27704430762E+02  0.17770000000E+01 0.  1.
         15    1    1    2    0    0  0.12533141305E+02 -0.97227766515E+01  0.61269397568E+02  0.63314365069E+02  0.17770000000E+01 0. -1.
</event>
<event>
 6   1  0.1826851E-04  0.5000833E+03  0.7546771E-02  0.9399623E-01
        -11   -1    0    0    0    0  0.00000000000E+00  0.00000000000E+00  0.50000000000E+03  0.50000000000E+03  0.00000000000E+00 0. -1.
         11   -1    0    0    0    0 -0.00000000000E+00 -0.00000000000E+00 -0.50000000000E+03  0.50000000000E+03  0.00000000000E+00 0.  1.
        -11    1    1    2    0    0 -0.13075367109E+02 -0.26131281315E+01  0.49973883077E+03  0.49991668570E+03  0.00000000000E+00 0. -1.
         11    1    1    2    0    0  0.78747531609E+01 -0.10871359670E+01 -0.32973424869E+03  0.32983005982E+03  0.00000000000E+00 0.  1.
        -15    1    1    2    0    0  0.53622946599E+01  0.44862567058E+01 -0.12737987587E+03  0.12758397708E+03  0.17770000000E+01 0.  1.
         15    1    1    2    0    0 -0.16168071148E+00 -0.78599260731E+00 -0.42624706213E+02  0.42669277399E+02  0.17770000000E+01 0. -1.
</event>
<event>
 6   1  0.1826851E-04  0.5018938E+03  0.7546771E-02  0.9395582E-01
        -11   -1    0    0    0    0  0.00000000000E+00  0.00000000000E+00  0.50000000000E+03  0.50000000000E+03  0.00000000000E+00 0. -1.
         11   -1    0    0    0    0 -0.00000000000E+00 -0.00000000000E+00 -0.50000000000E+03  0.50000000000E+03  0.00000000000E+00 0. -1.
        -11    1    1    2    0    0 -0.73929146325E+01 -0.60080101398E+00  0.47980241840E+03  0.47985974706E+03  0.00000000000E+00 0. -1.
         11    1    1    2    0    0  0.11671880458E+01 -0.75485776173E+01 -0.49804763300E+03  0.49810620161E+03  0.00000000000E+00 0. -1.
        -15    1    1    2    0    0  0.23031967954E+01  0.31936336674E+01  0.25388559883E+01  0.50107414830E+01  0.17770000000E+01 0. -1.
         15    1    1    2    0    0  0.39225297913E+01  0.49557449638E+01  0.15706358612E+02  0.17023309842E+02  0.17770000000E+01 0.  1.
</event>
<event>
 6   1  0.1826851E-04  0.5061067E+03  0.7546771E-02  0.9386248E-01
        -11   -1    0    0    0    0  0.00000000000E+00  0.00000000000E+00  0.50000000000E+03  0.50000000000E+03  0.00000000000E+00 0.  1.
         11   -1    0    0    0    0 -0.00000000000E+00 -0.00000000000E+00 -0.50000000000E+03  0.50000000000E+03  0.00000000000E+00 0.  1.
        -11    1    1    2    0    0  0.14516261786E+02 -0.59335999558E+01  0.45259884129E+03  0.45287044571E+03  0.00000000000E+00 0.  1.
         11    1    1    2    0    0  0.90031776901E+01  0.49287406428E+01 -0.49378667240E+03  0.49389333619E+03  0.00000000000E+00 0.  1.
        -15    1    1    2    0    0 -0.79245866809E+01 -0.60183418404E+01  0.32370291392E+02  0.33911841684E+02  0.17770000000E+01 0.  1.
         15    1    1    2    0    0 -0.15594852795E+02  0.70232011534E+01  0.88175397194E+01  0.19324376416E+02  0.17770000000E+01 0. -1.
</event>
<event>
 6   1  0.1826851E-04  0.5101058E+03  0.7546771E-02  0.9377477E-01
        -11   -1    0    0    0    0  0.00000000000E+00  0.00000000000E+00  0.50000000000E+03  0.50000000000E+03  0.00000000000E+00 0. -1.
         11   -1    0    0    0    0 -0.00000000000E+00 -0.00000000000E+00 -0.50000000000E+03  0.50000000000E+03  0.00000000000E+00 0. -1.
        -11    1    1    2    0    0 -0.14147910796E+02 -0.31657820236E+02  0.48866543782E+03  0.48989416314E+03  0.00000000000E+00 0. -1.
         11    1    1    2    0    0 -0.17597790308E+01 -0.97277105921E+01 -0.43080826179E+03  0.43092166759E+03  0.00000000000E+00 0. -1.
        -15    1    1    2    0    0  0.15856262135E+02  0.36664601505E+02 -0.27784619482E+02  0.48691445462E+02  0.17770000000E+01 0. -1.
         15    1    1    2    0    0  0.51427691549E-01  0.47209293231E+01 -0.30072556552E+02  0.30492723805E+02  0.17770000000E+01 0.  1.
</event>
<event>
 6   1  0.1826851E-04  0.4794782E+03  0.7546771E-02  0.9446937E-01
        -11   -1    0    0    0    0  0.00000000000E+00  0.00000000000E+00  0.50000000000E+03  0.50000000000E+03  0.00000000000E+00 0.  1.
         11   -1    0    0    0    0 -0.00000000000E+00 -0.00000000000E+00 -0.50000000000E+03  0.50000000000E+03  0.00000000000E+00 0.  1.
        -11    1    1    2    0    0 -0.29054413148E+02  0.31779531704E+02  0.48306468011E+03  0.48497998178E+03  0.00000000000E+00 0.  1.
         11    1    1    2    0    0  0.39067732919E+01 -0.75531540949E+01 -0.47457336646E+03  0.47464954774E+03  0.00000000000E+00 0.  1.
        -15    1    1    2    0    0  0.27620420059E+02 -0.22862607518E+02 -0.64936755506E+01  0.36481666326E+02  0.17770000000E+01 0.  1.
         15    1    1    2    0    0 -0.24727802033E+01 -0.13637700913E+01 -0.19976380997E+01  0.38888041572E+01  0.17770000000E+01 0. -1.
</event>
<event>
 6   1  0.1826851E-04  0.5002002E+03  0.7546771E-02  0.9399362E-01
        -11   -1    0    0    0    0  0.00000000000E+00  0.00000000000E+00  0.50000000000E+03  0.50000000000E+03  0.00000000000E+00 0.  1.
         11   -1    0    0    0    0 -0.00000000000E+00 -0.00000000000E+00 -0.50000000000E+03  0.50000000000E+03  0.00000000000E+00 0.  1.
        -11    1    1    2    0    0 -0.14146266250E+02 -0.39018586259E+01  0.49958437411E+03  0.49979984814E+03  0.00000000000E+00 0.  1.
         11    1    1    2    0    0  0.76995069051E+00 -0.50874520050E+01 -0.23255086148E+03  0.23260777753E+03  0.00000000000E+00 0.  1.
        -15    1    1    2    0    0  0.76346717464E+00  0.18843391588E+01 -0.41968117931E+02  0.42054895884E+02  0.17770000000E+01 0. -1.
         15    1    1    2    0    0  0.12612848385E+02  0.71049714722E+01 -0.22506539470E+03  0.22553747845E+03  0.17770000000E+01 0.  1.
</event>
<event>
 6   1  0.1826851E-04  0.5064822E+03  0.7546771E-02  0.9385421E-01
        -11   -1    0    0    0    0  0.00000000000E+00  0.00000000000E+00  0.50000000000E+03  0.50000000000E+03  0.00000000000E+00 0.  1.
         11   -1    0    0    0    0 -0.00000000000E+00 -0.00000000000E+00 -0.50000000000E+03  0.50000000000E+03  0.00000000000E+00 0.  1.
        -11    1    1    2    0    0  0.64786549158E+01  0.18991996480E+02  0.49310962913E+03  0.49351775575E+03  0.00000000000E+00 0.  1.
         11    1    1    2    0    0  0.49074536729E+01 -0.45438640275E+01 -0.48024685504E+03  0.48029342238E+03  0.00000000000E+00 0.  1.
        -15    1    1    2    0    0 -0.77240004676E+01 -0.14655153475E+02 -0.51051049055E+01  0.17425657281E+02  0.17770000000E+01 0.  1.
         15    1    1    2    0    0 -0.36621081211E+01  0.20702102232E+00 -0.77576691768E+01  0.87631645911E+01  0.17770000000E+01 0.  1.
</event>
<event>
 6   1  0.1826851E-04  0.5069918E+03  0.7546771E-02  0.9384299E-01
        -11   -1    0    0    0    0  0.00000000000E+00  0.00000000000E+00  0.50000000000E+03  0.50000000000E+03  0.00000000000E+00 0. -1.
         11   -1    0    0    0    0 -0.00000000000E+00 -0.00000000000E+00 -0.50000000000E+03  0.50000000000E+03  0.00000000000E+00 0.  1.
        -11    1    1    2    0    0 -0.10740128824E+01  0.17590151823E+02  0.49269308979E+03  0.49300816187E+03  0.00000000000E+00 0. -1.
         11    1    1    2    0    0 -0.60771055723E+01  0.46801783930E+01 -0.46817341271E+03  0.46823624342E+03  0.00000000000E+00 0.  1.
        -15    1    1    2    0    0 -0.14082885171E+01 -0.20928805034E+00 -0.11430500270E+02  0.11655090881E+02  0.17770000000E+01 0. -1.
         15    1    1    2    0    0  0.85594069718E+01 -0.22061042165E+02 -0.13089176814E+02  0.27100503829E+02  0.17770000000E+01 0.  1.
</event>
<event>
 6   1  0.1826851E-04  0.5046693E+03  0.7546771E-02  0.9389422E-01
        -11   -1    0    0    0    0  0.00000000000E+00  0.00000000000E+00  0.50000000000E+03  0.50000000000E+03  0.00000000000E+00 0. -1.
         11   -1    0    0    0    0 -0.00000000000E+00 -0.00000000000E+00 -0.50000000000E+03  0.50000000000E+03  0.00000000000E+00 0.  1.
        -11    1    1    2    0    0  0.89605361850E+01 -0.40619147065E+02  0.49358105553E+03  0.49533066198E+03  0.00000000000E+00 0. -1.
         11    1    1    2    0    0 -0.52193103529E+01  0.58924336646E+01 -0.38788974720E+03  0.38796960958E+03  0.00000000000E+00 0.  1.
        -15    1    1    2    0    0 -0.62500252093E+00  0.38804945313E+02 -0.65593104428E+02  0.76235342765E+02  0.17770000000E+01 0.  1.
         15    1    1    2    0    0 -0.31162233112E+01 -0.40782319124E+01 -0.40098203901E+02  0.40464385679E+02  0.17770000000E+01 0. -1.
</event>
<event>
 6   1  0.1826851E-04  0.5008644E+03  0.7546771E-02  0.9397878E-01
        -11   -1    0    0    0    0  0.00000000000E+00  0.00000000000E+00  0.50000000000E+03  0.50000000000E+03  0.00000000000E+00 0. -1.
         11   -1    0    0    0    0 -0.00000000000E+00 -0.00000000000E+00 -0.50000000000E+03  0.50000000000E+03  0.00000000000E+00 0.  1.
        -11    1    1    2    0    0 -0.17819687392E+02  0.51514464478E+01  0.36895943114E+03  0.36942541938E+03  0.00000000000E+00 0. -1.
         11    1    1    2    0    0  0.39293969551E+01 -0.14505823345E+02 -0.49890927341E+03  0.49913557494E+03  0.00000000000E+00 0.  1.
        -15    1    1    2    0    0  0.10981467826E+02  0.85057636621E+01  0.12126198945E+03  0.12206788466E+03  0.17770000000E+01 0.  1.
         15    1    1    2    0    0  0.29088226107E+01  0.84861323554E+00  0.86878528247E+01  0.93711210166E+01  0.17770000000E+01 0. -1.
</event>
<event>
 6   1  0.1826851E-04  0.5002094E+03  0.7546771E-02  0.9399341E-01
        -11   -1    0    0    0    0  0.00000000000E+00  0.00000000000E+00  0.50000000000E+03  0.50000000000E+03  0.00000000000E+00 0. -1.
         11   -1    0    0    0    0 -0.00000000000E+00 -0.00000000000E+00 -0.50000000000E+03  0.50000000000E+03  0.00000000000E+00 0.  1.
        -11    1    1    2    0    0  0.72865333752E+01  0.82884254610E+01  0.49966871108E+03  0.49979056853E+03  0.00000000000E+00 0. -1.
         11    1    1    2    0    0 -0.34547982612E+01 -0.27696879062E+01 -0.14899374124E+03  0.14905952412E+03  0.00000000000E+00 0.  1.
        -15    1    1    2    0    0 -0.43181162518E+01  0.40582863956E+01 -0.22940806432E+03  0.22949146721E+03  0.17770000000E+01 0.  1.
         15    1    1    2    0    0  0.48638113780E+00 -0.95770239504E+01 -0.12126690552E+03  0.12165844014E+03  0.17770000000E+01 0. -1.
</event>
<event>
 6   1  0.1826851E-04  0.5000503E+03  0.7546771E-02  0.9399697E-01
        -11   -1    0    0    0    0  0.00000000000E+00  0.00000000000E+00  0.50000000000E+03  0.50000000000E+03  0.00000000000E+00 0. -1.
         11   -1    0    0    0    0 -0.00000000000E+00 -0.00000000000E+00 -0.50000000000E+03  0.50000000000E+03  0.00000000000E+00 0.  1.
        -11    1    1    2    0    0  0.15214930926E+02  0.55312891443E+01  0.49968756018E+03  0.49994974455E+03  0.00000000000E+00 0. -1.
         11    1    1    2    0    0 -0.87746462450E+01 -0.65828724994E+01 -0.26082383644E+03  0.26105440483E+03  0.00000000000E+00 0.  1.
        -15    1    1    2    0    0 -0.17273478368E+01  0.14782701015E+01 -0.91119471666E+02  0.91165151558E+02  0.17770000000E+01 0.  1.
         15    1    1    2    0    0 -0.47129368439E+01 -0.42668674635E+00 -0.14774425207E+03  0.14783069906E+03  0.17770000000E+01 0.  1.
</event>
<event>
 6   1  0.1826851E-04  0.5015532E+03  0.7546771E-02  0.9396341E-01
        -11   -1    0    0    0    0  0.00000000000E+00  0.00000000000E+00  0.50000000000E+03  0.50000000000E+03  0.00000000000E+00 0.  1.
         11   -1    0    0    0    0 -0.00000000000E+00 -0.00000000000E+00 -0.50000000000E+03  0.50000000000E+03  0.00000000000E+00 0. -1.
        -11    1    1    2    0    0 -0.15338150786E+02 -0.52690138810E+01  0.44801443875E+02  0.47646518761E+02  0.00000000000E+00 0.  1.
         11    1    1    2    0    0  0.50647466223E+01  0.58286929829E+01 -0.49838697532E+03  0.49844679003E+03  0.00000000000E+00 0. -1.
        -15    1    1    2    0    0  0.11449461806E+02  0.38141820070E+01  0.33057866750E+03  0.33080364462E+03  0.17770000000E+01 0. -1.
         15    1    1    2    0    0 -0.11760576430E+01 -0.43738611089E+01  0.12300686394E+03  0.12310304659E+03  0.17770000000E+01 0.  1.
</event>
<event>
 6   1  0.1826851E-04  0.5013202E+03  0.7546771E-02  0.9396861E-01
        -11   -1    0    0    0    0  0.00000000000E+00  0.00000000000E+00  0.50000000000E+03  0.50000000000E+03  0.00000000000E+00 0. -1.
         11   -1    0    0    0    0 -0.00000000000E+00 -0.00000000000E+00 -0.50000000000E+03  0.50000000000E+03  0.00000000000E+00 0.  1.
        -11    1    1    2    0    0  0.10658167669E+02 -0.75150322243E+00  0.49856533081E+03  0.49867980747E+03  0.00000000000E+00 0. -1.
         11    1    1    2    0    0 -0.87762895185E+01 -0.32930177161E+01 -0.45028210518E+03  0.45037966369E+03  0.00000000000E+00 0.  1.
        -15    1    1    2    0    0  0.64240277534E+01  0.31000620980E+01 -0.17225788586E+02  0.18728695603E+02  0.17770000000E+01 0.  1.
         15    1    1    2    0    0 -0.83059059044E+01  0.94445884056E+00 -0.31057437047E+02  0.32211833235E+02  0.17770000000E+01 0. -1.
</event>
<event>
 6   1  0.1826851E-04  0.5004792E+03  0.7546771E-02  0.9398738E-01
        -11   -1    0    0    0    0  0.00000000000E+00  0.00000000000E+00  0.50000000000E+03  0.50000000000E+03  0.00000000000E+00 0.  1.
         11   -1    0    0    0    0 -0.00000000000E+00 -0.00000000000E+00 -0.50000000000E+03  0.50000000000E+03  0.00000000000E+00 0.  1.
        -11    1    1    2    0    0  0.26113183100E+01  0.97700761554E+01  0.49941839924E+03  0.49952078122E+03  0.00000000000E+00 0.  1.
         11    1    1    2    0    0 -0.19674014811E+01  0.52915347759E+01 -0.35968649117E+03  0.35973079231E+03  0.00000000000E+00 0.  1.
        -15    1    1    2    0    0 -0.19885856416E+00 -0.11496220596E+01 -0.82347548506E+01  0.85047099926E+01  0.17770000000E+01 0. -1.
         15    1    1    2    0    0 -0.44505826475E+00 -0.13911988872E+02 -0.13149715323E+03  0.13224371647E+03  0.17770000000E+01 0.  1.
</event>
<event>
 6   1  0.1826851E-04  0.5000636E+03  0.7546771E-02  0.9399667E-01
        -11   -1    0    0    0    0  0.00000000000E+00  0.00000000000E+00  0.50000000000E+03  0.50000000000E+03  0.00000000000E+00 0. -1.
         11   -1    0    0    0    0 -0.00000000000E+00 -0.00000000000E+00 -0.50000000000E+03  0.50000000000E+03  0.00000000000E+00 0. -1.
        -11    1    1    2    0    0  0.60615440770E+01  0.38711875157E+00  0.28455748572E+03  0.28462230211E+03  0.00000000000E+00 0. -1.
         11    1    1    2    0    0 -0.82485693046E+01 -0.24508705963E+01 -0.49986231880E+03  0.49993637937E+03  0.00000000000E+00 0. -1.
        -15    1    1    2    0    0  0.26373718467E+01  0.31826013354E+01  0.18738575119E+03  0.18743975608E+03  0.17770000000E+01 0. -1.
         15    1    1    2    0    0 -0.45034661913E+00 -0.11188494906E+01  0.27919081891E+02  0.28001562437E+02  0.17770000000E+01 0.  1.
</event>
<event>
 6   1  0.1826851E-04  0.5006204E+03  0.7546771E-02  0.9398423E-01
        -11   -1    0    0    0    0  0.00000000000E+00  0.00000000000E+00  0.50000000000E+03  0.50000000000E+03  0.00000000000E+00 0.  1.
         11   -1    0    0    0    0 -0.00000000000E+00 -0.00000000000E+00 -0.50000000000E+03  0.50000000000E+03  0.00000000000E+00 0.  1.
        -11    1    1    2    0    0  0.40770958248E+01  0.93990962981E+01  0.46948049767E+03  0.46959227359E+03  0.00000000000E+00 0.  1.
         11    1    1    2    0    0 -0.78875159320E+01 -0.43726837060E+01 -0.49929817690E+03  0.49937961785E+03  0.00000000000E+00 0.  1.
        -15    1    1    2    0    0  0.34087526602E+01 -0.76970193601E+00  0.14999837508E+02  0.15503705687E+02  0.17770000000E+01 0.  1.
         15    1    1    2    0    0  0.40166744710E+00 -0.42567106560E+01  0.14817841722E+02  0.15524402876E+02  0.17770000000E+01 0. -1.
</event>
<event>
 6   1  0.1826851E-04  0.5039765E+03  0.7546771E-02  0.9390956E-01
        -11   -1    0    0    0    0  0.00000000000E+00  0.00000000000E+00  0.50000000000E+03  0.50000000000E+03  0.00000000000E+00 0.  1.
         11   -1    0    0    0    0 -0.00000000000E+00 -0.00000000000E+00 -0.50000000000E+03  0.50000000000E+03  0.00000000000E+00 0. -1.
        -11    1    1    2    0    0 -0.24280623576E+02  0.11986982035E+02  0.42619460805E+02  0.50494107170E+02  0.00000000000E+00 0.  1.
         11    1    1    2    0    0  0.16286197456E+02  0.19342064557E+01 -0.49575225389E+03  0.49602346579E+03  0.00000000000E+00 0. -1.
        -15    1    1    2    0    0  0.47118302365E+01 -0.13003425727E+02  0.34715474422E+03  0.34743469111E+03  0.17770000000E+01 0.  1.
         15    1    1    2    0    0  0.32825958836E+01 -0.91776276374E+00  0.10597804886E+03  0.10604773592E+03  0.17770000000E+01 0.  1.
</event>
<event>
 6   1  0.1826851E-04  0.5068196E+03  0.7546771E-02  0.9384678E-01
        -11   -1    0    0    0    0  0.00000000000E+00  0.00000000000E+00  0.50000000000E+03  0.50000000000E+03  0.00000000000E+00 0.  1.
         11   -1    0    0    0    0 -0.00000000000E+00 -0.00000000000E+00 -0.50000000000E+03  0.50000000000E+03  0.00000000000E+00 0.  1.
        -11    1    1    2    0    0 -0.75157350897E+01  0.20121292555E+02  0.49271246957E+03  0.49318042373E+03  0.00000000000E+00 0.  1.
         11    1    1    2    0    0 -0.10341230377E+02 -0.35621556320E+01 -0.47658292556E+03  0.47670841710E+03  0.00000000000E+00 0.  1.
        -15    1    1    2    0    0  0.12039496130E+01 -0.30183987355E+01 -0.37464278703E+01  0.52681758119E+01  0.17770000000E+01 0. -1.
         15    1    1    2    0    0  0.16653015853E+02 -0.13540738187E+02 -0.12383116132E+02  0.24842983352E+02  0.17770000000E+01 0.  1.
</event>
<event>
 6   1  0.1826851E-04  0.5009735E+03  0.7546771E-02  0.9397634E-01
        -11   -1    0    0    0    0  0.00000000000E+00  0.00000000000E+00  0.50000000000E+03  0.50000000000E+03  0.00000000000E+00 0.  1.
         11   -1    0    0    0    0 -0.00000000000E+00 -0.00000000000E+00 -0.50000000000E+03  0.50000000000E+03  0.00000000000E+00 0. -1.
        -11    1    1    2    0    0  0.67534996501E+01 -0.55762166998E+01  0.49894964895E+03  0.49902650845E+03  0.00000000000E+00 0.  1.
         11    1    1    2    0    0  0.56524038324E+01  0.59720288995E+01 -0.45163598825E+03  0.45171083746E+03  0.00000000000E+00 0. -1.
        -15    1    1    2    0    0 -0.96883153778E+01  0.13035013745E+01 -0.31497412342E+02  0.33027371738E+02  0.17770000000E+01 0. -1.
         15    1    1    2    0    0 -0.27175881047E+01 -0.16993135742E+01 -0.15816248362E+02  0.16235282349E+02  0.17770000000E+01 0.  1.
</event>
<event>
 6   1  0.1826851E-04  0.5047681E+03  0.7546771E-02  0.9389203E-01
        -11   -1    0    0    0    0  0.00000000000E+00  0.00000000000E+00  0.50000000000E+03  0.50000000000E+03  0.00000000000E+00 0. -1.
         11   -1    0    0    0    0 -0.00000000000E+00 -0.00000000000E+00 -0.50000000000E+03  0.50000000000E+03  0.00000000000E+00 0. -1.
        -11    1    1    2    0    0 -0.22428441439E+02  0.18905564303E+02  0.45963383286E+02  0.54526030023E+02  0.00000000000E+00 0. -1.
         11    1    1    2    0    0  0.14348914235E+02 -0.60244215171E+01 -0.49498730525E+03  0.49523188241E+03  0.00000000000E+00 0. -1.
        -15    1    1    2    0    0 -0.12066669153E+01 -0.20549599224E+02  0.30898269532E+03  0.30967273985E+03  0.17770000000E+01 0. -1.
         15    1    1    2    0    0  0.92861941187E+01  0.76684564377E+01  0.14004122665E+03  0.14056934771E+03  0.17770000000E+01 0.  1.
</event>
<event>
 6   1  0.1826851E-04  0.5008170E+03  0.7546771E-02  0.9397984E-01
        -11   -1    0    0    0    0  0.00000000000E+00  0.00000000000E+00  0.50000000000E+03  0.50000000000E+03  0.00000000000E+00 0.  1.
         11   -1    0    0    0    0 -0.00000000000E+00 -0.00000000000E+00 -0.50000000000E+03  0.50000000000E+03  0.00000000000E+00 0. -1.
        -11    1    1    2    0    0  0.67572670631E+01  0.62846466509E+00  0.45712674079E+03  0.45717711313E+03  0.00000000000E+00 0.  1.
         11    1    1    2    0    0 -0.49969164297E+01  0.10110574408E+02 -0.49905561887E+03  0.49918303619E+03  0.00000000000E+00 0. -1.
        -15    1    1    2    0    0 -0.24208308055E+01 -0.40576544865E+01  0.14851511976E+02  0.15685984786E+02  0.17770000000E+01 0.  1.
         15    1    1    2    0    0  0.66048017208E+00 -0.66813845861E+01  0.27077366110E+02  0.27953865895E+02  0.17770000000E+01 0. -1.
</event>
<event>
 6   1  0.1826851E-04  0.5184600E+03  0.7546771E-02  0.9359426E-01
        -11   -1    0    0    0    0  0.00000000000E+00  0.00000000000E+00  0.50000000000E+03  0.50000000000E+03  0.00000000000E+00 0. -1.
         11   -1    0    0    0    0 -0.00000000000E+00 -0.00000000000E+00 -0.50000000000E+03  0.50000000000E+03  0.00000000000E+00 0.  1.
        -11    1    1    2    0    0  0.34339524268E+02 -0.72697411006E+02  0.54506838668E+02  0.97134504454E+02  0.00000000000E+00 0. -1.
         11    1    1    2    0    0 -0.17355784384E+03  0.41373703142E+02 -0.44726577127E+03  0.48154000729E+03  0.00000000000E+00 0.  1.
        -15    1    1    2    0    0  0.13217233667E+03  0.23629168545E+02  0.30919880787E+03  0.33709779694E+03  0.17770000000E+01 0. -1.
         15    1    1    2    0    0  0.70459829075E+01  0.76945393187E+01  0.83560124731E+02  0.84227691317E+02  0.17770000000E+01 0.  1.
</event>
<event>
 6   1  0.1826851E-04  0.5000810E+03  0.7546771E-02  0.9399628E-01
        -11   -1    0    0    0    0  0.00000000000E+00  0.00000000000E+00  0.50000000000E+03  0.50000000000E+03  0.00000000000E+00 0.  1.
         11   -1    0    0    0    0 -0.00000000000E+00 -0.00000000000E+00 -0.50000000000E+03  0.50000000000E+03  0.00000000000E+00 0.  1.
        -11    1    1    2    0    0  0.63918657460E+01 -0.10809014621E+02  0.49976123518E+03  0.49991897637E+03  0.00000000000E+00 0.  1.
         11    1    1    2    0    0 -0.75536027950E+01  0.41605245267E+01 -0.32306935269E+03  0.32318442649E+03  0.00000000000E+00 0.  1.
        -15    1    1    2    0    0  0.19970696699E+01  0.47639816550E+01 -0.92853494290E+02  0.93014047000E+02  0.17770000000E+01 0. -1.
         15    1    1    2    0    0 -0.83533262089E+00  0.18845084391E+01 -0.83838388199E+02  0.83882550137E+02  0.17770000000E+01 0.  1.
</event>
<event>
 6   1  0.1826851E-04  0.5004253E+03  0.7546771E-02  0.9398859E-01
        -11   -1    0    0    0    0  0.00000000000E+00  0.00000000000E+00  0.50000000000E+03  0.50000000000E+03  0.00000000000E+00 0.  1.
         11   -1    0    0    0    0 -0.00000000000E+00 -0.00000000000E+00 -0.50000000000E+03  0.50000000000E+03  0.00000000000E+00 0.  1.
        -11    1    1    2    0    0  0.80656441699E+01 -0.27862207674E+01  0.37972176231E+03  0.37981763310E+03  0.00000000000E+00 0.  1.
         11    1    1    2    0    0  0.27186479467E+01  0.62131937402E+01 -0.49952870979E+03  0.49957474589E+03  0.00000000000E+00 0.  1.
        -15    1    1    2    0    0 -0.47304050723E+01 -0.33107222593E+01  0.31407046028E+02  0.31982774790E+02  0.17770000000E+01 0.  1.
         15    1    1    2    0    0 -0.60538870442E+01 -0.11625071355E+00  0.88399901455E+02  0.88624846227E+02  0.17770000000E+01 0. -1.
</event>
<event>
 6   1  0.1826851E-04  0.5018816E+03  0.7546771E-02  0.9395609E-01
        -11   -1    0    0    0    0  0.00000000000E+00  0.00000000000E+00  0.50000000000E+03  0.50000000000E+03  0.00000000000E+00 0. -1.
         11   -1    0    0    0    0 -0.00000000000E+00 -0.00000000000E+00 -0.50000000000E+03  0.50000000000E+03  0.00000000000E+00 0. -1.
        -11    1    1    2    0    0 -0.98925340040E+01 -0.54632349741E+01  0.17685652120E+02  0.20987888324E+02  0.00000000000E+00 0. -1.
         11    1    1    2    0    0 -0.13716573391E+02  0.11463561950E+02 -0.49779756620E+03  0.49811843427E+03  0.00000000000E+00 0. -1.
        -15    1    1    2    0    0  0.91439641258E+01 -0.18853695934E+01  0.29857505918E+03  0.29872628005E+03  0.17770000000E+01 0. -1.
         15    1    1    2    0    0  0.14465143269E+02 -0.41149573826E+01  0.18153685490E+03  0.18216739736E+03  0.17770000000E+01 0.  1.
</event>
<event>
 6   1  0.1826851E-04  0.5008910E+03  0.7546771E-02  0.9397818E-01
        -11   -1    0    0    0    0  0.00000000000E+00  0.00000000000E+00  0.50000000000E+03  0.50000000000E+03  0.00000000000E+00 0.  1.
         11   -1    0    0    0    0 -0.00000000000E+00 -0.00000000000E+00 -0.50000000000E+03  0.50000000000E+03  0.00000000000E+00 0. -1.
        -11    1    1    2    0    0  0.10103303443E+02  0.27491623126E+01  0.44466481300E+03  0.44478807375E+03  0.00000000000E+00 0.  1.
         11    1    1    2    0    0 -0.38059702142E+01  0.84410681140E+01 -0.49902306220E+03  0.49910895970E+03  0.00000000000E+00 0. -1.
        -15    1    1    2    0    0 -0.19791389985E+01 -0.63143818255E+01  0.32973281926E+02  0.33677640342E+02  0.17770000000E+01 0.  1.
         15    1    1    2    0    0 -0.43181942300E+01 -0.48758486011E+01  0.21384967279E+02  0.22425326208E+02  0.17770000000E+01 0. -1.
</event>
<event>
 6   1  0.1826851E-04  0.5102111E+03  0.7546771E-02  0.9377247E-01
        -11   -1    0    0    0    0  0.00000000000E+00  0.00000000000E+00  0.50000000000E+03  0.50000000000E+03  0.00000000000E+00 0. -1.
         11   -1    0    0    0    0 -0.00000000000E+00 -0.00000000000E+00 -0.50000000000E+03  0.50000000000E+03  0.00000000000E+00 0.  1.
        -11    1    1    2    0    0  0.50934431928E+02 -0.90867235361E+01  0.27763491788E+03  0.28241464644E+03  0.00000000000E+00 0. -1.
         11    1    1    2    0    0  0.24163899525E+02  0.53759138740E+02 -0.48622962936E+03  0.48978892546E+03  0.00000000000E+00 0.  1.
        -15    1    1    2    0    0 -0.68741908627E+02 -0.48156290433E+02  0.18804253404E+03  0.20593113083E+03  0.17770000000E+01 0. -1.
         15    1    1    2    0    0 -0.63564228260E+01  0.34838752286E+01  0.20552177446E+02  0.21865297265E+02  0.17770000000E+01 0. -1.
</event>
<event>
 6   1  0.1826851E-04  0.5000767E+03  0.7546771E-02  0.9399638E-01
        -11   -1    0    0    0    0  0.00000000000E+00  0.00000000000E+00  0.50000000000E+03  0.50000000000E+03  0.00000000000E+00 0. -1.
         11   -1    0    0    0    0 -0.00000000000E+00 -0.00000000000E+00 -0.50000000000E+03  0.50000000000E+03  0.00000000000E+00 0. -1.
        -11    1    1    2    0    0  0.24713104308E+01 -0.16382296547E+01  0.30640661914E+02  0.30783783624E+02  0.00000000000E+00 0. -1.
         11    1    1    2    0    0 -0.71275292298E+01  0.32037841057E+01 -0.49986221073E+03  0.49992328974E+03  0.00000000000E+00 0. -1.
        -15    1    1    2    0    0 -0.72828277636E+00 -0.12154752663E+01  0.89350789806E+02  0.89379690891E+02  0.17770000000E+01 0.  1.
         15    1    1    2    0    0  0.53845015753E+01 -0.35007918471E+00  0.37987075901E+03  0.37991323575E+03  0.17770000000E+01 0. -1.
</event>
<event>
 6   1  0.1826851E-04  0.5023434E+03  0.7546771E-02  0.9394581E-01
        -11   -1    0    0    0    0  0.00000000000E+00  0.00000000000E+00  0.50000000000E+03  0.50000000000E+03  0.00000000000E+00 0.  1.
         11   -1    0    0    0    0 -0.00000000000E+00 -0.00000000000E+00 -0.50000000000E+03  0.50000000000E+03  0.00000000000E+00 0.  1.
        -11    1    1    2    0    0 -0.89935545402E+00  0.11939212422E+02  0.12140268547E+02  0.17051092454E+02  0.00000000000E+00 0.  1.
         11    1    1    2    0    0  0.38303848653E+01 -0.26167549192E+02 -0.49695343918E+03  0.49765664186E+03  0.00000000000E+00 0.  1.
        -15    1    1    2    0    0 -0.67868311870E+01  0.35320840367E+01  0.10036022127E+03  0.10066711696E+03  0.17770000000E+01 0. -1.
         15    1    1    2    0    0  0.38558017758E+01  0.10696252733E+02  0.38445294936E+03  0.38462514873E+03  0.17770000000E+01 0.  1.
</event>
<event>
 6   1  0.1826851E-04  0.5065878E+03  0.7546771E-02  0.9385189E-01
        -11   -1    0    0    0    0  0.00000000000E+00  0.00000000000E+00  0.50000000000E+03  0.50000000000E+03  0.00000000000E+00 0. -1.
         11   -1    0    0    0    0 -0.00000000000E+00 -0.00000000000E+00 -0.50000000000E+03  0.50000000000E+03  0.00000000000E+00 0.  1.
        -11    1    1    2    0    0  0.11257533975E+02  0.44513885596E+02  0.28302157943E+03  0.28672187308E+03  0.00000000000E+00 0. -1.
         11    1    1    2    0    0  0.54622188392E+01 -0.21303049840E+02 -0.49292187410E+03  0.49341223103E+03  0.00000000000E+00 0.  1.
        -15    1    1    2    0    0  0.16059400634E+02  0.27508927595E+01  0.22426963909E+02  0.27777656468E+02  0.17770000000E+01 0.  1.
         15    1    1    2    0    0 -0.32779153448E+02 -0.25961728515E+02  0.18747333076E+03  0.19208823942E+03  0.17770000000E+01 0. -1.
</event>
<event>
 6   1  0.1826851E-04  0.4854460E+03  0.7546771E-02  0.9432978E-01
        -11   -1    0    0    0    0  0.00000000000E+00  0.00000000000E+00  0.50000000000E+03  0.50000000000E+03  0.00000000000E+00 0. -1.
         11   -1    0    0    0    0 -0.00000000000E+00 -0.00000000000E+00 -0.50000000000E+03  0.50000000000E+03  0.00000000000E+00 0. -1.
        -11    1    1    2    0    0 -0.24674289476E+02  0.38204820482E+01  0.47954449534E+03  0.48019406458E+03  0.00000000000E+00 0. -1.
         11    1    1    2    0    0  0.74131713796E+01  0.67691810549E+00 -0.49087130944E+03  0.49092775004E+03  0.00000000000E+00 0. -1.
        -15    1    1    2    0    0  0.18989075070E+02 -0.64868208071E+00  0.13916663724E+02  0.23618573595E+02  0.17770000000E+01 0.  1.
         15    1    1    2    0    0 -0.17279569740E+01 -0.38487180730E+01 -0.25898496288E+01  0.52596117926E+01  0.17770000000E+01 0. -1.
</event>
<event>
 6   1  0.1826851E-04  0.5014760E+03  0.7546771E-02  0.9396513E-01
        -11   -1    0    0    0    0  0.00000000000E+00  0.00000000000E+00  0.50000000000E+03  0.50000000000E+03  0.00000000000E+00 0. -1.
         11   -1    0    0    0    0 -0.00000000000E+00 -0.00000000000E+00 -0.50000000000E+03  0.50000000000E+03  0.00000000000E+00 0.  1.
        -11    1    1    2    0    0 -0.18621484286E+02 -0.17550224901E+02  0.45314830795E+03  0.45387020068E+03  0.00000000000E+00 0. -1.
         11    1    1    2    0    0  0.12445692415E+02  0.21102581891E+02 -0.49792162331E+03  0.49852397854E+03  0.00000000000E+00 0.  1.
        -15    1    1    2    0    0  0.63879637533E+01 -0.43636445371E+01  0.44938342904E+02  0.45633977106E+02  0.17770000000E+01 0. -1.
         15    1    1    2    0    0 -0.21217188253E+00  0.81128754667E+00 -0.16502754434E+00  0.19718436757E+01  0.17770000000E+01 0.  1.
</event>
<event>
 6   1  0.1826851E-04  0.5000983E+03  0.7546771E-02  0.9399590E-01
        -11   -1    0    0    0    0  0.00000000000E+00  0.00000000000E+00  0.50000000000E+03  0.50000000000E+03  0.00000000000E+00 0. -1.
         11   -1    0    0    0    0 -0.00000000000E+00 -0.00000000000E+00 -0.50000000000E+03  0.50000000000E+03  0.00000000000E+00 0. -1.
        -11    1    1    2    0    0 -0.11258141519E+02  0.11340981833E+02  0.49964622653E+03  0.49990170564E+03  0.00000000000E+00 0. -1.
         11    1    1    2    0    0 -0.28936894461E+00  0.16664955379E+01 -0.93161550763E+02  0.93176904233E+02  0.00000000000E+00 0. -1.
        -15    1    1    2    0    0  0.58482034502E+01 -0.10308625813E+02 -0.22559184451E+03  0.22590995394E+03  0.17770000000E+01 0.  1.
         15    1    1    2    0    0  0.56993070135E+01 -0.26988515580E+01 -0.18089283126E+03  0.18101143619E+03  0.17770000000E+01 0. -1.
</event>
<event>
 6   1  0.1826851E-04  0.5053154E+03  0.7546771E-02  0.9387994E-01
        -11   -1    0    0    0    0  0.00000000000E+00  0.00000000000E+00  0.50000000000E+03  0.50000000000E+03  0.00000000000E+00 0.  1.
         11   -1    0    0    0    0 -0.00000000000E+00 -0.00000000000E+00 -0.50000000000E+03  0.50000000000E+03  0.00000000000E+00 0.  1.
        -11    1    1    2    0    0  0.37727414359E+02  0.28334656862E+02  0.49242935267E+03  0.49468462473E+03  0.00000000000E+00 0.  1.
         11    1    1    2    0    0 -0.93364356699E+01  0.10432519796E+02 -0.38158849768E+03  0.38184524099E+03  0.00000000000E+00 0.  1.
        -15    1    1    2    0    0 -0.13193932401E+02 -0.85712725713E+01 -0.62372879771E+02  0.64351227071E+02  0.17770000000E+01 0. -1.
         15    1    1    2    0    0 -0.15197046288E+02 -0.30195904087E+02 -0.48467975215E+02  0.59118907212E+02  0.17770000000E+01 0.  1.
</event>
<event>
 6   1  0.1826851E-04  0.5007726E+03  0.7546771E-02  0.9398083E-01
        -11   -1    0    0    0    0  0.00000000000E+00  0.00000000000E+00  0.50000000000E+03  0.50000000000E+03  0.00000000000E+00 0.  1.
         11   -1    0    0    0    0 -0.00000000000E+00 -0.00000000000E+00 -0.50000000000E+03  0.50000000000E+03  0.00000000000E+00 0.  1.
        -11    1    1    2    0    0 -0.83788503551E+01 -0.29486049494E+01  0.45099127629E+03  0.45107874113E+03  0.00000000000E+00 0.  1.
         11    1    1    2    0    0 -0.54404928959E+00  0.89804653318E+01 -0.49914628830E+03  0.49922736491E+03  0.00000000000E+00 0.  1.
        -15    1    1    2    0    0  0.12046011643E+01  0.22444808480E+00  0.74684408756E+01  0.77741095323E+01  0.17770000000E+01 0.  1.
         15    1    1    2    0    0  0.77182984804E+01 -0.62563084671E+01  0.40686571137E+02  0.41919784433E+02  0.17770000000E+01 0. -1.
</event>
<event>
 6   1  0.1826851E-04  0.5003622E+03  0.7546771E-02  0.9399000E-01
        -11   -1    0    0    0    0  0.00000000000E+00  0.00000000000E+00  0.50000000000E+03  0.50000000000E+03  0.00000000000E+00 0. -1.
         11   -1    0    0    0    0 -0.00000000000E+00 -0.00000000000E+00 -0.50000000000E+03  0.50000000000E+03  0.00000000000E+00 0.  1.
        -11    1    1    2    0    0  0.11304457635E+01 -0.10948650856E+02  0.49951654391E+03  0.49963779731E+03  0.00000000000E+00 0. -1.
         11    1    1    2    0    0 -0.85893386958E+01 -0.42055733678E+00 -0.36133010837E+03  0.36143242913E+03  0.00000000000E+00 0.  1.
        -15    1    1    2    0    0  0.40686465597E+01  0.48989510419E+01 -0.52618605202E+02  0.53032338706E+02  0.17770000000E+01 0.  1.
         15    1    1    2    0    0  0.33902463727E+01  0.64702571514E+01 -0.85567830332E+02  0.85897434856E+02  0.17770000000E+01 0. -1.
</event>
<event>
 6   1  0.1826851E-04  0.5051536E+03  0.7546771E-02  0.9388351E-01
        -11   -1    0    0    0    0  0.00000000000E+00  0.00000000000E+00  0.50000000000E+03  0.50000000000E+03  0.00000000000E+00 0. -1.
         11   -1    0    0    0    0 -0.00000000000E+00 -0.00000000000E+00 -0.50000000000E+03  0.50000000000E+03  0.00000000000E+00 0.  1.
        -11    1    1    2    0    0 -0.61386538352E+01  0.59530100088E+01  0.43842126641E+03  0.43850465019E+03  0.00000000000E+00 0. -1.
         11    1    1    2    0    0 -0.31321286626E+01  0.14976459694E+02 -0.49460982660E+03  0.49484642582E+03  0.00000000000E+00 0.  1.
        -15    1    1    2    0    0  0.82117016695E+01 -0.22413997872E+02  0.58501393266E+02  0.63209098143E+02  0.17770000000E+01 0. -1.
         15    1    1    2    0    0  0.10590808282E+01  0.14845281691E+01 -0.23128330722E+01  0.34398258540E+01  0.17770000000E+01 0.  1.
</event>
<event>
 6   1  0.1826851E-04  0.5053098E+03  0.7546771E-02  0.9388006E-01
        -11   -1    0    0    0    0  0.00000000000E+00  0.00000000000E+00  0.50000000000E+03  0.50000000000E+03  0.00000000000E+00 0.  1.
         11   -1    0    0    0    0 -0.00000000000E+00 -0.00000000000E+00 -0.50000000000E+03  0.50000000000E+03  0.00000000000E+00 0. -1.
        -11    1    1    2    0    0  0.91504681428E+00  0.36171043024E+02  0.49336515431E+03  0.49469016278E+03  0.00000000000E+00 0.  1.
         11    1    1    2    0    0  0.16238239481E+02  0.77557071978E+01 -0.39457120205E+03  0.39498134754E+03  0.00000000000E+00 0. -1.
        -15    1    1    2    0    0 -0.15513780991E+02 -0.26113368473E+02 -0.52691741567E+02  0.60845400582E+02  0.17770000000E+01 0. -1.
         15    1    1    2    0    0 -0.16395053040E+01 -0.17813381749E+02 -0.46102210695E+02  0.49483089100E+02  0.17770000000E+01 0.  1.
</event>
<event>
 6   1  0.1826851E-04  0.5002617E+03  0.7546771E-02  0.9399224E-01
        -11   -1    0    0    0    0  0.00000000000E+00  0.00000000000E+00  0.50000000000E+03  0.50000000000E+03  0.00000000000E+00 0. -1.
         11   -1    0    0    0    0 -0.00000000000E+00 -0.00000000000E+00 -0.50000000000E+03  0.50000000000E+03  0.00000000000E+00 0.  1.
        -11    1    1    2    0    0  0.77257569974E+01  0.30961536203E+01  0.36439365635E+03  0.36448869705E+03  0.00000000000E+00 0. -1.
         11    1    1    2    0    0 -0.53954831306E+01  0.47302439918E+01 -0.49968679592E+03  0.49973831198E+03  0.00000000000E+00 0.  1.
        -15    1    1    2    0    0 -0.17326523090E+01 -0.77278486921E+01  0.12745383122E+03  0.12771201412E+03  0.17770000000E+01 0. -1.
         15    1    1    2    0    0 -0.59762155776E+00 -0.98548920025E-01  0.78393083438E+01  0.80609768468E+01  0.17770000000E+01 0. -1.
</event>
<event>
 6   1  0.1826851E-04  0.5041508E+03  0.7546771E-02  0.9390570E-01
        -11   -1    0    0    0    0  0.00000000000E+00  0.00000000000E+00  0.50000000000E+03  0.50000000000E+03  0.00000000000E+00 0. -1.
         11   -1    0    0    0    0 -0.00000000000E+00 -0.00000000000E+00 -0.50000000000E+03  0.50000000000E+03  0.00000000000E+00 0. -1.
        -11    1    1    2    0    0 -0.97923996814E+01  0.81223782633E+01  0.49568591902E+03  0.49584916500E+03  0.00000000000E+00 0. -1.
         11    1    1    2    0    0 -0.21978777677E+01 -0.24588070980E+02 -0.45312445867E+03  0.45379640693E+03  0.00000000000E+00 0. -1.
        -15    1    1    2    0    0  0.38627314994E+01  0.41836389649E+01 -0.30939975822E+02  0.31509734409E+02  0.17770000000E+01 0.  1.
         15    1    1    2    0    0  0.81275459497E+01  0.12282053752E+02 -0.11621484529E+02  0.18844693662E+02  0.17770000000E+01 0. -1.
</event>
<event>
 6   1  0.1826851E-04  0.4850989E+03  0.7546771E-02  0.9433784E-01
        -11   -1    0    0    0    0  0.00000000000E+00  0.00000000000E+00  0.50000000000E+03  0.50000000000E+03  0.00000000000E+00 0.  1.
         11   -1    0    0    0    0 -0.00000000000E+00 -0.00000000000E+00 -0.50000000000E+03  0.50000000000E+03  0.00000000000E+00 0. -1.
        -11    1    1    2    0    0 -0.49962206985E+01  0.18418095783E+02  0.28688829286E+02  0.34456311459E+02  0.00000000000E+00 0.  1.
         11    1    1    2    0    0 -0.26315838827E+02  0.90611625732E+01 -0.49308102472E+03  0.49386589777E+03  0.00000000000E+00 0. -1.
        -15    1    1    2    0    0  0.32931196938E+02  0.10103389398E+02  0.10976895786E+03  0.11506052341E+03  0.17770000000E+01 0. -1.
         15    1    1    2    0    0 -0.16191374132E+01 -0.37582647754E+02  0.35462323758E+03  0.35661726736E+03  0.17770000000E+01 0.  1.
</event>
<event>
 6   1  0.1826851E-04  0.5018901E+03  0.7546771E-02  0.9395590E-01
        -11   -1    0    0    0    0  0.00000000000E+00  0.00000000000E+00  0.50000000000E+03  0.50000000000E+03  0.00000000000E+00 0. -1.
         11   -1    0    0    0    0 -0.00000000000E+00 -0.00000000000E+00 -0.50000000000E+03  0.50000000000E+03  0.00000000000E+00 0. -1.
        -11    1    1    2    0    0 -0.90769877670E+01  0.99837284717E+01  0.23977006600E+02  0.27512967609E+02  0.00000000000E+00 0. -1.
         11    1    1    2    0    0 -0.42802791835E+01 -0.73306730847E+01 -0.49803755322E+03  0.49810989146E+03  0.00000000000E+00 0. -1.
        -15    1    1    2    0    0  0.24347516026E+01  0.34884174093E+01  0.14510845518E+03  0.14518167434E+03  0.17770000000E+01 0.  1.
         15    1    1    2    0    0  0.10922515348E+02 -0.61414727963E+01  0.32895209144E+03  0.32919546658E+03  0.17770000000E+01 0. -1.
</event>
<event>
 6   1  0.1826851E-04  0.5001191E+03  0.7546771E-02  0.9399543E-01
        -11   -1    0    0    0    0  0.00000000000E+00  0.00000000000E+00  0.50000000000E+03  0.50000000000E+03  0.00000000000E+00 0.  1.
         11   -1    0    0    0    0 -0.00000000000E+00 -0.00000000000E+00 -0.50000000000E+03  0.50000000000E+03  0.00000000000E+00 0. -1.
        -11    1    1    2    0    0 -0.18779697079E+02  0.75610756550E+01  0.49947077474E+03  0.49988088752E+03  0.00000000000E+00 0.  1.
         11    1    1    2    0    0  0.82644164037E+00  0.18001852535E+01 -0.14641604468E+03  0.14642944312E+03  0.00000000000E+00 0. -1.
        -15    1    1    2    0    0  0.15034574973E+02 -0.80355232346E+01 -0.31249050433E+03  0.31296019093E+03  0.17770000000E+01 0. -1.
         15    1    1    2    0    0  0.29186804653E+01 -0.13257376738E+01 -0.40564225727E+02  0.40729478438E+02  0.17770000000E+01 0.  1.
</event>
<event>
 6   1  0.1826851E-04  0.5024747E+03  0.7546771E-02  0.9394289E-01
        -11   -1    0    0    0    0  0.00000000000E+00  0.00000000000E+00  0.50000000000E+03  0.50000000000E+03  0.00000000000E+00 0.  1.
         11   -1    0    0    0    0 -0.00000000000E+00 -0.00000000000E+00 -0.50000000000E+03  0.50000000000E+03  0.00000000000E+00 0. -1.
        -11    1    1    2    0    0  0.61325569292E+01 -0.96021270873E+01  0.49739484502E+03  0.49752531690E+03  0.00000000000E+00 0.  1.
         11    1    1    2    0    0  0.66278566687E+01  0.53486111432E+00 -0.46593942099E+03  0.46598686526E+03  0.00000000000E+00 0. -1.
        -15    1    1    2    0    0 -0.36196468344E+01  0.33769420094E+01 -0.31006557630E+01  0.61055201008E+01  0.17770000000E+01 0.  1.
         15    1    1    2    0    0 -0.91407667636E+01  0.56903239636E+01 -0.28354768263E+02  0.30382297742E+02  0.17770000000E+01 0. -1.
</event>
<event>
 6   1  0.1826851E-04  0.5004381E+03  0.7546771E-02  0.9398830E-01
        -11   -1    0    0    0    0  0.00000000000E+00  0.00000000000E+00  0.50000000000E+03  0.50000000000E+03  0.00000000000E+00 0.  1.
         11   -1    0    0    0    0 -0.00000000000E+00 -0.00000000000E+00 -0.50000000000E+03  0.50000000000E+03  0.00000000000E+00 0. -1.
        -11    1    1    2    0    0  0.71493426602E+01 -0.85865148842E+00  0.49951003331E+03  0.49956193186E+03  0.00000000000E+00 0.  1.
         11    1    1    2    0    0 -0.10111959346E+01  0.10915869679E+02 -0.37453488178E+03  0.37469528473E+03  0.00000000000E+00 0. -1.
        -15    1    1    2    0    0  0.70942522659E+00 -0.21310907457E+01 -0.40694966824E+02  0.40795623364E+02  0.17770000000E+01 0. -1.
         15    1    1    2    0    0 -0.68475719522E+01 -0.79261274445E+01 -0.84280184709E+02  0.84947160055E+02  0.17770000000E+01 0.  1.
</event>
<event>
 6   1  0.1826851E-04  0.5002129E+03  0.7546771E-02  0.9399334E-01
        -11   -1    0    0    0    0  0.00000000000E+00  0.00000000000E+00  0.50000000000E+03  0.50000000000E+03  0.00000000000E+00 0. -1.
         11   -1    0    0    0    0 -0.00000000000E+00 -0.00000000000E+00 -0.50000000000E+03  0.50000000000E+03  0.00000000000E+00 0.  1.
        -11    1    1    2    0    0  0.88615745474E+01  0.60381942189E+01  0.10242657764E+03  0.10298636366E+03  0.00000000000E+00 0. -1.
         11    1    1    2    0    0 -0.10125222011E+02 -0.15126421668E+02 -0.49945555080E+03  0.49978713066E+03  0.00000000000E+00 0.  1.
        -15    1    1    2    0    0 -0.25657484055E+01  0.38417136761E+01  0.24298880632E+03  0.24303921403E+03  0.17770000000E+01 0. -1.
         15    1    1    2    0    0  0.38293958696E+01  0.52465137731E+01  0.15404016684E+03  0.15418729165E+03  0.17770000000E+01 0.  1.
</event>
<event>
 6   1  0.1826851E-04  0.5102333E+03  0.7546771E-02  0.9377199E-01
        -11   -1    0    0    0    0  0.00000000000E+00  0.00000000000E+00  0.50000000000E+03  0.50000000000E+03  0.00000000000E+00 0. -1.
         11   -1    0    0    0    0 -0.00000000000E+00 -0.00000000000E+00 -0.50000000000E+03  0.50000000000E+03  0.00000000000E+00 0.  1.
        -11    1    1    2    0    0  0.78445551918E+00 -0.54824389596E+02  0.48668783867E+03  0.48976666013E+03  0.00000000000E+00 0. -1.
         11    1    1    2    0    0  0.76259805131E+00  0.88415418733E+01 -0.43072926929E+03  0.43082067945E+03  0.00000000000E+00 0.  1.
        -15    1    1    2    0    0 -0.52725055540E+01  0.18261666236E+02 -0.45769454686E+02  0.49591213735E+02  0.17770000000E+01 0.  1.
         15    1    1    2    0    0  0.37254519835E+01  0.27721181487E+02 -0.10189114696E+02  0.29821446692E+02  0.17770000000E+01 0. -1.
</event>
<event>
 6   1  0.1826851E-04  0.5193964E+03  0.7546771E-02  0.9357425E-01
        -11   -1    0    0    0    0  0.00000000000E+00  0.00000000000E+00  0.50000000000E+03  0.50000000000E+03  0.00000000000E+00 0. -1.
         11   -1    0    0    0    0 -0.00000000000E+00 -0.00000000000E+00 -0.50000000000E+03  0.50000000000E+03  0.00000000000E+00 0. -1.
        -11    1    1    2    0    0 -0.54833981589E+02  0.36752653012E+02  0.62241245919E+02  0.90727590808E+02  0.00000000000E+00 0. -1.
         11    1    1    2    0    0  0.50019062465E+01 -0.84521378453E+01 -0.48050326701E+03  0.48060362806E+03  0.00000000000E+00 0. -1.
        -15    1    1    2    0    0 -0.14671163815E+02 -0.40891287101E+01  0.24370433118E+02  0.28793050562E+02  0.17770000000E+01 0.  1.
         15    1    1    2    0    0  0.64503239157E+02 -0.24211386456E+02  0.39389158797E+03  0.39987573057E+03  0.17770000000E+01 0. -1.
</event>
<event>
 6   1  0.1826851E-04  0.5003435E+03  0.7546771E-02  0.9399041E-01
        -11   -1    0    0    0    0  0.00000000000E+00  0.00000000000E+00  0.50000000000E+03  0.50000000000E+03  0.00000000000E+00 0.  1.
         11   -1    0    0    0    0 -0.00000000000E+00 -0.00000000000E+00 -0.50000000000E+03  0.50000000000E+03  0.00000000000E+00 0. -1.
        -11    1    1    2    0    0  0.44384269941E+01  0.60610731937E+01  0.49960003878E+03  0.49965651701E+03  0.00000000000E+00 0.  1.
         11    1    1    2    0    0 -0.97366252377E+01 -0.10172906333E+01 -0.42284063355E+03  0.42295394328E+03  0.00000000000E+00 0. -1.
        -15    1    1    2    0    0  0.14943182527E+01  0.19289214333E+00 -0.36516659344E+02  0.36590905060E+02  0.17770000000E+01 0.  1.
         15    1    1    2    0    0  0.38038799909E+01 -0.52366747038E+01 -0.40242745879E+02  0.40798634656E+02  0.17770000000E+01 0. -1.
</event>
<event>
 6   1  0.1826851E-04  0.5085794E+03  0.7546771E-02  0.9380815E-01
        -11   -1    0    0    0    0  0.00000000000E+00  0.00000000000E+00  0.50000000000E+03  0.50000000000E+03  0.00000000000E+00 0. -1.
         11   -1    0    0    0    0 -0.00000000000E+00 -0.00000000000E+00 -0.50000000000E+03  0.50000000000E+03  0.00000000000E+00 0. -1.
        -11    1    1    2    0    0 -0.10268172546E+02 -0.23888427472E+02  0.40068851791E+03  0.40153129482E+03  0.00000000000E+00 0. -1.
         11    1    1    2    0    0  0.48722324686E+01 -0.15045623513E+02 -0.49116601392E+03  0.49142055580E+03  0.00000000000E+00 0. -1.
        -15    1    1    2    0    0  0.39143006481E+01  0.10470533691E+02 -0.85914402994E+00  0.11351197417E+02  0.17770000000E+01 0.  1.
         15    1    1    2    0    0  0.14816394298E+01  0.28463517294E+02  0.91336640036E+02  0.95696951959E+02  0.17770000000E+01 0. -1.
</event>
<event>
 6   1  0.1826851E-04  0.5001797E+03  0.7546771E-02  0.9399408E-01
        -11   -1    0    0    0    0  0.00000000000E+00  0.00000000000E+00  0.50000000000E+03  0.50000000000E+03  0.00000000000E+00 0. -1.
         11   -1    0    0    0    0 -0.00000000000E+00 -0.00000000000E+00 -0.50000000000E+03  0.50000000000E+03  0.00000000000E+00 0. -1.
        -11    1    1    2    0    0 -0.55829664702E+01 -0.49208083937E+01  0.49976490592E+03  0.49982031277E+03  0.00000000000E+00 0. -1.
         11    1    1    2    0    0  0.74911373398E+01  0.40794797207E+01 -0.43530067047E+03  0.43538423606E+03  0.00000000000E+00 0. -1.
        -15    1    1    2    0    0 -0.26021529379E+01 -0.11328297122E+01 -0.46748487456E+02  0.46868254837E+02  0.17770000000E+01 0. -1.
         15    1    1    2    0    0  0.69398206822E+00  0.19741583852E+01 -0.17715747992E+02  0.17927196333E+02  0.17770000000E+01 0.  1.
</event>
<event>
 6   1  0.1826851E-04  0.5032221E+03  0.7546771E-02  0.9392629E-01
        -11   -1    0    0    0    0  0.00000000000E+00  0.00000000000E+00  0.50000000000E+03  0.50000000000E+03  0.00000000000E+00 0. -1.
         11   -1    0    0    0    0 -0.00000000000E+00 -0.00000000000E+00 -0.50000000000E+03  0.50000000000E+03  0.00000000000E+00 0.  1.
        -11    1    1    2    0    0  0.36286606601E+01 -0.67146330533E+01  0.48514983938E+03  0.48520987225E+03  0.00000000000E+00 0. -1.
         11    1    1    2    0    0 -0.42119078643E+01 -0.57422233105E+01 -0.49672687222E+03  0.49677791706E+03  0.00000000000E+00 0.  1.
        -15    1    1    2    0    0  0.55662608797E+00  0.70327894943E+01  0.94385580242E+01  0.11916965522E+02  0.17770000000E+01 0.  1.
         15    1    1    2    0    0  0.26621116312E-01  0.54240668695E+01  0.21384748114E+01  0.60952451639E+01  0.17770000000E+01 0. -1.
</event>
<event>
 6   1  0.1826851E-04  0.5120704E+03  0.7546771E-02  0.9373199E-01
        -11   -1    0    0    0    0  0.00000000000E+00  0.00000000000E+00  0.50000000000E+03  0.50000000000E+03  0.00000000000E+00 0. -1.
         11   -1    0    0    0    0 -0.00000000000E+00 -0.00000000000E+00 -0.50000000000E+03  0.50000000000E+03  0.00000000000E+00 0.  1.
        -11    1    1    2    0    0  0.28908319730E+02 -0.86151123363E+01  0.46624823443E+03  0.46722299518E+03  0.00000000000E+00 0. -1.
         11    1    1    2    0    0 -0.26170268321E+02  0.19210081623E+02 -0.48684842784E+03  0.48792960750E+03  0.00000000000E+00 0.  1.
        -15    1    1    2    0    0  0.17008992779E+02 -0.60967067860E+01  0.15535593088E+02  0.23895356255E+02  0.17770000000E+01 0.  1.
         15    1    1    2    0    0 -0.19747044189E+02 -0.44982625009E+01  0.50646003222E+01  0.20952041073E+02  0.17770000000E+01 0. -1.
</event>
<event>
 6   1  0.1826851E-04  0.5017207E+03  0.7546771E-02  0.9395968E-01
        -11   -1    0    0    0    0  0.00000000000E+00  0.00000000000E+00  0.50000000000E+03  0.50000000000E+03  0.00000000000E+00 0.  1.
         11   -1    0    0    0    0 -0.00000000000E+00 -0.00000000000E+00 -0.50000000000E+03  0.50000000000E+03  0.00000000000E+00 0. -1.
        -11    1    1    2    0    0  0.37775680079E+02 -0.57460844239E+02  0.34891462006E+03  0.35562643703E+03  0.00000000000E+00 0.  1.
         11    1    1    2    0    0 -0.30423523303E+02  0.53172788903E+02 -0.49449906211E+03  0.49827929786E+03  0.00000000000E+00 0. -1.
        -15    1    1    2    0    0 -0.85737858740E+01  0.18783027185E+01  0.10498932692E+03  0.10537055718E+03  0.17770000000E+01 0.  1.
         15    1    1    2    0    0  0.12216290973E+01  0.24097526174E+01  0.40595115132E+02  0.40723707922E+02  0.17770000000E+01 0. -1.
</event>
<event>
 6   1  0.1826851E-04  0.5001814E+03  0.7546771E-02  0.9399404E-01
        -11   -1    0    0    0    0  0.00000000000E+00  0.00000000000E+00  0.50000000000E+03  0.50000000000E+03  0.00000000000E+00 0. -1.
         11   -1    0    0    0    0 -0.00000000000E+00 -0.00000000000E+00 -0.50000000000E+03  0.50000000000E+03  0.00000000000E+00 0.  1.
        -11    1    1    2    0    0  0.40242353277E+01  0.67361862421E+01  0.49975697184E+03  0.49981856866E+03  0.00000000000E+00 0. -1.
         11    1    1    2    0    0  0.24709668528E+01  0.44584546979E+01 -0.21974690751E+03  0.21980602098E+03  0.00000000000E+00 0.  1.
        -15    1    1    2    0    0 -0.11022506351E+01 -0.13332421946E+01 -0.82953448968E+02  0.82990511000E+02  0.17770000000E+01 0.  1.
         15    1    1    2    0    0 -0.53929515454E+01 -0.98613987453E+01 -0.19705661536E+03  0.19738489936E+03  0.17770000000E+01 0.  1.
</event>
<event>
 6   1  0.1826851E-04  0.5001754E+03  0.7546771E-02  0.9399417E-01
        -11   -1    0    0    0    0  0.00000000000E+00  0.00000000000E+00  0.50000000000E+03  0.50000000000E+03  0.00000000000E+00 0.  1.
         11   -1    0    0    0    0 -0.00000000000E+00 -0.00000000000E+00 -0.50000000000E+03  0.50000000000E+03  0.00000000000E+00 0.  1.
        -11    1    1    2    0    0  0.90834263789E+00  0.18426965994E+02  0.34431628797E+03  0.34481021493E+03  0.00000000000E+00 0.  1.
         11    1    1    2    0    0 -0.47159901922E+01 -0.15690820216E+02 -0.49955595593E+03  0.49982456473E+03  0.00000000000E+00 0.  1.
        -15    1    1    2    0    0  0.14273013104E+01 -0.13588911783E+01  0.94610158862E+02  0.94647364798E+02  0.17770000000E+01 0. -1.
         15    1    1    2    0    0  0.23803462440E+01 -0.13772545994E+01  0.60629509102E+02  0.60717855540E+02  0.17770000000E+01 0. -1.
</event>
<event>
 6   1  0.1826851E-04  0.5027117E+03  0.7546771E-02  0.9393762E-01
        -11   -1    0    0    0    0  0.00000000000E+00  0.00000000000E+00  0.50000000000E+03  0.50000000000E+03  0.00000000000E+00 0. -1.
         11   -1    0    0    0    0 -0.00000000000E+00 -0.00000000000E+00 -0.50000000000E+03  0.50000000000E+03  0.00000000000E+00 0.  1.
        -11    1    1    2    0    0  0.14479277666E+02 -0.47650164215E+01  0.49705463193E+03  0.49728830871E+03  0.00000000000E+00 0. -1.
         11    1    1    2    0    0  0.83497475257E+01  0.20302623184E+01 -0.43450359196E+03  0.43458855447E+03  0.00000000000E+00 0.  1.
        -15    1    1    2    0    0 -0.16905219191E+02 -0.40901842570E+01 -0.36020464701E+02  0.40039326286E+02  0.17770000000E+01 0.  1.
         15    1    1    2    0    0 -0.59238060008E+01  0.68249383601E+01 -0.26530575268E+02  0.28083810536E+02  0.17770000000E+01 0. -1.
</event>
<event>
 6   1  0.1826851E-04  0.5000669E+03  0.7546771E-02  0.9399660E-01
        -11   -1    0    0    0    0  0.00000000000E+00  0.00000000000E+00  0.50000000000E+03  0.50000000000E+03  0.00000000000E+00 0.  1.
         11   -1    0    0    0    0 -0.00000000000E+00 -0.00000000000E+00 -0.50000000000E+03  0.50000000000E+03  0.00000000000E+00 0.  1.
        -11    1    1    2    0    0  0.24093259055E+01  0.61554240769E+01  0.13260843988E+03  0.13277308622E+03  0.00000000000E+00 0.  1.
         11    1    1    2    0    0  0.41301051255E+01 -0.13587474844E+02 -0.49973139391E+03  0.49993313883E+03  0.00000000000E+00 0.  1.
        -15    1    1    2    0    0 -0.13095714693E+01  0.38168216124E+01  0.18127354315E+03  0.18132715815E+03  0.17770000000E+01 0.  1.
         15    1    1    2    0    0 -0.52298595617E+01  0.36152291551E+01  0.18584941087E+03  0.18596661680E+03  0.17770000000E+01 0. -1.
</event>
<event>
 6   1  0.1826851E-04  0.5013973E+03  0.7546771E-02  0.9396689E-01
        -11   -1    0    0    0    0  0.00000000000E+00  0.00000000000E+00  0.50000000000E+03  0.50000000000E+03  0.00000000000E+00 0. -1.
         11   -1    0    0    0    0 -0.00000000000E+00 -0.00000000000E+00 -0.50000000000E+03  0.50000000000E+03  0.00000000000E+00 0. -1.
        -11    1    1    2    0    0  0.27307340441E+00  0.10674977958E+02  0.41203948198E+03  0.41217783108E+03  0.00000000000E+00 0. -1.
         11    1    1    2    0    0  0.58133790713E+01  0.95642454956E+01 -0.49847703746E+03  0.49860267453E+03  0.00000000000E+00 0. -1.
        -15    1    1    2    0    0 -0.10380950821E+01 -0.12320247424E+02  0.45766648221E+02  0.47440593972E+02  0.17770000000E+01 0. -1.
         15    1    1    2    0    0 -0.50483573936E+01 -0.79189760293E+01  0.40670907266E+02  0.41778900423E+02  0.17770000000E+01 0.  1.
</event>
<event>
 6   1  0.1826851E-04  0.4925266E+03  0.7546771E-02  0.9416689E-01
        -11   -1    0    0    0    0  0.00000000000E+00  0.00000000000E+00  0.50000000000E+03  0.50000000000E+03  0.00000000000E+00 0.  1.
         11   -1    0    0    0    0 -0.00000000000E+00 -0.00000000000E+00 -0.50000000000E+03  0.50000000000E+03  0.00000000000E+00 0. -1.
        -11    1    1    2    0    0 -0.34973022836E+01  0.66533352991E+01  0.49194176638E+03  0.49199918648E+03  0.00000000000E+00 0.  1.
         11    1    1    2    0    0  0.12482034211E+02 -0.10488510770E+01 -0.49295227250E+03  0.49311139130E+03  0.00000000000E+00 0. -1.
        -15    1    1    2    0    0 -0.89764863825E+01 -0.12539852385E+01  0.31052999413E+01  0.97442497648E+01  0.17770000000E+01 0. -1.
         15    1    1    2    0    0 -0.82455447704E-02 -0.43504989836E+01 -0.20947938180E+01  0.51451724495E+01  0.17770000000E+01 0.  1.
</event>
<event>
 6   1  0.1826851E-04  0.5009103E+03  0.7546771E-02  0.9397775E-01
        -11   -1    0    0    0    0  0.00000000000E+00  0.00000000000E+00  0.50000000000E+03  0.50000000000E+03  0.00000000000E+00 0.  1.
         11   -1    0    0    0    0 -0.00000000000E+00 -0.00000000000E+00 -0.50000000000E+03  0.50000000000E+03  0.00000000000E+00 0.  1.
        -11    1    1    2    0    0  0.53525583244E+01 -0.73231540852E+01  0.36955920278E+03  0.36967050576E+03  0.00000000000E+00 0.  1.
         11    1    1    2    0    0  0.87777956490E+01 -0.20141226430E+01 -0.49900843379E+03  0.49908969472E+03  0.00000000000E+00 0.  1.
        -15    1    1    2    0    0 -0.54282869541E+01  0.73481327492E+01  0.30900495289E+02  0.32271654626E+02  0.17770000000E+01 0. -1.
         15    1    1    2    0    0 -0.87020670193E+01  0.19891439790E+01  0.98548735714E+02  0.98968144895E+02  0.17770000000E+01 0.  1.
</event>
<event>
 6   1  0.1826851E-04  0.5014640E+03  0.7546771E-02  0.9396540E-01
        -11   -1    0    0    0    0  0.00000000000E+00  0.00000000000E+00  0.50000000000E+03  0.50000000000E+03  0.00000000000E+00 0. -1.
         11   -1    0    0    0    0 -0.00000000000E+00 -0.00000000000E+00 -0.50000000000E+03  0.50000000000E+03  0.00000000000E+00 0. -1.
        -11    1    1    2    0    0 -0.13445452244E+02 -0.13857526480E+02  0.76716983602E+02  0.79109460871E+02  0.00000000000E+00 0. -1.
         11    1    1    2    0    0  0.23536199874E+02  0.52306237258E+01 -0.49795265217E+03  0.49853601267E+03  0.00000000000E+00 0. -1.
        -15    1    1    2    0    0 -0.10266376764E+02  0.16074611697E+02  0.37498992892E+03  0.37547888909E+03  0.17770000000E+01 0. -1.
         15    1    1    2    0    0  0.17562913434E+00 -0.74477089428E+01  0.46245739644E+02  0.46875637365E+02  0.17770000000E+01 0.  1.
</event>
<event>
 6   1  0.1826851E-04  0.5008920E+03  0.7546771E-02  0.9397816E-01
        -11   -1    0    0    0    0  0.00000000000E+00  0.00000000000E+00  0.50000000000E+03  0.50000000000E+03  0.00000000000E+00 0.  1.
         11   -1    0    0    0    0 -0.00000000000E+00 -0.00000000000E+00 -0.50000000000E+03  0.50000000000E+03  0.00000000000E+00 0. -1.
        -11    1    1    2    0    0  0.15152419098E+02 -0.16143250312E+02  0.49861663589E+03  0.49910795418E+03  0.00000000000E+00 0.  1.
         11    1    1    2    0    0 -0.34001334469E+01 -0.88732853399E+01 -0.28930910904E+03  0.28946512169E+03  0.00000000000E+00 0. -1.
        -15    1    1    2    0    0  0.33275003212E+00  0.34837762429E+01 -0.55618374806E+02  0.55756692554E+02  0.17770000000E+01 0.  1.
         15    1    1    2    0    0 -0.12085035683E+02  0.21532759409E+02 -0.15368915205E+03  0.15567023158E+03  0.17770000000E+01 0. -1.
</event>
<event>
 6   1  0.1826851E-04  0.5009249E+03  0.7546771E-02  0.9397743E-01
        -11   -1    0    0    0    0  0.00000000000E+00  0.00000000000E+00  0.50000000000E+03  0.50000000000E+03  0.00000000000E+00 0.  1.
         11   -1    0    0    0    0 -0.00000000000E+00 -0.00000000000E+00 -0.50000000000E+03  0.50000000000E+03  0.00000000000E+00 0. -1.
        -11    1    1    2    0    0  0.42970830585E+01  0.11754111290E+02  0.32703894522E+03  0.32727831542E+03  0.00000000000E+00 0.  1.
         11    1    1    2    0    0  0.49225660264E+00  0.98142544365E+01 -0.49897839058E+03  0.49907514081E+03  0.00000000000E+00 0. -1.
        -15    1    1    2    0    0 -0.29015056140E+01 -0.15949660254E+02  0.14890429353E+03  0.14979471539E+03  0.17770000000E+01 0.  1.
         15    1    1    2    0    0 -0.18878340471E+01 -0.56187054728E+01  0.23035151827E+02  0.23851828384E+02  0.17770000000E+01 0. -1.
</event>
<event>
 6   1  0.1826851E-04  0.5044009E+03  0.7546771E-02  0.9390016E-01
        -11   -1    0    0    0    0  0.00000000000E+00  0.00000000000E+00  0.50000000000E+03  0.50000000000E+03  0.00000000000E+00 0.  1.
         11   -1    0    0    0    0 -0.00000000000E+00 -0.00000000000E+00 -0.50000000000E+03  0.50000000000E+03  0.00000000000E+00 0. -1.
        -11    1    1    2    0    0  0.82171053307E+01  0.76349868364E+01  0.48665070533E+03  0.48677995321E+03  0.00000000000E+00 0.  1.
         11    1    1    2    0    0 -0.92780325920E+00 -0.79837708201E+01 -0.49553394726E+03  0.49559912661E+03  0.00000000000E+00 0. -1.
        -15    1    1    2    0    0  0.27032905453E+01  0.17396109261E+01 -0.52686062787E+00  0.37107057371E+01  0.17770000000E+01 0. -1.
         15    1    1    2    0    0 -0.99925926168E+01 -0.13908269424E+01  0.94101025506E+01  0.13910214441E+02  0.17770000000E+01 0.  1.
</event>
<event>
 6   1  0.1826851E-04  0.5042660E+03  0.7546771E-02  0.9390315E-01
        -11   -1    0    0    0    0  0.00000000000E+00  0.00000000000E+00  0.50000000000E+03  0.50000000000E+03  0.00000000000E+00 0. -1.
         11   -1    0    0    0    0 -0.00000000000E+00 -0.00000000000E+00 -0.50000000000E+03  0.50000000000E+03  0.00000000000E+00 0.  1.
        -11    1    1    2    0    0 -0.14769607505E+02 -0.69389949481E+00  0.91050476438E+01  0.17364466446E+02  0.00000000000E+00 0. -1.
         11    1    1    2    0    0  0.51404084901E+01  0.57050487040E+01 -0.49567454470E+03  0.49573402712E+03  0.00000000000E+00 0.  1.
        -15    1    1    2    0    0  0.19914293296E+01 -0.65330002795E+01  0.36582562092E+03  0.36589368474E+03  0.17770000000E+01 0. -1.
         15    1    1    2    0    0  0.76377696855E+01  0.15218510703E+01  0.12074387614E+03  0.12100782169E+03  0.17770000000E+01 0.  1.
</event>
<event>
 6   1  0.1826851E-04  0.5008785E+03  0.7546771E-02  0.9397846E-01
        -11   -1    0    0    0    0  0.00000000000E+00  0.00000000000E+00  0.50000000000E+03  0.50000000000E+03  0.00000000000E+00 0. -1.
         11   -1    0    0    0    0 -0.00000000000E+00 -0.00000000000E+00 -0.50000000000E+03  0.50000000000E+03  0.00000000000E+00 0.  1.
        -11    1    1    2    0    0 -0.30350355824E+01 -0.89658963141E+01  0.46954817748E+03  0.46964357731E+03  0.00000000000E+00 0. -1.
         11    1    1    2    0    0  0.77337035826E+01  0.17506244111E+01 -0.49905850332E+03  0.49912149282E+03  0.00000000000E+00 0.  1.
        -15    1    1    2    0    0 -0.42605741469E+01  0.49887031938E+01  0.24783942216E+02  0.25699050029E+02  0.17770000000E+01 0.  1.
         15    1    1    2    0    0 -0.43809385330E+00  0.22265687092E+01  0.47263836251E+01  0.55358798409E+01  0.17770000000E+01 0.  1.
</event>
<event>
 6   1  0.1826851E-04  0.5004722E+03  0.7546771E-02  0.9398754E-01
        -11   -1    0    0    0    0  0.00000000000E+00  0.00000000000E+00  0.50000000000E+03  0.50000000000E+03  0.00000000000E+00 0.  1.
         11   -1    0    0    0    0 -0.00000000000E+00 -0.00000000000E+00 -0.50000000000E+03  0.50000000000E+03  0.00000000000E+00 0. -1.
        -11    1    1    2    0    0 -0.11902422154E+02 -0.17584722037E+01  0.82622593113E+02  0.83494028351E+02  0.00000000000E+00 0.  1.
         11    1    1    2    0    0  0.55092341967E+01 -0.50291084607E+01 -0.49947205654E+03  0.49952775585E+03  0.00000000000E+00 0. -1.
        -15    1    1    2    0    0  0.27534733632E+01  0.38151919964E+01  0.15807940902E+03  0.15815939615E+03  0.17770000000E+01 0.  1.
         15    1    1    2    0    0  0.36397145940E+01  0.29723886680E+01  0.25877005441E+03  0.25881881965E+03  0.17770000000E+01 0.  1.
</event>
<event>
 6   1  0.1826851E-04  0.5012022E+03  0.7546771E-02  0.9397124E-01
        -11   -1    0    0    0    0  0.00000000000E+00  0.00000000000E+00  0.50000000000E+03  0.50000000000E+03  0.00000000000E+00 0. -1.
         11   -1    0    0    0    0 -0.00000000000E+00 -0.00000000000E+00 -0.50000000000E+03  0.50000000000E+03  0.00000000000E+00 0. -1.
        -11    1    1    2    0    0  0.12645134622E+02 -0.10192035993E+02  0.76766432006E+02  0.78465674726E+02  0.00000000000E+00 0. -1.
         11    1    1    2    0    0 -0.10975614128E+02 -0.16023023153E+02 -0.49841955740E+03  0.49879781132E+03  0.00000000000E+00 0. -1.
        -15    1    1    2    0    0 -0.99137242762E+00  0.24106124017E+02  0.41099953168E+03  0.41171089468E+03  0.17770000000E+01 0. -1.
         15    1    1    2    0    0 -0.67814806643E+00  0.21089351283E+01  0.10653593720E+02  0.11025619272E+02  0.17770000000E+01 0.  1.
</event>
<event>
 6   1  0.1826851E-04  0.5004688E+03  0.7546771E-02  0.9398761E-01
        -11   -1    0    0    0    0  0.00000000000E+00  0.00000000000E+00  0.50000000000E+03  0.50000000000E+03  0.00000000000E+00 0.  1.
         11   -1    0    0    0    0 -0.00000000000E+00 -0.00000000000E+00 -0.50000000000E+03  0.50000000000E+03  0.00000000000E+00 0. -1.
        -11    1    1    2    0    0 -0.41416478764E+01 -0.10729975766E+02  0.14328126309E+03  0.14374215102E+03  0.00000000000E+00 0.  1.
         11    1    1    2    0    0 -0.38863113884E+01  0.60972160576E+01 -0.49947891501E+03  0.49953124627E+03  0.00000000000E+00 0. -1.
        -15    1    1    2    0    0 -0.38300713160E+01 -0.80775108368E-01  0.32574081498E+02  0.32846681497E+02  0.17770000000E+01 0. -1.
         15    1    1    2    0    0  0.11858030581E+02  0.47135348169E+01  0.32362357043E+03  0.32387992121E+03  0.17770000000E+01 0.  1.
</event>
<event>
 6   1  0.1826851E-04  0.5008004E+03  0.7546771E-02  0.9398021E-01
        -11   -1    0    0    0    0  0.00000000000E+00  0.00000000000E+00  0.50000000000E+03  0.50000000000E+03  0.00000000000E+00 0. -1.
         11   -1    0    0    0    0 -0.00000000000E+00 -0.00000000000E+00 -0.50000000000E+03  0.50000000000E+03  0.00000000000E+00 0. -1.
        -11    1    1    2    0    0  0.22831070739E+01 -0.69844757749E+01  0.49914553273E+03  0.49919961771E+03  0.00000000000E+00 0. -1.
         11    1    1    2    0    0 -0.37675870170E+01 -0.51510990515E+01 -0.42317981285E+03  0.42322793214E+03  0.00000000000E+00 0. -1.
        -15    1    1    2    0    0 -0.13308791576E+00  0.84246561389E+00 -0.23975813351E+01  0.31038018562E+01  0.17770000000E+01 0. -1.
         15    1    1    2    0    0  0.16175678589E+01  0.11293109213E+02 -0.73568138541E+02  0.74468648294E+02  0.17770000000E+01 0.  1.
</event>
<event>
 6   1  0.1826851E-04  0.4873723E+03  0.7546771E-02  0.9428517E-01
        -11   -1    0    0    0    0  0.00000000000E+00  0.00000000000E+00  0.50000000000E+03  0.50000000000E+03  0.00000000000E+00 0.  1.
         11   -1    0    0    0    0 -0.00000000000E+00 -0.00000000000E+00 -0.50000000000E+03  0.50000000000E+03  0.00000000000E+00 0.  1.
        -11    1    1    2    0    0  0.94522695852E+01 -0.23473781973E+01  0.23693213559E+02  0.25616868534E+02  0.00000000000E+00 0.  1.
         11    1    1    2    0    0 -0.16351764345E+02 -0.28468172522E+01 -0.49850300011E+03  0.49877923542E+03  0.00000000000E+00 0.  1.
        -15    1    1    2    0    0  0.15657806048E+02 -0.16182486849E+01  0.23705843385E+03  0.23758713014E+03  0.17770000000E+01 0. -1.
         15    1    1    2    0    0 -0.87583112881E+01  0.68124441344E+01  0.23775135270E+03  0.23801676591E+03  0.17770000000E+01 0.  1.
</event>
<event>
 6   1  0.1826851E-04  0.5000711E+03  0.7546771E-02  0.9399651E-01
        -11   -1    0    0    0    0  0.00000000000E+00  0.00000000000E+00  0.50000000000E+03  0.50000000000E+03  0.00000000000E+00 0. -1.
         11   -1    0    0    0    0 -0.00000000000E+00 -0.00000000000E+00 -0.50000000000E+03  0.50000000000E+03  0.00000000000E+00 0. -1.
        -11    1    1    2    0    0 -0.10010904012E+02 -0.30184148019E+01  0.49981954104E+03  0.49992889758E+03  0.00000000000E+00 0. -1.
         11    1    1    2    0    0  0.53423000412E+01 -0.12630949396E+01 -0.30007175622E+03  0.30012196597E+03  0.00000000000E+00 0. -1.
        -15    1    1    2    0    0  0.35196566528E+01  0.32992817093E+01 -0.73405204655E+02  0.73585019142E+02  0.17770000000E+01 0. -1.
         15    1    1    2    0    0  0.11489473175E+01  0.98222803218E+00 -0.12634258016E+03  0.12636411731E+03  0.17770000000E+01 0.  1.
</event>
<event>
 6   1  0.1826851E-04  0.5021274E+03  0.7546771E-02  0.9395062E-01
        -11   -1    0    0    0    0  0.00000000000E+00  0.00000000000E+00  0.50000000000E+03  0.50000000000E+03  0.00000000000E+00 0. -1.
         11   -1    0    0    0    0 -0.00000000000E+00 -0.00000000000E+00 -0.50000000000E+03  0.50000000000E+03  0.00000000000E+00 0. -1.
        -11    1    1    2    0    0 -0.18859880584E+02  0.11879077286E+02  0.58916826446E+02  0.62992063081E+02  0.00000000000E+00 0. -1.
         11    1    1    2    0    0  0.12937859303E+02 -0.26522731487E+02 -0.49699724131E+03  0.49787257542E+03  0.00000000000E+00 0. -1.
        -15    1    1    2    0    0  0.31225119883E+01 -0.55280200305E+01  0.22004159959E+03  0.22014034698E+03  0.17770000000E+01 0.  1.
         15    1    1    2    0    0  0.27995092927E+01  0.20171674231E+02  0.21803881527E+03  0.21899501452E+03  0.17770000000E+01 0. -1.
</event>
<event>
 6   1  0.1826851E-04  0.5013597E+03  0.7546771E-02  0.9396772E-01
        -11   -1    0    0    0    0  0.00000000000E+00  0.00000000000E+00  0.50000000000E+03  0.50000000000E+03  0.00000000000E+00 0.  1.
         11   -1    0    0    0    0 -0.00000000000E+00 -0.00000000000E+00 -0.50000000000E+03  0.50000000000E+03  0.00000000000E+00 0. -1.
        -11    1    1    2    0    0 -0.71376604583E+00 -0.10812654403E+02  0.49852254326E+03  0.49864030032E+03  0.00000000000E+00 0.  1.
         11    1    1    2    0    0  0.50132212139E+01 -0.45281809012E+01 -0.42482382346E+03  0.42487753270E+03  0.00000000000E+00 0. -1.
        -15    1    1    2    0    0 -0.63504806870E+01  0.93460761852E+01 -0.27012279250E+02  0.29334258203E+02  0.17770000000E+01 0.  1.
         15    1    1    2    0    0  0.20510255190E+01  0.59947591188E+01 -0.46686440552E+02  0.47147908787E+02  0.17770000000E+01 0. -1.
</event>
<event>
 6   1  0.1826851E-04  0.5035201E+03  0.7546771E-02  0.9391968E-01
        -11   -1    0    0    0    0  0.00000000000E+00  0.00000000000E+00  0.50000000000E+03  0.50000000000E+03  0.00000000000E+00 0. -1.
         11   -1    0    0    0    0 -0.00000000000E+00 -0.00000000000E+00 -0.50000000000E+03  0.50000000000E+03  0.00000000000E+00 0.  1.
        -11    1    1    2    0    0  0.24144972999E+02 -0.12502998508E+02  0.49573480825E+03  0.49647991379E+03  0.00000000000E+00 0. -1.
         11    1    1    2    0    0 -0.14966008687E+01  0.76664745585E+01 -0.36693624347E+03  0.36701937472E+03  0.00000000000E+00 0.  1.
        -15    1    1    2    0    0  0.78988223891E+01 -0.63183511616E+01 -0.53245360208E+02  0.54226737586E+02  0.17770000000E+01 0. -1.
         15    1    1    2    0    0 -0.30547194520E+02  0.11154875111E+02 -0.75553204565E+02  0.82273973897E+02  0.17770000000E+01 0.  1.
</event>
<event>
 6   1  0.1826851E-04  0.5045427E+03  0.7546771E-02  0.9389702E-01
        -11   -1    0    0    0    0  0.00000000000E+00  0.00000000000E+00  0.50000000000E+03  0.50000000000E+03  0.00000000000E+00 0. -1.
         11   -1    0    0    0    0 -0.00000000000E+00 -0.00000000000E+00 -0.50000000000E+03  0.50000000000E+03  0.00000000000E+00 0.  1.
        -11    1    1    2    0    0  0.14623243788E+02 -0.30460472010E+02  0.39334546106E+03  0.39479403662E+03  0.00000000000E+00 0. -1.
         11    1    1    2    0    0  0.15525697330E+02  0.10070752967E+02 -0.49511156044E+03  0.49545728840E+03  0.00000000000E+00 0.  1.
        -15    1    1    2    0    0 -0.57347118466E+01 -0.10117568544E+01  0.34535878676E+02  0.35068436190E+02  0.17770000000E+01 0. -1.
         15    1    1    2    0    0 -0.24414229271E+02  0.21401475897E+02  0.67230220701E+02  0.74680238792E+02  0.17770000000E+01 0.  1.
</event>
<event>
 6   1  0.1826851E-04  0.5006035E+03  0.7546771E-02  0.9398460E-01
        -11   -1    0    0    0    0  0.00000000000E+00  0.00000000000E+00  0.50000000000E+03  0.50000000000E+03  0.00000000000E+00 0. -1.
         11   -1    0    0    0    0 -0.00000000000E+00 -0.00000000000E+00 -0.50000000000E+03  0.50000000000E+03  0.00000000000E+00 0.  1.
        -11    1    1    2    0    0  0.48617117448E+00 -0.17822188297E+02  0.49907811211E+03  0.49939646449E+03  0.00000000000E+00 0. -1.
         11    1    1    2    0    0 -0.12954727017E+02  0.47626380466E+01 -0.35470034847E+03  0.35496879423E+03  0.00000000000E+00 0.  1.
        -15    1    1    2    0    0  0.54672594882E+01  0.26633499962E+01 -0.41454868641E+02  0.41936239967E+02  0.17770000000E+01 0. -1.
         15    1    1    2    0    0  0.70012963542E+01  0.10396200255E+02 -0.10292289500E+03  0.10369850131E+03  0.17770000000E+01 0.  1.
</event>
<event>
 6   1  0.1826851E-04  0.5008084E+03  0.7546771E-02  0.9398003E-01
        -11   -1    0    0    0    0  0.00000000000E+00  0.00000000000E+00  0.50000000000E+03  0.50000000000E+03  0.00000000000E+00 0.  1.
         11   -1    0    0    0    0 -0.00000000000E+00 -0.00000000000E+00 -0.50000000000E+03  0.50000000000E+03  0.00000000000E+00 0.  1.
        -11    1    1    2    0    0  0.31468148346E+00  0.12828908418E+02  0.93953898935E+02  0.94826236036E+02  0.00000000000E+00 0.  1.
         11    1    1    2    0    0  0.18960428665E+02  0.23864125640E+01 -0.49882571706E+03  0.49919163537E+03  0.00000000000E+00 0.  1.
        -15    1    1    2    0    0 -0.10482091072E+02  0.17465702130E+01  0.13534699522E+03  0.13577515084E+03  0.17770000000E+01 0. -1.
         15    1    1    2    0    0 -0.87930190765E+01 -0.16961891195E+02  0.26952482291E+03  0.27020697776E+03  0.17770000000E+01 0.  1.
</event>
<event>
 6   1  0.1826851E-04  0.5001230E+03  0.7546771E-02  0.9399535E-01
        -11   -1    0    0    0    0  0.00000000000E+00  0.00000000000E+00  0.50000000000E+03  0.50000000000E+03  0.00000000000E+00 0.  1.
         11   -1    0    0    0    0 -0.00000000000E+00 -0.00000000000E+00 -0.50000000000E+03  0.50000000000E+03  0.00000000000E+00 0. -1.
        -11    1    1    2    0    0 -0.16264455371E+01  0.24216548342E+01  0.25929511064E+02  0.26093088764E+02  0.00000000000E+00 0.  1.
         11    1    1    2    0    0 -0.14113840583E+02 -0.89133804880E+01 -0.49959823845E+03  0.49987703359E+03  0.00000000000E+00 0. -1.
        -15    1    1    2    0    0  0.51247713095E+01 -0.68169602990E+00  0.11935333205E+03  0.11947846497E+03  0.17770000000E+01 0.  1.
         15    1    1    2    0    0  0.10615514810E+02  0.71734216837E+01  0.35431539533E+03  0.35455141268E+03  0.17770000000E+01 0.  1.
</event>
<event>
 6   1  0.1826851E-04  0.5001356E+03  0.7546771E-02  0.9399506E-01
        -11   -1    0    0    0    0  0.00000000000E+00  0.00000000000E+00  0.50000000000E+03  0.50000000000E+03  0.00000000000E+00 0. -1.
         11   -1    0    0    0    0 -0.00000000000E+00 -0.00000000000E+00 -0.50000000000E+03  0.50000000000E+03  0.00000000000E+00 0.  1.
        -11    1    1    2    0    0 -0.17382314654E+01  0.65169233315E+01  0.68323213425E+02  0.68655321943E+02  0.00000000000E+00 0. -1.
         11    1    1    2    0    0  0.21396537715E+01 -0.10866085320E+02 -0.49974170668E+03  0.49986440494E+03  0.00000000000E+00 0.  1.
        -15    1    1    2    0    0 -0.10537464147E+01 -0.47160047374E+00  0.11956694659E+03  0.11958572337E+03  0.17770000000E+01 0.  1.
         15    1    1    2    0    0  0.65232410867E+00  0.48207624618E+01  0.31185154666E+03  0.31189454975E+03  0.17770000000E+01 0. -1.
</event>
<event>
 6   1  0.1826851E-04  0.5019884E+03  0.7546771E-02  0.9395371E-01
        -11   -1    0    0    0    0  0.00000000000E+00  0.00000000000E+00  0.50000000000E+03  0.50000000000E+03  0.00000000000E+00 0. -1.
         11   -1    0    0    0    0 -0.00000000000E+00 -0.00000000000E+00 -0.50000000000E+03  0.50000000000E+03  0.00000000000E+00 0.  1.
        -11    1    1    2    0    0 -0.39354352645E+01  0.22701421445E+02  0.49747834284E+03  0.49801159001E+03  0.00000000000E+00 0. -1.
         11    1    1    2    0    0 -0.17036171698E+01 -0.81602445698E+01 -0.38473527503E+03  0.38482557576E+03  0.00000000000E+00 0.  1.
        -15    1    1    2    0    0  0.12204326651E+01 -0.20177727237E+02 -0.49607584836E+02  0.53597577693E+02  0.17770000000E+01 0.  1.
         15    1    1    2    0    0  0.44186197691E+01  0.56365503622E+01 -0.63135482970E+02  0.63565256544E+02  0.17770000000E+01 0. -1.
</event>
<event>
 6   1  0.1826851E-04  0.5011613E+03  0.7546771E-02  0.9397215E-01
        -11   -1    0    0    0    0  0.00000000000E+00  0.00000000000E+00  0.50000000000E+03  0.50000000000E+03  0.00000000000E+00 0.  1.
         11   -1    0    0    0    0 -0.00000000000E+00 -0.00000000000E+00 -0.50000000000E+03  0.50000000000E+03  0.00000000000E+00 0.  1.
        -11    1    1    2    0    0 -0.36455635540E+02  0.56020952618E+01  0.20480089097E+03  0.20809565535E+03  0.00000000000E+00 0.  1.
         11    1    1    2    0    0  0.31666390939E+02 -0.62247884279E+01 -0.49779372118E+03  0.49883874865E+03  0.00000000000E+00 0.  1.
        -15    1    1    2    0    0  0.34826862398E+01  0.14085529148E+01  0.17285078037E+03  0.17290073201E+03  0.17770000000E+01 0. -1.
         15    1    1    2    0    0  0.13065583618E+01 -0.78585974871E+00  0.12014204984E+03  0.12016486400E+03  0.17770000000E+01 0. -1.
</event>
<event>
 6   1  0.1826851E-04  0.5000251E+03  0.7546771E-02  0.9399754E-01
        -11   -1    0    0    0    0  0.00000000000E+00  0.00000000000E+00  0.50000000000E+03  0.50000000000E+03  0.00000000000E+00 0. -1.
         11   -1    0    0    0    0 -0.00000000000E+00 -0.00000000000E+00 -0.50000000000E+03  0.50000000000E+03  0.00000000000E+00 0.  1.
        -11    1    1    2    0    0 -0.84303000976E+01 -0.16825820251E+01  0.49990099262E+03  0.49997490284E+03  0.00000000000E+00 0. -1.
         11    1    1    2    0    0  0.16564029815E+01  0.12005578368E+01 -0.15005460697E+03  0.15006855127E+03  0.00000000000E+00 0.  1.
        -15    1    1    2    0    0  0.34965400781E+01 -0.10479996322E+01 -0.24348824644E+03  0.24352208931E+03  0.17770000000E+01 0.  1.
         15    1    1    2    0    0  0.32773570380E+01  0.15300238204E+01 -0.10635813921E+03  0.10643445658E+03  0.17770000000E+01 0. -1.
</event>
<event>
 6   1  0.1826851E-04  0.5003635E+03  0.7546771E-02  0.9398997E-01
        -11   -1    0    0    0    0  0.00000000000E+00  0.00000000000E+00  0.50000000000E+03  0.50000000000E+03  0.00000000000E+00 0. -1.
         11   -1    0    0    0    0 -0.00000000000E+00 -0.00000000000E+00 -0.50000000000E+03  0.50000000000E+03  0.00000000000E+00 0. -1.
        -11    1    1    2    0    0  0.48921639627E+01 -0.79777589781E+01  0.38481861516E+03  0.38493238949E+03  0.00000000000E+00 0. -1.
         11    1    1    2    0    0 -0.10523125158E+02 -0.13146401344E+01 -0.49952392094E+03  0.49963647989E+03  0.00000000000E+00 0. -1.
        -15    1    1    2    0    0  0.13737363868E+00  0.52085794361E+01  0.63774595539E+02  0.64011756236E+02  0.17770000000E+01 0. -1.
         15    1    1    2    0    0  0.54935875571E+01  0.40838196763E+01  0.50930710240E+02  0.51419374383E+02  0.17770000000E+01 0.  1.
</event>
<event>
 6   1  0.1826851E-04  0.5019525E+03  0.7546771E-02  0.9395451E-01
        -11   -1    0    0    0    0  0.00000000000E+00  0.00000000000E+00  0.50000000000E+03  0.50000000000E+03  0.00000000000E+00 0.  1.
         11   -1    0    0    0    0 -0.00000000000E+00 -0.00000000000E+00 -0.50000000000E+03  0.50000000000E+03  0.00000000000E+00 0. -1.
        -11    1    1    2    0    0 -0.70452208951E+02  0.16678643719E+02  0.49275713491E+03  0.49804747254E+03  0.00000000000E+00 0.  1.
         11    1    1    2    0    0  0.65904975507E+01  0.38713098188E+01 -0.18085394606E+03  0.18101539024E+03  0.00000000000E+00 0. -1.
        -15    1    1    2    0    0  0.60930619571E+02 -0.28139238258E+02 -0.28327531933E+03  0.29112269132E+03  0.17770000000E+01 0. -1.
         15    1    1    2    0    0  0.29310918293E+01  0.75892847208E+01 -0.28627869527E+02  0.29814445903E+02  0.17770000000E+01 0.  1.
</event>
<event>
 6   1  0.1826851E-04  0.5016112E+03  0.7546771E-02  0.9396212E-01
        -11   -1    0    0    0    0  0.00000000000E+00  0.00000000000E+00  0.50000000000E+03  0.50000000000E+03  0.00000000000E+00 0.  1.
         11   -1    0    0    0    0 -0.00000000000E+00 -0.00000000000E+00 -0.50000000000E+03  0.50000000000E+03  0.00000000000E+00 0. -1.
        -11    1    1    2    0    0 -0.25116941152E+01 -0.38913127404E+02  0.17392663815E+03  0.17824425811E+03  0.00000000000E+00 0.  1.
         11    1    1    2    0    0 -0.12246802642E+02  0.37726224185E+02 -0.49680796000E+03  0.49838880534E+03  0.00000000000E+00 0. -1.
        -15    1    1    2    0    0  0.58073116301E+01  0.36306070041E+01  0.83494631240E+02  0.83793898051E+02  0.17770000000E+01 0. -1.
         15    1    1    2    0    0  0.89511851276E+01 -0.24437037853E+01  0.23938669061E+03  0.23957303850E+03  0.17770000000E+01 0.  1.
</event>
<event>
 6   1  0.1826851E-04  0.5026968E+03  0.7546771E-02  0.9393795E-01
        -11   -1    0    0    0    0  0.00000000000E+00  0.00000000000E+00  0.50000000000E+03  0.50000000000E+03  0.00000000000E+00 0.  1.
         11   -1    0    0    0    0 -0.00000000000E+00 -0.00000000000E+00 -0.50000000000E+03  0.50000000000E+03  0.00000000000E+00 0. -1.
        -11    1    1    2    0    0 -0.63971737587E+01  0.42217970250E+01  0.49724408235E+03  0.49730315184E+03  0.00000000000E+00 0.  1.
         11    1    1    2    0    0  0.41840228102E+01  0.54542925470E+01 -0.48393954753E+03  0.48398836868E+03  0.00000000000E+00 0. -1.
        -15    1    1    2    0    0  0.17113801693E+01 -0.79428245090E+01 -0.13814614476E+02  0.16125091795E+02  0.17770000000E+01 0. -1.
         15    1    1    2    0    0  0.50177077923E+00 -0.17332650630E+01  0.51007965661E+00  0.25833876886E+01  0.17770000000E+01 0.  1.
</event>
<event>
 6   1  0.1826851E-04  0.5004448E+03  0.7546771E-02  0.9398815E-01
        -11   -1    0    0    0    0  0.00000000000E+00  0.00000000000E+00  0.50000000000E+03  0.50000000000E+03  0.00000000000E+00 0.  1.
         11   -1    0    0    0    0 -0.00000000000E+00 -0.00000000000E+00 -0.50000000000E+03  0.50000000000E+03  0.00000000000E+00 0. -1.
        -11    1    1    2    0    0  0.19395193629E+02  0.37492390957E+02  0.49776860629E+03  0.49955524051E+03  0.00000000000E+00 0.  1.
         11    1    1    2    0    0 -0.18714220797E+02 -0.93638530069E+01 -0.17413618508E+03  0.17538903830E+03  0.00000000000E+00 0. -1.
        -15    1    1    2    0    0  0.50955707620E+01 -0.13895748487E+02 -0.15361402545E+03  0.15433561874E+03  0.17770000000E+01 0.  1.
         15    1    1    2    0    0 -0.57765435947E+01 -0.14232789463E+02 -0.17001839577E+03  0.17072010245E+03  0.17770000000E+01 0. -1.
</event>
<event>
 6   1  0.1826851E-04  0.5000766E+03  0.7546771E-02  0.9399638E-01
        -11   -1    0    0    0    0  0.00000000000E+00  0.00000000000E+00  0.50000000000E+03  0.50000000000E+03  0.00000000000E+00 0.  1.
         11   -1    0    0    0    0 -0.00000000000E+00 -0.00000000000E+00 -0.50000000000E+03  0.50000000000E+03  0.00000000000E+00 0. -1.
        -11    1    1    2    0    0 -0.13395822966E+01 -0.53976204900E+01  0.35091688813E+03  0.35096095390E+03  0.00000000000E+00 0.  1.
         11    1    1    2    0    0 -0.37926726684E+01  0.56465628081E+01 -0.49987712848E+03  0.49992340574E+03  0.00000000000E+00 0. -1.
        -15    1    1    2    0    0  0.20075859246E+01  0.58883510634E+00  0.88704406203E+02  0.88746867758E+02  0.17770000000E+01 0. -1.
         15    1    1    2    0    0  0.31246690404E+01 -0.83777742440E+00  0.60255834147E+02  0.60368772601E+02  0.17770000000E+01 0.  1.
</event>
<event>
 6   1  0.1826851E-04  0.4802536E+03  0.7546771E-02  0.9445111E-01
        -11   -1    0    0    0    0  0.00000000000E+00  0.00000000000E+00  0.50000000000E+03  0.50000000000E+03  0.00000000000E+00 0.  1.
         11   -1    0    0    0    0 -0.00000000000E+00 -0.00000000000E+00 -0.50000000000E+03  0.50000000000E+03  0.00000000000E+00 0. -1.
        -11    1    1    2    0    0 -0.78608210863E+00 -0.35584956771E+02  0.48550151567E+03  0.48680450778E+03  0.00000000000E+00 0.  1.
         11    1    1    2    0    0  0.91930741003E+01  0.11842352202E+02 -0.47386620644E+03  0.47410329626E+03  0.00000000000E+00 0. -1.
        -15    1    1    2    0    0 -0.55378324522E+01  0.26288937553E+01 -0.16038486404E+02  0.17261791500E+02  0.17770000000E+01 0.  1.
         15    1    1    2    0    0 -0.28691595394E+01  0.21113710814E+02  0.44031771755E+01  0.21830404463E+02  0.17770000000E+01 0. -1.
</event>
<event>
 6   1  0.1826851E-04  0.5001514E+03  0.7546771E-02  0.9399471E-01
        -11   -1    0    0    0    0  0.00000000000E+00  0.00000000000E+00  0.50000000000E+03  0.50000000000E+03  0.00000000000E+00 0. -1.
         11   -1    0    0    0    0 -0.00000000000E+00 -0.00000000000E+00 -0.50000000000E+03  0.50000000000E+03  0.00000000000E+00 0.  1.
        -11    1    1    2    0    0  0.16350420422E+01 -0.17226580338E+02  0.21127872330E+03  0.21198614896E+03  0.00000000000E+00 0. -1.
         11    1    1    2    0    0 -0.46953431331E+01  0.21562881778E+02 -0.49936119090E+03  0.49984858016E+03  0.00000000000E+00 0.  1.
        -15    1    1    2    0    0  0.73756235577E+00 -0.18203067876E+01  0.72652658317E+02  0.72700921622E+02  0.17770000000E+01 0. -1.
         15    1    1    2    0    0  0.23227387352E+01 -0.25159946531E+01  0.21542980928E+03  0.21546434925E+03  0.17770000000E+01 0. -1.
</event>
<event>
 6   1  0.1826851E-04  0.5066507E+03  0.7546771E-02  0.9385050E-01
        -11   -1    0    0    0    0  0.00000000000E+00  0.00000000000E+00  0.50000000000E+03  0.50000000000E+03  0.00000000000E+00 0.  1.
         11   -1    0    0    0    0 -0.00000000000E+00 -0.00000000000E+00 -0.50000000000E+03  0.50000000000E+03  0.00000000000E+00 0. -1.
        -11    1    1    2    0    0 -0.20850081783E+00  0.13786784051E+02  0.47940325821E+03  0.47960150424E+03  0.00000000000E+00 0.  1.
         11    1    1    2    0    0  0.62145865380E+01  0.46971521113E+01 -0.49328782494E+03  0.49334933116E+03  0.00000000000E+00 0. -1.
        -15    1    1    2    0    0 -0.38797206707E+01 -0.62991130741E+01  0.12286356163E+02  0.14451412899E+02  0.17770000000E+01 0. -1.
         15    1    1    2    0    0 -0.21263650495E+01 -0.12184823088E+02  0.15982105678E+01  0.12597751705E+02  0.17770000000E+01 0.  1.
</event>
<event>
 6   1  0.1826851E-04  0.5051159E+03  0.7546771E-02  0.9388435E-01
        -11   -1    0    0    0    0  0.00000000000E+00  0.00000000000E+00  0.50000000000E+03  0.50000000000E+03  0.00000000000E+00 0.  1.
         11   -1    0    0    0    0 -0.00000000000E+00 -0.00000000000E+00 -0.50000000000E+03  0.50000000000E+03  0.00000000000E+00 0. -1.
        -11    1    1    2    0    0  0.40068448580E+02  0.33968480194E+02  0.49208829355E+03  0.49488405397E+03  0.00000000000E+00 0.  1.
         11    1    1    2    0    0 -0.78278150295E+01 -0.97771390991E+01 -0.39165458844E+03  0.39185479936E+03  0.00000000000E+00 0. -1.
        -15    1    1    2    0    0 -0.80274577929E+00  0.63698582952E+01 -0.26149401574E+02  0.26984596109E+02  0.17770000000E+01 0. -1.
         15    1    1    2    0    0 -0.31437887771E+02 -0.30561199390E+02 -0.74284303542E+02  0.86276550565E+02  0.17770000000E+01 0. -1.
</event>
<event>
 6   1  0.1826851E-04  0.5001869E+03  0.7546771E-02  0.9399392E-01
        -11   -1    0    0    0    0  0.00000000000E+00  0.00000000000E+00  0.50000000000E+03  0.50000000000E+03  0.00000000000E+00 0. -1.
         11   -1    0    0    0    0 -0.00000000000E+00 -0.00000000000E+00 -0.50000000000E+03  0.50000000000E+03  0.00000000000E+00 0.  1.
        -11    1    1    2    0    0  0.16041629997E+01  0.29676534909E+01  0.48257426488E+02  0.48375195270E+02  0.00000000000E+00 0. -1.
         11    1    1    2    0    0  0.71709406985E+01  0.33149660989E+01 -0.49975063492E+03  0.49981307355E+03  0.00000000000E+00 0.  1.
        -15    1    1    2    0    0 -0.84857034216E+01 -0.42932652270E+01  0.43452608442E+03  0.43463377119E+03  0.17770000000E+01 0. -1.
         15    1    1    2    0    0 -0.28940027655E+00 -0.19893543628E+01  0.16967124012E+02  0.17177959994E+02  0.17770000000E+01 0.  1.
</event>
<event>
 6   1  0.1826851E-04  0.5062119E+03  0.7546771E-02  0.9386016E-01
        -11   -1    0    0    0    0  0.00000000000E+00  0.00000000000E+00  0.50000000000E+03  0.50000000000E+03  0.00000000000E+00 0.  1.
         11   -1    0    0    0    0 -0.00000000000E+00 -0.00000000000E+00 -0.50000000000E+03  0.50000000000E+03  0.00000000000E+00 0.  1.
        -11    1    1    2    0    0 -0.41691247399E+01 -0.20804013912E+02  0.49333201482E+03  0.49378807746E+03  0.00000000000E+00 0.  1.
         11    1    1    2    0    0  0.17759915115E+01 -0.85873381358E+01 -0.45648999140E+03  0.45657420949E+03  0.00000000000E+00 0.  1.
        -15    1    1    2    0    0  0.67254591769E+00  0.42334872400E+01  0.36595528434E+00  0.46547163708E+01  0.17770000000E+01 0. -1.
         15    1    1    2    0    0  0.17205873108E+01  0.25157864808E+02 -0.37207978697E+02  0.44982996678E+02  0.17770000000E+01 0.  1.
</event>
<event>
 6   1  0.1826851E-04  0.5001900E+03  0.7546771E-02  0.9399385E-01
        -11   -1    0    0    0    0  0.00000000000E+00  0.00000000000E+00  0.50000000000E+03  0.50000000000E+03  0.00000000000E+00 0. -1.
         11   -1    0    0    0    0 -0.00000000000E+00 -0.00000000000E+00 -0.50000000000E+03  0.50000000000E+03  0.00000000000E+00 0.  1.
        -11    1    1    2    0    0  0.91600835508E+01  0.11498360786E+02  0.49959378292E+03  0.49981003128E+03  0.00000000000E+00 0. -1.
         11    1    1    2    0    0 -0.25367270834E+01  0.12353949677E+01 -0.20764385053E+03  0.20766301993E+03  0.00000000000E+00 0.  1.
        -15    1    1    2    0    0  0.11755626730E+01 -0.78206204882E+00 -0.10505607606E+03  0.10508059010E+03  0.17770000000E+01 0. -1.
         15    1    1    2    0    0 -0.77989191404E+01 -0.11951693705E+02 -0.18689385633E+03  0.18744635869E+03  0.17770000000E+01 0.  1.
</event>
<event>
 6   1  0.1826851E-04  0.4874207E+03  0.7546771E-02  0.9428405E-01
        -11   -1    0    0    0    0  0.00000000000E+00  0.00000000000E+00  0.50000000000E+03  0.50000000000E+03  0.00000000000E+00 0.  1.
         11   -1    0    0    0    0 -0.00000000000E+00 -0.00000000000E+00 -0.50000000000E+03  0.50000000000E+03  0.00000000000E+00 0. -1.
        -11    1    1    2    0    0  0.13672332720E+02 -0.41174128556E+01  0.48577911616E+03  0.48598892525E+03  0.00000000000E+00 0.  1.
         11    1    1    2    0    0  0.94908498828E+01  0.19752550061E+01 -0.48903927256E+03  0.48913534729E+03  0.00000000000E+00 0. -1.
        -15    1    1    2    0    0 -0.20558939004E+02  0.38024850159E+00  0.43714357069E+01  0.21096960469E+02  0.17770000000E+01 0.  1.
         15    1    1    2    0    0 -0.26042435994E+01  0.17619093479E+01 -0.11112793034E+01  0.37787669901E+01  0.17770000000E+01 0. -1.
</event>
<event>
 6   1  0.1826851E-04  0.5049545E+03  0.7546771E-02  0.9388791E-01
        -11   -1    0    0    0    0  0.00000000000E+00  0.00000000000E+00  0.50000000000E+03  0.50000000000E+03  0.00000000000E+00 0. -1.
         11   -1    0    0    0    0 -0.00000000000E+00 -0.00000000000E+00 -0.50000000000E+03  0.50000000000E+03  0.00000000000E+00 0. -1.
        -11    1    1    2    0    0 -0.23254091059E+01 -0.26480463914E+02  0.49433128818E+03  0.49504549788E+03  0.00000000000E+00 0. -1.
         11    1    1    2    0    0 -0.78148579658E+01 -0.34521401347E+01 -0.40339147591E+03  0.40348193530E+03  0.00000000000E+00 0. -1.
        -15    1    1    2    0    0  0.45759961986E+01  0.27139436626E+02 -0.32284490865E+02  0.42460980217E+02  0.17770000000E+01 0.  1.
         15    1    1    2    0    0  0.55642708730E+01  0.27931674224E+01 -0.58655321405E+02  0.59011586598E+02  0.17770000000E+01 0. -1.
</event>
<event>
 6   1  0.1826851E-04  0.5038179E+03  0.7546771E-02  0.9391307E-01
        -11   -1    0    0    0    0  0.00000000000E+00  0.00000000000E+00  0.50000000000E+03  0.50000000000E+03  0.00000000000E+00 0. -1.
         11   -1    0    0    0    0 -0.00000000000E+00 -0.00000000000E+00 -0.50000000000E+03  0.50000000000E+03  0.00000000000E+00 0. -1.
        -11    1    1    2    0    0 -0.29828867426E+02  0.33247186632E+01  0.30023215218E+03  0.30172862027E+03  0.00000000000E+00 0. -1.
         11    1    1    2    0    0  0.17093818644E+01  0.15524013777E+02 -0.49593627027E+03  0.49618212499E+03  0.00000000000E+00 0. -1.
        -15    1    1    2    0    0  0.25000434451E+02  0.51561363678E+01  0.11509938679E+03  0.11790943148E+03  0.17770000000E+01 0.  1.
         15    1    1    2    0    0  0.31190511112E+01 -0.24004868808E+02  0.80604731306E+02  0.84179823261E+02  0.17770000000E+01 0. -1.
</event>
<event>
 6   1  0.1826851E-04  0.5015246E+03  0.7546771E-02  0.9396405E-01
        -11   -1    0    0    0    0  0.00000000000E+00  0.00000000000E+00  0.50000000000E+03  0.50000000000E+03  0.00000000000E+00 0.  1.
         11   -1    0    0    0    0 -0.00000000000E+00 -0.00000000000E+00 -0.50000000000E+03  0.50000000000E+03  0.00000000000E+00 0. -1.
        -11    1    1    2    0    0 -0.17065058799E+02 -0.29598045285E+01  0.45606795914E+03  0.45639671343E+03  0.00000000000E+00 0.  1.
         11    1    1    2    0    0  0.53326183944E+01  0.82710384870E+01 -0.49837824435E+03  0.49847539692E+03  0.00000000000E+00 0. -1.
        -15    1    1    2    0    0  0.19137447682E+01 -0.41665491754E+01  0.21019482982E+02  0.21587008707E+02  0.17770000000E+01 0.  1.
         15    1    1    2    0    0  0.98186956362E+01 -0.11446847831E+01  0.21290802225E+02  0.23540880944E+02  0.17770000000E+01 0. -1.
</event>
<event>
 6   1  0.1826851E-04  0.5025206E+03  0.7546771E-02  0.9394187E-01
        -11   -1    0    0    0    0  0.00000000000E+00  0.00000000000E+00  0.50000000000E+03  0.50000000000E+03  0.00000000000E+00 0. -1.
         11   -1    0    0    0    0 -0.00000000000E+00 -0.00000000000E+00 -0.50000000000E+03  0.50000000000E+03  0.00000000000E+00 0.  1.
        -11    1    1    2    0    0 -0.73583074737E+01  0.25913461116E+02  0.40765258720E+03  0.40854165517E+03  0.00000000000E+00 0. -1.
         11    1    1    2    0    0  0.12965452450E+02 -0.28333871119E+01 -0.49730234765E+03  0.49747940261E+03  0.00000000000E+00 0.  1.
        -15    1    1    2    0    0 -0.14990375902E+01 -0.19690398926E+02  0.82705104616E+02  0.85048521340E+02  0.17770000000E+01 0.  1.
         15    1    1    2    0    0 -0.41081073865E+01 -0.33896750788E+01  0.69446558348E+01  0.89304208804E+01  0.17770000000E+01 0. -1.
</event>
<event>
 6   1  0.1826851E-04  0.5018704E+03  0.7546771E-02  0.9395634E-01
        -11   -1    0    0    0    0  0.00000000000E+00  0.00000000000E+00  0.50000000000E+03  0.50000000000E+03  0.00000000000E+00 0.  1.
         11   -1    0    0    0    0 -0.00000000000E+00 -0.00000000000E+00 -0.50000000000E+03  0.50000000000E+03  0.00000000000E+00 0. -1.
        -11    1    1    2    0    0 -0.21662353414E+02 -0.15854794258E+02  0.22056725733E+03  0.22219484031E+03  0.00000000000E+00 0.  1.
         11    1    1    2    0    0 -0.11555756742E+01 -0.84371076353E+01 -0.49805684770E+03  0.49812964546E+03  0.00000000000E+00 0. -1.
        -15    1    1    2    0    0  0.13073414369E+01  0.32021626937E+01  0.56706877746E+02  0.56840044865E+02  0.17770000000E+01 0. -1.
         15    1    1    2    0    0  0.21510587652E+02  0.21089739200E+02  0.22078271263E+03  0.22283546936E+03  0.17770000000E+01 0.  1.
</event>
<event>
 6   1  0.1826851E-04  0.5103352E+03  0.7546771E-02  0.9376976E-01
        -11   -1    0    0    0    0  0.00000000000E+00  0.00000000000E+00  0.50000000000E+03  0.50000000000E+03  0.00000000000E+00 0.  1.
         11   -1    0    0    0    0 -0.00000000000E+00 -0.00000000000E+00 -0.50000000000E+03  0.50000000000E+03  0.00000000000E+00 0. -1.
        -11    1    1    2    0    0  0.67310192598E+01 -0.36178542267E+02  0.40346293776E+03  0.40513767497E+03  0.00000000000E+00 0.  1.
         11    1    1    2    0    0  0.22214716885E+02 -0.10506503801E+02 -0.48904773796E+03  0.48966475294E+03  0.00000000000E+00 0. -1.
        -15    1    1    2    0    0 -0.46771937280E+01 -0.43282780619E-01  0.37719443923E+00  0.50177703429E+01  0.17770000000E+01 0.  1.
         15    1    1    2    0    0 -0.24268542417E+02  0.46728328848E+02  0.85207605765E+02  0.10017980174E+03  0.17770000000E+01 0. -1.
</event>
<event>
 6   1  0.1826851E-04  0.5006989E+03  0.7546771E-02  0.9398247E-01
        -11   -1    0    0    0    0  0.00000000000E+00  0.00000000000E+00  0.50000000000E+03  0.50000000000E+03  0.00000000000E+00 0. -1.
         11   -1    0    0    0    0 -0.00000000000E+00 -0.00000000000E+00 -0.50000000000E+03  0.50000000000E+03  0.00000000000E+00 0. -1.
        -11    1    1    2    0    0  0.11799792458E+02 -0.38332621762E+01  0.49914693480E+03  0.49930110306E+03  0.00000000000E+00 0. -1.
         11    1    1    2    0    0  0.36412393315E+01  0.52811679739E+01 -0.40324817384E+03  0.40329919299E+03  0.00000000000E+00 0. -1.
        -15    1    1    2    0    0 -0.34536312695E+01 -0.39768832510E+00 -0.40148674353E+02  0.40338065227E+02  0.17770000000E+01 0.  1.
         15    1    1    2    0    0 -0.11987400520E+02 -0.10502174725E+01 -0.55750086601E+02  0.57061638717E+02  0.17770000000E+01 0. -1.
</event>
<event>
 6   1  0.1826851E-04  0.5001220E+03  0.7546771E-02  0.9399537E-01
        -11   -1    0    0    0    0  0.00000000000E+00  0.00000000000E+00  0.50000000000E+03  0.50000000000E+03  0.00000000000E+00 0.  1.
         11   -1    0    0    0    0 -0.00000000000E+00 -0.00000000000E+00 -0.50000000000E+03  0.50000000000E+03  0.00000000000E+00 0.  1.
        -11    1    1    2    0    0  0.13840672671E+02  0.22474514020E+01  0.49968129321E+03  0.49987799516E+03  0.00000000000E+00 0.  1.
         11    1    1    2    0    0 -0.13333482158E+02 -0.18024614607E+01 -0.38093575257E+03  0.38117329156E+03  0.00000000000E+00 0.  1.
        -15    1    1    2    0    0 -0.16348022983E+01 -0.20657362169E+00 -0.16104250724E+02  0.16285572498E+02  0.17770000000E+01 0. -1.
         15    1    1    2    0    0  0.11276117854E+01 -0.23841631952E+00 -0.10264128991E+03  0.10266314078E+03  0.17770000000E+01 0.  1.
</event>
<event>
 6   1  0.1826851E-04  0.5065727E+03  0.7546771E-02  0.9385222E-01
        -11   -1    0    0    0    0  0.00000000000E+00  0.00000000000E+00  0.50000000000E+03  0.50000000000E+03  0.00000000000E+00 0.  1.
         11   -1    0    0    0    0 -0.00000000000E+00 -0.00000000000E+00 -0.50000000000E+03  0.50000000000E+03  0.00000000000E+00 0. -1.
        -11    1    1    2    0    0  0.26556425434E+02 -0.21131261261E+02  0.49225882647E+03  0.49342732613E+03  0.00000000000E+00 0.  1.
         11    1    1    2    0    0 -0.13651937409E+02  0.48651512484E+00 -0.46177818381E+03  0.46198019777E+03  0.00000000000E+00 0. -1.
        -15    1    1    2    0    0 -0.37722418904E+01  0.19320189089E+02 -0.28976435336E+02  0.35075504972E+02  0.17770000000E+01 0. -1.
         15    1    1    2    0    0 -0.91322461345E+01  0.13245570471E+01 -0.15042073267E+01  0.95169711313E+01  0.17770000000E+01 0.  1.
</event>
<event>
 6   1  0.1826851E-04  0.5014569E+03  0.7546771E-02  0.9396556E-01
        -11   -1    0    0    0    0  0.00000000000E+00  0.00000000000E+00  0.50000000000E+03  0.50000000000E+03  0.00000000000E+00 0.  1.
         11   -1    0    0    0    0 -0.00000000000E+00 -0.00000000000E+00 -0.50000000000E+03  0.50000000000E+03  0.00000000000E+00 0.  1.
        -11    1    1    2    0    0 -0.13823710539E+02 -0.14794028762E+02  0.49813181080E+03  0.49854313674E+03  0.00000000000E+00 0.  1.
         11    1    1    2    0    0  0.89782127595E+01  0.56450711644E+01 -0.33121844399E+03  0.33138819046E+03  0.00000000000E+00 0.  1.
        -15    1    1    2    0    0  0.56012721854E+01  0.13401892451E+02 -0.33297920063E+02  0.36371612295E+02  0.17770000000E+01 0. -1.
         15    1    1    2    0    0 -0.75577440620E+00 -0.42529348532E+01 -0.13361544675E+03  0.13369706051E+03  0.17770000000E+01 0.  1.
</event>
<event>
 6   1  0.1826851E-04  0.5131286E+03  0.7546771E-02  0.9370903E-01
        -11   -1    0    0    0    0  0.00000000000E+00  0.00000000000E+00  0.50000000000E+03  0.50000000000E+03  0.00000000000E+00 0. -1.
         11   -1    0    0    0    0 -0.00000000000E+00 -0.00000000000E+00 -0.50000000000E+03  0.50000000000E+03  0.00000000000E+00 0. -1.
        -11    1    1    2    0    0  0.12387595020E+02  0.40511169416E+02  0.29505008510E+02  0.51625118741E+02  0.00000000000E+00 0. -1.
         11    1    1    2    0    0 -0.20334820124E+01 -0.70511043511E+01 -0.48681604801E+03  0.48687135644E+03  0.00000000000E+00 0. -1.
        -15    1    1    2    0    0  0.83222474526E+01  0.10777032146E+02  0.84464118027E+02  0.85573063447E+02  0.17770000000E+01 0.  1.
         15    1    1    2    0    0 -0.18676360461E+02 -0.44237097212E+02  0.37284692147E+03  0.37593046137E+03  0.17770000000E+01 0. -1.
</event>
<event>
 6   1  0.1826851E-04  0.5020855E+03  0.7546771E-02  0.9395155E-01
        -11   -1    0    0    0    0  0.00000000000E+00  0.00000000000E+00  0.50000000000E+03  0.50000000000E+03  0.00000000000E+00 0. -1.
         11   -1    0    0    0    0 -0.00000000000E+00 -0.00000000000E+00 -0.50000000000E+03  0.50000000000E+03  0.00000000000E+00 0. -1.
        -11    1    1    2    0    0  0.23395061815E+02 -0.23954737553E+02  0.49678737242E+03  0.49791450246E+03  0.00000000000E+00 0. -1.
         11    1    1    2    0    0 -0.11616131294E+01 -0.50675926048E+01 -0.18767695508E+03  0.18774895288E+03  0.00000000000E+00 0. -1.
        -15    1    1    2    0    0 -0.75627199431E+01  0.40089215422E+01 -0.22821417569E+03  0.22838155332E+03  0.17770000000E+01 0.  1.
         15    1    1    2    0    0 -0.14670728742E+02  0.25013408615E+02 -0.80896241654E+02  0.85954991333E+02  0.17770000000E+01 0. -1.
</event>
<event>
 6   1  0.1826851E-04  0.5087580E+03  0.7546771E-02  0.9380423E-01
        -11   -1    0    0    0    0  0.00000000000E+00  0.00000000000E+00  0.50000000000E+03  0.50000000000E+03  0.00000000000E+00 0.  1.
         11   -1    0    0    0    0 -0.00000000000E+00 -0.00000000000E+00 -0.50000000000E+03  0.50000000000E+03  0.00000000000E+00 0.  1.
        -11    1    1    2    0    0 -0.28692094092E+02 -0.18474513960E+02  0.49005521389E+03  0.49124195321E+03  0.00000000000E+00 0.  1.
         11    1    1    2    0    0 -0.94907147518E+01 -0.26217778856E+01 -0.44606045081E+03  0.44616910825E+03  0.00000000000E+00 0.  1.
        -15    1    1    2    0    0  0.28816442432E+01  0.67671100258E-01 -0.31445784598E+01  0.46210989615E+01  0.17770000000E+01 0.  1.
         15    1    1    2    0    0  0.35301164600E+02  0.21028620745E+02 -0.40850184622E+02  0.57967839577E+02  0.17770000000E+01 0. -1.
</event>
<event>
 6   1  0.1826851E-04  0.5113462E+03  0.7546771E-02  0.9374774E-01
        -11   -1    0    0    0    0  0.00000000000E+00  0.00000000000E+00  0.50000000000E+03  0.50000000000E+03  0.00000000000E+00 0. -1.
         11   -1    0    0    0    0 -0.00000000000E+00 -0.00000000000E+00 -0.50000000000E+03  0.50000000000E+03  0.00000000000E+00 0. -1.
        -11    1    1    2    0    0  0.25945784484E+02  0.26074621752E+01 -0.63755166560E+02  0.68881810767E+02  0.00000000000E+00 0. -1.
         11    1    1    2    0    0 -0.30696633327E+02 -0.33098500505E+02 -0.41733764631E+03  0.41977196793E+03  0.00000000000E+00 0. -1.
        -15    1    1    2    0    0  0.85658289229E+02  0.48805512161E+01  0.19788411019E+03  0.21569061428E+03  0.17770000000E+01 0. -1.
         15    1    1    2    0    0 -0.80907440387E+02  0.25610487114E+02  0.28320870268E+03  0.29565560702E+03  0.17770000000E+01 0.  1.
</event>
<event>
 6   1  0.1826851E-04  0.5022178E+03  0.7546771E-02  0.9394861E-01
        -11   -1    0    0    0    0  0.00000000000E+00  0.00000000000E+00  0.50000000000E+03  0.50000000000E+03  0.00000000000E+00 0. -1.
         11   -1    0    0    0    0 -0.00000000000E+00 -0.00000000000E+00 -0.50000000000E+03  0.50000000000E+03  0.00000000000E+00 0. -1.
        -11    1    1    2    0    0  0.29904369027E+01 -0.10512051500E+02  0.49766222127E+03  0.49778221384E+03  0.00000000000E+00 0. -1.
         11    1    1    2    0    0  0.58251177598E+01  0.17048579856E+01 -0.42007036825E+03  0.42011421402E+03  0.00000000000E+00 0. -1.
        -15    1    1    2    0    0 -0.14741657546E+01 -0.23600432756E+01 -0.59239558993E+02  0.59331492882E+02  0.17770000000E+01 0.  1.
         15    1    1    2    0    0 -0.73413889079E+01  0.11167236790E+02 -0.18352294023E+02  0.22772079253E+02  0.17770000000E+01 0.  1.
</event>
<event>
 6   1  0.1826851E-04  0.5000961E+03  0.7546771E-02  0.9399595E-01
        -11   -1    0    0    0    0  0.00000000000E+00  0.00000000000E+00  0.50000000000E+03  0.50000000000E+03  0.00000000000E+00 0.  1.
         11   -1    0    0    0    0 -0.00000000000E+00 -0.00000000000E+00 -0.50000000000E+03  0.50000000000E+03  0.00000000000E+00 0.  1.
        -11    1    1    2    0    0 -0.71118619818E+01  0.88079298529E+01  0.49977569343E+03  0.49990389271E+03  0.00000000000E+00 0.  1.
         11    1    1    2    0    0 -0.26159069496E+01 -0.21362830085E+01 -0.20368238155E+03  0.20371038075E+03  0.00000000000E+00 0.  1.
        -15    1    1    2    0    0  0.46316128788E+01 -0.15435663330E+01 -0.16446852680E+03  0.16455056509E+03  0.17770000000E+01 0.  1.
         15    1    1    2    0    0  0.50961560526E+01 -0.51280805115E+01 -0.13162478508E+03  0.13183516144E+03  0.17770000000E+01 0. -1.
</event>
<event>
 6   1  0.1826851E-04  0.4866813E+03  0.7546771E-02  0.9430115E-01
        -11   -1    0    0    0    0  0.00000000000E+00  0.00000000000E+00  0.50000000000E+03  0.50000000000E+03  0.00000000000E+00 0.  1.
         11   -1    0    0    0    0 -0.00000000000E+00 -0.00000000000E+00 -0.50000000000E+03  0.50000000000E+03  0.00000000000E+00 0.  1.
        -11    1    1    2    0    0 -0.53221123997E+01  0.23370427027E+02  0.48715315240E+03  0.48774244805E+03  0.00000000000E+00 0.  1.
         11    1    1    2    0    0  0.65790825827E+01  0.11240321315E+01 -0.48588400461E+03  0.48592984444E+03  0.00000000000E+00 0.  1.
        -15    1    1    2    0    0 -0.37575652404E+01 -0.10156301984E+02 -0.34506203042E+01  0.11503663591E+02  0.17770000000E+01 0.  1.
         15    1    1    2    0    0  0.25005950574E+01 -0.14338157174E+02  0.21814725157E+01  0.14824043920E+02  0.17770000000E+01 0. -1.
</event>
<event>
 6   1  0.1826851E-04  0.5007397E+03  0.7546771E-02  0.9398156E-01
        -11   -1    0    0    0    0  0.00000000000E+00  0.00000000000E+00  0.50000000000E+03  0.50000000000E+03  0.00000000000E+00 0.  1.
         11   -1    0    0    0    0 -0.00000000000E+00 -0.00000000000E+00 -0.50000000000E+03  0.50000000000E+03  0.00000000000E+00 0. -1.
        -11    1    1    2    0    0  0.19360823996E+00  0.41772589349E+01  0.53937857619E+01  0.68249469745E+01  0.00000000000E+00 0.  1.
         11    1    1    2    0    0  0.49320920417E+01 -0.62028449352E+01 -0.49919735822E+03  0.49926025605E+03  0.00000000000E+00 0. -1.
        -15    1    1    2    0    0 -0.36642462738E-01 -0.16872231415E+01  0.47455265859E+02  0.47518502200E+02  0.17770000000E+01 0.  1.
         15    1    1    2    0    0 -0.50890578189E+01  0.37128091418E+01  0.44634830660E+03  0.44639629478E+03  0.17770000000E+01 0.  1.
</event>
<event>
 6   1  0.1826851E-04  0.5071483E+03  0.7546771E-02  0.9383955E-01
        -11   -1    0    0    0    0  0.00000000000E+00  0.00000000000E+00  0.50000000000E+03  0.50000000000E+03  0.00000000000E+00 0. -1.
         11   -1    0    0    0    0 -0.00000000000E+00 -0.00000000000E+00 -0.50000000000E+03  0.50000000000E+03  0.00000000000E+00 0.  1.
        -11    1    1    2    0    0  0.34116901856E+01 -0.24145143077E+02  0.49224807461E+03  0.49285169627E+03  0.00000000000E+00 0. -1.
         11    1    1    2    0    0 -0.49274860108E+01  0.81926418396E+01 -0.46986661769E+03  0.46996386873E+03  0.00000000000E+00 0.  1.
        -15    1    1    2    0    0  0.18319718803E+01  0.22363260133E+02 -0.14111705396E+02  0.26566322345E+02  0.17770000000E+01 0. -1.
         15    1    1    2    0    0 -0.31617605506E+00 -0.64107588957E+01 -0.82697515269E+01  0.10618112649E+02  0.17770000000E+01 0.  1.
</event>
<event>
 6   1  0.1826851E-04  0.5002522E+03  0.7546771E-02  0.9399246E-01
        -11   -1    0    0    0    0  0.00000000000E+00  0.00000000000E+00  0.50000000000E+03  0.50000000000E+03  0.00000000000E+00 0. -1.
         11   -1    0    0    0    0 -0.00000000000E+00 -0.00000000000E+00 -0.50000000000E+03  0.50000000000E+03  0.00000000000E+00 0. -1.
        -11    1    1    2    0    0  0.79137290498E+01 -0.12704311933E+02  0.32781925720E+03  0.32816077163E+03  0.00000000000E+00 0. -1.
         11    1    1    2    0    0 -0.49441875430E+01  0.62856961396E+01 -0.49968378989E+03  0.49974778123E+03  0.00000000000E+00 0. -1.
        -15    1    1    2    0    0 -0.12297442951E+01  0.24645974027E+00  0.44920448956E+02  0.44973075021E+02  0.17770000000E+01 0. -1.
         15    1    1    2    0    0 -0.17397972117E+01  0.61721560531E+01  0.12694408374E+03  0.12711837211E+03  0.17770000000E+01 0.  1.
</event>
<event>
 6   1  0.1826851E-04  0.5001118E+03  0.7546771E-02  0.9399560E-01
        -11   -1    0    0    0    0  0.00000000000E+00  0.00000000000E+00  0.50000000000E+03  0.50000000000E+03  0.00000000000E+00 0.  1.
         11   -1    0    0    0    0 -0.00000000000E+00 -0.00000000000E+00 -0.50000000000E+03  0.50000000000E+03  0.00000000000E+00 0.  1.
        -11    1    1    2    0    0 -0.13030506993E+02 -0.13657939886E+02  0.49953162728E+03  0.49988816759E+03  0.00000000000E+00 0.  1.
         11    1    1    2    0    0  0.64690969760E+01  0.72646152825E+01 -0.38726565308E+03  0.38738780299E+03  0.00000000000E+00 0.  1.
        -15    1    1    2    0    0  0.25609884585E+01  0.30812010246E+01 -0.63243158116E+02  0.63394851834E+02  0.17770000000E+01 0.  1.
         15    1    1    2    0    0  0.40004215580E+01  0.33121235793E+01 -0.49022816086E+02  0.49329177586E+02  0.17770000000E+01 0. -1.
</event>
<event>
 6   1  0.1826851E-04  0.5001153E+03  0.7546771E-02  0.9399552E-01
        -11   -1    0    0    0    0  0.00000000000E+00  0.00000000000E+00  0.50000000000E+03  0.50000000000E+03  0.00000000000E+00 0. -1.
         11   -1    0    0    0    0 -0.00000000000E+00 -0.00000000000E+00 -0.50000000000E+03  0.50000000000E+03  0.00000000000E+00 0.  1.
        -11    1    1    2    0    0  0.98789810712E+01  0.44641984139E+01  0.49976713000E+03  0.49988469427E+03  0.00000000000E+00 0. -1.
         11    1    1    2    0    0 -0.98810951609E+00  0.39725913537E+01 -0.15136274448E+03  0.15141809093E+03  0.00000000000E+00 0.  1.
        -15    1    1    2    0    0 -0.46115545505E+01 -0.11559875535E+01 -0.84927948964E+02  0.85079474533E+02  0.17770000000E+01 0. -1.
         15    1    1    2    0    0 -0.42793170047E+01 -0.72808022141E+01 -0.26347643656E+03  0.26361774027E+03  0.17770000000E+01 0.  1.
</event>
<event>
 6   1  0.1826851E-04  0.5045028E+03  0.7546771E-02  0.9389790E-01
        -11   -1    0    0    0    0  0.00000000000E+00  0.00000000000E+00  0.50000000000E+03  0.50000000000E+03  0.00000000000E+00 0. -1.
         11   -1    0    0    0    0 -0.00000000000E+00 -0.00000000000E+00 -0.50000000000E+03  0.50000000000E+03  0.00000000000E+00 0. -1.
        -11    1    1    2    0    0  0.13084029474E+02 -0.31752245777E+02  0.49430565520E+03  0.49549720251E+03  0.00000000000E+00 0. -1.
         11    1    1    2    0    0  0.18509734273E+01  0.73149696835E+01 -0.43979857323E+03  0.43986329683E+03  0.00000000000E+00 0. -1.
        -15    1    1    2    0    0 -0.11685752310E+02  0.25214503273E+02 -0.34790351947E+02  0.44562925173E+02  0.17770000000E+01 0. -1.
         15    1    1    2    0    0 -0.32492505915E+01 -0.77722717865E+00 -0.19716730021E+02  0.20076575485E+02  0.17770000000E+01 0.  1.
</event>
<event>
 6   1  0.1826851E-04  0.5005264E+03  0.7546771E-02  0.9398633E-01
        -11   -1    0    0    0    0  0.00000000000E+00  0.00000000000E+00  0.50000000000E+03  0.50000000000E+03  0.00000000000E+00 0. -1.
         11   -1    0    0    0    0 -0.00000000000E+00 -0.00000000000E+00 -0.50000000000E+03  0.50000000000E+03  0.00000000000E+00 0.  1.
        -11    1    1    2    0    0  0.35869838797E+01  0.84609776364E+01  0.32952838043E+03  0.32965650017E+03  0.00000000000E+00 0. -1.
         11    1    1    2    0    0  0.61964577198E+01 -0.57078122534E+01 -0.49940253341E+03  0.49947358848E+03  0.00000000000E+00 0.  1.
        -15    1    1    2    0    0 -0.75824354572E+01 -0.16549443531E+01  0.32456978462E+02  0.33419236200E+02  0.17770000000E+01 0.  1.
         15    1    1    2    0    0 -0.22010061423E+01 -0.10982210298E+01  0.13741717452E+03  0.13745067515E+03  0.17770000000E+01 0. -1.
</event>
<event>
 6   1  0.1826851E-04  0.5008750E+03  0.7546771E-02  0.9397854E-01
        -11   -1    0    0    0    0  0.00000000000E+00  0.00000000000E+00  0.50000000000E+03  0.50000000000E+03  0.00000000000E+00 0. -1.
         11   -1    0    0    0    0 -0.00000000000E+00 -0.00000000000E+00 -0.50000000000E+03  0.50000000000E+03  0.00000000000E+00 0. -1.
        -11    1    1    2    0    0  0.12163642686E+02  0.91649780473E+01  0.70848154641E+02  0.72466627092E+02  0.00000000000E+00 0. -1.
         11    1    1    2    0    0 -0.81526717159E+01  0.32776690073E+00 -0.49905830827E+03  0.49912500292E+03  0.00000000000E+00 0. -1.
        -15    1    1    2    0    0 -0.37924528318E+01 -0.21428138678E+01  0.24023414877E+03  0.24028020791E+03  0.17770000000E+01 0.  1.
         15    1    1    2    0    0 -0.21851813791E+00 -0.73499310802E+01  0.18797600486E+03  0.18812816208E+03  0.17770000000E+01 0. -1.
</event>
<event>
 6   1  0.1826851E-04  0.5025681E+03  0.7546771E-02  0.9394082E-01
        -11   -1    0    0    0    0  0.00000000000E+00  0.00000000000E+00  0.50000000000E+03  0.50000000000E+03  0.00000000000E+00 0.  1.
         11   -1    0    0    0    0 -0.00000000000E+00 -0.00000000000E+00 -0.50000000000E+03  0.50000000000E+03  0.00000000000E+00 0. -1.
        -11    1    1    2    0    0  0.32992807443E+02 -0.53559302597E+01  0.49630768712E+03  0.49743193668E+03  0.00000000000E+00 0.  1.
         11    1    1    2    0    0 -0.12485223990E+02 -0.15060197130E+01 -0.38257532056E+03  0.38278195466E+03  0.00000000000E+00 0. -1.
        -15    1    1    2    0    0 -0.18641576579E+02  0.18083382617E+02 -0.81726719529E+02  0.85772556906E+02  0.17770000000E+01 0. -1.
         15    1    1    2    0    0 -0.18660068747E+01 -0.11221432644E+02 -0.32005647027E+02  0.34013551754E+02  0.17770000000E+01 0.  1.
</event>
<event>
 6   1  0.1826851E-04  0.5004577E+03  0.7546771E-02  0.9398786E-01
        -11   -1    0    0    0    0  0.00000000000E+00  0.00000000000E+00  0.50000000000E+03  0.50000000000E+03  0.00000000000E+00 0. -1.
         11   -1    0    0    0    0 -0.00000000000E+00 -0.00000000000E+00 -0.50000000000E+03  0.50000000000E+03  0.00000000000E+00 0.  1.
        -11    1    1    2    0    0 -0.12989925287E+01  0.14892800333E+02  0.49931851920E+03  0.49954225697E+03  0.00000000000E+00 0. -1.
         11    1    1    2    0    0 -0.38683477540E+01 -0.20141798955E+02 -0.43132227553E+03  0.43180963578E+03  0.00000000000E+00 0.  1.
        -15    1    1    2    0    0  0.23797197193E+01  0.52146081025E+01 -0.49029217149E+02  0.49395111771E+02  0.17770000000E+01 0. -1.
         15    1    1    2    0    0  0.27876205635E+01  0.34390519360E-01 -0.18967026518E+02  0.19252995482E+02  0.17770000000E+01 0.  1.
</event>
<event>
 6   1  0.1826851E-04  0.5004886E+03  0.7546771E-02  0.9398717E-01
        -11   -1    0    0    0    0  0.00000000000E+00  0.00000000000E+00  0.50000000000E+03  0.50000000000E+03  0.00000000000E+00 0. -1.
         11   -1    0    0    0    0 -0.00000000000E+00 -0.00000000000E+00 -0.50000000000E+03  0.50000000000E+03  0.00000000000E+00 0. -1.
        -11    1    1    2    0    0  0.18317624408E+01  0.98669433242E+01  0.40422888437E+03  0.40435343808E+03  0.00000000000E+00 0. -1.
         11    1    1    2    0    0 -0.87547239396E+01 -0.49239418417E+01 -0.49941040761E+03  0.49951140690E+03  0.00000000000E+00 0. -1.
        -15    1    1    2    0    0 -0.21322499510E+01 -0.24021334318E+01  0.18683879589E+02  0.19041056178E+02  0.17770000000E+01 0.  1.
         15    1    1    2    0    0  0.90552114498E+01 -0.25408680507E+01  0.76497643645E+02  0.77094098847E+02  0.17770000000E+01 0. -1.
</event>
<event>
 6   1  0.1826851E-04  0.5045048E+03  0.7546771E-02  0.9389786E-01
        -11   -1    0    0    0    0  0.00000000000E+00  0.00000000000E+00  0.50000000000E+03  0.50000000000E+03  0.00000000000E+00 0.  1.
         11   -1    0    0    0    0 -0.00000000000E+00 -0.00000000000E+00 -0.50000000000E+03  0.50000000000E+03  0.00000000000E+00 0.  1.
        -11    1    1    2    0    0 -0.44421120331E+01 -0.14650938178E+02  0.47657820519E+03  0.47682404303E+03  0.00000000000E+00 0.  1.
         11    1    1    2    0    0  0.88660117462E+01 -0.40574479780E+01 -0.49539929932E+03  0.49549524197E+03  0.00000000000E+00 0.  1.
        -15    1    1    2    0    0 -0.30641506085E+01  0.84707862978E+01  0.12259991808E+02  0.15316930750E+02  0.17770000000E+01 0.  1.
         15    1    1    2    0    0 -0.13597491046E+01  0.10237599859E+02  0.65611023169E+01  0.12363784255E+02  0.17770000000E+01 0. -1.
</event>
<event>
 6   1  0.1826851E-04  0.5048793E+03  0.7546771E-02  0.9388958E-01
        -11   -1    0    0    0    0  0.00000000000E+00  0.00000000000E+00  0.50000000000E+03  0.50000000000E+03  0.00000000000E+00 0.  1.
         11   -1    0    0    0    0 -0.00000000000E+00 -0.00000000000E+00 -0.50000000000E+03  0.50000000000E+03  0.00000000000E+00 0.  1.
        -11    1    1    2    0    0  0.30835704514E+02  0.15716512040E+02  0.49390961053E+03  0.49512074567E+03  0.00000000000E+00 0.  1.
         11    1    1    2    0    0 -0.14489335608E+02 -0.12094963204E+02 -0.46938400890E+03  0.46976331997E+03  0.00000000000E+00 0.  1.
        -15    1    1    2    0    0 -0.15857717842E+02 -0.82493941889E+01 -0.24180545637E+02  0.30122686400E+02  0.17770000000E+01 0.  1.
         15    1    1    2    0    0 -0.48865106467E+00  0.46278453526E+01 -0.34505599104E+00  0.49932479518E+01  0.17770000000E+01 0. -1.
</event>
<event>
 6   1  0.1826851E-04  0.4859477E+03  0.7546771E-02  0.9431814E-01
        -11   -1    0    0    0    0  0.00000000000E+00  0.00000000000E+00  0.50000000000E+03  0.50000000000E+03  0.00000000000E+00 0. -1.
         11   -1    0    0    0    0 -0.00000000000E+00 -0.00000000000E+00 -0.50000000000E+03  0.50000000000E+03  0.00000000000E+00 0.  1.
        -11    1    1    2    0    0 -0.20128464243E+02 -0.39893727700E+01  0.48936065752E+03  0.48979069336E+03  0.00000000000E+00 0. -1.
         11    1    1    2    0    0 -0.33751024039E+01  0.11450474104E+02 -0.48229545749E+03  0.48244317073E+03  0.00000000000E+00 0.  1.
        -15    1    1    2    0    0  0.81497625567E+01 -0.11760023199E+01  0.21655957671E+01  0.86976517068E+01  0.17770000000E+01 0. -1.
         15    1    1    2    0    0  0.15353804090E+02 -0.62850990139E+01 -0.92307958023E+01  0.19068484203E+02  0.17770000000E+01 0.  1.
</event>
<event>
 6   1  0.1826851E-04  0.5030132E+03  0.7546771E-02  0.9393093E-01
        -11   -1    0    0    0    0  0.00000000000E+00  0.00000000000E+00  0.50000000000E+03  0.50000000000E+03  0.00000000000E+00 0.  1.
         11   -1    0    0    0    0 -0.00000000000E+00 -0.00000000000E+00 -0.50000000000E+03  0.50000000000E+03  0.00000000000E+00 0.  1.
        -11    1    1    2    0    0 -0.36495045736E+02 -0.92586979832E+01  0.19338771088E+03  0.19701882796E+03  0.00000000000E+00 0.  1.
         11    1    1    2    0    0  0.10566304218E+02 -0.39914175091E+01 -0.49685843002E+03  0.49698679829E+03  0.00000000000E+00 0.  1.
        -15    1    1    2    0    0  0.21785166113E+02  0.72721427692E+01  0.28674966958E+03  0.28767344030E+03  0.17770000000E+01 0.  1.
         15    1    1    2    0    0  0.41435754048E+01  0.59779727232E+01  0.16721049556E+02  0.18320933444E+02  0.17770000000E+01 0. -1.
</event>
<event>
 6   1  0.1826851E-04  0.5023633E+03  0.7546771E-02  0.9394537E-01
        -11   -1    0    0    0    0  0.00000000000E+00  0.00000000000E+00  0.50000000000E+03  0.50000000000E+03  0.00000000000E+00 0. -1.
         11   -1    0    0    0    0 -0.00000000000E+00 -0.00000000000E+00 -0.50000000000E+03  0.50000000000E+03  0.00000000000E+00 0. -1.
        -11    1    1    2    0    0 -0.92344300323E+01  0.14921434833E+02  0.25136123520E+02  0.30655319622E+02  0.00000000000E+00 0. -1.
         11    1    1    2    0    0  0.28116411787E+02 -0.24799616439E+02 -0.49622249902E+03  0.49763673711E+03  0.00000000000E+00 0. -1.
        -15    1    1    2    0    0  0.48086244353E+00 -0.54960531253E+00  0.23656763424E+02  0.23734647235E+02  0.17770000000E+01 0.  1.
         15    1    1    2    0    0 -0.19362844198E+02  0.10427786919E+02  0.44742961207E+03  0.44797329604E+03  0.17770000000E+01 0. -1.
</event>
<event>
 6   1  0.1826851E-04  0.5005238E+03  0.7546771E-02  0.9398638E-01
        -11   -1    0    0    0    0  0.00000000000E+00  0.00000000000E+00  0.50000000000E+03  0.50000000000E+03  0.00000000000E+00 0. -1.
         11   -1    0    0    0    0 -0.00000000000E+00 -0.00000000000E+00 -0.50000000000E+03  0.50000000000E+03  0.00000000000E+00 0.  1.
        -11    1    1    2    0    0  0.11682113283E+02  0.30690175817E+01  0.32243836884E+03  0.32266451980E+03  0.00000000000E+00 0. -1.
         11    1    1    2    0    0 -0.40357227072E+01  0.74231150122E+01 -0.49940475007E+03  0.49947621974E+03  0.00000000000E+00 0.  1.
        -15    1    1    2    0    0  0.26172827177E+01 -0.52175456857E+01  0.65000486764E+02  0.65286246334E+02  0.17770000000E+01 0. -1.
         15    1    1    2    0    0 -0.10263673294E+02 -0.52745869082E+01  0.11196589446E+03  0.11257301412E+03  0.17770000000E+01 0.  1.
</event>
<event>
 6   1  0.1826851E-04  0.5005326E+03  0.7546771E-02  0.9398619E-01
        -11   -1    0    0    0    0  0.00000000000E+00  0.00000000000E+00  0.50000000000E+03  0.50000000000E+03  0.00000000000E+00 0.  1.
         11   -1    0    0    0    0 -0.00000000000E+00 -0.00000000000E+00 -0.50000000000E+03  0.50000000000E+03  0.00000000000E+00 0. -1.
        -11    1    1    2    0    0  0.47008964639E+01  0.27839437249E+02  0.34177763556E+03  0.34294180973E+03  0.00000000000E+00 0.  1.
         11    1    1    2    0    0  0.81460206223E+00 -0.20980870785E+02 -0.49902582822E+03  0.49946735404E+03  0.00000000000E+00 0. -1.
        -15    1    1    2    0    0 -0.31874586997E+01 -0.63427151450E+01  0.12086225379E+03  0.12108357465E+03  0.17770000000E+01 0.  1.
         15    1    1    2    0    0 -0.23280398265E+01 -0.51585131909E+00  0.36385938867E+02  0.36507261583E+02  0.17770000000E+01 0. -1.
</event>
<event>
 6   1  0.1826851E-04  0.5001960E+03  0.7546771E-02  0.9399371E-01
        -11   -1    0    0    0    0  0.00000000000E+00  0.00000000000E+00  0.50000000000E+03  0.50000000000E+03  0.00000000000E+00 0.  1.
         11   -1    0    0    0    0 -0.00000000000E+00 -0.00000000000E+00 -0.50000000000E+03  0.50000000000E+03  0.00000000000E+00 0. -1.
        -11    1    1    2    0    0 -0.53728904091E+01  0.45775336002E+01  0.49975412258E+03  0.49980396638E+03  0.00000000000E+00 0.  1.
         11    1    1    2    0    0  0.27799847627E+01 -0.64590808127E+01 -0.46448247957E+03  0.46453570570E+03  0.00000000000E+00 0. -1.
        -15    1    1    2    0    0  0.20151761474E+01  0.20312725778E+01 -0.23587778237E+02  0.23827043760E+02  0.17770000000E+01 0.  1.
         15    1    1    2    0    0  0.57772949902E+00 -0.14972536537E+00 -0.11683864778E+02  0.11833284169E+02  0.17770000000E+01 0. -1.
</event>
<event>
 6   1  0.1826851E-04  0.4816742E+03  0.7546771E-02  0.9441775E-01
        -11   -1    0    0    0    0  0.00000000000E+00  0.00000000000E+00  0.50000000000E+03  0.50000000000E+03  0.00000000000E+00 0.  1.
         11   -1    0    0    0    0 -0.00000000000E+00 -0.00000000000E+00 -0.50000000000E+03  0.50000000000E+03  0.00000000000E+00 0. -1.
        -11    1    1    2    0    0 -0.27348358792E+02 -0.12828095553E+02  0.48310810280E+03  0.48405157964E+03  0.00000000000E+00 0.  1.
         11    1    1    2    0    0  0.11264879221E+02 -0.11229378663E+02 -0.47947456494E+03  0.47973831917E+03  0.00000000000E+00 0. -1.
        -15    1    1    2    0    0  0.17073075027E+01  0.46039025053E+01 -0.98704727911E+01  0.11166681660E+02  0.17770000000E+01 0.  1.
         15    1    1    2    0    0  0.14376172068E+02  0.19453571711E+02  0.62369349381E+01  0.25043419536E+02  0.17770000000E+01 0. -1.
</event>
<event>
 6   1  0.1826851E-04  0.5000429E+03  0.7546771E-02  0.9399714E-01
        -11   -1    0    0    0    0  0.00000000000E+00  0.00000000000E+00  0.50000000000E+03  0.50000000000E+03  0.00000000000E+00 0. -1.
         11   -1    0    0    0    0 -0.00000000000E+00 -0.00000000000E+00 -0.50000000000E+03  0.50000000000E+03  0.00000000000E+00 0. -1.
        -11    1    1    2    0    0  0.29811874727E+01  0.89617449451E+01  0.49986783797E+03  0.49995705394E+03  0.00000000000E+00 0. -1.
         11    1    1    2    0    0 -0.20875108695E+01 -0.34630551218E+01 -0.28889128816E+03  0.28891958540E+03  0.00000000000E+00 0. -1.
        -15    1    1    2    0    0 -0.21433717421E+01 -0.40116747610E+01 -0.10419552951E+03  0.10430989251E+03  0.17770000000E+01 0.  1.
         15    1    1    2    0    0  0.12496951388E+01 -0.14870150623E+01 -0.10678102029E+03  0.10681346814E+03  0.17770000000E+01 0. -1.
</event>
<event>
 6   1  0.1826851E-04  0.5014337E+03  0.7546771E-02  0.9396608E-01
        -11   -1    0    0    0    0  0.00000000000E+00  0.00000000000E+00  0.50000000000E+03  0.50000000000E+03  0.00000000000E+00 0. -1.
         11   -1    0    0    0    0 -0.00000000000E+00 -0.00000000000E+00 -0.50000000000E+03  0.50000000000E+03  0.00000000000E+00 0. -1.
        -11    1    1    2    0    0  0.12975054407E+02  0.18649803725E+02  0.13524116713E+03  0.13713621150E+03  0.00000000000E+00 0. -1.
         11    1    1    2    0    0 -0.39969343028E+01  0.56037295424E+01 -0.49851882828E+03  0.49856634405E+03  0.00000000000E+00 0. -1.
        -15    1    1    2    0    0 -0.14485515042E+01 -0.36436503781E+01  0.10320563619E+03  0.10329538015E+03  0.17770000000E+01 0. -1.
         15    1    1    2    0    0 -0.75295686001E+01 -0.20609882889E+02  0.26007202496E+03  0.26100206431E+03  0.17770000000E+01 0. -1.
</event>
<event>
 6   1  0.1826851E-04  0.5000802E+03  0.7546771E-02  0.9399630E-01
        -11   -1    0    0    0    0  0.00000000000E+00  0.00000000000E+00  0.50000000000E+03  0.50000000000E+03  0.00000000000E+00 0. -1.
         11   -1    0    0    0    0 -0.00000000000E+00 -0.00000000000E+00 -0.50000000000E+03  0.50000000000E+03  0.00000000000E+00 0.  1.
        -11    1    1    2    0    0  0.15897421047E+02  0.20821175039E+02  0.49923301507E+03  0.49991984624E+03  0.00000000000E+00 0. -1.
         11    1    1    2    0    0 -0.11864794406E+02 -0.90181583974E+01 -0.21319170025E+03  0.21371195938E+03  0.00000000000E+00 0.  1.
        -15    1    1    2    0    0 -0.14137784278E+00 -0.68594662475E+01 -0.13604515552E+03  0.13622963824E+03  0.17770000000E+01 0. -1.
         15    1    1    2    0    0 -0.38912487982E+01 -0.49435503945E+01 -0.14999615930E+03  0.15013855615E+03  0.17770000000E+01 0.  1.
</event>
<event>
 6   1  0.1826851E-04  0.5077752E+03  0.7546771E-02  0.9382578E-01
        -11   -1    0    0    0    0  0.00000000000E+00  0.00000000000E+00  0.50000000000E+03  0.50000000000E+03  0.00000000000E+00 0. -1.
         11   -1    0    0    0    0 -0.00000000000E+00 -0.00000000000E+00 -0.50000000000E+03  0.50000000000E+03  0.00000000000E+00 0.  1.
        -11    1    1    2    0    0 -0.87053437029E+01  0.75065884406E+01  0.49209053239E+03  0.49222476974E+03  0.00000000000E+00 0. -1.
         11    1    1    2    0    0  0.65884352320E+01 -0.10356257904E+02 -0.48413005737E+03  0.48428563060E+03  0.00000000000E+00 0.  1.
        -15    1    1    2    0    0 -0.77837214364E+01  0.74389163813E+01 -0.26782623095E+01  0.11236307860E+02  0.17770000000E+01 0. -1.
         15    1    1    2    0    0  0.99006299073E+01 -0.45892469176E+01 -0.52822127139E+01  0.12253291802E+02  0.17770000000E+01 0.  1.
</event>
<event>
 6   1  0.1826851E-04  0.5015199E+03  0.7546771E-02  0.9396415E-01
        -11   -1    0    0    0    0  0.00000000000E+00  0.00000000000E+00  0.50000000000E+03  0.50000000000E+03  0.00000000000E+00 0.  1.
         11   -1    0    0    0    0 -0.00000000000E+00 -0.00000000000E+00 -0.50000000000E+03  0.50000000000E+03  0.00000000000E+00 0.  1.
        -11    1    1    2    0    0  0.11637683940E+02  0.39027490152E+01  0.37756688135E+03  0.37776635243E+03  0.00000000000E+00 0.  1.
         11    1    1    2    0    0  0.10389900326E+02  0.53641551157E+01 -0.49834290077E+03  0.49848006072E+03  0.00000000000E+00 0.  1.
        -15    1    1    2    0    0 -0.75026403638E+01  0.19036954338E+01  0.25238793116E+02  0.26458799589E+02  0.17770000000E+01 0. -1.
         15    1    1    2    0    0 -0.14524943902E+02 -0.11170599565E+02  0.95537226304E+02  0.97294787264E+02  0.17770000000E+01 0.  1.
</event>
<event>
 6   1  0.1826851E-04  0.5004421E+03  0.7546771E-02  0.9398821E-01
        -11   -1    0    0    0    0  0.00000000000E+00  0.00000000000E+00  0.50000000000E+03  0.50000000000E+03  0.00000000000E+00 0.  1.
         11   -1    0    0    0    0 -0.00000000000E+00 -0.00000000000E+00 -0.50000000000E+03  0.50000000000E+03  0.00000000000E+00 0.  1.
        -11    1    1    2    0    0  0.13827347145E+01 -0.41721265063E+01  0.10924733702E+02  0.11775754809E+02  0.00000000000E+00 0.  1.
         11    1    1    2    0    0  0.86384064540E+01  0.45261674147E+01 -0.49946274389E+03  0.49955794538E+03  0.00000000000E+00 0.  1.
        -15    1    1    2    0    0 -0.72979051309E+01 -0.75365399669E+00  0.39209084686E+03  0.39216350842E+03  0.17770000000E+01 0.  1.
         15    1    1    2    0    0 -0.27232360376E+01  0.39961308831E+00  0.96447163322E+02  0.96502791395E+02  0.17770000000E+01 0.  1.
</event>
<event>
 6   1  0.1826851E-04  0.5000240E+03  0.7546771E-02  0.9399756E-01
        -11   -1    0    0    0    0  0.00000000000E+00  0.00000000000E+00  0.50000000000E+03  0.50000000000E+03  0.00000000000E+00 0. -1.
         11   -1    0    0    0    0 -0.00000000000E+00 -0.00000000000E+00 -0.50000000000E+03  0.50000000000E+03  0.00000000000E+00 0. -1.
        -11    1    1    2    0    0 -0.38913838686E+01 -0.83463817728E+01  0.49989117104E+03  0.49997598726E+03  0.00000000000E+00 0. -1.
         11    1    1    2    0    0  0.17162659640E+01  0.35332921420E+01 -0.17209002047E+03  0.17213484501E+03  0.00000000000E+00 0. -1.
        -15    1    1    2    0    0 -0.89013081562E+00  0.28122349074E+01 -0.12630283570E+03  0.12634977259E+03  0.17770000000E+01 0.  1.
         15    1    1    2    0    0  0.30652487201E+01  0.20008547235E+01 -0.20149831486E+03  0.20153939513E+03  0.17770000000E+01 0. -1.
</event>
<event>
 6   1  0.1826851E-04  0.5109896E+03  0.7546771E-02  0.9375550E-01
        -11   -1    0    0    0    0  0.00000000000E+00  0.00000000000E+00  0.50000000000E+03  0.50000000000E+03  0.00000000000E+00 0. -1.
         11   -1    0    0    0    0 -0.00000000000E+00 -0.00000000000E+00 -0.50000000000E+03  0.50000000000E+03  0.00000000000E+00 0.  1.
        -11    1    1    2    0    0 -0.27324309655E+02  0.64862239808E+02  0.27184759413E+03  0.28081104410E+03  0.00000000000E+00 0. -1.
         11    1    1    2    0    0  0.15664238460E+02  0.74633578815E+01 -0.48870242234E+03  0.48901035539E+03  0.00000000000E+00 0.  1.
        -15    1    1    2    0    0  0.60276889186E+01 -0.70776382040E+02  0.20090620228E+03  0.21310112419E+03  0.17770000000E+01 0. -1.
         15    1    1    2    0    0  0.56323822765E+01 -0.15492156502E+01  0.15948625936E+02  0.17077476320E+02  0.17770000000E+01 0.  1.
</event>
<event>
 6   1  0.1826851E-04  0.5016685E+03  0.7546771E-02  0.9396084E-01
        -11   -1    0    0    0    0  0.00000000000E+00  0.00000000000E+00  0.50000000000E+03  0.50000000000E+03  0.00000000000E+00 0. -1.
         11   -1    0    0    0    0 -0.00000000000E+00 -0.00000000000E+00 -0.50000000000E+03  0.50000000000E+03  0.00000000000E+00 0.  1.
        -11    1    1    2    0    0  0.36893119063E+02 -0.25358513181E+02  0.35914454645E+03  0.36192397222E+03  0.00000000000E+00 0. -1.
         11    1    1    2    0    0 -0.23938833707E+02  0.17660577879E+02 -0.49744273674E+03  0.49833145606E+03  0.00000000000E+00 0.  1.
        -15    1    1    2    0    0 -0.12488822008E+02  0.11151561761E+01  0.10432315645E+03  0.10508897635E+03  0.17770000000E+01 0.  1.
         15    1    1    2    0    0 -0.46546334812E+00  0.65827791254E+01  0.33975033836E+02  0.34655595368E+02  0.17770000000E+01 0. -1.
</event>
<event>
 6   1  0.1826851E-04  0.5013732E+03  0.7546771E-02  0.9396742E-01
        -11   -1    0    0    0    0  0.00000000000E+00  0.00000000000E+00  0.50000000000E+03  0.50000000000E+03  0.00000000000E+00 0.  1.
         11   -1    0    0    0    0 -0.00000000000E+00 -0.00000000000E+00 -0.50000000000E+03  0.50000000000E+03  0.00000000000E+00 0. -1.
        -11    1    1    2    0    0 -0.10413392692E+02  0.47666971144E+02  0.20353904675E+03  0.20930533303E+03  0.00000000000E+00 0.  1.
         11    1    1    2    0    0  0.58365128557E+02 -0.69676680227E+02 -0.49027273158E+03  0.49862679363E+03  0.00000000000E+00 0. -1.
        -15    1    1    2    0    0 -0.24832091629E+02  0.55795857012E+01  0.10099685259E+03  0.10416950856E+03  0.17770000000E+01 0. -1.
         15    1    1    2    0    0 -0.23119644236E+02  0.16430123382E+02  0.18573683225E+03  0.18789836478E+03  0.17770000000E+01 0.  1.
</event>
<event>
 6   1  0.1826851E-04  0.5164934E+03  0.7546771E-02  0.9363642E-01
        -11   -1    0    0    0    0  0.00000000000E+00  0.00000000000E+00  0.50000000000E+03  0.50000000000E+03  0.00000000000E+00 0. -1.
         11   -1    0    0    0    0 -0.00000000000E+00 -0.00000000000E+00 -0.50000000000E+03  0.50000000000E+03  0.00000000000E+00 0.  1.
        -11    1    1    2    0    0  0.52164509938E+02 -0.32074152303E+02  0.38503652410E+03  0.38987563688E+03  0.00000000000E+00 0. -1.
         11    1    1    2    0    0 -0.20403741477E+02  0.27194597080E+02 -0.48230983499E+03  0.48350660358E+03  0.00000000000E+00 0.  1.
        -15    1    1    2    0    0 -0.47387169894E+01 -0.27554571605E+02  0.10165034899E+02  0.29802609257E+02  0.17770000000E+01 0. -1.
         15    1    1    2    0    0 -0.27022051472E+02  0.32434126828E+02  0.87108275990E+02  0.96815150280E+02  0.17770000000E+01 0.  1.
</event>
<event>
 6   1  0.1826851E-04  0.5006809E+03  0.7546771E-02  0.9398287E-01
        -11   -1    0    0    0    0  0.00000000000E+00  0.00000000000E+00  0.50000000000E+03  0.50000000000E+03  0.00000000000E+00 0.  1.
         11   -1    0    0    0    0 -0.00000000000E+00 -0.00000000000E+00 -0.50000000000E+03  0.50000000000E+03  0.00000000000E+00 0.  1.
        -11    1    1    2    0    0  0.74493774367E+01  0.45010442101E+01  0.44883117317E+03  0.44891555401E+03  0.00000000000E+00 0.  1.
         11    1    1    2    0    0 -0.23780219340E+00 -0.97319132870E+01 -0.49922419262E+03  0.49931909756E+03  0.00000000000E+00 0.  1.
        -15    1    1    2    0    0 -0.31469534917E+00  0.22785194651E+01  0.55567035573E+01  0.62709941428E+01  0.17770000000E+01 0. -1.
         15    1    1    2    0    0 -0.68968798942E+01  0.29523496119E+01  0.44836315895E+02  0.45494354293E+02  0.17770000000E+01 0.  1.
</event>
<event>
 6   1  0.1826851E-04  0.5020809E+03  0.7546771E-02  0.9395166E-01
        -11   -1    0    0    0    0  0.00000000000E+00  0.00000000000E+00  0.50000000000E+03  0.50000000000E+03  0.00000000000E+00 0. -1.
         11   -1    0    0    0    0 -0.00000000000E+00 -0.00000000000E+00 -0.50000000000E+03  0.50000000000E+03  0.00000000000E+00 0. -1.
        -11    1    1    2    0    0 -0.10661839714E+02 -0.65610068417E+01  0.45134011869E+03  0.45151370342E+03  0.00000000000E+00 0. -1.
         11    1    1    2    0    0 -0.34761917746E+01  0.77970313590E+01 -0.49784590657E+03  0.49791909413E+03  0.00000000000E+00 0. -1.
        -15    1    1    2    0    0  0.68008718316E+01  0.28918032824E+01  0.36885960387E+02  0.37660937144E+02  0.17770000000E+01 0.  1.
         15    1    1    2    0    0  0.73371596572E+01 -0.41278277997E+01  0.96198274991E+01  0.12906265312E+02  0.17770000000E+01 0. -1.
</event>
<event>
 6   1  0.1826851E-04  0.5011462E+03  0.7546771E-02  0.9397249E-01
        -11   -1    0    0    0    0  0.00000000000E+00  0.00000000000E+00  0.50000000000E+03  0.50000000000E+03  0.00000000000E+00 0. -1.
         11   -1    0    0    0    0 -0.00000000000E+00 -0.00000000000E+00 -0.50000000000E+03  0.50000000000E+03  0.00000000000E+00 0.  1.
        -11    1    1    2    0    0 -0.10960462275E+02 -0.67234179374E+01  0.49868805748E+03  0.49885380098E+03  0.00000000000E+00 0. -1.
         11    1    1    2    0    0  0.82167120881E+01 -0.12599065867E+01 -0.47416591399E+03  0.47423877500E+03  0.00000000000E+00 0.  1.
        -15    1    1    2    0    0  0.38433110522E+01  0.18951492857E+01 -0.10259880923E+02  0.11259907469E+02  0.17770000000E+01 0.  1.
         15    1    1    2    0    0 -0.10995608656E+01  0.60881752383E+01 -0.14262262561E+02  0.15647516550E+02  0.17770000000E+01 0. -1.
</event>
<event>
 6   1  0.1826851E-04  0.5002086E+03  0.7546771E-02  0.9399343E-01
        -11   -1    0    0    0    0  0.00000000000E+00  0.00000000000E+00  0.50000000000E+03  0.50000000000E+03  0.00000000000E+00 0.  1.
         11   -1    0    0    0    0 -0.00000000000E+00 -0.00000000000E+00 -0.50000000000E+03  0.50000000000E+03  0.00000000000E+00 0.  1.
        -11    1    1    2    0    0 -0.23290587243E+01 -0.14521445471E+01  0.13879269707E+02  0.14148051665E+02  0.00000000000E+00 0.  1.
         11    1    1    2    0    0  0.77387401780E+01 -0.48314448802E+00 -0.49973126471E+03  0.49979141495E+03  0.00000000000E+00 0.  1.
        -15    1    1    2    0    0  0.83792543648E+00 -0.74360342392E+00  0.14045128706E+02  0.14201353262E+02  0.17770000000E+01 0. -1.
         15    1    1    2    0    0 -0.62476068902E+01  0.26788924590E+01  0.47180686630E+03  0.47185918013E+03  0.17770000000E+01 0.  1.
</event>
<event>
 6   1  0.1826851E-04  0.5002355E+03  0.7546771E-02  0.9399283E-01
        -11   -1    0    0    0    0  0.00000000000E+00  0.00000000000E+00  0.50000000000E+03  0.50000000000E+03  0.00000000000E+00 0. -1.
         11   -1    0    0    0    0 -0.00000000000E+00 -0.00000000000E+00 -0.50000000000E+03  0.50000000000E+03  0.00000000000E+00 0. -1.
        -11    1    1    2    0    0  0.10314935012E+02  0.91273581485E+01  0.49957465665E+03  0.49976448866E+03  0.00000000000E+00 0. -1.
         11    1    1    2    0    0 -0.32302946326E+01  0.19337950918E+01 -0.27205338683E+03  0.27207943629E+03  0.00000000000E+00 0. -1.
        -15    1    1    2    0    0 -0.20522189982E+01 -0.11325192944E+02 -0.15094927091E+03  0.15139785902E+03  0.17770000000E+01 0.  1.
         15    1    1    2    0    0 -0.50324213815E+01  0.26403970328E+00 -0.76571998920E+02  0.76758216039E+02  0.17770000000E+01 0. -1.
</event>
<event>
 6   1  0.1826851E-04  0.4857982E+03  0.7546771E-02  0.9432160E-01
        -11   -1    0    0    0    0  0.00000000000E+00  0.00000000000E+00  0.50000000000E+03  0.50000000000E+03  0.00000000000E+00 0. -1.
         11   -1    0    0    0    0 -0.00000000000E+00 -0.00000000000E+00 -0.50000000000E+03  0.50000000000E+03  0.00000000000E+00 0.  1.
        -11    1    1    2    0    0  0.10888159753E+02 -0.14871469046E+02  0.49213679353E+03  0.49248181302E+03  0.00000000000E+00 0. -1.
         11    1    1    2    0    0  0.73788918377E+01 -0.73050363451E+00 -0.47943716678E+03  0.47949450317E+03  0.00000000000E+00 0.  1.
        -15    1    1    2    0    0 -0.88784997048E+01  0.99956012150E+01 -0.44189062463E+01  0.14192401561E+02  0.17770000000E+01 0.  1.
         15    1    1    2    0    0 -0.93885518863E+01  0.56063714651E+01 -0.82807205032E+01  0.13831282246E+02  0.17770000000E+01 0. -1.
</event>
<event>
 6   1  0.1826851E-04  0.5096830E+03  0.7546771E-02  0.9378400E-01
        -11   -1    0    0    0    0  0.00000000000E+00  0.00000000000E+00  0.50000000000E+03  0.50000000000E+03  0.00000000000E+00 0.  1.
         11   -1    0    0    0    0 -0.00000000000E+00 -0.00000000000E+00 -0.50000000000E+03  0.50000000000E+03  0.00000000000E+00 0.  1.
        -11    1    1    2    0    0 -0.10080724516E+01  0.21948411719E+02  0.48982448542E+03  0.49031701531E+03  0.00000000000E+00 0.  1.
         11    1    1    2    0    0  0.48926937498E+01  0.87751225149E+01 -0.46973278072E+03  0.46984021380E+03  0.00000000000E+00 0.  1.
        -15    1    1    2    0    0  0.22087342911E+01 -0.29354627213E+01  0.12125569575E+01  0.42571671252E+01  0.17770000000E+01 0. -1.
         15    1    1    2    0    0 -0.60933555894E+01 -0.27788071513E+02 -0.21304261663E+02  0.35585603757E+02  0.17770000000E+01 0.  1.
</event>
<event>
 6   1  0.1826851E-04  0.5127350E+03  0.7546771E-02  0.9371756E-01
        -11   -1    0    0    0    0  0.00000000000E+00  0.00000000000E+00  0.50000000000E+03  0.50000000000E+03  0.00000000000E+00 0.  1.
         11   -1    0    0    0    0 -0.00000000000E+00 -0.00000000000E+00 -0.50000000000E+03  0.50000000000E+03  0.00000000000E+00 0.  1.
        -11    1    1    2    0    0 -0.20889286455E+02 -0.12300211826E+02  0.45935314188E+03  0.45999235478E+03  0.00000000000E+00 0.  1.
         11    1    1    2    0    0 -0.63019700061E+01 -0.12557658577E+02 -0.48706235319E+03  0.48726496438E+03  0.00000000000E+00 0.  1.
        -15    1    1    2    0    0  0.24425053770E+01  0.35811659267E+01 -0.47544709661E+01  0.66748262208E+01  0.17770000000E+01 0. -1.
         15    1    1    2    0    0  0.24748751084E+02  0.21276704476E+02  0.32463682281E+02  0.46067854625E+02  0.17770000000E+01 0.  1.
</event>
<event>
 6   1  0.1826851E-04  0.5016938E+03  0.7546771E-02  0.9396028E-01
        -11   -1    0    0    0    0  0.00000000000E+00  0.00000000000E+00  0.50000000000E+03  0.50000000000E+03  0.00000000000E+00 0. -1.
         11   -1    0    0    0    0 -0.00000000000E+00 -0.00000000000E+00 -0.50000000000E+03  0.50000000000E+03  0.00000000000E+00 0.  1.
        -11    1    1    2    0    0  0.16351043380E+02  0.22889019172E+01  0.38195484218E+03  0.38231151848E+03  0.00000000000E+00 0. -1.
         11    1    1    2    0    0  0.62873019201E+01  0.95089715761E+01 -0.49817580025E+03  0.49830620974E+03  0.00000000000E+00 0.  1.
        -15    1    1    2    0    0 -0.15264641905E+02 -0.94594011321E+01  0.95564809446E+02  0.97253689369E+02  0.17770000000E+01 0. -1.
         15    1    1    2    0    0 -0.73737033956E+01 -0.23384723612E+01  0.20656148623E+02  0.22128582415E+02  0.17770000000E+01 0.  1.
</event>
<event>
 6   1  0.1826851E-04  0.5009334E+03  0.7546771E-02  0.9397724E-01
        -11   -1    0    0    0    0  0.00000000000E+00  0.00000000000E+00  0.50000000000E+03  0.50000000000E+03  0.00000000000E+00 0.  1.
         11   -1    0    0    0    0 -0.00000000000E+00 -0.00000000000E+00 -0.50000000000E+03  0.50000000000E+03  0.00000000000E+00 0. -1.
        -11    1    1    2    0    0  0.66688361874E+02  0.47979967688E+02  0.49225816807E+03  0.49906664779E+03  0.00000000000E+00 0.  1.
         11    1    1    2    0    0 -0.56645889769E+02 -0.44889383158E+02 -0.32989577455E+03  0.33772035120E+03  0.00000000000E+00 0. -1.
        -15    1    1    2    0    0 -0.68243093400E+01  0.43651122813E+01 -0.86386516016E+02  0.86783715532E+02  0.17770000000E+01 0.  1.
         15    1    1    2    0    0 -0.32181627656E+01 -0.74556968112E+01 -0.75975877503E+02  0.76429285473E+02  0.17770000000E+01 0. -1.
</event>
<event>
 6   1  0.1826851E-04  0.4523087E+03  0.7546771E-02  0.9513340E-01
        -11   -1    0    0    0    0  0.00000000000E+00  0.00000000000E+00  0.50000000000E+03  0.50000000000E+03  0.00000000000E+00 0. -1.
         11   -1    0    0    0    0 -0.00000000000E+00 -0.00000000000E+00 -0.50000000000E+03  0.50000000000E+03  0.00000000000E+00 0. -1.
        -11    1    1    2    0    0  0.62008452384E+02  0.57223965301E+02  0.45221669192E+03  0.46002126780E+03  0.00000000000E+00 0. -1.
         11    1    1    2    0    0 -0.30339924786E+02  0.13138041316E+02 -0.44667578563E+03  0.44789773010E+03  0.00000000000E+00 0. -1.
        -15    1    1    2    0    0  0.81072233146E+01  0.26673835660E+01  0.14666038165E-01  0.87177949651E+01  0.17770000000E+01 0. -1.
         15    1    1    2    0    0 -0.39775750912E+02 -0.73029390182E+02 -0.55555723311E+01  0.83363207136E+02  0.17770000000E+01 0.  1.
</event>
<event>
 6   1  0.1826851E-04  0.5003944E+03  0.7546771E-02  0.9398928E-01
        -11   -1    0    0    0    0  0.00000000000E+00  0.00000000000E+00  0.50000000000E+03  0.50000000000E+03  0.00000000000E+00 0. -1.
         11   -1    0    0    0    0 -0.00000000000E+00 -0.00000000000E+00 -0.50000000000E+03  0.50000000000E+03  0.00000000000E+00 0. -1.
        -11    1    1    2    0    0 -0.46028922387E+01  0.76982071739E+01  0.49952505311E+03  0.49960557212E+03  0.00000000000E+00 0. -1.
         11    1    1    2    0    0 -0.14380169380E+01  0.84139325346E+01 -0.27031847144E+03  0.27045320881E+03  0.00000000000E+00 0. -1.
        -15    1    1    2    0    0  0.59960660907E+01 -0.98783985154E+01 -0.13086541644E+03  0.13138664512E+03  0.17770000000E+01 0. -1.
         15    1    1    2    0    0  0.44843086011E-01 -0.62337411930E+01 -0.98341165227E+02  0.98554573954E+02  0.17770000000E+01 0.  1.
</event>
<event>
 6   1  0.1826851E-04  0.5016506E+03  0.7546771E-02  0.9396124E-01
        -11   -1    0    0    0    0  0.00000000000E+00  0.00000000000E+00  0.50000000000E+03  0.50000000000E+03  0.00000000000E+00 0.  1.
         11   -1    0    0    0    0 -0.00000000000E+00 -0.00000000000E+00 -0.50000000000E+03  0.50000000000E+03  0.00000000000E+00 0. -1.
        -11    1    1    2    0    0  0.70544873227E+01 -0.61108637499E+01  0.44625419807E+03  0.44635178698E+03  0.00000000000E+00 0.  1.
         11    1    1    2    0    0  0.70244582758E+01 -0.36232971617E+01 -0.49828674200E+03  0.49834942415E+03  0.00000000000E+00 0. -1.
        -15    1    1    2    0    0 -0.13208639054E+01  0.36013212269E+01  0.85961066617E+01  0.95794036754E+01  0.17770000000E+01 0. -1.
         15    1    1    2    0    0 -0.12758081693E+02  0.61328396847E+01  0.43436437267E+02  0.45719385194E+02  0.17770000000E+01 0.  1.
</event>
<event>
 6   1  0.1826851E-04  0.5026127E+03  0.7546771E-02  0.9393982E-01
        -11   -1    0    0    0    0  0.00000000000E+00  0.00000000000E+00  0.50000000000E+03  0.50000000000E+03  0.00000000000E+00 0.  1.
         11   -1    0    0    0    0 -0.00000000000E+00 -0.00000000000E+00 -0.50000000000E+03  0.50000000000E+03  0.00000000000E+00 0.  1.
        -11    1    1    2    0    0 -0.72298103989E+01  0.20389933629E+02  0.45462076966E+03  0.45513521480E+03  0.00000000000E+00 0.  1.
         11    1    1    2    0    0  0.33562259562E+01 -0.10104510343E+02 -0.49727329612E+03  0.49738727006E+03  0.00000000000E+00 0.  1.
        -15    1    1    2    0    0  0.56107854958E+01  0.33871564525E+01  0.11302082455E+02  0.13185163615E+02  0.17770000000E+01 0. -1.
         15    1    1    2    0    0 -0.17372010532E+01 -0.13672579739E+02  0.31350444010E+02  0.34292351521E+02  0.17770000000E+01 0.  1.
</event>
<event>
 6   1  0.1826851E-04  0.5103431E+03  0.7546771E-02  0.9376959E-01
        -11   -1    0    0    0    0  0.00000000000E+00  0.00000000000E+00  0.50000000000E+03  0.50000000000E+03  0.00000000000E+00 0.  1.
         11   -1    0    0    0    0 -0.00000000000E+00 -0.00000000000E+00 -0.50000000000E+03  0.50000000000E+03  0.00000000000E+00 0. -1.
        -11    1    1    2    0    0 -0.51558342329E+02 -0.56580115673E+02  0.23968474575E+03  0.25161150510E+03  0.00000000000E+00 0.  1.
         11    1    1    2    0    0  0.13772072347E+02  0.11870171957E+02 -0.48931921195E+03  0.48965688205E+03  0.00000000000E+00 0. -1.
        -15    1    1    2    0    0 -0.85703486631E+00  0.81855321035E+01  0.91586443162E+01  0.12440897849E+02  0.17770000000E+01 0. -1.
         15    1    1    2    0    0  0.38643304848E+02  0.36524411613E+02  0.24047582188E+03  0.24629071499E+03  0.17770000000E+01 0.  1.
</event>
<event>
 6   1  0.1826851E-04  0.5015340E+03  0.7546771E-02  0.9396384E-01
        -11   -1    0    0    0    0  0.00000000000E+00  0.00000000000E+00  0.50000000000E+03  0.50000000000E+03  0.00000000000E+00 0. -1.
         11   -1    0    0    0    0 -0.00000000000E+00 -0.00000000000E+00 -0.50000000000E+03  0.50000000000E+03  0.00000000000E+00 0.  1.
        -11    1    1    2    0    0 -0.14588897588E+02  0.42995600668E+01  0.35841485141E+03  0.35873740795E+03  0.00000000000E+00 0. -1.
         11    1    1    2    0    0 -0.80556832140E+01  0.73966633739E+00 -0.49840034546E+03  0.49846599232E+03  0.00000000000E+00 0.  1.
        -15    1    1    2    0    0  0.31383460421E+01 -0.42551716413E+00  0.66693574986E+02  0.66792371976E+02  0.17770000000E+01 0.  1.
         15    1    1    2    0    0  0.19506234760E+02 -0.46137092400E+01  0.73291919069E+02  0.76004227760E+02  0.17770000000E+01 0. -1.
</event>
<event>
 6   1  0.1826851E-04  0.5034427E+03  0.7546771E-02  0.9392139E-01
        -11   -1    0    0    0    0  0.00000000000E+00  0.00000000000E+00  0.50000000000E+03  0.50000000000E+03  0.00000000000E+00 0.  1.
         11   -1    0    0    0    0 -0.00000000000E+00 -0.00000000000E+00 -0.50000000000E+03  0.50000000000E+03  0.00000000000E+00 0. -1.
        -11    1    1    2    0    0 -0.17372214098E+01  0.11036521161E+02  0.46956532193E+03  0.46969821619E+03  0.00000000000E+00 0.  1.
         11    1    1    2    0    0 -0.70968757107E+01  0.55687155708E+00 -0.49650630061E+03  0.49655733032E+03  0.00000000000E+00 0. -1.
        -15    1    1    2    0    0  0.19910251301E+01  0.28647407452E+01  0.31699782039E+01  0.50375997676E+01  0.17770000000E+01 0. -1.
         15    1    1    2    0    0  0.68430719903E+01 -0.14458133464E+02  0.23771000481E+02  0.28706853718E+02  0.17770000000E+01 0.  1.
</event>
<event>
 6   1  0.1826851E-04  0.5056662E+03  0.7546771E-02  0.9387220E-01
        -11   -1    0    0    0    0  0.00000000000E+00  0.00000000000E+00  0.50000000000E+03  0.50000000000E+03  0.00000000000E+00 0. -1.
         11   -1    0    0    0    0 -0.00000000000E+00 -0.00000000000E+00 -0.50000000000E+03  0.50000000000E+03  0.00000000000E+00 0. -1.
        -11    1    1    2    0    0 -0.17299116934E+02 -0.21813444310E+02  0.42659796284E+03  0.42750544757E+03  0.00000000000E+00 0. -1.
         11    1    1    2    0    0 -0.13944794927E+02  0.19995456630E+02 -0.49373235613E+03  0.49433380937E+03  0.00000000000E+00 0. -1.
        -15    1    1    2    0    0  0.30298387398E+02 -0.45801134217E+01  0.63506668614E+02  0.70535270647E+02  0.17770000000E+01 0.  1.
         15    1    1    2    0    0  0.94552446319E+00  0.63981011015E+01  0.36277246782E+01  0.76254724152E+01  0.17770000000E+01 0. -1.
</event>
<event>
 6   1  0.1826851E-04  0.5040489E+03  0.7546771E-02  0.9390795E-01
        -11   -1    0    0    0    0  0.00000000000E+00  0.00000000000E+00  0.50000000000E+03  0.50000000000E+03  0.00000000000E+00 0.  1.
         11   -1    0    0    0    0 -0.00000000000E+00 -0.00000000000E+00 -0.50000000000E+03  0.50000000000E+03  0.00000000000E+00 0.  1.
        -11    1    1    2    0    0  0.56626887364E+01 -0.87526957108E+01  0.48460327233E+03  0.48471538792E+03  0.00000000000E+00 0.  1.
         11    1    1    2    0    0  0.67639822234E+01  0.22398234872E+01 -0.49589988337E+03  0.49595106875E+03  0.00000000000E+00 0.  1.
        -15    1    1    2    0    0 -0.94879448977E+01  0.68917750594E+01  0.68301749678E+01  0.13686733757E+02  0.17770000000E+01 0.  1.
         15    1    1    2    0    0 -0.29387260621E+01 -0.37890283574E+00  0.44664360702E+01  0.56468095767E+01  0.17770000000E+01 0. -1.
</event>
<event>
 6   1  0.1826851E-04  0.5015513E+03  0.7546771E-02  0.9396345E-01
        -11   -1    0    0    0    0  0.00000000000E+00  0.00000000000E+00  0.50000000000E+03  0.50000000000E+03  0.00000000000E+00 0. -1.
         11   -1    0    0    0    0 -0.00000000000E+00 -0.00000000000E+00 -0.50000000000E+03  0.50000000000E+03  0.00000000000E+00 0.  1.
        -11    1    1    2    0    0 -0.14307760192E+02 -0.71823492767E+00  0.49824275242E+03  0.49844866155E+03  0.00000000000E+00 0. -1.
         11    1    1    2    0    0  0.23308343148E+01  0.62343422165E+01 -0.46549324995E+03  0.46554083124E+03  0.00000000000E+00 0.  1.
        -15    1    1    2    0    0  0.11393624521E+02 -0.31437187471E+01 -0.25971180423E+02  0.28589466396E+02  0.17770000000E+01 0.  1.
         15    1    1    2    0    0  0.58330135614E+00 -0.23723885418E+01 -0.67783220507E+01  0.74210408089E+01  0.17770000000E+01 0.  1.
</event>
<event>
 6   1  0.1826851E-04  0.4781338E+03  0.7546771E-02  0.9450112E-01
        -11   -1    0    0    0    0  0.00000000000E+00  0.00000000000E+00  0.50000000000E+03  0.50000000000E+03  0.00000000000E+00 0.  1.
         11   -1    0    0    0    0 -0.00000000000E+00 -0.00000000000E+00 -0.50000000000E+03  0.50000000000E+03  0.00000000000E+00 0. -1.
        -11    1    1    2    0    0  0.34148287162E+02 -0.92286864440E+01  0.48733153613E+03  0.48861365134E+03  0.00000000000E+00 0.  1.
         11    1    1    2    0    0 -0.65243127930E+01 -0.11569906227E+02 -0.46828028845E+03  0.46846863069E+03  0.00000000000E+00 0. -1.
        -15    1    1    2    0    0 -0.21987542092E+02  0.18197076199E+02 -0.21741403067E+02  0.35922582393E+02  0.17770000000E+01 0. -1.
         15    1    1    2    0    0 -0.56364322761E+01  0.26015164721E+01  0.26901553876E+01  0.69951355789E+01  0.17770000000E+01 0.  1.
</event>
<event>
 6   1  0.1826851E-04  0.5046989E+03  0.7546771E-02  0.9389356E-01
        -11   -1    0    0    0    0  0.00000000000E+00  0.00000000000E+00  0.50000000000E+03  0.50000000000E+03  0.00000000000E+00 0. -1.
         11   -1    0    0    0    0 -0.00000000000E+00 -0.00000000000E+00 -0.50000000000E+03  0.50000000000E+03  0.00000000000E+00 0. -1.
        -11    1    1    2    0    0  0.22921483524E+02  0.34202205228E+02  0.16812799693E+03  0.17309595201E+03  0.00000000000E+00 0. -1.
         11    1    1    2    0    0  0.14264816574E+02 -0.81331375791E+01 -0.49502879110E+03  0.49530105687E+03  0.00000000000E+00 0. -1.
        -15    1    1    2    0    0 -0.26152851411E+02  0.10063579481E+01  0.16543260768E+03  0.16749952181E+03  0.17770000000E+01 0.  1.
         15    1    1    2    0    0 -0.11033448688E+02 -0.27075425597E+02  0.16146818650E+03  0.16410346931E+03  0.17770000000E+01 0. -1.
</event>
<event>
 6   1  0.1826851E-04  0.5003734E+03  0.7546771E-02  0.9398975E-01
        -11   -1    0    0    0    0  0.00000000000E+00  0.00000000000E+00  0.50000000000E+03  0.50000000000E+03  0.00000000000E+00 0.  1.
         11   -1    0    0    0    0 -0.00000000000E+00 -0.00000000000E+00 -0.50000000000E+03  0.50000000000E+03  0.00000000000E+00 0. -1.
        -11    1    1    2    0    0  0.10112489622E+02 -0.65482205572E+01  0.49948130167E+03  0.49962657291E+03  0.00000000000E+00 0.  1.
         11    1    1    2    0    0 -0.39498323683E+01  0.56156113996E+01 -0.43968805523E+03  0.43974165391E+03  0.00000000000E+00 0. -1.
        -15    1    1    2    0    0 -0.31386298156E+01  0.31881661607E+01 -0.18054957230E+02  0.18685679281E+02  0.17770000000E+01 0.  1.
         15    1    1    2    0    0 -0.30240274378E+01 -0.22555570031E+01 -0.41738289205E+02  0.41946093907E+02  0.17770000000E+01 0. -1.
</event>
<event>
 6   1  0.1826851E-04  0.5071006E+03  0.7546771E-02  0.9384060E-01
        -11   -1    0    0    0    0  0.00000000000E+00  0.00000000000E+00  0.50000000000E+03  0.50000000000E+03  0.00000000000E+00 0. -1.
         11   -1    0    0    0    0 -0.00000000000E+00 -0.00000000000E+00 -0.50000000000E+03  0.50000000000E+03  0.00000000000E+00 0.  1.
        -11    1    1    2    0    0 -0.25945548441E+02  0.67828297374E+01  0.49216935202E+03  0.49289943125E+03  0.00000000000E+00 0. -1.
         11    1    1    2    0    0  0.47050423295E+01  0.12535317796E+02 -0.46588292794E+03  0.46607528808E+03  0.00000000000E+00 0.  1.
        -15    1    1    2    0    0  0.11224873647E+02 -0.53610881094E+01 -0.17783798834E+02  0.21775221792E+02  0.17770000000E+01 0. -1.
         15    1    1    2    0    0  0.10015632464E+02 -0.13957059424E+02 -0.85026252447E+01  0.19250058870E+02  0.17770000000E+01 0.  1.
</event>
<event>
 6   1  0.1826851E-04  0.5044863E+03  0.7546771E-02  0.9389827E-01
        -11   -1    0    0    0    0  0.00000000000E+00  0.00000000000E+00  0.50000000000E+03  0.50000000000E+03  0.00000000000E+00 0.  1.
         11   -1    0    0    0    0 -0.00000000000E+00 -0.00000000000E+00 -0.50000000000E+03  0.50000000000E+03  0.00000000000E+00 0. -1.
        -11    1    1    2    0    0  0.11477973216E+02 -0.23207348511E+02  0.49483681187E+03  0.49551366810E+03  0.00000000000E+00 0.  1.
         11    1    1    2    0    0 -0.86615330008E+01 -0.22871213939E+01 -0.45447311112E+03  0.45456139498E+03  0.00000000000E+00 0. -1.
        -15    1    1    2    0    0 -0.29552648216E+01  0.12217734394E+02 -0.31229707704E+02  0.33711407508E+02  0.17770000000E+01 0. -1.
         15    1    1    2    0    0  0.13882460626E+00  0.13276735511E+02 -0.91339930457E+01  0.16213529414E+02  0.17770000000E+01 0.  1.
</event>
<event>
 6   1  0.1826851E-04  0.5070266E+03  0.7546771E-02  0.9384223E-01
        -11   -1    0    0    0    0  0.00000000000E+00  0.00000000000E+00  0.50000000000E+03  0.50000000000E+03  0.00000000000E+00 0.  1.
         11   -1    0    0    0    0 -0.00000000000E+00 -0.00000000000E+00 -0.50000000000E+03  0.50000000000E+03  0.00000000000E+00 0. -1.
        -11    1    1    2    0    0  0.49036058481E+01 -0.95888220159E+01  0.48072836987E+03  0.48084899548E+03  0.00000000000E+00 0.  1.
         11    1    1    2    0    0  0.23390195236E+01 -0.89899406305E+01 -0.49288586076E+03  0.49297338851E+03  0.00000000000E+00 0. -1.
        -15    1    1    2    0    0 -0.72751337223E+01  0.15174370141E+02  0.43426577502E+01  0.17470131230E+02  0.17770000000E+01 0.  1.
         15    1    1    2    0    0  0.32508350662E-01  0.34043925053E+01  0.78148331388E+01  0.87074847752E+01  0.17770000000E+01 0. -1.
</event>
<event>
 6   1  0.1826851E-04  0.4865878E+03  0.7546771E-02  0.9430331E-01
        -11   -1    0    0    0    0  0.00000000000E+00  0.00000000000E+00  0.50000000000E+03  0.50000000000E+03  0.00000000000E+00 0. -1.
         11   -1    0    0    0    0 -0.00000000000E+00 -0.00000000000E+00 -0.50000000000E+03  0.50000000000E+03  0.00000000000E+00 0.  1.
        -11    1    1    2    0    0  0.44764213589E+01 -0.11351227118E+02  0.48595232632E+03  0.48610549488E+03  0.00000000000E+00 0. -1.
         11    1    1    2    0    0  0.23888895535E+01 -0.75056893500E+01 -0.48721404509E+03  0.48727771126E+03  0.00000000000E+00 0.  1.
        -15    1    1    2    0    0 -0.17529593064E+01  0.53968055414E+01 -0.75748966555E+01  0.96299099021E+01  0.17770000000E+01 0. -1.
         15    1    1    2    0    0 -0.51123516061E+01  0.13460110926E+02  0.88366154256E+01  0.16986883948E+02  0.17770000000E+01 0.  1.
</event>
<event>
 6   1  0.1826851E-04  0.5088666E+03  0.7546771E-02  0.9380186E-01
        -11   -1    0    0    0    0  0.00000000000E+00  0.00000000000E+00  0.50000000000E+03  0.50000000000E+03  0.00000000000E+00 0.  1.
         11   -1    0    0    0    0 -0.00000000000E+00 -0.00000000000E+00 -0.50000000000E+03  0.50000000000E+03  0.00000000000E+00 0.  1.
        -11    1    1    2    0    0 -0.21037966332E+02 -0.38088402635E+01  0.33099979907E+03  0.33168956914E+03  0.00000000000E+00 0.  1.
         11    1    1    2    0    0  0.27926838242E+02  0.18289505282E+02 -0.48999753202E+03  0.49113337871E+03  0.00000000000E+00 0.  1.
        -15    1    1    2    0    0 -0.32745998132E+02  0.12046194324E+02  0.11191898102E+03  0.11724515868E+03  0.17770000000E+01 0.  1.
         15    1    1    2    0    0  0.25857126222E+02 -0.26526859342E+02  0.47078751922E+02  0.59931893467E+02  0.17770000000E+01 0. -1.
</event>
<event>
 6   1  0.1826851E-04  0.5005422E+03  0.7546771E-02  0.9398597E-01
        -11   -1    0    0    0    0  0.00000000000E+00  0.00000000000E+00  0.50000000000E+03  0.50000000000E+03  0.00000000000E+00 0. -1.
         11   -1    0    0    0    0 -0.00000000000E+00 -0.00000000000E+00 -0.50000000000E+03  0.50000000000E+03  0.00000000000E+00 0. -1.
        -11    1    1    2    0    0 -0.65520218660E+01  0.83876889326E+01  0.49934433875E+03  0.49945775693E+03  0.00000000000E+00 0. -1.
         11    1    1    2    0    0  0.12084750282E+01  0.45305692087E+01 -0.30875578616E+03  0.30879138905E+03  0.00000000000E+00 0. -1.
        -15    1    1    2    0    0  0.62390159916E+01 -0.14564736120E+02 -0.11299705471E+03  0.11411638341E+03  0.17770000000E+01 0. -1.
         15    1    1    2    0    0 -0.89546915387E+00  0.16464779789E+01 -0.77591497881E+02  0.77634470612E+02  0.17770000000E+01 0. -1.
</event>
<event>
 6   1  0.1826851E-04  0.4894127E+03  0.7546771E-02  0.9423816E-01
        -11   -1    0    0    0    0  0.00000000000E+00  0.00000000000E+00  0.50000000000E+03  0.50000000000E+03  0.00000000000E+00 0. -1.
         11   -1    0    0    0    0 -0.00000000000E+00 -0.00000000000E+00 -0.50000000000E+03  0.50000000000E+03  0.00000000000E+00 0. -1.
        -11    1    1    2    0    0  0.76375123587E+01  0.44184624050E+01  0.48911182096E+03  0.48919140202E+03  0.00000000000E+00 0. -1.
         11    1    1    2    0    0 -0.43544636822E+01 -0.13139988743E+02 -0.48948263004E+03  0.48967832887E+03  0.00000000000E+00 0. -1.
        -15    1    1    2    0    0 -0.10147803271E+02  0.58710777473E+00  0.60267788885E+00  0.10336515680E+02  0.17770000000E+01 0.  1.
         15    1    1    2    0    0  0.68647545947E+01  0.81344185634E+01 -0.23186881206E+00  0.10793753432E+02  0.17770000000E+01 0. -1.
</event>
<event>
 6   1  0.1826851E-04  0.5005852E+03  0.7546771E-02  0.9398501E-01
        -11   -1    0    0    0    0  0.00000000000E+00  0.00000000000E+00  0.50000000000E+03  0.50000000000E+03  0.00000000000E+00 0. -1.
         11   -1    0    0    0    0 -0.00000000000E+00 -0.00000000000E+00 -0.50000000000E+03  0.50000000000E+03  0.00000000000E+00 0. -1.
        -11    1    1    2    0    0  0.16951699378E+02 -0.26761317211E+02  0.49840907915E+03  0.49941479593E+03  0.00000000000E+00 0. -1.
         11    1    1    2    0    0 -0.60778387949E+01 -0.33688892138E+01 -0.22556191126E+03  0.22566892863E+03  0.00000000000E+00 0. -1.
        -15    1    1    2    0    0 -0.85444825243E+01  0.98219988793E+01 -0.10947204767E+03  0.11025772896E+03  0.17770000000E+01 0. -1.
         15    1    1    2    0    0 -0.23293780587E+01  0.20308207545E+02 -0.16337512021E+03  0.16465854648E+03  0.17770000000E+01 0.  1.
</event>
<event>
 6   1  0.1826851E-04  0.5001143E+03  0.7546771E-02  0.9399554E-01
        -11   -1    0    0    0    0  0.00000000000E+00  0.00000000000E+00  0.50000000000E+03  0.50000000000E+03  0.00000000000E+00 0. -1.
         11   -1    0    0    0    0 -0.00000000000E+00 -0.00000000000E+00 -0.50000000000E+03  0.50000000000E+03  0.00000000000E+00 0.  1.
        -11    1    1    2    0    0  0.24285706171E+02 -0.18942652613E+02  0.49893591486E+03  0.49988565368E+03  0.00000000000E+00 0. -1.
         11    1    1    2    0    0 -0.16203049844E+02  0.12178931204E+02 -0.22356497589E+03  0.22448198956E+03  0.00000000000E+00 0.  1.
        -15    1    1    2    0    0 -0.42736920453E+01  0.14675177529E+01 -0.82338520136E+02  0.82481559631E+02  0.17770000000E+01 0. -1.
         15    1    1    2    0    0 -0.38089642815E+01  0.52962036557E+01 -0.19303241884E+03  0.19315079713E+03  0.17770000000E+01 0.  1.
</event>
<event>
 6   1  0.1826851E-04  0.5001838E+03  0.7546771E-02  0.9399399E-01
        -11   -1    0    0    0    0  0.00000000000E+00  0.00000000000E+00  0.50000000000E+03  0.50000000000E+03  0.00000000000E+00 0. -1.
         11   -1    0    0    0    0 -0.00000000000E+00 -0.00000000000E+00 -0.50000000000E+03  0.50000000000E+03  0.00000000000E+00 0. -1.
        -11    1    1    2    0    0  0.77955164664E+01 -0.61698425215E+01  0.29904612685E+03  0.29921133504E+03  0.00000000000E+00 0. -1.
         11    1    1    2    0    0 -0.13600669787E+01  0.77145538138E+01 -0.49975481781E+03  0.49981620827E+03  0.00000000000E+00 0. -1.
        -15    1    1    2    0    0  0.63371301661E+00  0.29564596235E+00  0.84099870659E+02  0.84121548801E+02  0.17770000000E+01 0.  1.
         15    1    1    2    0    0 -0.70691625043E+01 -0.18403572547E+01  0.11660882030E+03  0.11685090789E+03  0.17770000000E+01 0. -1.
</event>
<event>
 6   1  0.1826851E-04  0.5008076E+03  0.7546771E-02  0.9398004E-01
        -11   -1    0    0    0    0  0.00000000000E+00  0.00000000000E+00  0.50000000000E+03  0.50000000000E+03  0.00000000000E+00 0.  1.
         11   -1    0    0    0    0 -0.00000000000E+00 -0.00000000000E+00 -0.50000000000E+03  0.50000000000E+03  0.00000000000E+00 0.  1.
        -11    1    1    2    0    0 -0.71180232798E+01  0.91277594499E+01  0.60936243486E+02  0.62025865719E+02  0.00000000000E+00 0.  1.
         11    1    1    2    0    0 -0.11315067796E+02 -0.52064898255E+01 -0.49903697762E+03  0.49919239109E+03  0.00000000000E+00 0.  1.
        -15    1    1    2    0    0  0.12419854389E+02 -0.92045105731E+01  0.33210808400E+03  0.33247242439E+03  0.17770000000E+01 0.  1.
         15    1    1    2    0    0  0.60132366869E+01  0.52832409486E+01  0.10599265014E+03  0.10630931879E+03  0.17770000000E+01 0. -1.
</event>
<event>
 6   1  0.1826851E-04  0.5014542E+03  0.7546771E-02  0.9396562E-01
        -11   -1    0    0    0    0  0.00000000000E+00  0.00000000000E+00  0.50000000000E+03  0.50000000000E+03  0.00000000000E+00 0. -1.
         11   -1    0    0    0    0 -0.00000000000E+00 -0.00000000000E+00 -0.50000000000E+03  0.50000000000E+03  0.00000000000E+00 0. -1.
        -11    1    1    2    0    0  0.92209429969E+01 -0.39396270153E+01  0.49844490556E+03  0.49854575550E+03  0.00000000000E+00 0. -1.
         11    1    1    2    0    0 -0.21037911447E+01  0.10078308516E+02 -0.47028577948E+03  0.47039846154E+03  0.00000000000E+00 0. -1.
        -15    1    1    2    0    0  0.10948850076E+01 -0.24454134414E+01 -0.35427721715E+01  0.47841178641E+01  0.17770000000E+01 0.  1.
         15    1    1    2    0    0 -0.82120368598E+01 -0.36932680592E+01 -0.24616353905E+02  0.26271665096E+02  0.17770000000E+01 0. -1.
</event>
<event>
 6   1  0.1826851E-04  0.4851603E+03  0.7546771E-02  0.9433641E-01
        -11   -1    0    0    0    0  0.00000000000E+00  0.00000000000E+00  0.50000000000E+03  0.50000000000E+03  0.00000000000E+00 0. -1.
         11   -1    0    0    0    0 -0.00000000000E+00 -0.00000000000E+00 -0.50000000000E+03  0.50000000000E+03  0.00000000000E+00 0. -1.
        -11    1    1    2    0    0  0.21663776531E+01  0.17537548461E+02  0.48204662063E+03  0.48237040048E+03  0.00000000000E+00 0. -1.
         11    1    1    2    0    0 -0.79440155743E+01 -0.62874403444E+00 -0.48806829211E+03  0.48813334292E+03  0.00000000000E+00 0. -1.
        -15    1    1    2    0    0  0.23449673468E+01 -0.18815738405E+02  0.11712217115E+02  0.22357652881E+02  0.17770000000E+01 0.  1.
         15    1    1    2    0    0  0.34326705743E+01  0.19069339790E+01 -0.56905456349E+01  0.71386037217E+01  0.17770000000E+01 0. -1.
</event>
<event>
 6   1  0.1826851E-04  0.5160452E+03  0.7546771E-02  0.9364606E-01
        -11   -1    0    0    0    0  0.00000000000E+00  0.00000000000E+00  0.50000000000E+03  0.50000000000E+03  0.00000000000E+00 0. -1.
         11   -1    0    0    0    0 -0.00000000000E+00 -0.00000000000E+00 -0.50000000000E+03  0.50000000000E+03  0.00000000000E+00 0.  1.
        -11    1    1    2    0    0  0.12385197884E+02  0.42864449437E+02  0.44830670663E+03  0.45052153929E+03  0.00000000000E+00 0. -1.
         11    1    1    2    0    0 -0.11119394539E+02  0.60270018151E+01 -0.48378947515E+03  0.48395477263E+03  0.00000000000E+00 0.  1.
        -15    1    1    2    0    0  0.11213158958E+02 -0.23181192690E+02  0.11874610281E+02  0.28412439646E+02  0.17770000000E+01 0. -1.
         15    1    1    2    0    0 -0.12478962303E+02 -0.25710258562E+02  0.23608158243E+02  0.37111248431E+02  0.17770000000E+01 0.  1.
</event>
<event>
 6   1  0.1826851E-04  0.5024636E+03  0.7546771E-02  0.9394314E-01
        -11   -1    0    0    0    0  0.00000000000E+00  0.00000000000E+00  0.50000000000E+03  0.50000000000E+03  0.00000000000E+00 0.  1.
         11   -1    0    0    0    0 -0.00000000000E+00 -0.00000000000E+00 -0.50000000000E+03  0.50000000000E+03  0.00000000000E+00 0. -1.
        -11    1    1    2    0    0  0.16497037002E+01 -0.98214051600E+01  0.45473932002E+03  0.45484836010E+03  0.00000000000E+00 0.  1.
         11    1    1    2    0    0 -0.68892469353E+01  0.59854192390E+00 -0.49748835020E+03  0.49753640928E+03  0.00000000000E+00 0. -1.
        -15    1    1    2    0    0 -0.63313529233E+00  0.12527986118E+02  0.34849155652E+02  0.37080623985E+02  0.17770000000E+01 0.  1.
         15    1    1    2    0    0  0.58726785274E+01 -0.33051228814E+01  0.78998745289E+01  0.10534606633E+02  0.17770000000E+01 0. -1.
</event>
<event>
 6   1  0.1826851E-04  0.5009479E+03  0.7546771E-02  0.9397691E-01
        -11   -1    0    0    0    0  0.00000000000E+00  0.00000000000E+00  0.50000000000E+03  0.50000000000E+03  0.00000000000E+00 0.  1.
         11   -1    0    0    0    0 -0.00000000000E+00 -0.00000000000E+00 -0.50000000000E+03  0.50000000000E+03  0.00000000000E+00 0.  1.
        -11    1    1    2    0    0 -0.14083174499E+02 -0.26160294755E+01  0.49884652081E+03  0.49905213229E+03  0.00000000000E+00 0.  1.
         11    1    1    2    0    0 -0.46825511448E+00 -0.13237340271E+02 -0.32929219767E+03  0.32955848933E+03  0.00000000000E+00 0.  1.
        -15    1    1    2    0    0  0.52046645260E+01  0.82275093996E+01 -0.11793559555E+03  0.11835008606E+03  0.17770000000E+01 0. -1.
         15    1    1    2    0    0  0.93467650875E+01  0.76258603472E+01 -0.51618727584E+02  0.53039292322E+02  0.17770000000E+01 0.  1.
</event>
<event>
 6   1  0.1826851E-04  0.5022275E+03  0.7546771E-02  0.9394839E-01
        -11   -1    0    0    0    0  0.00000000000E+00  0.00000000000E+00  0.50000000000E+03  0.50000000000E+03  0.00000000000E+00 0. -1.
         11   -1    0    0    0    0 -0.00000000000E+00 -0.00000000000E+00 -0.50000000000E+03  0.50000000000E+03  0.00000000000E+00 0.  1.
        -11    1    1    2    0    0 -0.18424598306E+02  0.34844737214E+01  0.49741920706E+03  0.49777251324E+03  0.00000000000E+00 0. -1.
         11    1    1    2    0    0  0.39799858409E+01  0.10624694196E+02 -0.44402595935E+03  0.44417088715E+03  0.00000000000E+00 0.  1.
        -15    1    1    2    0    0  0.12215067334E+02 -0.66734378568E+01 -0.40908977591E+02  0.43248639508E+02  0.17770000000E+01 0. -1.
         15    1    1    2    0    0  0.22295451307E+01 -0.74357300606E+01 -0.12484270124E+02  0.14807960108E+02  0.17770000000E+01 0.  1.
</event>
<event>
 6   1  0.1826851E-04  0.5004764E+03  0.7546771E-02  0.9398744E-01
        -11   -1    0    0    0    0  0.00000000000E+00  0.00000000000E+00  0.50000000000E+03  0.50000000000E+03  0.00000000000E+00 0. -1.
         11   -1    0    0    0    0 -0.00000000000E+00 -0.00000000000E+00 -0.50000000000E+03  0.50000000000E+03  0.00000000000E+00 0. -1.
        -11    1    1    2    0    0 -0.15750592116E+00 -0.12133306484E+02  0.16062689465E+03  0.16108457785E+03  0.00000000000E+00 0. -1.
         11    1    1    2    0    0  0.50150376212E+01 -0.45821573671E+01 -0.49947740640E+03  0.49952359931E+03  0.00000000000E+00 0. -1.
        -15    1    1    2    0    0 -0.23799803726E+01  0.15506350701E+01  0.39464735337E+02  0.39606714582E+02  0.17770000000E+01 0. -1.
         15    1    1    2    0    0 -0.24775513275E+01  0.15164828781E+02  0.29938577641E+03  0.29978510826E+03  0.17770000000E+01 0. -1.
</event>
<event>
 6   1  0.1826851E-04  0.5003485E+03  0.7546771E-02  0.9399030E-01
        -11   -1    0    0    0    0  0.00000000000E+00  0.00000000000E+00  0.50000000000E+03  0.50000000000E+03  0.00000000000E+00 0. -1.
         11   -1    0    0    0    0 -0.00000000000E+00 -0.00000000000E+00 -0.50000000000E+03  0.50000000000E+03  0.00000000000E+00 0. -1.
        -11    1    1    2    0    0 -0.16094763385E+01 -0.47760642579E+01  0.20005955877E+02  0.20631031831E+02  0.00000000000E+00 0. -1.
         11    1    1    2    0    0 -0.44715117672E+01  0.75164324061E+01 -0.49957499212E+03  0.49965154250E+03  0.00000000000E+00 0. -1.
        -15    1    1    2    0    0 -0.10523062695E+01  0.59434319002E+00  0.30402304924E+02  0.30478163757E+02  0.17770000000E+01 0.  1.
         15    1    1    2    0    0  0.71332943752E+01 -0.33347113382E+01  0.44916673132E+03  0.44923926191E+03  0.17770000000E+01 0. -1.
</event>
<event>
 6   1  0.1826851E-04  0.5001096E+03  0.7546771E-02  0.9399564E-01
        -11   -1    0    0    0    0  0.00000000000E+00  0.00000000000E+00  0.50000000000E+03  0.50000000000E+03  0.00000000000E+00 0. -1.
         11   -1    0    0    0    0 -0.00000000000E+00 -0.00000000000E+00 -0.50000000000E+03  0.50000000000E+03  0.00000000000E+00 0.  1.
        -11    1    1    2    0    0  0.12329902331E+02 -0.18176023350E+02  0.49940764303E+03  0.49989037622E+03  0.00000000000E+00 0. -1.
         11    1    1    2    0    0 -0.13013711791E+02  0.14761661892E+02 -0.34087432445E+03  0.34144189612E+03  0.00000000000E+00 0.  1.
        -15    1    1    2    0    0  0.16799124630E+01 -0.11074302777E+00 -0.55285066659E+02  0.55339232867E+02  0.17770000000E+01 0. -1.
         15    1    1    2    0    0 -0.99610300326E+00  0.35251044858E+01 -0.10324825192E+03  0.10332849480E+03  0.17770000000E+01 0.  1.
</event>
<event>
 6   1  0.1826851E-04  0.5003029E+03  0.7546771E-02  0.9399132E-01
        -11   -1    0    0    0    0  0.00000000000E+00  0.00000000000E+00  0.50000000000E+03  0.50000000000E+03  0.00000000000E+00 0.  1.
         11   -1    0    0    0    0 -0.00000000000E+00 -0.00000000000E+00 -0.50000000000E+03  0.50000000000E+03  0.00000000000E+00 0. -1.
        -11    1    1    2    0    0  0.77040953797E+01 -0.43090048711E+01  0.13737422243E+03  0.13765753738E+03  0.00000000000E+00 0.  1.
         11    1    1    2    0    0  0.74893033699E+01  0.49101692848E+00 -0.49964068980E+03  0.49969705789E+03  0.00000000000E+00 0. -1.
        -15    1    1    2    0    0 -0.55723286527E+01  0.10156589072E+01  0.17710121370E+03  0.17720067729E+03  0.17770000000E+01 0. -1.
         15    1    1    2    0    0 -0.96210700969E+01  0.28023290353E+01  0.18516525366E+03  0.18544472743E+03  0.17770000000E+01 0.  1.
</event>
<event>
 6   1  0.1826851E-04  0.4806873E+03  0.7546771E-02  0.9444092E-01
        -11   -1    0    0    0    0  0.00000000000E+00  0.00000000000E+00  0.50000000000E+03  0.50000000000E+03  0.00000000000E+00 0. -1.
         11   -1    0    0    0    0 -0.00000000000E+00 -0.00000000000E+00 -0.50000000000E+03  0.50000000000E+03  0.00000000000E+00 0. -1.
        -11    1    1    2    0    0  0.22335654229E+02 -0.14786722312E+02  0.47692179551E+03  0.47767345294E+03  0.00000000000E+00 0. -1.
         11    1    1    2    0    0 -0.48341619985E+01 -0.13275855065E+02 -0.48409035660E+03  0.48429649059E+03  0.00000000000E+00 0. -1.
        -15    1    1    2    0    0 -0.49685408198E+00  0.67346916113E+00 -0.35102797435E+01  0.40224641163E+01  0.17770000000E+01 0.  1.
         15    1    1    2    0    0 -0.17004638149E+02  0.27389108216E+02  0.10678840830E+02  0.34007592357E+02  0.17770000000E+01 0. -1.
</event>
<event>
 6   1  0.1826851E-04  0.5003730E+03  0.7546771E-02  0.9398976E-01
        -11   -1    0    0    0    0  0.00000000000E+00  0.00000000000E+00  0.50000000000E+03  0.50000000000E+03  0.00000000000E+00 0.  1.
         11   -1    0    0    0    0 -0.00000000000E+00 -0.00000000000E+00 -0.50000000000E+03  0.50000000000E+03  0.00000000000E+00 0. -1.
        -11    1    1    2    0    0  0.11332025672E+02  0.25647747268E+01  0.35054201795E+03  0.35073451387E+03  0.00000000000E+00 0.  1.
         11    1    1    2    0    0 -0.12413941338E+01 -0.10764736583E+02 -0.49950949536E+03  0.49962701745E+03  0.00000000000E+00 0. -1.
        -15    1    1    2    0    0 -0.12635471617E+01  0.16356761151E+01  0.19051840281E+02  0.19245839417E+02  0.17770000000E+01 0. -1.
         15    1    1    2    0    0 -0.88270843763E+01  0.65642857411E+01  0.12991563713E+03  0.13039262926E+03  0.17770000000E+01 0.  1.
</event>
<event>
 6   1  0.1826851E-04  0.5008720E+03  0.7546771E-02  0.9397861E-01
        -11   -1    0    0    0    0  0.00000000000E+00  0.00000000000E+00  0.50000000000E+03  0.50000000000E+03  0.00000000000E+00 0.  1.
         11   -1    0    0    0    0 -0.00000000000E+00 -0.00000000000E+00 -0.50000000000E+03  0.50000000000E+03  0.00000000000E+00 0. -1.
        -11    1    1    2    0    0 -0.37253727483E+01  0.62015786389E+01  0.41077932450E+03  0.41084302528E+03  0.00000000000E+00 0.  1.
         11    1    1    2    0    0  0.15303845833E+01  0.88320522512E+01 -0.49904750761E+03  0.49912800169E+03  0.00000000000E+00 0. -1.
        -15    1    1    2    0    0  0.25297905391E+00 -0.54033872438E+01  0.14328085023E+02  0.15417922737E+02  0.17770000000E+01 0. -1.
         15    1    1    2    0    0  0.19420091111E+01 -0.96302436463E+01  0.73940098084E+02  0.74611050293E+02  0.17770000000E+01 0.  1.
</event>
<event>
 6   1  0.1826851E-04  0.5019345E+03  0.7546771E-02  0.9395492E-01
        -11   -1    0    0    0    0  0.00000000000E+00  0.00000000000E+00  0.50000000000E+03  0.50000000000E+03  0.00000000000E+00 0. -1.
         11   -1    0    0    0    0 -0.00000000000E+00 -0.00000000000E+00 -0.50000000000E+03  0.50000000000E+03  0.00000000000E+00 0. -1.
        -11    1    1    2    0    0  0.22798806794E+02  0.13381519198E+02  0.49736348844E+03  0.49806554817E+03  0.00000000000E+00 0. -1.
         11    1    1    2    0    0 -0.18088167162E+02 -0.93936383561E+01 -0.39167811378E+03  0.39220806602E+03  0.00000000000E+00 0. -1.
        -15    1    1    2    0    0  0.11481936293E+02  0.22817446767E+01 -0.49253538566E+02  0.50656786417E+02  0.17770000000E+01 0.  1.
         15    1    1    2    0    0 -0.16192575925E+02 -0.62696255181E+01 -0.56431836086E+02  0.59069599391E+02  0.17770000000E+01 0.  1.
</event>
<event>
 6   1  0.1826851E-04  0.5096164E+03  0.7546771E-02  0.9378546E-01
        -11   -1    0    0    0    0  0.00000000000E+00  0.00000000000E+00  0.50000000000E+03  0.50000000000E+03  0.00000000000E+00 0.  1.
         11   -1    0    0    0    0 -0.00000000000E+00 -0.00000000000E+00 -0.50000000000E+03  0.50000000000E+03  0.00000000000E+00 0. -1.
        -11    1    1    2    0    0 -0.30452404959E+02 -0.63554487922E+01  0.43387512471E+03  0.43498892462E+03  0.00000000000E+00 0.  1.
         11    1    1    2    0    0 -0.81205183447E+01  0.39967865368E+01 -0.49030002534E+03  0.49038355598E+03  0.00000000000E+00 0. -1.
        -15    1    1    2    0    0  0.33640807148E+02  0.14156907328E+01  0.59563723668E+02  0.68444890183E+02  0.17770000000E+01 0.  1.
         15    1    1    2    0    0  0.49321161559E+01  0.94297152251E+00 -0.31388230367E+01  0.61826292241E+01  0.17770000000E+01 0. -1.
</event>
<event>
 6   1  0.1826851E-04  0.5015098E+03  0.7546771E-02  0.9396438E-01
        -11   -1    0    0    0    0  0.00000000000E+00  0.00000000000E+00  0.50000000000E+03  0.50000000000E+03  0.00000000000E+00 0. -1.
         11   -1    0    0    0    0 -0.00000000000E+00 -0.00000000000E+00 -0.50000000000E+03  0.50000000000E+03  0.00000000000E+00 0. -1.
        -11    1    1    2    0    0 -0.25593567341E+01 -0.11142370319E+02  0.41613309980E+03  0.41629011455E+03  0.00000000000E+00 0. -1.
         11    1    1    2    0    0  0.70215209322E+01  0.11323460670E+00 -0.49844078036E+03  0.49849024675E+03  0.00000000000E+00 0. -1.
        -15    1    1    2    0    0  0.29814565400E+01  0.41990356493E+01  0.64022564587E+02  0.64253929754E+02  0.17770000000E+01 0. -1.
         15    1    1    2    0    0 -0.74436207381E+01  0.68301000632E+01  0.18285115970E+02  0.20965708946E+02  0.17770000000E+01 0.  1.
</event>
<event>
 6   1  0.1826851E-04  0.5008250E+03  0.7546771E-02  0.9397966E-01
        -11   -1    0    0    0    0  0.00000000000E+00  0.00000000000E+00  0.50000000000E+03  0.50000000000E+03  0.00000000000E+00 0.  1.
         11   -1    0    0    0    0 -0.00000000000E+00 -0.00000000000E+00 -0.50000000000E+03  0.50000000000E+03  0.00000000000E+00 0.  1.
        -11    1    1    2    0    0 -0.33818657906E+01 -0.11396030475E+02  0.49903346392E+03  0.49917502405E+03  0.00000000000E+00 0.  1.
         11    1    1    2    0    0  0.57561930012E+01 -0.55289424005E+01 -0.35067960014E+03  0.35077041625E+03  0.00000000000E+00 0.  1.
        -15    1    1    2    0    0  0.41284612761E+00 -0.80488127587E+00 -0.51327468983E+02  0.51366186124E+02  0.17770000000E+01 0. -1.
         15    1    1    2    0    0 -0.27871733383E+01  0.17729854152E+02 -0.97026394796E+02  0.98688373579E+02  0.17770000000E+01 0.  1.
</event>
<event>
 6   1  0.1826851E-04  0.5016401E+03  0.7546771E-02  0.9396147E-01
        -11   -1    0    0    0    0  0.00000000000E+00  0.00000000000E+00  0.50000000000E+03  0.50000000000E+03  0.00000000000E+00 0. -1.
         11   -1    0    0    0    0 -0.00000000000E+00 -0.00000000000E+00 -0.50000000000E+03  0.50000000000E+03  0.00000000000E+00 0.  1.
        -11    1    1    2    0    0  0.82828990542E+02 -0.21292248322E+02  0.38483206616E+03  0.39422039605E+03  0.00000000000E+00 0. -1.
         11    1    1    2    0    0 -0.81910041103E+02  0.12168009580E+02 -0.49143190370E+03  0.49835994147E+03  0.00000000000E+00 0.  1.
        -15    1    1    2    0    0 -0.39546762617E+01  0.20850729075E+01  0.26406406908E+02  0.26841070175E+02  0.17770000000E+01 0. -1.
         15    1    1    2    0    0  0.30357268229E+01  0.70391658344E+01  0.80193430630E+02  0.80578592307E+02  0.17770000000E+01 0.  1.
</event>
<event>
 6   1  0.1826851E-04  0.5004265E+03  0.7546771E-02  0.9398856E-01
        -11   -1    0    0    0    0  0.00000000000E+00  0.00000000000E+00  0.50000000000E+03  0.50000000000E+03  0.00000000000E+00 0. -1.
         11   -1    0    0    0    0 -0.00000000000E+00 -0.00000000000E+00 -0.50000000000E+03  0.50000000000E+03  0.00000000000E+00 0.  1.
        -11    1    1    2    0    0  0.27065718717E+01  0.28069273781E+01  0.11156086762E+02  0.11817895094E+02  0.00000000000E+00 0. -1.
         11    1    1    2    0    0 -0.17920990755E+02  0.16225939836E+02 -0.49898821966E+03  0.49957350449E+03  0.00000000000E+00 0.  1.
        -15    1    1    2    0    0  0.27189107589E+01 -0.82974371731E+01  0.27008910484E+03  0.27023604908E+03  0.17770000000E+01 0.  1.
         15    1    1    2    0    0  0.12495508124E+02 -0.10735430041E+02  0.21774302806E+03  0.21837255134E+03  0.17770000000E+01 0. -1.
</event>
<event>
 6   1  0.1826851E-04  0.5008449E+03  0.7546771E-02  0.9397921E-01
        -11   -1    0    0    0    0  0.00000000000E+00  0.00000000000E+00  0.50000000000E+03  0.50000000000E+03  0.00000000000E+00 0.  1.
         11   -1    0    0    0    0 -0.00000000000E+00 -0.00000000000E+00 -0.50000000000E+03  0.50000000000E+03  0.00000000000E+00 0. -1.
        -11    1    1    2    0    0 -0.10552831841E+01  0.97966918326E+01  0.49905785388E+03  0.49915511648E+03  0.00000000000E+00 0.  1.
         11    1    1    2    0    0 -0.15785689860E+01  0.81548302758E+01 -0.38075845418E+03  0.38084904301E+03  0.00000000000E+00 0. -1.
        -15    1    1    2    0    0  0.73572011012E+00 -0.86833570842E+00 -0.26525596216E+02  0.26609401996E+02  0.17770000000E+01 0. -1.
         15    1    1    2    0    0  0.18981320599E+01 -0.17083186400E+02 -0.91773803482E+02  0.93386438510E+02  0.17770000000E+01 0.  1.
</event>
<event>
 6   1  0.1826851E-04  0.5013316E+03  0.7546771E-02  0.9396835E-01
        -11   -1    0    0    0    0  0.00000000000E+00  0.00000000000E+00  0.50000000000E+03  0.50000000000E+03  0.00000000000E+00 0. -1.
         11   -1    0    0    0    0 -0.00000000000E+00 -0.00000000000E+00 -0.50000000000E+03  0.50000000000E+03  0.00000000000E+00 0.  1.
        -11    1    1    2    0    0  0.66877523156E+01 -0.14145854386E+02  0.86530083022E+02  0.87933420808E+02  0.00000000000E+00 0. -1.
         11    1    1    2    0    0 -0.13521686391E+02 -0.17137975871E+02 -0.49819033242E+03  0.49866838032E+03  0.00000000000E+00 0.  1.
        -15    1    1    2    0    0 -0.35931812952E+01  0.21019080735E+02  0.30116703973E+03  0.30192624307E+03  0.17770000000E+01 0. -1.
         15    1    1    2    0    0  0.10427115371E+02  0.10264749522E+02  0.11049320967E+03  0.11147195580E+03  0.17770000000E+01 0.  1.
</event>
<event>
 6   1  0.1826851E-04  0.5000787E+03  0.7546771E-02  0.9399634E-01
        -11   -1    0    0    0    0  0.00000000000E+00  0.00000000000E+00  0.50000000000E+03  0.50000000000E+03  0.00000000000E+00 0. -1.
         11   -1    0    0    0    0 -0.00000000000E+00 -0.00000000000E+00 -0.50000000000E+03  0.50000000000E+03  0.00000000000E+00 0. -1.
        -11    1    1    2    0    0 -0.16931705245E+00  0.12072654013E+02  0.49977544779E+03  0.49992126966E+03  0.00000000000E+00 0. -1.
         11    1    1    2    0    0  0.79608588814E+00  0.15874415738E+01 -0.10630258310E+03  0.10631741577E+03  0.00000000000E+00 0. -1.
        -15    1    1    2    0    0  0.69126070454E+00 -0.88199354741E+00 -0.54535404765E+02  0.54575854147E+02  0.17770000000E+01 0. -1.
         15    1    1    2    0    0 -0.13180295402E+01 -0.12778102039E+02 -0.33893745993E+03  0.33918546042E+03  0.17770000000E+01 0. -1.
</event>
<event>
 6   1  0.1826851E-04  0.5016018E+03  0.7546771E-02  0.9396233E-01
        -11   -1    0    0    0    0  0.00000000000E+00  0.00000000000E+00  0.50000000000E+03  0.50000000000E+03  0.00000000000E+00 0.  1.
         11   -1    0    0    0    0 -0.00000000000E+00 -0.00000000000E+00 -0.50000000000E+03  0.50000000000E+03  0.00000000000E+00 0. -1.
        -11    1    1    2    0    0 -0.34469592147E+02  0.72328529163E+02  0.49191584957E+03  0.49839820623E+03  0.00000000000E+00 0.  1.
         11    1    1    2    0    0  0.13687495199E+02 -0.51134118025E+02 -0.42137121525E+03  0.42468311314E+03  0.00000000000E+00 0. -1.
        -15    1    1    2    0    0  0.10769026975E+02 -0.15430561826E+02 -0.41053527470E+02  0.45195398294E+02  0.17770000000E+01 0.  1.
         15    1    1    2    0    0  0.10013069973E+02 -0.57638493116E+01 -0.29491106858E+02  0.31723282331E+02  0.17770000000E+01 0. -1.
</event>
<event>
 6   1  0.1826851E-04  0.5062279E+03  0.7546771E-02  0.9385981E-01
        -11   -1    0    0    0    0  0.00000000000E+00  0.00000000000E+00  0.50000000000E+03  0.50000000000E+03  0.00000000000E+00 0.  1.
         11   -1    0    0    0    0 -0.00000000000E+00 -0.00000000000E+00 -0.50000000000E+03  0.50000000000E+03  0.00000000000E+00 0.  1.
        -11    1    1    2    0    0  0.89913301295E+01 -0.59619220833E+01  0.49365427746E+03  0.49377214804E+03  0.00000000000E+00 0.  1.
         11    1    1    2    0    0 -0.11938222153E+02  0.68047191767E+01 -0.48780301364E+03  0.48799652198E+03  0.00000000000E+00 0.  1.
        -15    1    1    2    0    0 -0.10869168967E+01  0.37679314246E+01 -0.98174979352E+01  0.10720060180E+02  0.17770000000E+01 0. -1.
         15    1    1    2    0    0  0.40338089202E+01 -0.46107285180E+01  0.39662341183E+01  0.75112697963E+01  0.17770000000E+01 0.  1.
</event>
<event>
 6   1  0.1826851E-04  0.5196781E+03  0.7546771E-02  0.9356824E-01
        -11   -1    0    0    0    0  0.00000000000E+00  0.00000000000E+00  0.50000000000E+03  0.50000000000E+03  0.00000000000E+00 0. -1.
         11   -1    0    0    0    0 -0.00000000000E+00 -0.00000000000E+00 -0.50000000000E+03  0.50000000000E+03  0.00000000000E+00 0. -1.
        -11    1    1    2    0    0  0.55558368529E+02 -0.21773255572E+02  0.47660081873E+03  0.48032192058E+03  0.00000000000E+00 0. -1.
         11    1    1    2    0    0  0.12289353450E+02 -0.16609204543E+02 -0.41782280721E+03  0.41833335046E+03  0.00000000000E+00 0. -1.
        -15    1    1    2    0    0 -0.23343949080E+02  0.30200107945E+01 -0.28197035496E+02  0.36773508993E+02  0.17770000000E+01 0.  1.
         15    1    1    2    0    0 -0.44503772899E+02  0.35362449321E+02 -0.30580976029E+02  0.64571219968E+02  0.17770000000E+01 0. -1.
</event>
<event>
 6   1  0.1826851E-04  0.5008474E+03  0.7546771E-02  0.9397916E-01
        -11   -1    0    0    0    0  0.00000000000E+00  0.00000000000E+00  0.50000000000E+03  0.50000000000E+03  0.00000000000E+00 0.  1.
         11   -1    0    0    0    0 -0.00000000000E+00 -0.00000000000E+00 -0.50000000000E+03  0.50000000000E+03  0.00000000000E+00 0.  1.
        -11    1    1    2    0    0 -0.15725592299E+02  0.15958554625E+02  0.31282372715E+03  0.31362502131E+03  0.00000000000E+00 0.  1.
         11    1    1    2    0    0  0.32790179161E+00 -0.12875096569E+02 -0.49898639405E+03  0.49915257895E+03  0.00000000000E+00 0.  1.
        -15    1    1    2    0    0  0.14070760089E+01  0.31827699995E+01  0.58499077353E+02  0.58629426639E+02  0.17770000000E+01 0. -1.
         15    1    1    2    0    0  0.13990614498E+02 -0.62662280554E+01  0.12766358954E+03  0.12859297310E+03  0.17770000000E+01 0.  1.
</event>
<event>
 6   1  0.1826851E-04  0.5026154E+03  0.7546771E-02  0.9393977E-01
        -11   -1    0    0    0    0  0.00000000000E+00  0.00000000000E+00  0.50000000000E+03  0.50000000000E+03  0.00000000000E+00 0. -1.
         11   -1    0    0    0    0 -0.00000000000E+00 -0.00000000000E+00 -0.50000000000E+03  0.50000000000E+03  0.00000000000E+00 0. -1.
        -11    1    1    2    0    0  0.16613275245E+01 -0.16611262416E+02  0.49710438615E+03  0.49738462459E+03  0.00000000000E+00 0. -1.
         11    1    1    2    0    0  0.69709278870E+01 -0.10370270428E+01 -0.45532323240E+03  0.45537777199E+03  0.00000000000E+00 0. -1.
        -15    1    1    2    0    0 -0.73281093522E+01  0.65077073374E+01 -0.13625525373E+02  0.16877917886E+02  0.17770000000E+01 0.  1.
         15    1    1    2    0    0 -0.13041460593E+01  0.11140582122E+02 -0.28155628385E+02  0.30359685534E+02  0.17770000000E+01 0. -1.
</event>
<event>
 6   1  0.1826851E-04  0.5002233E+03  0.7546771E-02  0.9399310E-01
        -11   -1    0    0    0    0  0.00000000000E+00  0.00000000000E+00  0.50000000000E+03  0.50000000000E+03  0.00000000000E+00 0.  1.
         11   -1    0    0    0    0 -0.00000000000E+00 -0.00000000000E+00 -0.50000000000E+03  0.50000000000E+03  0.00000000000E+00 0. -1.
        -11    1    1    2    0    0  0.80122289708E+00 -0.29863688721E+02  0.38061937355E+03  0.38178998072E+03  0.00000000000E+00 0.  1.
         11    1    1    2    0    0 -0.61557520186E+01  0.30364856819E+02 -0.49881547473E+03  0.49977674580E+03  0.00000000000E+00 0. -1.
        -15    1    1    2    0    0  0.45120125697E+01 -0.14134526830E+01  0.95620914216E+02  0.95754232650E+02  0.17770000000E+01 0. -1.
         15    1    1    2    0    0  0.84251655181E+00  0.91228458551E+00  0.22575186966E+02  0.22679040827E+02  0.17770000000E+01 0.  1.
</event>
<event>
 6   1  0.1826851E-04  0.5008002E+03  0.7546771E-02  0.9398021E-01
        -11   -1    0    0    0    0  0.00000000000E+00  0.00000000000E+00  0.50000000000E+03  0.50000000000E+03  0.00000000000E+00 0.  1.
         11   -1    0    0    0    0 -0.00000000000E+00 -0.00000000000E+00 -0.50000000000E+03  0.50000000000E+03  0.00000000000E+00 0. -1.
        -11    1    1    2    0    0 -0.70091249425E+01 -0.63381781535E+01 -0.78584776852E+01  0.12290484380E+02  0.00000000000E+00 0.  1.
         11    1    1    2    0    0  0.40494973270E+01 -0.10009675325E+02 -0.48839034930E+03  0.48850969828E+03  0.00000000000E+00 0. -1.
        -15    1    1    2    0    0  0.15497888316E+02 -0.67568669131E+01  0.66311151335E+02  0.68455579123E+02  0.17770000000E+01 0. -1.
         15    1    1    2    0    0 -0.12538260700E+02  0.23104720392E+02  0.42993767565E+03  0.43074423822E+03  0.17770000000E+01 0.  1.
</event>
<event>
 6   1  0.1826851E-04  0.5004305E+03  0.7546771E-02  0.9398847E-01
        -11   -1    0    0    0    0  0.00000000000E+00  0.00000000000E+00  0.50000000000E+03  0.50000000000E+03  0.00000000000E+00 0. -1.
         11   -1    0    0    0    0 -0.00000000000E+00 -0.00000000000E+00 -0.50000000000E+03  0.50000000000E+03  0.00000000000E+00 0. -1.
        -11    1    1    2    0    0 -0.12148349784E+02 -0.19764942643E+01  0.49941781086E+03  0.49956945337E+03  0.00000000000E+00 0. -1.
         11    1    1    2    0    0 -0.27327419496E+01 -0.37899424316E+01 -0.33254133622E+03  0.33257415991E+03  0.00000000000E+00 0. -1.
        -15    1    1    2    0    0  0.11965086063E+02  0.30511593443E+01 -0.90549278810E+02  0.91404608635E+02  0.17770000000E+01 0. -1.
         15    1    1    2    0    0  0.29160056705E+01  0.27152773516E+01 -0.76327195832E+02  0.76451778088E+02  0.17770000000E+01 0.  1.
</event>
<event>
 6   1  0.1826851E-04  0.4923517E+03  0.7546771E-02  0.9417088E-01
        -11   -1    0    0    0    0  0.00000000000E+00  0.00000000000E+00  0.50000000000E+03  0.50000000000E+03  0.00000000000E+00 0.  1.
         11   -1    0    0    0    0 -0.00000000000E+00 -0.00000000000E+00 -0.50000000000E+03  0.50000000000E+03  0.00000000000E+00 0.  1.
        -11    1    1    2    0    0  0.11961889106E+02  0.31731076285E+01  0.49563401286E+03  0.49578849332E+03  0.00000000000E+00 0.  1.
         11    1    1    2    0    0 -0.14509938209E+01 -0.92691495923E+01 -0.48892274552E+03  0.48901275403E+03  0.00000000000E+00 0.  1.
        -15    1    1    2    0    0 -0.79483111753E+01  0.25240224779E+01 -0.59472980174E+01  0.10395884893E+02  0.17770000000E+01 0. -1.
         15    1    1    2    0    0 -0.25625841097E+01  0.35720194859E+01 -0.76396932519E+00  0.48028677534E+01  0.17770000000E+01 0.  1.
</event>
<event>
 6   1  0.1826851E-04  0.5007305E+03  0.7546771E-02  0.9398177E-01
        -11   -1    0    0    0    0  0.00000000000E+00  0.00000000000E+00  0.50000000000E+03  0.50000000000E+03  0.00000000000E+00 0.  1.
         11   -1    0    0    0    0 -0.00000000000E+00 -0.00000000000E+00 -0.50000000000E+03  0.50000000000E+03  0.00000000000E+00 0. -1.
        -11    1    1    2    0    0  0.10788327567E+02  0.26070355173E+02  0.49847161608E+03  0.49926946980E+03  0.00000000000E+00 0.  1.
         11    1    1    2    0    0 -0.18908038841E+00 -0.16089550274E+01 -0.10505481545E+03  0.10506730575E+03  0.00000000000E+00 0. -1.
        -15    1    1    2    0    0 -0.17798860232E+02 -0.62639950646E+01 -0.27267453942E+03  0.27333239698E+03  0.17770000000E+01 0. -1.
         15    1    1    2    0    0  0.71996130535E+01 -0.18197405081E+02 -0.12074226121E+03  0.12233082748E+03  0.17770000000E+01 0.  1.
</event>
<event>
 6   1  0.1826851E-04  0.5006358E+03  0.7546771E-02  0.9398388E-01
        -11   -1    0    0    0    0  0.00000000000E+00  0.00000000000E+00  0.50000000000E+03  0.50000000000E+03  0.00000000000E+00 0.  1.
         11   -1    0    0    0    0 -0.00000000000E+00 -0.00000000000E+00 -0.50000000000E+03  0.50000000000E+03  0.00000000000E+00 0.  1.
        -11    1    1    2    0    0 -0.12142320059E+02  0.24721052865E+02  0.49860413760E+03  0.49936424825E+03  0.00000000000E+00 0.  1.
         11    1    1    2    0    0 -0.21352383911E+01 -0.56915390424E+01 -0.31908093745E+03  0.31913883735E+03  0.00000000000E+00 0.  1.
        -15    1    1    2    0    0  0.13918378384E+02 -0.20055809554E+02 -0.15975207726E+03  0.16161633789E+03  0.17770000000E+01 0. -1.
         15    1    1    2    0    0  0.35918006535E+00  0.10262957312E+01 -0.19771122888E+02  0.19880576513E+02  0.17770000000E+01 0. -1.
</event>
<event>
 6   1  0.1826851E-04  0.5000636E+03  0.7546771E-02  0.9399667E-01
        -11   -1    0    0    0    0  0.00000000000E+00  0.00000000000E+00  0.50000000000E+03  0.50000000000E+03  0.00000000000E+00 0. -1.
         11   -1    0    0    0    0 -0.00000000000E+00 -0.00000000000E+00 -0.50000000000E+03  0.50000000000E+03  0.00000000000E+00 0. -1.
        -11    1    1    2    0    0 -0.10354339913E+02 -0.27185256163E+01  0.49982174674E+03  0.49993637720E+03  0.00000000000E+00 0. -1.
         11    1    1    2    0    0  0.92892386784E+01  0.54141484332E+01 -0.32491655816E+03  0.32509440587E+03  0.00000000000E+00 0. -1.
        -15    1    1    2    0    0  0.73673082753E+00 -0.12800466964E+01 -0.10784727965E+03  0.10787202951E+03  0.17770000000E+01 0.  1.
         15    1    1    2    0    0  0.32837040657E+00 -0.14155761205E+01 -0.67057908921E+02  0.67097187428E+02  0.17770000000E+01 0.  1.
</event>
<event>
 6   1  0.1826851E-04  0.5002607E+03  0.7546771E-02  0.9399226E-01
        -11   -1    0    0    0    0  0.00000000000E+00  0.00000000000E+00  0.50000000000E+03  0.50000000000E+03  0.00000000000E+00 0.  1.
         11   -1    0    0    0    0 -0.00000000000E+00 -0.00000000000E+00 -0.50000000000E+03  0.50000000000E+03  0.00000000000E+00 0.  1.
        -11    1    1    2    0    0  0.10741097133E+02  0.38385832522E+01  0.13516966231E+03  0.13565007740E+03  0.00000000000E+00 0.  1.
         11    1    1    2    0    0 -0.53497246800E+01 -0.44807829319E+01 -0.49969054234E+03  0.49973926709E+03  0.00000000000E+00 0.  1.
        -15    1    1    2    0    0  0.26615803698E+00  0.11198180531E+01  0.10859413128E+03  0.10861476838E+03  0.17770000000E+01 0. -1.
         15    1    1    2    0    0 -0.56575304897E+01 -0.47761837343E+00  0.25592674875E+03  0.25599588713E+03  0.17770000000E+01 0.  1.
</event>
<event>
 6   1  0.1826851E-04  0.5013414E+03  0.7546771E-02  0.9396813E-01
        -11   -1    0    0    0    0  0.00000000000E+00  0.00000000000E+00  0.50000000000E+03  0.50000000000E+03  0.00000000000E+00 0.  1.
         11   -1    0    0    0    0 -0.00000000000E+00 -0.00000000000E+00 -0.50000000000E+03  0.50000000000E+03  0.00000000000E+00 0.  1.
        -11    1    1    2    0    0  0.29056825711E+02 -0.52790715818E+01  0.16335616262E+03  0.16600422760E+03  0.00000000000E+00 0.  1.
         11    1    1    2    0    0 -0.17366091240E+02  0.95711946199E+01 -0.49826416169E+03  0.49865856427E+03  0.00000000000E+00 0.  1.
        -15    1    1    2    0    0 -0.34302633700E+01 -0.56728794302E+01  0.82832398347E+02  0.83116257211E+02  0.17770000000E+01 0.  1.
         15    1    1    2    0    0 -0.82604711012E+01  0.13807563921E+01  0.25207560073E+03  0.25222095092E+03  0.17770000000E+01 0.  1.
</event>
<event>
 6   1  0.1826851E-04  0.5008214E+03  0.7546771E-02  0.9397974E-01
        -11   -1    0    0    0    0  0.00000000000E+00  0.00000000000E+00  0.50000000000E+03  0.50000000000E+03  0.00000000000E+00 0.  1.
         11   -1    0    0    0    0 -0.00000000000E+00 -0.00000000000E+00 -0.50000000000E+03  0.50000000000E+03  0.00000000000E+00 0.  1.
        -11    1    1    2    0    0 -0.86879326947E+01  0.31114503695E+01  0.49909331278E+03  0.49917862150E+03  0.00000000000E+00 0.  1.
         11    1    1    2    0    0  0.91505705494E+01  0.95840909603E+00 -0.44209350047E+03  0.44218922946E+03  0.00000000000E+00 0.  1.
        -15    1    1    2    0    0 -0.50902721321E+01 -0.59421869397E+01 -0.26962454466E+02  0.28130981779E+02  0.17770000000E+01 0.  1.
         15    1    1    2    0    0  0.46276342775E+01  0.18723274741E+01 -0.30037357841E+02  0.30501167261E+02  0.17770000000E+01 0. -1.
</event>
<event>
 6   1  0.1826851E-04  0.4900402E+03  0.7546771E-02  0.9422375E-01
        -11   -1    0    0    0    0  0.00000000000E+00  0.00000000000E+00  0.50000000000E+03  0.50000000000E+03  0.00000000000E+00 0. -1.
         11   -1    0    0    0    0 -0.00000000000E+00 -0.00000000000E+00 -0.50000000000E+03  0.50000000000E+03  0.00000000000E+00 0. -1.
        -11    1    1    2    0    0 -0.88055081593E+01  0.15252657133E+02  0.48696735413E+03  0.48728573190E+03  0.00000000000E+00 0. -1.
         11    1    1    2    0    0 -0.16922702520E+01 -0.76411595572E+01 -0.49283588609E+03  0.49289802365E+03  0.00000000000E+00 0. -1.
        -15    1    1    2    0    0  0.50264313506E+01  0.34853903557E+01  0.27230203970E+01  0.69271586626E+01  0.17770000000E+01 0.  1.
         15    1    1    2    0    0  0.54713470606E+01 -0.11096887931E+02  0.31455115640E+01  0.12889085786E+02  0.17770000000E+01 0. -1.
</event>
<event>
 6   1  0.1826851E-04  0.5023709E+03  0.7546771E-02  0.9394520E-01
        -11   -1    0    0    0    0  0.00000000000E+00  0.00000000000E+00  0.50000000000E+03  0.50000000000E+03  0.00000000000E+00 0. -1.
         11   -1    0    0    0    0 -0.00000000000E+00 -0.00000000000E+00 -0.50000000000E+03  0.50000000000E+03  0.00000000000E+00 0. -1.
        -11    1    1    2    0    0  0.23688902958E+02  0.15601741363E+02  0.49682007433E+03  0.49762914376E+03  0.00000000000E+00 0. -1.
         11    1    1    2    0    0 -0.61620941632E+01  0.11584578712E+01 -0.43501791125E+03  0.43506309489E+03  0.00000000000E+00 0. -1.
        -15    1    1    2    0    0 -0.65987953267E+00 -0.30584048639E+01 -0.18265967771E+02  0.18616997312E+02  0.17770000000E+01 0. -1.
         15    1    1    2    0    0 -0.16866929262E+02 -0.13701794370E+02 -0.43536195309E+02  0.48690764039E+02  0.17770000000E+01 0. -1.
</event>
<event>
 6   1  0.1826851E-04  0.5044029E+03  0.7546771E-02  0.9390012E-01
        -11   -1    0    0    0    0  0.00000000000E+00  0.00000000000E+00  0.50000000000E+03  0.50000000000E+03  0.00000000000E+00 0.  1.
         11   -1    0    0    0    0 -0.00000000000E+00 -0.00000000000E+00 -0.50000000000E+03  0.50000000000E+03  0.00000000000E+00 0.  1.
        -11    1    1    2    0    0  0.12936564792E+02 -0.14117877453E+02  0.49522707245E+03  0.49559713726E+03  0.00000000000E+00 0.  1.
         11    1    1    2    0    0  0.38384387613E+01 -0.10815726579E+02 -0.43358378144E+03  0.43373564424E+03  0.00000000000E+00 0.  1.
        -15    1    1    2    0    0 -0.10475789362E+01  0.77427634959E+01 -0.31634462771E+02  0.32633491569E+02  0.17770000000E+01 0. -1.
         15    1    1    2    0    0 -0.15727424617E+02  0.17190840536E+02 -0.30008828236E+02  0.38033726935E+02  0.17770000000E+01 0.  1.
</event>
<event>
 6   1  0.1826851E-04  0.5202627E+03  0.7546771E-02  0.9355578E-01
        -11   -1    0    0    0    0  0.00000000000E+00  0.00000000000E+00  0.50000000000E+03  0.50000000000E+03  0.00000000000E+00 0.  1.
         11   -1    0    0    0    0 -0.00000000000E+00 -0.00000000000E+00 -0.50000000000E+03  0.50000000000E+03  0.00000000000E+00 0.  1.
        -11    1    1    2    0    0 -0.84706868267E+01 -0.63639024836E+02  0.47542207818E+03  0.47973725146E+03  0.00000000000E+00 0.  1.
         11    1    1    2    0    0  0.24741394167E+02  0.13213788771E+02 -0.34972998195E+03  0.35085296218E+03  0.00000000000E+00 0.  1.
        -15    1    1    2    0    0 -0.53434327442E+02  0.50041866200E+02 -0.63450004141E+02  0.96894150889E+02  0.17770000000E+01 0.  1.
         15    1    1    2    0    0  0.37163620102E+02  0.38336986401E+00 -0.62242092087E+02  0.72515635472E+02  0.17770000000E+01 0. -1.
</event>
<event>
 6   1  0.1826851E-04  0.5000837E+03  0.7546771E-02  0.9399622E-01
        -11   -1    0    0    0    0  0.00000000000E+00  0.00000000000E+00  0.50000000000E+03  0.50000000000E+03  0.00000000000E+00 0. -1.
         11   -1    0    0    0    0 -0.00000000000E+00 -0.00000000000E+00 -0.50000000000E+03  0.50000000000E+03  0.00000000000E+00 0.  1.
        -11    1    1    2    0    0  0.46314989294E+01  0.10428054632E+02  0.49978607980E+03  0.49991631367E+03  0.00000000000E+00 0. -1.
         11    1    1    2    0    0  0.86453281113E+00  0.13889755638E+01 -0.33487295202E+02  0.33527236839E+02  0.00000000000E+00 0.  1.
        -15    1    1    2    0    0 -0.26546999323E+01 -0.11696077282E+02 -0.37591396284E+03  0.37610943998E+03  0.17770000000E+01 0. -1.
         15    1    1    2    0    0 -0.28413318082E+01 -0.12095291335E+00 -0.90384821764E+02  0.90447009516E+02  0.17770000000E+01 0.  1.
</event>
<event>
 6   1  0.1826851E-04  0.5034976E+03  0.7546771E-02  0.9392017E-01
        -11   -1    0    0    0    0  0.00000000000E+00  0.00000000000E+00  0.50000000000E+03  0.50000000000E+03  0.00000000000E+00 0. -1.
         11   -1    0    0    0    0 -0.00000000000E+00 -0.00000000000E+00 -0.50000000000E+03  0.50000000000E+03  0.00000000000E+00 0.  1.
        -11    1    1    2    0    0  0.12027856909E+02 -0.99207323860E+01  0.42780392459E+03  0.42808794443E+03  0.00000000000E+00 0. -1.
         11    1    1    2    0    0  0.13661104805E+02 -0.66980320346E+01 -0.49626925892E+03  0.49650243380E+03  0.00000000000E+00 0.  1.
        -15    1    1    2    0    0 -0.91517745028E+00  0.12595685758E+01  0.62463432092E+01  0.66782179696E+01  0.17770000000E+01 0.  1.
         15    1    1    2    0    0 -0.24773784264E+02  0.15359195845E+02  0.62218991123E+02  0.68731403806E+02  0.17770000000E+01 0. -1.
</event>
<event>
 6   1  0.1826851E-04  0.4843396E+03  0.7546771E-02  0.9435549E-01
        -11   -1    0    0    0    0  0.00000000000E+00  0.00000000000E+00  0.50000000000E+03  0.50000000000E+03  0.00000000000E+00 0. -1.
         11   -1    0    0    0    0 -0.00000000000E+00 -0.00000000000E+00 -0.50000000000E+03  0.50000000000E+03  0.00000000000E+00 0. -1.
        -11    1    1    2    0    0  0.83633117267E+01 -0.15950381976E+02  0.48537541855E+03  0.48570943639E+03  0.00000000000E+00 0. -1.
         11    1    1    2    0    0  0.50872995007E+01  0.26464171006E+02 -0.48237268525E+03  0.48312487044E+03  0.00000000000E+00 0. -1.
        -15    1    1    2    0    0  0.12245220227E+00 -0.14753577012E+02 -0.67971447755E+01  0.16341417787E+02  0.17770000000E+01 0. -1.
         15    1    1    2    0    0 -0.13573063430E+02  0.42397879822E+01  0.37944114748E+01  0.14824275377E+02  0.17770000000E+01 0.  1.
</event>
<event>
 6   1  0.1826851E-04  0.5007537E+03  0.7546771E-02  0.9398125E-01
        -11   -1    0    0    0    0  0.00000000000E+00  0.00000000000E+00  0.50000000000E+03  0.50000000000E+03  0.00000000000E+00 0. -1.
         11   -1    0    0    0    0 -0.00000000000E+00 -0.00000000000E+00 -0.50000000000E+03  0.50000000000E+03  0.00000000000E+00 0.  1.
        -11    1    1    2    0    0  0.71760503429E+01 -0.10664049821E+02  0.40408969434E+03  0.40429407456E+03  0.00000000000E+00 0. -1.
         11    1    1    2    0    0 -0.67372496112E+01 -0.31973657275E+01 -0.49919063244E+03  0.49924633318E+03  0.00000000000E+00 0.  1.
        -15    1    1    2    0    0 -0.37145048903E+01  0.95244134872E+01  0.58074842651E+02  0.58994551247E+02  0.17770000000E+01 0. -1.
         15    1    1    2    0    0  0.32757041586E+01  0.43370020614E+01  0.37026095451E+02  0.37465041011E+02  0.17770000000E+01 0.  1.
</event>
<event>
 6   1  0.1826851E-04  0.5013958E+03  0.7546771E-02  0.9396692E-01
        -11   -1    0    0    0    0  0.00000000000E+00  0.00000000000E+00  0.50000000000E+03  0.50000000000E+03  0.00000000000E+00 0. -1.
         11   -1    0    0    0    0 -0.00000000000E+00 -0.00000000000E+00 -0.50000000000E+03  0.50000000000E+03  0.00000000000E+00 0. -1.
        -11    1    1    2    0    0 -0.50554343547E+01 -0.74208911879E+01  0.41845072560E+03  0.41854705447E+03  0.00000000000E+00 0. -1.
         11    1    1    2    0    0 -0.10746204667E+02  0.70302905055E+01 -0.49843878435E+03  0.49860417933E+03  0.00000000000E+00 0. -1.
        -15    1    1    2    0    0  0.27594824854E+01  0.49190352256E+01  0.11187964518E+02  0.12654640658E+02  0.17770000000E+01 0. -1.
         15    1    1    2    0    0  0.13042156536E+02 -0.45284345432E+01  0.68800094228E+02  0.70194125547E+02  0.17770000000E+01 0.  1.
</event>
<event>
 6   1  0.1826851E-04  0.5041889E+03  0.7546771E-02  0.9390485E-01
        -11   -1    0    0    0    0  0.00000000000E+00  0.00000000000E+00  0.50000000000E+03  0.50000000000E+03  0.00000000000E+00 0. -1.
         11   -1    0    0    0    0 -0.00000000000E+00 -0.00000000000E+00 -0.50000000000E+03  0.50000000000E+03  0.00000000000E+00 0. -1.
        -11    1    1    2    0    0 -0.20336978134E+02  0.40308485556E+01  0.26097271835E+02  0.33330286782E+02  0.00000000000E+00 0. -1.
         11    1    1    2    0    0 -0.31468325276E+01 -0.78209862888E+01 -0.49573943809E+03  0.49581111410E+03  0.00000000000E+00 0. -1.
        -15    1    1    2    0    0  0.67505858453E+01 -0.84435855807E+01  0.93143962205E+02  0.93786032920E+02  0.17770000000E+01 0.  1.
         15    1    1    2    0    0  0.16733224817E+02  0.12233723314E+02  0.37649820405E+03  0.37707256620E+03  0.17770000000E+01 0. -1.
</event>
<event>
 6   1  0.1826851E-04  0.5000622E+03  0.7546771E-02  0.9399671E-01
        -11   -1    0    0    0    0  0.00000000000E+00  0.00000000000E+00  0.50000000000E+03  0.50000000000E+03  0.00000000000E+00 0.  1.
         11   -1    0    0    0    0 -0.00000000000E+00 -0.00000000000E+00 -0.50000000000E+03  0.50000000000E+03  0.00000000000E+00 0. -1.
        -11    1    1    2    0    0 -0.13211781481E+02 -0.99946778822E+01  0.49966323612E+03  0.49993779042E+03  0.00000000000E+00 0.  1.
         11    1    1    2    0    0 -0.57499013208E+00 -0.91257687773E+00 -0.14794035655E+02  0.14833303785E+02  0.00000000000E+00 0. -1.
        -15    1    1    2    0    0  0.77398955058E+01  0.41396762554E+01 -0.18427469292E+03  0.18449217620E+03  0.17770000000E+01 0. -1.
         15    1    1    2    0    0  0.60468761069E+01  0.67675785046E+01 -0.30059450755E+03  0.30073672960E+03  0.17770000000E+01 0.  1.
</event>
<event>
 6   1  0.1826851E-04  0.5033431E+03  0.7546771E-02  0.9392360E-01
        -11   -1    0    0    0    0  0.00000000000E+00  0.00000000000E+00  0.50000000000E+03  0.50000000000E+03  0.00000000000E+00 0.  1.
         11   -1    0    0    0    0 -0.00000000000E+00 -0.00000000000E+00 -0.50000000000E+03  0.50000000000E+03  0.00000000000E+00 0.  1.
        -11    1    1    2    0    0  0.85041364029E+01  0.10233776540E+02  0.47933037479E+03  0.47951502449E+03  0.00000000000E+00 0.  1.
         11    1    1    2    0    0  0.45709994656E+01 -0.94481828510E+01 -0.49654594255E+03  0.49665685867E+03  0.00000000000E+00 0.  1.
        -15    1    1    2    0    0 -0.40428033093E+01 -0.25433267281E+01  0.11428974693E+01  0.52227112757E+01  0.17770000000E+01 0.  1.
         15    1    1    2    0    0 -0.90323325592E+01  0.17577330395E+01  0.16072670297E+02  0.18605405569E+02  0.17770000000E+01 0. -1.
</event>
<event>
 6   1  0.1826851E-04  0.5013082E+03  0.7546771E-02  0.9396887E-01
        -11   -1    0    0    0    0  0.00000000000E+00  0.00000000000E+00  0.50000000000E+03  0.50000000000E+03  0.00000000000E+00 0. -1.
         11   -1    0    0    0    0 -0.00000000000E+00 -0.00000000000E+00 -0.50000000000E+03  0.50000000000E+03  0.00000000000E+00 0. -1.
        -11    1    1    2    0    0 -0.39551251833E+01  0.88220541913E+01  0.47215776071E+03  0.47225673384E+03  0.00000000000E+00 0. -1.
         11    1    1    2    0    0 -0.55287000466E+01 -0.76710962197E+01 -0.49860212174E+03  0.49869177660E+03  0.00000000000E+00 0. -1.
        -15    1    1    2    0    0  0.82363507225E+01 -0.32348470905E+00  0.13623941737E+02  0.16022223099E+02  0.17770000000E+01 0. -1.
         15    1    1    2    0    0  0.12474745074E+01 -0.82747326246E+00  0.12820419296E+02  0.13029266463E+02  0.17770000000E+01 0.  1.
</event>
<event>
 6   1  0.1826851E-04  0.5008451E+03  0.7546771E-02  0.9397921E-01
        -11   -1    0    0    0    0  0.00000000000E+00  0.00000000000E+00  0.50000000000E+03  0.50000000000E+03  0.00000000000E+00 0.  1.
         11   -1    0    0    0    0 -0.00000000000E+00 -0.00000000000E+00 -0.50000000000E+03  0.50000000000E+03  0.00000000000E+00 0.  1.
        -11    1    1    2    0    0 -0.34845325542E+01  0.50747923623E+01  0.43635876920E+03  0.43640218943E+03  0.00000000000E+00 0.  1.
         11    1    1    2    0    0 -0.89275968283E+01 -0.11549159782E+00 -0.49907500299E+03  0.49915485967E+03  0.00000000000E+00 0.  1.
        -15    1    1    2    0    0  0.58140348792E+01 -0.19024739419E-02  0.20129746465E+02  0.21027777508E+02  0.17770000000E+01 0. -1.
         15    1    1    2    0    0  0.65980945033E+01 -0.49573982905E+01  0.42586487327E+02  0.43415173393E+02  0.17770000000E+01 0.  1.
</event>
<event>
 6   1  0.1826851E-04  0.4983535E+03  0.7546771E-02  0.9403501E-01
        -11   -1    0    0    0    0  0.00000000000E+00  0.00000000000E+00  0.50000000000E+03  0.50000000000E+03  0.00000000000E+00 0.  1.
         11   -1    0    0    0    0 -0.00000000000E+00 -0.00000000000E+00 -0.50000000000E+03  0.50000000000E+03  0.00000000000E+00 0.  1.
        -11    1    1    2    0    0  0.23959464113E+01 -0.26236553228E+01  0.86034840023E+00  0.36557250756E+01  0.00000000000E+00 0.  1.
         11    1    1    2    0    0 -0.86364851884E+01 -0.37274368991E+01 -0.49833323160E+03  0.49842200230E+03  0.00000000000E+00 0.  1.
        -15    1    1    2    0    0 -0.56605450893E+01 -0.22420628333E+01  0.13931784506E+03  0.13946213930E+03  0.17770000000E+01 0. -1.
         15    1    1    2    0    0  0.11901083866E+02  0.85931550552E+01  0.35815503814E+03  0.35846013333E+03  0.17770000000E+01 0.  1.
</event>
<event>
 6   1  0.1826851E-04  0.5025336E+03  0.7546771E-02  0.9394158E-01
        -11   -1    0    0    0    0  0.00000000000E+00  0.00000000000E+00  0.50000000000E+03  0.50000000000E+03  0.00000000000E+00 0.  1.
         11   -1    0    0    0    0 -0.00000000000E+00 -0.00000000000E+00 -0.50000000000E+03  0.50000000000E+03  0.00000000000E+00 0. -1.
        -11    1    1    2    0    0  0.12503878638E+00 -0.18758505080E+02  0.27529542162E+03  0.27593380785E+03  0.00000000000E+00 0.  1.
         11    1    1    2    0    0  0.70812356214E+01 -0.21589115254E+02 -0.49694730396E+03  0.49746643777E+03  0.00000000000E+00 0. -1.
        -15    1    1    2    0    0 -0.41015257066E+01  0.14391646082E+02  0.34841899592E+02  0.37961265604E+02  0.17770000000E+01 0. -1.
         15    1    1    2    0    0 -0.31047487012E+01  0.25955974252E+02  0.18680998275E+03  0.18863848878E+03  0.17770000000E+01 0.  1.
</event>
<event>
 6   1  0.1826851E-04  0.4850504E+03  0.7546771E-02  0.9433896E-01
        -11   -1    0    0    0    0  0.00000000000E+00  0.00000000000E+00  0.50000000000E+03  0.50000000000E+03  0.00000000000E+00 0.  1.
         11   -1    0    0    0    0 -0.00000000000E+00 -0.00000000000E+00 -0.50000000000E+03  0.50000000000E+03  0.00000000000E+00 0.  1.
        -11    1    1    2    0    0 -0.19070884514E+02 -0.12471551419E+02  0.48311355210E+03  0.48365064091E+03  0.00000000000E+00 0.  1.
         11    1    1    2    0    0  0.66401165268E+01  0.22169765693E+01 -0.48653977247E+03  0.48659013176E+03  0.00000000000E+00 0.  1.
        -15    1    1    2    0    0 -0.24950791908E+01  0.25255819592E+01  0.10659294057E+02  0.11374632442E+02  0.17770000000E+01 0.  1.
         15    1    1    2    0    0  0.14925847178E+02  0.77289928901E+01 -0.72330736837E+01  0.18384594882E+02  0.17770000000E+01 0. -1.
</event>
<event>
 6   1  0.1826851E-04  0.5006924E+03  0.7546771E-02  0.9398262E-01
        -11   -1    0    0    0    0  0.00000000000E+00  0.00000000000E+00  0.50000000000E+03  0.50000000000E+03  0.00000000000E+00 0. -1.
         11   -1    0    0    0    0 -0.00000000000E+00 -0.00000000000E+00 -0.50000000000E+03  0.50000000000E+03  0.00000000000E+00 0. -1.
        -11    1    1    2    0    0 -0.18498823005E+02 -0.23560177827E+02  0.49840825895E+03  0.49930760160E+03  0.00000000000E+00 0. -1.
         11    1    1    2    0    0  0.22130765500E+01 -0.49430929334E+01 -0.12649176176E+03  0.12660765249E+03  0.00000000000E+00 0. -1.
        -15    1    1    2    0    0  0.81460802062E+01  0.17487362813E+02 -0.10252061310E+03  0.10433503880E+03  0.17770000000E+01 0.  1.
         15    1    1    2    0    0  0.81396662488E+01  0.11015907948E+02 -0.26939588408E+03  0.26974970711E+03  0.17770000000E+01 0. -1.
</event>
<event>
 6   1  0.1826851E-04  0.5030198E+03  0.7546771E-02  0.9393078E-01
        -11   -1    0    0    0    0  0.00000000000E+00  0.00000000000E+00  0.50000000000E+03  0.50000000000E+03  0.00000000000E+00 0. -1.
         11   -1    0    0    0    0 -0.00000000000E+00 -0.00000000000E+00 -0.50000000000E+03  0.50000000000E+03  0.00000000000E+00 0. -1.
        -11    1    1    2    0    0 -0.10158598973E+02  0.12818510505E+02  0.46240785531E+03  0.46269702398E+03  0.00000000000E+00 0. -1.
         11    1    1    2    0    0  0.11502793615E+02  0.27000872410E+01 -0.49683973167E+03  0.49698020454E+03  0.00000000000E+00 0. -1.
        -15    1    1    2    0    0 -0.68328012497E+01 -0.11887533236E+02  0.19453888090E+02  0.23866547932E+02  0.17770000000E+01 0.  1.
         15    1    1    2    0    0  0.54886066078E+01 -0.36310645103E+01  0.14977988273E+02  0.16456223555E+02  0.17770000000E+01 0. -1.
</event>
<event>
 6   1  0.1826851E-04  0.5067392E+03  0.7546771E-02  0.9384855E-01
        -11   -1    0    0    0    0  0.00000000000E+00  0.00000000000E+00  0.50000000000E+03  0.50000000000E+03  0.00000000000E+00 0. -1.
         11   -1    0    0    0    0 -0.00000000000E+00 -0.00000000000E+00 -0.50000000000E+03  0.50000000000E+03  0.00000000000E+00 0.  1.
        -11    1    1    2    0    0 -0.44739932425E+02  0.26655148436E+02  0.29369259405E+03  0.29827419984E+03  0.00000000000E+00 0. -1.
         11    1    1    2    0    0 -0.31533953951E+01 -0.61495017646E+01 -0.49321235083E+03  0.49326076601E+03  0.00000000000E+00 0.  1.
        -15    1    1    2    0    0  0.10092022654E+02  0.50171559060E+01  0.74592174543E+02  0.75459731027E+02  0.17770000000E+01 0. -1.
         15    1    1    2    0    0  0.37801305167E+02 -0.25522802577E+02  0.12492758224E+03  0.13300530311E+03  0.17770000000E+01 0.  1.
</event>
<event>
 6   1  0.1826851E-04  0.5000707E+03  0.7546771E-02  0.9399652E-01
        -11   -1    0    0    0    0  0.00000000000E+00  0.00000000000E+00  0.50000000000E+03  0.50000000000E+03  0.00000000000E+00 0. -1.
         11   -1    0    0    0    0 -0.00000000000E+00 -0.00000000000E+00 -0.50000000000E+03  0.50000000000E+03  0.00000000000E+00 0.  1.
        -11    1    1    2    0    0 -0.30638723446E+01  0.12075205745E+02  0.49977405241E+03  0.49992929637E+03  0.00000000000E+00 0. -1.
         11    1    1    2    0    0  0.98122267473E+00  0.11763752108E+01 -0.59988996995E+02  0.60008552865E+02  0.00000000000E+00 0.  1.
        -15    1    1    2    0    0 -0.12804855827E+01 -0.50669843680E+01 -0.25187024493E+03  0.25193072854E+03  0.17770000000E+01 0.  1.
         15    1    1    2    0    0  0.33631352526E+01 -0.81845965875E+01 -0.18791481048E+03  0.18813142222E+03  0.17770000000E+01 0. -1.
</event>
<event>
 6   1  0.1826851E-04  0.4975703E+03  0.7546771E-02  0.9405263E-01
        -11   -1    0    0    0    0  0.00000000000E+00  0.00000000000E+00  0.50000000000E+03  0.50000000000E+03  0.00000000000E+00 0. -1.
         11   -1    0    0    0    0 -0.00000000000E+00 -0.00000000000E+00 -0.50000000000E+03  0.50000000000E+03  0.00000000000E+00 0. -1.
        -11    1    1    2    0    0  0.44810529995E+01 -0.10338128193E+01 -0.24197169706E+01  0.51965022032E+01  0.00000000000E+00 0. -1.
         11    1    1    2    0    0 -0.20578462467E+01  0.70124652946E+01 -0.49596914451E+03  0.49602298506E+03  0.00000000000E+00 0. -1.
        -15    1    1    2    0    0  0.55980713652E+01 -0.68820728863E+01  0.37799784296E+03  0.37810610725E+03  0.17770000000E+01 0. -1.
         15    1    1    2    0    0 -0.80212781181E+01  0.90342041093E+00  0.12039101852E+03  0.12067440549E+03  0.17770000000E+01 0.  1.
</event>
<event>
 6   1  0.1826851E-04  0.5041772E+03  0.7546771E-02  0.9390511E-01
        -11   -1    0    0    0    0  0.00000000000E+00  0.00000000000E+00  0.50000000000E+03  0.50000000000E+03  0.00000000000E+00 0.  1.
         11   -1    0    0    0    0 -0.00000000000E+00 -0.00000000000E+00 -0.50000000000E+03  0.50000000000E+03  0.00000000000E+00 0.  1.
        -11    1    1    2    0    0 -0.92409618340E+01 -0.11981912847E+02  0.45611105901E+03  0.45636198326E+03  0.00000000000E+00 0.  1.
         11    1    1    2    0    0 -0.72500432054E+01 -0.13236598327E+01 -0.49576800654E+03  0.49582278237E+03  0.00000000000E+00 0.  1.
        -15    1    1    2    0    0  0.56750767106E+01  0.88934555750E+01  0.31986405337E+02  0.33728147046E+02  0.17770000000E+01 0. -1.
         15    1    1    2    0    0  0.10815928329E+02  0.44121171048E+01  0.76705421967E+01  0.14087087334E+02  0.17770000000E+01 0.  1.
</event>
<event>
 6   1  0.1826851E-04  0.4591157E+03  0.7546771E-02  0.9496246E-01
        -11   -1    0    0    0    0  0.00000000000E+00  0.00000000000E+00  0.50000000000E+03  0.50000000000E+03  0.00000000000E+00 0.  1.
         11   -1    0    0    0    0 -0.00000000000E+00 -0.00000000000E+00 -0.50000000000E+03  0.50000000000E+03  0.00000000000E+00 0. -1.
        -11    1    1    2    0    0  0.32028587621E+02 -0.11219974498E+02  0.46631391786E+03  0.46754720430E+03  0.00000000000E+00 0.  1.
         11    1    1    2    0    0  0.17279694015E+02 -0.34053706971E+02 -0.45162647494E+03  0.45323803421E+03  0.00000000000E+00 0. -1.
        -15    1    1    2    0    0 -0.27974247835E+02  0.31839795812E+02 -0.27823495312E+02  0.50731013785E+02  0.17770000000E+01 0.  1.
         15    1    1    2    0    0 -0.21334033801E+02  0.13433885657E+02  0.13136052394E+02  0.28483747710E+02  0.17770000000E+01 0. -1.
</event>
<event>
 6   1  0.1826851E-04  0.5012000E+03  0.7546771E-02  0.9397129E-01
        -11   -1    0    0    0    0  0.00000000000E+00  0.00000000000E+00  0.50000000000E+03  0.50000000000E+03  0.00000000000E+00 0.  1.
         11   -1    0    0    0    0 -0.00000000000E+00 -0.00000000000E+00 -0.50000000000E+03  0.50000000000E+03  0.00000000000E+00 0.  1.
        -11    1    1    2    0    0 -0.13063632165E+02  0.11080790071E+02  0.49850573361E+03  0.49879996876E+03  0.00000000000E+00 0.  1.
         11    1    1    2    0    0  0.10475176070E+02 -0.23153798009E+01 -0.43141791027E+03  0.43155127575E+03  0.00000000000E+00 0.  1.
        -15    1    1    2    0    0 -0.47800666337E+01 -0.64570938291E+00 -0.78828030418E+01  0.94107539776E+01  0.17770000000E+01 0.  1.
         15    1    1    2    0    0  0.73685227284E+01 -0.81197008875E+01 -0.59205020292E+02  0.60238001515E+02  0.17770000000E+01 0. -1.
</event>
<event>
 6   1  0.1826851E-04  0.5039515E+03  0.7546771E-02  0.9391011E-01
        -11   -1    0    0    0    0  0.00000000000E+00  0.00000000000E+00  0.50000000000E+03  0.50000000000E+03  0.00000000000E+00 0. -1.
         11   -1    0    0    0    0 -0.00000000000E+00 -0.00000000000E+00 -0.50000000000E+03  0.50000000000E+03  0.00000000000E+00 0. -1.
        -11    1    1    2    0    0 -0.52910380696E+01 -0.14594378542E+02  0.47566622771E+03  0.47591947969E+03  0.00000000000E+00 0. -1.
         11    1    1    2    0    0 -0.61553201248E+01  0.60810010212E+01 -0.49597300914E+03  0.49604847781E+03  0.00000000000E+00 0. -1.
        -15    1    1    2    0    0  0.60632105454E+01  0.10180387395E+02  0.18137094842E+02  0.21737404351E+02  0.17770000000E+01 0.  1.
         15    1    1    2    0    0  0.53831476490E+01 -0.16670098743E+01  0.21696865940E+01  0.62946381507E+01  0.17770000000E+01 0. -1.
</event>
<event>
 6   1  0.1826851E-04  0.5012735E+03  0.7546771E-02  0.9396965E-01
        -11   -1    0    0    0    0  0.00000000000E+00  0.00000000000E+00  0.50000000000E+03  0.50000000000E+03  0.00000000000E+00 0.  1.
         11   -1    0    0    0    0 -0.00000000000E+00 -0.00000000000E+00 -0.50000000000E+03  0.50000000000E+03  0.00000000000E+00 0. -1.
        -11    1    1    2    0    0  0.20595147473E+02  0.55874488675E+02  0.49515852696E+03  0.49872646351E+03  0.00000000000E+00 0.  1.
         11    1    1    2    0    0 -0.13541553423E+02 -0.56766301147E+02 -0.28959092183E+03  0.29541274282E+03  0.00000000000E+00 0. -1.
        -15    1    1    2    0    0  0.13613659148E+01  0.37053285149E+00 -0.55088719563E+02  0.55135427484E+02  0.17770000000E+01 0.  1.
         15    1    1    2    0    0 -0.84149599646E+01  0.52127962135E+00 -0.15047888557E+03  0.15072536619E+03  0.17770000000E+01 0. -1.
</event>
<event>
 6   1  0.1826851E-04  0.5004164E+03  0.7546771E-02  0.9398878E-01
        -11   -1    0    0    0    0  0.00000000000E+00  0.00000000000E+00  0.50000000000E+03  0.50000000000E+03  0.00000000000E+00 0. -1.
         11   -1    0    0    0    0 -0.00000000000E+00 -0.00000000000E+00 -0.50000000000E+03  0.50000000000E+03  0.00000000000E+00 0.  1.
        -11    1    1    2    0    0 -0.11988244387E+02  0.98525443591E+01  0.49934252066E+03  0.49958357016E+03  0.00000000000E+00 0. -1.
         11    1    1    2    0    0  0.60574815901E+01 -0.18762158138E+02 -0.34018774193E+03  0.34075858231E+03  0.00000000000E+00 0.  1.
        -15    1    1    2    0    0  0.23042904795E+01  0.78368511598E+01 -0.94978676857E+02  0.95345858732E+02  0.17770000000E+01 0.  1.
         15    1    1    2    0    0  0.36264723172E+01  0.10727626190E+01 -0.64176101879E+02  0.64311988793E+02  0.17770000000E+01 0.  1.
</event>
<event>
 6   1  0.1826851E-04  0.5031094E+03  0.7546771E-02  0.9392879E-01
        -11   -1    0    0    0    0  0.00000000000E+00  0.00000000000E+00  0.50000000000E+03  0.50000000000E+03  0.00000000000E+00 0.  1.
         11   -1    0    0    0    0 -0.00000000000E+00 -0.00000000000E+00 -0.50000000000E+03  0.50000000000E+03  0.00000000000E+00 0. -1.
        -11    1    1    2    0    0  0.85816804014E+02  0.57615805129E+02  0.41729476805E+03  0.42990583654E+03  0.00000000000E+00 0.  1.
         11    1    1    2    0    0 -0.81344181482E+02 -0.54598328958E+02 -0.48713691817E+03  0.49689056183E+03  0.00000000000E+00 0. -1.
        -15    1    1    2    0    0 -0.57712714589E+01 -0.53095810912E+01  0.69549102177E+02  0.70012388677E+02  0.17770000000E+01 0.  1.
         15    1    1    2    0    0  0.12986489265E+01  0.22921049199E+01  0.29304794538E+00  0.31912129507E+01  0.17770000000E+01 0. -1.
</event>
<event>
 6   1  0.1826851E-04  0.4928993E+03  0.7546771E-02  0.9415840E-01
        -11   -1    0    0    0    0  0.00000000000E+00  0.00000000000E+00  0.50000000000E+03  0.50000000000E+03  0.00000000000E+00 0. -1.
         11   -1    0    0    0    0 -0.00000000000E+00 -0.00000000000E+00 -0.50000000000E+03  0.50000000000E+03  0.00000000000E+00 0. -1.
        -11    1    1    2    0    0  0.59556623633E+01 -0.34444892368E+01  0.49037286627E+03  0.49042112760E+03  0.00000000000E+00 0. -1.
         11    1    1    2    0    0  0.54765096105E+01  0.63219121939E+01 -0.49539005115E+03  0.49546065586E+03  0.00000000000E+00 0. -1.
        -15    1    1    2    0    0 -0.44195442093E+01  0.11565314817E+01  0.21561189873E+01  0.53550456743E+01  0.17770000000E+01 0.  1.
         15    1    1    2    0    0 -0.70126277645E+01 -0.40339544388E+01  0.28610658863E+01  0.87631708635E+01  0.17770000000E+01 0. -1.
</event>
<event>
 6   1  0.1826851E-04  0.5040547E+03  0.7546771E-02  0.9390782E-01
        -11   -1    0    0    0    0  0.00000000000E+00  0.00000000000E+00  0.50000000000E+03  0.50000000000E+03  0.00000000000E+00 0.  1.
         11   -1    0    0    0    0 -0.00000000000E+00 -0.00000000000E+00 -0.50000000000E+03  0.50000000000E+03  0.00000000000E+00 0. -1.
        -11    1    1    2    0    0 -0.25229500396E+02 -0.79240652396E+01  0.49976874558E+02  0.56542077170E+02  0.00000000000E+00 0.  1.
         11    1    1    2    0    0  0.10629137554E+02  0.15163863829E+02 -0.49559942528E+03  0.49594527084E+03  0.00000000000E+00 0. -1.
        -15    1    1    2    0    0  0.71005725877E+01 -0.17732378360E+02  0.38640172642E+03  0.38687763864E+03  0.17770000000E+01 0.  1.
         15    1    1    2    0    0  0.74997902540E+01  0.10492579770E+02  0.59220824302E+02  0.60635013351E+02  0.17770000000E+01 0. -1.
</event>
<event>
 6   1  0.1826851E-04  0.5109086E+03  0.7546771E-02  0.9375726E-01
        -11   -1    0    0    0    0  0.00000000000E+00  0.00000000000E+00  0.50000000000E+03  0.50000000000E+03  0.00000000000E+00 0. -1.
         11   -1    0    0    0    0 -0.00000000000E+00 -0.00000000000E+00 -0.50000000000E+03  0.50000000000E+03  0.00000000000E+00 0. -1.
        -11    1    1    2    0    0  0.40050720546E+02 -0.32619692005E+02  0.27926106168E+03  0.28399796670E+03  0.00000000000E+00 0. -1.
         11    1    1    2    0    0 -0.13457642658E+02 -0.87012999971E+01 -0.48882878490E+03  0.48909140425E+03  0.00000000000E+00 0. -1.
        -15    1    1    2    0    0 -0.31987836445E+01 -0.19169005796E+02  0.75316225760E+02  0.77803435603E+02  0.17770000000E+01 0. -1.
         15    1    1    2    0    0 -0.23394294244E+02  0.60489997798E+02  0.13425149746E+03  0.14910719344E+03  0.17770000000E+01 0.  1.
</event>
<event>
 6   1  0.1826851E-04  0.5000335E+03  0.7546771E-02  0.9399735E-01
        -11   -1    0    0    0    0  0.00000000000E+00  0.00000000000E+00  0.50000000000E+03  0.50000000000E+03  0.00000000000E+00 0. -1.
         11   -1    0    0    0    0 -0.00000000000E+00 -0.00000000000E+00 -0.50000000000E+03  0.50000000000E+03  0.00000000000E+00 0.  1.
        -11    1    1    2    0    0 -0.61699883574E+01  0.10618809177E+02  0.49981559792E+03  0.49996645867E+03  0.00000000000E+00 0. -1.
         11    1    1    2    0    0  0.42098492906E+01 -0.21913529312E+01 -0.21104755384E+03  0.21110091151E+03  0.00000000000E+00 0.  1.
        -15    1    1    2    0    0  0.73471427178E+00 -0.22176601574E+01 -0.62191854502E+02  0.62261081881E+02  0.17770000000E+01 0. -1.
         15    1    1    2    0    0  0.12254247951E+01 -0.62097960884E+01 -0.22657618958E+03  0.22667154795E+03  0.17770000000E+01 0.  1.
</event>
<event>
 6   1  0.1826851E-04  0.5002331E+03  0.7546771E-02  0.9399288E-01
        -11   -1    0    0    0    0  0.00000000000E+00  0.00000000000E+00  0.50000000000E+03  0.50000000000E+03  0.00000000000E+00 0. -1.
         11   -1    0    0    0    0 -0.00000000000E+00 -0.00000000000E+00 -0.50000000000E+03  0.50000000000E+03  0.00000000000E+00 0. -1.
        -11    1    1    2    0    0  0.10135536982E+02 -0.11577353177E+02  0.49953001656E+03  0.49976694735E+03  0.00000000000E+00 0. -1.
         11    1    1    2    0    0 -0.87775235835E+01 -0.30826620323E+01 -0.26895421420E+03  0.26911506287E+03  0.00000000000E+00 0. -1.
        -15    1    1    2    0    0 -0.29490569531E+01  0.72241425554E+01 -0.11260834384E+03  0.11289234697E+03  0.17770000000E+01 0.  1.
         15    1    1    2    0    0  0.15910435550E+01  0.74358726542E+01 -0.11796745852E+03  0.11822564282E+03  0.17770000000E+01 0. -1.
</event>
<event>
 6   1  0.1826851E-04  0.5005506E+03  0.7546771E-02  0.9398579E-01
        -11   -1    0    0    0    0  0.00000000000E+00  0.00000000000E+00  0.50000000000E+03  0.50000000000E+03  0.00000000000E+00 0. -1.
         11   -1    0    0    0    0 -0.00000000000E+00 -0.00000000000E+00 -0.50000000000E+03  0.50000000000E+03  0.00000000000E+00 0.  1.
        -11    1    1    2    0    0 -0.56553522723E+01 -0.56861830608E+01  0.85476837501E+02  0.85852230235E+02  0.00000000000E+00 0. -1.
         11    1    1    2    0    0 -0.27642524058E+02  0.13130877538E+02 -0.49851095445E+03  0.49944939762E+03  0.00000000000E+00 0.  1.
        -15    1    1    2    0    0  0.99444085564E+01 -0.47012839131E+01  0.21076484472E+03  0.21105916429E+03  0.17770000000E+01 0.  1.
         15    1    1    2    0    0  0.23353467774E+02 -0.27434105644E+01  0.20226927223E+03  0.20363920785E+03  0.17770000000E+01 0. -1.
</event>
<event>
 6   1  0.1826851E-04  0.5026895E+03  0.7546771E-02  0.9393812E-01
        -11   -1    0    0    0    0  0.00000000000E+00  0.00000000000E+00  0.50000000000E+03  0.50000000000E+03  0.00000000000E+00 0. -1.
         11   -1    0    0    0    0 -0.00000000000E+00 -0.00000000000E+00 -0.50000000000E+03  0.50000000000E+03  0.00000000000E+00 0.  1.
        -11    1    1    2    0    0  0.79119046976E+01 -0.11754199011E+02  0.49710864231E+03  0.49731052843E+03  0.00000000000E+00 0. -1.
         11    1    1    2    0    0 -0.75302064577E+01 -0.26062419237E+01 -0.47830635388E+03  0.47837272567E+03  0.00000000000E+00 0.  1.
        -15    1    1    2    0    0  0.19670897349E+01  0.62353089513E+01 -0.80606166548E+01  0.10529947274E+02  0.17770000000E+01 0.  1.
         15    1    1    2    0    0 -0.23487879748E+01  0.81251319837E+01 -0.10741671779E+02  0.13786798625E+02  0.17770000000E+01 0. -1.
</event>
<event>
 6   1  0.1826851E-04  0.4884101E+03  0.7546771E-02  0.9426123E-01
        -11   -1    0    0    0    0  0.00000000000E+00  0.00000000000E+00  0.50000000000E+03  0.50000000000E+03  0.00000000000E+00 0.  1.
         11   -1    0    0    0    0 -0.00000000000E+00 -0.00000000000E+00 -0.50000000000E+03  0.50000000000E+03  0.00000000000E+00 0. -1.
        -11    1    1    2    0    0  0.87270092797E+01 -0.93804859235E+01  0.48606502550E+03  0.48623385652E+03  0.00000000000E+00 0.  1.
         11    1    1    2    0    0 -0.12343190313E+02 -0.10685595851E+02 -0.49053772956E+03  0.49080933205E+03  0.00000000000E+00 0. -1.
        -15    1    1    2    0    0  0.59727222948E+01  0.17152143711E+02  0.27055580682E+01  0.18448501807E+02  0.17770000000E+01 0.  1.
         15    1    1    2    0    0 -0.23565412617E+01  0.29139380643E+01  0.17671459857E+01  0.45083096273E+01  0.17770000000E+01 0. -1.
</event>
<event>
 6   1  0.1826851E-04  0.5018989E+03  0.7546771E-02  0.9395571E-01
        -11   -1    0    0    0    0  0.00000000000E+00  0.00000000000E+00  0.50000000000E+03  0.50000000000E+03  0.00000000000E+00 0. -1.
         11   -1    0    0    0    0 -0.00000000000E+00 -0.00000000000E+00 -0.50000000000E+03  0.50000000000E+03  0.00000000000E+00 0.  1.
        -11    1    1    2    0    0  0.96597488579E+01  0.42695439770E+01  0.49798908847E+03  0.49810106604E+03  0.00000000000E+00 0. -1.
         11    1    1    2    0    0  0.78242958405E+01  0.67188040877E+01 -0.43864575992E+03  0.43876698216E+03  0.00000000000E+00 0.  1.
        -15    1    1    2    0    0 -0.82213289196E+01 -0.76660059796E+01 -0.27717863579E+02  0.29963237262E+02  0.17770000000E+01 0.  1.
         15    1    1    2    0    0 -0.92627157789E+01 -0.33223420851E+01 -0.31625464969E+02  0.33168714537E+02  0.17770000000E+01 0. -1.
</event>
<event>
 6   1  0.1826851E-04  0.5024668E+03  0.7546771E-02  0.9394307E-01
        -11   -1    0    0    0    0  0.00000000000E+00  0.00000000000E+00  0.50000000000E+03  0.50000000000E+03  0.00000000000E+00 0.  1.
         11   -1    0    0    0    0 -0.00000000000E+00 -0.00000000000E+00 -0.50000000000E+03  0.50000000000E+03  0.00000000000E+00 0.  1.
        -11    1    1    2    0    0  0.24558445348E+02  0.18243686797E+02  0.43373882990E+03  0.43481642322E+03  0.00000000000E+00 0.  1.
         11    1    1    2    0    0 -0.82796791084E+01 -0.60994064603E+01 -0.49742692426E+03  0.49753321580E+03  0.00000000000E+00 0.  1.
        -15    1    1    2    0    0 -0.34715221802E+01 -0.29004764565E+01  0.30117936841E+02  0.30507574116E+02  0.17770000000E+01 0.  1.
         15    1    1    2    0    0 -0.12807244059E+02 -0.92438038799E+01  0.33570157523E+02  0.37142786860E+02  0.17770000000E+01 0. -1.
</event>
<event>
 6   1  0.1826851E-04  0.5007401E+03  0.7546771E-02  0.9398155E-01
        -11   -1    0    0    0    0  0.00000000000E+00  0.00000000000E+00  0.50000000000E+03  0.50000000000E+03  0.00000000000E+00 0.  1.
         11   -1    0    0    0    0 -0.00000000000E+00 -0.00000000000E+00 -0.50000000000E+03  0.50000000000E+03  0.00000000000E+00 0. -1.
        -11    1    1    2    0    0  0.76937107669E+01 -0.15632396924E+01  0.37742718967E+03  0.37750883488E+03  0.00000000000E+00 0.  1.
         11    1    1    2    0    0  0.73771511401E+01  0.68560171238E+01 -0.49915831130E+03  0.49925989932E+03  0.00000000000E+00 0. -1.
        -15    1    1    2    0    0 -0.55590026580E+01 -0.72194581415E+01  0.56203500279E+02  0.56965026630E+02  0.17770000000E+01 0.  1.
         15    1    1    2    0    0 -0.95118592490E+01  0.19266807102E+01  0.65527621350E+02  0.66266239170E+02  0.17770000000E+01 0. -1.
</event>
<event>
 6   1  0.1826851E-04  0.4892873E+03  0.7546771E-02  0.9424104E-01
        -11   -1    0    0    0    0  0.00000000000E+00  0.00000000000E+00  0.50000000000E+03  0.50000000000E+03  0.00000000000E+00 0. -1.
         11   -1    0    0    0    0 -0.00000000000E+00 -0.00000000000E+00 -0.50000000000E+03  0.50000000000E+03  0.00000000000E+00 0. -1.
        -11    1    1    2    0    0 -0.43724430242E+01 -0.97841742474E+01  0.48413416926E+03  0.48425276682E+03  0.00000000000E+00 0. -1.
         11    1    1    2    0    0 -0.39254828432E+01 -0.58638651220E+01 -0.49448650693E+03  0.49453685390E+03  0.00000000000E+00 0. -1.
        -15    1    1    2    0    0  0.32117349929E+01  0.39727962815E+01  0.46955049421E+01  0.71626704252E+01  0.17770000000E+01 0. -1.
         15    1    1    2    0    0  0.50861908745E+01  0.11675243088E+02  0.56568327205E+01  0.14047708860E+02  0.17770000000E+01 0.  1.
</event>
<event>
 6   1  0.1826851E-04  0.5011936E+03  0.7546771E-02  0.9397143E-01
        -11   -1    0    0    0    0  0.00000000000E+00  0.00000000000E+00  0.50000000000E+03  0.50000000000E+03  0.00000000000E+00 0. -1.
         11   -1    0    0    0    0 -0.00000000000E+00 -0.00000000000E+00 -0.50000000000E+03  0.50000000000E+03  0.00000000000E+00 0.  1.
        -11    1    1    2    0    0 -0.12411230732E+01 -0.72242196144E+01  0.42769085610E+03  0.42775366524E+03  0.00000000000E+00 0. -1.
         11    1    1    2    0    0 -0.38466679486E+01 -0.90402997342E+01 -0.49870967206E+03  0.49880643628E+03  0.00000000000E+00 0.  1.
        -15    1    1    2    0    0  0.96090541729E+00  0.10165908935E+01  0.43567956830E+01  0.49087874153E+01  0.17770000000E+01 0. -1.
         15    1    1    2    0    0  0.41268856044E+01  0.15247928455E+02  0.66662020271E+02  0.68531111056E+02  0.17770000000E+01 0.  1.
</event>
<event>
 6   1  0.1826851E-04  0.5048916E+03  0.7546771E-02  0.9388930E-01
        -11   -1    0    0    0    0  0.00000000000E+00  0.00000000000E+00  0.50000000000E+03  0.50000000000E+03  0.00000000000E+00 0. -1.
         11   -1    0    0    0    0 -0.00000000000E+00 -0.00000000000E+00 -0.50000000000E+03  0.50000000000E+03  0.00000000000E+00 0. -1.
        -11    1    1    2    0    0  0.87906354967E+01 -0.15444161659E+02  0.49478940567E+03  0.49510842587E+03  0.00000000000E+00 0. -1.
         11    1    1    2    0    0 -0.70748968893E+01 -0.11208427328E+02 -0.45100560804E+03  0.45120033410E+03  0.00000000000E+00 0. -1.
        -15    1    1    2    0    0 -0.80710304348E+00  0.68288280807E+01 -0.26107716075E+02  0.27056512634E+02  0.17770000000E+01 0. -1.
         15    1    1    2    0    0 -0.90863556392E+00  0.19823760906E+02 -0.17676081557E+02  0.26634727392E+02  0.17770000000E+01 0.  1.
</event>
<event>
 6   1  0.1826851E-04  0.5004933E+03  0.7546771E-02  0.9398707E-01
        -11   -1    0    0    0    0  0.00000000000E+00  0.00000000000E+00  0.50000000000E+03  0.50000000000E+03  0.00000000000E+00 0.  1.
         11   -1    0    0    0    0 -0.00000000000E+00 -0.00000000000E+00 -0.50000000000E+03  0.50000000000E+03  0.00000000000E+00 0.  1.
        -11    1    1    2    0    0  0.47365651963E+01  0.37747230231E+01  0.15082330314E+02  0.16253008074E+02  0.00000000000E+00 0.  1.
         11    1    1    2    0    0 -0.19694003894E+02 -0.89748093121E+01 -0.49903762817E+03  0.49950671199E+03  0.00000000000E+00 0.  1.
        -15    1    1    2    0    0  0.11223061122E+02  0.50034134180E+01  0.34508832160E+03  0.34531159650E+03  0.17770000000E+01 0.  1.
         15    1    1    2    0    0  0.37343775754E+01  0.19667287087E+00  0.13886697626E+03  0.13892868343E+03  0.17770000000E+01 0. -1.
</event>
<event>
 6   1  0.1826851E-04  0.4893140E+03  0.7546771E-02  0.9424043E-01
        -11   -1    0    0    0    0  0.00000000000E+00  0.00000000000E+00  0.50000000000E+03  0.50000000000E+03  0.00000000000E+00 0.  1.
         11   -1    0    0    0    0 -0.00000000000E+00 -0.00000000000E+00 -0.50000000000E+03  0.50000000000E+03  0.00000000000E+00 0.  1.
        -11    1    1    2    0    0  0.56602812800E+01  0.11463454196E+02  0.48488733345E+03  0.48505584803E+03  0.00000000000E+00 0.  1.
         11    1    1    2    0    0 -0.65761458094E+01  0.64903756430E+01 -0.49369028830E+03  0.49377674249E+03  0.00000000000E+00 0.  1.
        -15    1    1    2    0    0 -0.20047250441E+01 -0.10313321868E+02  0.65166124609E+01  0.12490296130E+02  0.17770000000E+01 0.  1.
         15    1    1    2    0    0  0.29205895735E+01 -0.76405079711E+01  0.22863423854E+01  0.86771133458E+01  0.17770000000E+01 0. -1.
</event>
<event>
 6   1  0.1826851E-04  0.5024546E+03  0.7546771E-02  0.9394334E-01
        -11   -1    0    0    0    0  0.00000000000E+00  0.00000000000E+00  0.50000000000E+03  0.50000000000E+03  0.00000000000E+00 0.  1.
         11   -1    0    0    0    0 -0.00000000000E+00 -0.00000000000E+00 -0.50000000000E+03  0.50000000000E+03  0.00000000000E+00 0.  1.
        -11    1    1    2    0    0 -0.12803100389E+02  0.14223042220E+02  0.49717726687E+03  0.49754542406E+03  0.00000000000E+00 0.  1.
         11    1    1    2    0    0  0.45245595016E+01 -0.15397206043E+02 -0.48876326912E+03  0.48902666475E+03  0.00000000000E+00 0.  1.
        -15    1    1    2    0    0  0.39281424931E+01 -0.10259048809E+01 -0.12921612916E+01  0.46162965756E+01  0.17770000000E+01 0.  1.
         15    1    1    2    0    0  0.43503983946E+01  0.22000687039E+01 -0.71218364630E+01  0.88116146136E+01  0.17770000000E+01 0. -1.
</event>
<event>
 6   1  0.1826851E-04  0.5011236E+03  0.7546771E-02  0.9397299E-01
        -11   -1    0    0    0    0  0.00000000000E+00  0.00000000000E+00  0.50000000000E+03  0.50000000000E+03  0.00000000000E+00 0. -1.
         11   -1    0    0    0    0 -0.00000000000E+00 -0.00000000000E+00 -0.50000000000E+03  0.50000000000E+03  0.00000000000E+00 0. -1.
        -11    1    1    2    0    0 -0.14181174158E+02 -0.68581448392E+01  0.29557577420E+03  0.29599523331E+03  0.00000000000E+00 0. -1.
         11    1    1    2    0    0 -0.10549957372E+02  0.72002044189E+01 -0.49871282718E+03  0.49887636598E+03  0.00000000000E+00 0. -1.
        -15    1    1    2    0    0  0.23702710660E+02 -0.22939489929E+01  0.19600548831E+03  0.19745477931E+03  0.17770000000E+01 0. -1.
         15    1    1    2    0    0  0.10284208695E+01  0.19518894132E+01  0.71315646651E+01  0.76736213966E+01  0.17770000000E+01 0.  1.
</event>
<event>
 6   1  0.1826851E-04  0.5002978E+03  0.7546771E-02  0.9399144E-01
        -11   -1    0    0    0    0  0.00000000000E+00  0.00000000000E+00  0.50000000000E+03  0.50000000000E+03  0.00000000000E+00 0.  1.
         11   -1    0    0    0    0 -0.00000000000E+00 -0.00000000000E+00 -0.50000000000E+03  0.50000000000E+03  0.00000000000E+00 0. -1.
        -11    1    1    2    0    0 -0.37996631895E+01  0.86468181248E+01  0.49961292125E+03  0.49970218729E+03  0.00000000000E+00 0.  1.
         11    1    1    2    0    0  0.24191150969E+01  0.34022896677E+01 -0.23884530714E+03  0.23888178758E+03  0.00000000000E+00 0. -1.
        -15    1    1    2    0    0  0.29836860568E+01 -0.98967012872E+01 -0.88645889752E+02  0.89264206588E+02  0.17770000000E+01 0. -1.
         15    1    1    2    0    0 -0.16031379643E+01 -0.21524065053E+01 -0.17212172435E+03  0.17215181855E+03  0.17770000000E+01 0.  1.
</event>
<event>
 6   1  0.1826851E-04  0.5022723E+03  0.7546771E-02  0.9394740E-01
        -11   -1    0    0    0    0  0.00000000000E+00  0.00000000000E+00  0.50000000000E+03  0.50000000000E+03  0.00000000000E+00 0. -1.
         11   -1    0    0    0    0 -0.00000000000E+00 -0.00000000000E+00 -0.50000000000E+03  0.50000000000E+03  0.00000000000E+00 0. -1.
        -11    1    1    2    0    0 -0.58829495447E+01 -0.47599024054E+01  0.49767014131E+03  0.49772767184E+03  0.00000000000E+00 0. -1.
         11    1    1    2    0    0  0.50506291679E+01  0.59747874777E+01 -0.48985273213E+03  0.48991520298E+03  0.00000000000E+00 0. -1.
        -15    1    1    2    0    0  0.26236586899E+01  0.27000715191E+01 -0.61160201000E+01  0.73984729501E+01  0.17770000000E+01 0. -1.
         15    1    1    2    0    0 -0.17913383132E+01 -0.39149565915E+01 -0.17013890835E+01  0.49586522240E+01  0.17770000000E+01 0.  1.
</event>
<event>
 6   1  0.1826851E-04  0.5304391E+03  0.7546771E-02  0.9334163E-01
        -11   -1    0    0    0    0  0.00000000000E+00  0.00000000000E+00  0.50000000000E+03  0.50000000000E+03  0.00000000000E+00 0. -1.
         11   -1    0    0    0    0 -0.00000000000E+00 -0.00000000000E+00 -0.50000000000E+03  0.50000000000E+03  0.00000000000E+00 0. -1.
        -11    1    1    2    0    0 -0.60727816959E+02  0.36923266247E+02  0.31348706886E+03  0.32144258847E+03  0.00000000000E+00 0. -1.
         11    1    1    2    0    0 -0.44779255382E+01  0.58104296142E+01 -0.46950360009E+03  0.46956090489E+03  0.00000000000E+00 0. -1.
        -15    1    1    2    0    0  0.29976926483E+02 -0.46705497615E+01 -0.12357322490E+02  0.32806878922E+02  0.17770000000E+01 0. -1.
         15    1    1    2    0    0  0.35228816014E+02 -0.38063146099E+02  0.16837385372E+03  0.17618962771E+03  0.17770000000E+01 0.  1.
</event>
<event>
 6   1  0.1826851E-04  0.5002201E+03  0.7546771E-02  0.9399317E-01
        -11   -1    0    0    0    0  0.00000000000E+00  0.00000000000E+00  0.50000000000E+03  0.50000000000E+03  0.00000000000E+00 0.  1.
         11   -1    0    0    0    0 -0.00000000000E+00 -0.00000000000E+00 -0.50000000000E+03  0.50000000000E+03  0.00000000000E+00 0. -1.
        -11    1    1    2    0    0  0.29113134832E+01  0.62820940027E+01  0.17945836632E+03  0.17959188649E+03  0.00000000000E+00 0.  1.
         11    1    1    2    0    0  0.10686825746E+02 -0.62815417456E+01 -0.49962618094E+03  0.49977993827E+03  0.00000000000E+00 0. -1.
        -15    1    1    2    0    0 -0.55681121509E+01 -0.48600210861E+01  0.14986935245E+03  0.15006200122E+03  0.17770000000E+01 0.  1.
         15    1    1    2    0    0 -0.80300270781E+01  0.48594688290E+01  0.17029846218E+03  0.17056617402E+03  0.17770000000E+01 0. -1.
</event>
<event>
 6   1  0.1826851E-04  0.5079376E+03  0.7546771E-02  0.9382222E-01
        -11   -1    0    0    0    0  0.00000000000E+00  0.00000000000E+00  0.50000000000E+03  0.50000000000E+03  0.00000000000E+00 0. -1.
         11   -1    0    0    0    0 -0.00000000000E+00 -0.00000000000E+00 -0.50000000000E+03  0.50000000000E+03  0.00000000000E+00 0.  1.
        -11    1    1    2    0    0 -0.20604935543E+02  0.14904690458E+02  0.46784881359E+03  0.46853945996E+03  0.00000000000E+00 0. -1.
         11    1    1    2    0    0  0.98537609262E+01  0.76872459970E+01 -0.49190365581E+03  0.49206239132E+03  0.00000000000E+00 0.  1.
        -15    1    1    2    0    0 -0.11009779972E+01 -0.17776180425E+02  0.16979682622E+02  0.24671280753E+02  0.17770000000E+01 0. -1.
         15    1    1    2    0    0  0.11852152614E+02 -0.48157560302E+01  0.70751595988E+01  0.14726867966E+02  0.17770000000E+01 0.  1.
</event>
<event>
 6   1  0.1826851E-04  0.5049517E+03  0.7546771E-02  0.9388798E-01
        -11   -1    0    0    0    0  0.00000000000E+00  0.00000000000E+00  0.50000000000E+03  0.50000000000E+03  0.00000000000E+00 0.  1.
         11   -1    0    0    0    0 -0.00000000000E+00 -0.00000000000E+00 -0.50000000000E+03  0.50000000000E+03  0.00000000000E+00 0. -1.
        -11    1    1    2    0    0  0.25113678913E+02 -0.10991544644E+02  0.38463865815E+02  0.47233249895E+02  0.00000000000E+00 0.  1.
         11    1    1    2    0    0  0.85013163484E+01  0.13407371671E+02 -0.49479366742E+03  0.49504828382E+03  0.00000000000E+00 0. -1.
        -15    1    1    2    0    0 -0.23424331195E+02  0.16197940250E+01  0.35552762080E+03  0.35630656730E+03  0.17770000000E+01 0.  1.
         15    1    1    2    0    0 -0.10190664067E+02 -0.40356210526E+01  0.10080218080E+03  0.10141189898E+03  0.17770000000E+01 0. -1.
</event>
<event>
 6   1  0.1826851E-04  0.5006599E+03  0.7546771E-02  0.9398334E-01
        -11   -1    0    0    0    0  0.00000000000E+00  0.00000000000E+00  0.50000000000E+03  0.50000000000E+03  0.00000000000E+00 0.  1.
         11   -1    0    0    0    0 -0.00000000000E+00 -0.00000000000E+00 -0.50000000000E+03  0.50000000000E+03  0.00000000000E+00 0.  1.
        -11    1    1    2    0    0 -0.12924558523E+02  0.55077940618E+01  0.27672950822E+03  0.27708590857E+03  0.00000000000E+00 0.  1.
         11    1    1    2    0    0 -0.21127183627E+01  0.70202202692E+01 -0.49928629104E+03  0.49934011204E+03  0.00000000000E+00 0.  1.
        -15    1    1    2    0    0  0.18695362859E+01 -0.42018933671E+01  0.32550256709E+02  0.32921543321E+02  0.17770000000E+01 0. -1.
         15    1    1    2    0    0  0.13167740600E+02 -0.83261209640E+01  0.19000652611E+03  0.19065243606E+03  0.17770000000E+01 0.  1.
</event>
<event>
 6   1  0.1826851E-04  0.5003387E+03  0.7546771E-02  0.9399052E-01
        -11   -1    0    0    0    0  0.00000000000E+00  0.00000000000E+00  0.50000000000E+03  0.50000000000E+03  0.00000000000E+00 0. -1.
         11   -1    0    0    0    0 -0.00000000000E+00 -0.00000000000E+00 -0.50000000000E+03  0.50000000000E+03  0.00000000000E+00 0.  1.
        -11    1    1    2    0    0  0.52741056642E+01  0.12463109769E+02  0.20033931628E+03  0.20079588378E+03  0.00000000000E+00 0. -1.
         11    1    1    2    0    0  0.37880737244E+01 -0.11670209533E+02 -0.49951062212E+03  0.49966129018E+03  0.00000000000E+00 0.  1.
        -15    1    1    2    0    0 -0.63593861707E+01  0.15524548817E+01  0.27148393808E+03  0.27156866217E+03  0.17770000000E+01 0. -1.
         15    1    1    2    0    0 -0.27027932179E+01 -0.23453551181E+01  0.27687367762E+02  0.27974163873E+02  0.17770000000E+01 0. -1.
</event>
<event>
 6   1  0.1826851E-04  0.5044517E+03  0.7546771E-02  0.9389903E-01
        -11   -1    0    0    0    0  0.00000000000E+00  0.00000000000E+00  0.50000000000E+03  0.50000000000E+03  0.00000000000E+00 0. -1.
         11   -1    0    0    0    0 -0.00000000000E+00 -0.00000000000E+00 -0.50000000000E+03  0.50000000000E+03  0.00000000000E+00 0. -1.
        -11    1    1    2    0    0 -0.28730391771E+01 -0.59113909036E+02  0.16332090841E+03  0.17371363712E+03  0.00000000000E+00 0. -1.
         11    1    1    2    0    0 -0.20603018263E+02  0.48336528543E+02 -0.49275467086E+03  0.49554825195E+03  0.00000000000E+00 0. -1.
        -15    1    1    2    0    0  0.13973770982E+02  0.11631309508E+02  0.25833512897E+03  0.25898021204E+03  0.17770000000E+01 0. -1.
         15    1    1    2    0    0  0.95022864577E+01 -0.85392901483E+00  0.71098633478E+02  0.71757898897E+02  0.17770000000E+01 0.  1.
</event>
<event>
 6   1  0.1826851E-04  0.5031220E+03  0.7546771E-02  0.9392851E-01
        -11   -1    0    0    0    0  0.00000000000E+00  0.00000000000E+00  0.50000000000E+03  0.50000000000E+03  0.00000000000E+00 0. -1.
         11   -1    0    0    0    0 -0.00000000000E+00 -0.00000000000E+00 -0.50000000000E+03  0.50000000000E+03  0.00000000000E+00 0.  1.
        -11    1    1    2    0    0  0.15957564607E+02 -0.26373277882E+02  0.49592093276E+03  0.49687801843E+03  0.00000000000E+00 0. -1.
         11    1    1    2    0    0 -0.76214572400E+00 -0.72290517179E+01 -0.21918395825E+03  0.21930446327E+03  0.00000000000E+00 0.  1.
        -15    1    1    2    0    0 -0.35499071071E+01  0.34682566099E+02 -0.87434838522E+02  0.94146114885E+02  0.17770000000E+01 0. -1.
         15    1    1    2    0    0 -0.11645511776E+02 -0.10802364989E+01 -0.18930213598E+03  0.18967140341E+03  0.17770000000E+01 0.  1.
</event>
<event>
 6   1  0.1826851E-04  0.4966990E+03  0.7546771E-02  0.9407226E-01
        -11   -1    0    0    0    0  0.00000000000E+00  0.00000000000E+00  0.50000000000E+03  0.50000000000E+03  0.00000000000E+00 0. -1.
         11   -1    0    0    0    0 -0.00000000000E+00 -0.00000000000E+00 -0.50000000000E+03  0.50000000000E+03  0.00000000000E+00 0.  1.
        -11    1    1    2    0    0  0.57879091434E+01 -0.28423981837E+01  0.23527483264E+01  0.68640035238E+01  0.00000000000E+00 0. -1.
         11    1    1    2    0    0  0.12151963532E+02  0.16882207247E+02 -0.49712163154E+03  0.49755662560E+03  0.00000000000E+00 0.  1.
        -15    1    1    2    0    0  0.66793481090E+00 -0.44752137265E+01  0.35566395122E+02  0.35897073220E+02  0.17770000000E+01 0.  1.
         15    1    1    2    0    0 -0.18607807486E+02 -0.95645953363E+01  0.45920248809E+03  0.45968229766E+03  0.17770000000E+01 0. -1.
</event>
<event>
 6   1  0.1826851E-04  0.5033851E+03  0.7546771E-02  0.9392267E-01
        -11   -1    0    0    0    0  0.00000000000E+00  0.00000000000E+00  0.50000000000E+03  0.50000000000E+03  0.00000000000E+00 0. -1.
         11   -1    0    0    0    0 -0.00000000000E+00 -0.00000000000E+00 -0.50000000000E+03  0.50000000000E+03  0.00000000000E+00 0.  1.
        -11    1    1    2    0    0  0.15334747956E+02  0.55880350785E+01  0.48395172930E+03  0.48422686514E+03  0.00000000000E+00 0. -1.
         11    1    1    2    0    0 -0.11694672030E+02  0.67471919094E+01 -0.49643131425E+03  0.49661488069E+03  0.00000000000E+00 0.  1.
        -15    1    1    2    0    0 -0.23636128905E+01 -0.63045122702E+01  0.27136212931E+01  0.74736209687E+01  0.17770000000E+01 0. -1.
         15    1    1    2    0    0 -0.12764630353E+01 -0.60307147178E+01  0.97659636561E+01  0.11684633200E+02  0.17770000000E+01 0.  1.
</event>
<event>
 6   1  0.1826851E-04  0.5006930E+03  0.7546771E-02  0.9398260E-01
        -11   -1    0    0    0    0  0.00000000000E+00  0.00000000000E+00  0.50000000000E+03  0.50000000000E+03  0.00000000000E+00 0.  1.
         11   -1    0    0    0    0 -0.00000000000E+00 -0.00000000000E+00 -0.50000000000E+03  0.50000000000E+03  0.00000000000E+00 0. -1.
        -11    1    1    2    0    0  0.28640383655E+02  0.29379963236E+02  0.49761837610E+03  0.49930702183E+03  0.00000000000E+00 0.  1.
         11    1    1    2    0    0 -0.21261497496E+02 -0.72979790658E+01 -0.23288637169E+03  0.23396874555E+03  0.00000000000E+00 0. -1.
        -15    1    1    2    0    0  0.53806403966E+01 -0.99679781184E+01 -0.51536653168E+02  0.52796744480E+02  0.17770000000E+01 0.  1.
         15    1    1    2    0    0 -0.12759526557E+02 -0.12114006051E+02 -0.21319535125E+03  0.21392748814E+03  0.17770000000E+01 0. -1.
</event>
<event>
 6   1  0.1826851E-04  0.4664158E+03  0.7546771E-02  0.9478261E-01
        -11   -1    0    0    0    0  0.00000000000E+00  0.00000000000E+00  0.50000000000E+03  0.50000000000E+03  0.00000000000E+00 0. -1.
         11   -1    0    0    0    0 -0.00000000000E+00 -0.00000000000E+00 -0.50000000000E+03  0.50000000000E+03  0.00000000000E+00 0. -1.
        -11    1    1    2    0    0  0.38641800305E+02  0.40224178862E+01  0.45964615123E+03  0.46128511022E+03  0.00000000000E+00 0. -1.
         11    1    1    2    0    0  0.19278236372E+02 -0.80029528410E+01 -0.47298622509E+03  0.47344658281E+03  0.00000000000E+00 0. -1.
        -15    1    1    2    0    0 -0.47971220392E+02  0.55202320065E+01  0.20805931151E+02  0.52609461577E+02  0.17770000000E+01 0.  1.
         15    1    1    2    0    0 -0.99488162844E+01 -0.15396970517E+01 -0.74658572874E+01  0.12658845386E+02  0.17770000000E+01 0. -1.
</event>
<event>
 6   1  0.1826851E-04  0.5003927E+03  0.7546771E-02  0.9398931E-01
        -11   -1    0    0    0    0  0.00000000000E+00  0.00000000000E+00  0.50000000000E+03  0.50000000000E+03  0.00000000000E+00 0. -1.
         11   -1    0    0    0    0 -0.00000000000E+00 -0.00000000000E+00 -0.50000000000E+03  0.50000000000E+03  0.00000000000E+00 0.  1.
        -11    1    1    2    0    0 -0.61899453541E+01 -0.70021803260E+01  0.79703282182E+02  0.80249356031E+02  0.00000000000E+00 0. -1.
         11    1    1    2    0    0  0.19786442620E+01  0.95108145224E+01 -0.49951280886E+03  0.49960726260E+03  0.00000000000E+00 0.  1.
        -15    1    1    2    0    0  0.28092308728E+01 -0.49027101515E+01  0.40124761683E+03  0.40129133567E+03  0.17770000000E+01 0. -1.
         15    1    1    2    0    0  0.14020702193E+01  0.23940759550E+01  0.18561909853E+02  0.18852045697E+02  0.17770000000E+01 0.  1.
</event>
<event>
 6   1  0.1826851E-04  0.5002383E+03  0.7546771E-02  0.9399277E-01
        -11   -1    0    0    0    0  0.00000000000E+00  0.00000000000E+00  0.50000000000E+03  0.50000000000E+03  0.00000000000E+00 0.  1.
         11   -1    0    0    0    0 -0.00000000000E+00 -0.00000000000E+00 -0.50000000000E+03  0.50000000000E+03  0.00000000000E+00 0.  1.
        -11    1    1    2    0    0  0.79027876961E+01  0.30495459082E+01  0.30316806386E+03  0.30328638072E+03  0.00000000000E+00 0.  1.
         11    1    1    2    0    0  0.65027315256E+00 -0.82932217642E+01 -0.49969247715E+03  0.49976171532E+03  0.00000000000E+00 0.  1.
        -15    1    1    2    0    0 -0.64880018124E+00 -0.48879864923E+00  0.74141081650E+02  0.74166822657E+02  0.17770000000E+01 0.  1.
         15    1    1    2    0    0 -0.79042606675E+01  0.57324745053E+01  0.12238333163E+03  0.12278508131E+03  0.17770000000E+01 0. -1.
</event>
<event>
 6   1  0.1826851E-04  0.5002144E+03  0.7546771E-02  0.9399330E-01
        -11   -1    0    0    0    0  0.00000000000E+00  0.00000000000E+00  0.50000000000E+03  0.50000000000E+03  0.00000000000E+00 0. -1.
         11   -1    0    0    0    0 -0.00000000000E+00 -0.00000000000E+00 -0.50000000000E+03  0.50000000000E+03  0.00000000000E+00 0. -1.
        -11    1    1    2    0    0  0.38277187639E+00  0.30752386096E+01  0.10123547108E+02  0.10587247653E+02  0.00000000000E+00 0. -1.
         11    1    1    2    0    0  0.65648751871E+00 -0.12781383738E+02 -0.49962170573E+03  0.49978559761E+03  0.00000000000E+00 0. -1.
        -15    1    1    2    0    0 -0.22439440638E+01  0.76567658782E+01  0.32883430165E+03  0.32893588588E+03  0.17770000000E+01 0. -1.
         15    1    1    2    0    0  0.12046846687E+01  0.20493792505E+01  0.16066385697E+03  0.16069126885E+03  0.17770000000E+01 0. -1.
</event>
<event>
 6   1  0.1826851E-04  0.4721501E+03  0.7546771E-02  0.9464377E-01
        -11   -1    0    0    0    0  0.00000000000E+00  0.00000000000E+00  0.50000000000E+03  0.50000000000E+03  0.00000000000E+00 0.  1.
         11   -1    0    0    0    0 -0.00000000000E+00 -0.00000000000E+00 -0.50000000000E+03  0.50000000000E+03  0.00000000000E+00 0. -1.
        -11    1    1    2    0    0  0.19213589500E+02  0.26254136858E+02  0.46292789168E+03  0.46406968724E+03  0.00000000000E+00 0.  1.
         11    1    1    2    0    0 -0.20029960466E+01  0.11789830507E+02 -0.48118082341E+03  0.48132940583E+03  0.00000000000E+00 0. -1.
        -15    1    1    2    0    0 -0.17566360612E+02 -0.37237789508E+02  0.24569892270E+02  0.47979863773E+02  0.17770000000E+01 0.  1.
         15    1    1    2    0    0  0.35576715775E+00 -0.80617785704E+00 -0.63169605370E+01  0.66210431530E+01  0.17770000000E+01 0. -1.
</event>
<event>
 6   1  0.1826851E-04  0.5001759E+03  0.7546771E-02  0.9399416E-01
        -11   -1    0    0    0    0  0.00000000000E+00  0.00000000000E+00  0.50000000000E+03  0.50000000000E+03  0.00000000000E+00 0. -1.
         11   -1    0    0    0    0 -0.00000000000E+00 -0.00000000000E+00 -0.50000000000E+03  0.50000000000E+03  0.00000000000E+00 0. -1.
        -11    1    1    2    0    0  0.91220322208E+01  0.99415614064E+01  0.49964198475E+03  0.49982412811E+03  0.00000000000E+00 0. -1.
         11    1    1    2    0    0 -0.43077806469E+01  0.70936045189E+00 -0.21631512315E+03  0.21635917514E+03  0.00000000000E+00 0. -1.
        -15    1    1    2    0    0 -0.35594688268E+01 -0.59290502041E+01 -0.24863021488E+03  0.24873271786E+03  0.17770000000E+01 0. -1.
         15    1    1    2    0    0 -0.12547827470E+01 -0.47218716542E+01 -0.34696646726E+02  0.35083978889E+02  0.17770000000E+01 0.  1.
</event>
<event>
 6   1  0.1826851E-04  0.5025724E+03  0.7546771E-02  0.9394072E-01
        -11   -1    0    0    0    0  0.00000000000E+00  0.00000000000E+00  0.50000000000E+03  0.50000000000E+03  0.00000000000E+00 0. -1.
         11   -1    0    0    0    0 -0.00000000000E+00 -0.00000000000E+00 -0.50000000000E+03  0.50000000000E+03  0.00000000000E+00 0. -1.
        -11    1    1    2    0    0 -0.12287868386E+02 -0.39658053344E+01  0.49726003383E+03  0.49742764355E+03  0.00000000000E+00 0. -1.
         11    1    1    2    0    0 -0.51570581240E+01 -0.57413007682E+01 -0.45836514426E+03  0.45843010728E+03  0.00000000000E+00 0. -1.
        -15    1    1    2    0    0  0.39512462349E+01  0.42594809064E+01 -0.13816407123E+02  0.15093255421E+02  0.17770000000E+01 0.  1.
         15    1    1    2    0    0  0.13493680275E+02  0.54476251962E+01 -0.25078482442E+02  0.29048993756E+02  0.17770000000E+01 0. -1.
</event>
<event>
 6   1  0.1826851E-04  0.5060489E+03  0.7546771E-02  0.9386376E-01
        -11   -1    0    0    0    0  0.00000000000E+00  0.00000000000E+00  0.50000000000E+03  0.50000000000E+03  0.00000000000E+00 0.  1.
         11   -1    0    0    0    0 -0.00000000000E+00 -0.00000000000E+00 -0.50000000000E+03  0.50000000000E+03  0.00000000000E+00 0. -1.
        -11    1    1    2    0    0  0.13390671360E+02 -0.10179510215E+02  0.47836867028E+03  0.47866430535E+03  0.00000000000E+00 0.  1.
         11    1    1    2    0    0 -0.11083739781E+02 -0.91925437391E+01 -0.49374119479E+03  0.49395113076E+03  0.00000000000E+00 0. -1.
        -15    1    1    2    0    0 -0.27184050117E+01  0.12103887519E+02  0.29462592193E+01  0.12873693770E+02  0.17770000000E+01 0.  1.
         15    1    1    2    0    0  0.41147343347E+00  0.72681664349E+01  0.12426265287E+02  0.14510870122E+02  0.17770000000E+01 0. -1.
</event>
<event>
 6   1  0.1826851E-04  0.5002287E+03  0.7546771E-02  0.9399298E-01
        -11   -1    0    0    0    0  0.00000000000E+00  0.00000000000E+00  0.50000000000E+03  0.50000000000E+03  0.00000000000E+00 0.  1.
         11   -1    0    0    0    0 -0.00000000000E+00 -0.00000000000E+00 -0.50000000000E+03  0.50000000000E+03  0.00000000000E+00 0.  1.
        -11    1    1    2    0    0  0.60111883179E+01  0.46475345200E+01  0.49971349736E+03  0.49977126109E+03  0.00000000000E+00 0.  1.
         11    1    1    2    0    0  0.42618251807E+01 -0.53740740389E+01 -0.31095185451E+03  0.31102749018E+03  0.00000000000E+00 0.  1.
        -15    1    1    2    0    0 -0.54563184101E+01 -0.29930481427E+01 -0.10574730863E+03  0.10594517809E+03  0.17770000000E+01 0. -1.
         15    1    1    2    0    0 -0.48166950885E+01  0.37195876615E+01 -0.83014334217E+02  0.83256070640E+02  0.17770000000E+01 0.  1.
</event>
<event>
 6   1  0.1826851E-04  0.5073298E+03  0.7546771E-02  0.9383557E-01
        -11   -1    0    0    0    0  0.00000000000E+00  0.00000000000E+00  0.50000000000E+03  0.50000000000E+03  0.00000000000E+00 0. -1.
         11   -1    0    0    0    0 -0.00000000000E+00 -0.00000000000E+00 -0.50000000000E+03  0.50000000000E+03  0.00000000000E+00 0.  1.
        -11    1    1    2    0    0  0.20779650618E+02  0.47915797766E+01  0.49220849001E+03  0.49267022516E+03  0.00000000000E+00 0. -1.
         11    1    1    2    0    0  0.12707341469E+01 -0.98190821213E+01 -0.47550267697E+03  0.47560574528E+03  0.00000000000E+00 0.  1.
        -15    1    1    2    0    0 -0.23190648673E+02  0.21907716932E+01 -0.13695940548E+02  0.27080291412E+02  0.17770000000E+01 0.  1.
         15    1    1    2    0    0  0.11402639084E+01  0.28367306514E+01 -0.30098724937E+01  0.46437381491E+01  0.17770000000E+01 0. -1.
</event>
<event>
 6   1  0.1826851E-04  0.4873198E+03  0.7546771E-02  0.9428638E-01
        -11   -1    0    0    0    0  0.00000000000E+00  0.00000000000E+00  0.50000000000E+03  0.50000000000E+03  0.00000000000E+00 0.  1.
         11   -1    0    0    0    0 -0.00000000000E+00 -0.00000000000E+00 -0.50000000000E+03  0.50000000000E+03  0.00000000000E+00 0.  1.
        -11    1    1    2    0    0  0.18518184373E+02  0.32906641219E+01  0.48477820593E+03  0.48514292797E+03  0.00000000000E+00 0.  1.
         11    1    1    2    0    0 -0.17145448120E+00  0.98038207305E+01 -0.48967133411E+03  0.48976949655E+03  0.00000000000E+00 0.  1.
        -15    1    1    2    0    0 -0.14915149471E+02 -0.11622989550E+02  0.42158165817E+00  0.18997132150E+02  0.17770000000E+01 0. -1.
         15    1    1    2    0    0 -0.34315804205E+01 -0.14714953026E+01  0.44715465266E+01  0.60904433293E+01  0.17770000000E+01 0.  1.
</event>
<event>
 6   1  0.1826851E-04  0.5038773E+03  0.7546771E-02  0.9391176E-01
        -11   -1    0    0    0    0  0.00000000000E+00  0.00000000000E+00  0.50000000000E+03  0.50000000000E+03  0.00000000000E+00 0.  1.
         11   -1    0    0    0    0 -0.00000000000E+00 -0.00000000000E+00 -0.50000000000E+03  0.50000000000E+03  0.00000000000E+00 0.  1.
        -11    1    1    2    0    0  0.13736254628E+02 -0.98264064107E+01  0.49583516985E+03  0.49612272535E+03  0.00000000000E+00 0.  1.
         11    1    1    2    0    0 -0.11652710747E+02 -0.14239531943E+02 -0.38308509831E+03  0.38352671679E+03  0.00000000000E+00 0.  1.
        -15    1    1    2    0    0 -0.17439743975E+02  0.91759470748E+01 -0.42211265450E+02  0.46618572850E+02  0.17770000000E+01 0. -1.
         15    1    1    2    0    0  0.15356200094E+02  0.14889991279E+02 -0.70538806081E+02  0.73731985013E+02  0.17770000000E+01 0.  1.
</event>
<event>
 6   1  0.1826851E-04  0.5083574E+03  0.7546771E-02  0.9381301E-01
        -11   -1    0    0    0    0  0.00000000000E+00  0.00000000000E+00  0.50000000000E+03  0.50000000000E+03  0.00000000000E+00 0.  1.
         11   -1    0    0    0    0 -0.00000000000E+00 -0.00000000000E+00 -0.50000000000E+03  0.50000000000E+03  0.00000000000E+00 0.  1.
        -11    1    1    2    0    0  0.19367999396E+02  0.14830063635E+02  0.46751221787E+03  0.46814818599E+03  0.00000000000E+00 0.  1.
         11    1    1    2    0    0 -0.15292166786E+01  0.80165743131E+01 -0.49157487096E+03  0.49164261179E+03  0.00000000000E+00 0.  1.
        -15    1    1    2    0    0 -0.18169446208E+02 -0.20624494788E+02  0.16465572931E+02  0.32090051132E+02  0.17770000000E+01 0.  1.
         15    1    1    2    0    0  0.33066349068E+00 -0.22221431608E+01  0.75970801549E+01  0.81191510917E+01  0.17770000000E+01 0. -1.
</event>
<event>
 6   1  0.1826851E-04  0.5005224E+03  0.7546771E-02  0.9398642E-01
        -11   -1    0    0    0    0  0.00000000000E+00  0.00000000000E+00  0.50000000000E+03  0.50000000000E+03  0.00000000000E+00 0. -1.
         11   -1    0    0    0    0 -0.00000000000E+00 -0.00000000000E+00 -0.50000000000E+03  0.50000000000E+03  0.00000000000E+00 0. -1.
        -11    1    1    2    0    0 -0.16924931649E+01 -0.88416298972E+01  0.49939649704E+03  0.49947762734E+03  0.00000000000E+00 0. -1.
         11    1    1    2    0    0 -0.58421450459E+01  0.21264056295E+01 -0.43992150836E+03  0.43996543703E+03  0.00000000000E+00 0. -1.
        -15    1    1    2    0    0  0.64059238913E+01  0.60483354730E+01 -0.42575655294E+02  0.43513933120E+02  0.17770000000E+01 0.  1.
         15    1    1    2    0    0  0.11287143195E+01  0.66688879477E+00 -0.16899333386E+02  0.17043002511E+02  0.17770000000E+01 0. -1.
</event>
<event>
 6   1  0.1826851E-04  0.5001463E+03  0.7546771E-02  0.9399482E-01
        -11   -1    0    0    0    0  0.00000000000E+00  0.00000000000E+00  0.50000000000E+03  0.50000000000E+03  0.00000000000E+00 0. -1.
         11   -1    0    0    0    0 -0.00000000000E+00 -0.00000000000E+00 -0.50000000000E+03  0.50000000000E+03  0.00000000000E+00 0.  1.
        -11    1    1    2    0    0 -0.45553022158E+01  0.89442294971E+00  0.59404298475E+02  0.59585413048E+02  0.00000000000E+00 0. -1.
         11    1    1    2    0    0 -0.26431473930E+01 -0.64941318378E+01 -0.49980448722E+03  0.49985366401E+03  0.00000000000E+00 0.  1.
        -15    1    1    2    0    0 -0.96178506186E+00  0.40346434952E+00  0.80139046206E+02  0.80165530434E+02  0.17770000000E+01 0.  1.
         15    1    1    2    0    0  0.81602346707E+01  0.51962445386E+01  0.36026114254E+03  0.36039539251E+03  0.17770000000E+01 0. -1.
</event>
<event>
 6   1  0.1826851E-04  0.5006434E+03  0.7546771E-02  0.9398371E-01
        -11   -1    0    0    0    0  0.00000000000E+00  0.00000000000E+00  0.50000000000E+03  0.50000000000E+03  0.00000000000E+00 0.  1.
         11   -1    0    0    0    0 -0.00000000000E+00 -0.00000000000E+00 -0.50000000000E+03  0.50000000000E+03  0.00000000000E+00 0.  1.
        -11    1    1    2    0    0 -0.17565416135E+02 -0.98515772452E+01  0.49895031152E+03  0.49935659681E+03  0.00000000000E+00 0.  1.
         11    1    1    2    0    0  0.71222991830E+01  0.50122408850E+01 -0.30686927006E+03  0.30699283153E+03  0.00000000000E+00 0.  1.
        -15    1    1    2    0    0  0.10157474292E+02  0.99007307108E+01 -0.69657958121E+02  0.71109687182E+02  0.17770000000E+01 0.  1.
         15    1    1    2    0    0  0.28564266009E+00 -0.50613943506E+01 -0.12242308333E+03  0.12254088447E+03  0.17770000000E+01 0. -1.
</event>
<event>
 6   1  0.1826851E-04  0.5040397E+03  0.7546771E-02  0.9390816E-01
        -11   -1    0    0    0    0  0.00000000000E+00  0.00000000000E+00  0.50000000000E+03  0.50000000000E+03  0.00000000000E+00 0. -1.
         11   -1    0    0    0    0 -0.00000000000E+00 -0.00000000000E+00 -0.50000000000E+03  0.50000000000E+03  0.00000000000E+00 0. -1.
        -11    1    1    2    0    0 -0.45906435370E+01 -0.15013735574E+02  0.39336633163E+03  0.39367951068E+03  0.00000000000E+00 0. -1.
         11    1    1    2    0    0 -0.18489549642E+01 -0.10792661084E+02 -0.49583941089E+03  0.49596030240E+03  0.00000000000E+00 0. -1.
        -15    1    1    2    0    0  0.12024737591E+02  0.19583079543E+02  0.32368160587E+02  0.39735964407E+02  0.17770000000E+01 0. -1.
         15    1    1    2    0    0 -0.55851390898E+01  0.62233171149E+01  0.70104918672E+02  0.70624222513E+02  0.17770000000E+01 0.  1.
</event>
<event>
 6   1  0.1826851E-04  0.4700587E+03  0.7546771E-02  0.9469416E-01
        -11   -1    0    0    0    0  0.00000000000E+00  0.00000000000E+00  0.50000000000E+03  0.50000000000E+03  0.00000000000E+00 0. -1.
         11   -1    0    0    0    0 -0.00000000000E+00 -0.00000000000E+00 -0.50000000000E+03  0.50000000000E+03  0.00000000000E+00 0.  1.
        -11    1    1    2    0    0  0.26504161607E+01 -0.23692928191E+02  0.46290521444E+03  0.46351873437E+03  0.00000000000E+00 0. -1.
         11    1    1    2    0    0  0.25745947815E+02 -0.15042943595E+02 -0.47699918076E+03  0.47793029034E+03  0.00000000000E+00 0.  1.
        -15    1    1    2    0    0 -0.52543444108E+01  0.54817327973E+00 -0.71538543288E+01  0.90688472194E+01  0.17770000000E+01 0.  1.
         15    1    1    2    0    0 -0.23142019565E+02  0.38187698507E+02  0.21247820650E+02  0.49482128068E+02  0.17770000000E+01 0. -1.
</event>
<event>
 6   1  0.1826851E-04  0.5001407E+03  0.7546771E-02  0.9399495E-01
        -11   -1    0    0    0    0  0.00000000000E+00  0.00000000000E+00  0.50000000000E+03  0.50000000000E+03  0.00000000000E+00 0.  1.
         11   -1    0    0    0    0 -0.00000000000E+00 -0.00000000000E+00 -0.50000000000E+03  0.50000000000E+03  0.00000000000E+00 0.  1.
        -11    1    1    2    0    0 -0.78380238579E+01 -0.11923073402E+02  0.49965561792E+03  0.49985931102E+03  0.00000000000E+00 0.  1.
         11    1    1    2    0    0  0.10308056679E+02  0.36781597476E+01 -0.20040145939E+03  0.20070009920E+03  0.00000000000E+00 0.  1.
        -15    1    1    2    0    0  0.26661468853E-01  0.15732204085E+01 -0.33008676198E+02  0.33093899236E+02  0.17770000000E+01 0.  1.
         15    1    1    2    0    0 -0.24966942894E+01  0.66716932456E+01 -0.26624548233E+03  0.26634669054E+03  0.17770000000E+01 0.  1.
</event>
<event>
 6   1  0.1826851E-04  0.5002448E+03  0.7546771E-02  0.9399262E-01
        -11   -1    0    0    0    0  0.00000000000E+00  0.00000000000E+00  0.50000000000E+03  0.50000000000E+03  0.00000000000E+00 0.  1.
         11   -1    0    0    0    0 -0.00000000000E+00 -0.00000000000E+00 -0.50000000000E+03  0.50000000000E+03  0.00000000000E+00 0. -1.
        -11    1    1    2    0    0  0.35949026782E+01 -0.73328652394E+01  0.49968846594E+03  0.49975519730E+03  0.00000000000E+00 0.  1.
         11    1    1    2    0    0 -0.46780115027E+01 -0.25087961259E+01 -0.35237875562E+03  0.35241873569E+03  0.00000000000E+00 0. -1.
        -15    1    1    2    0    0 -0.18636200451E+01  0.13857072523E+01 -0.23706266956E+02  0.23885939091E+02  0.17770000000E+01 0. -1.
         15    1    1    2    0    0  0.29467288696E+01  0.84559541130E+01 -0.12360344336E+03  0.12394012792E+03  0.17770000000E+01 0.  1.
</event>
<event>
 6   1  0.1826851E-04  0.5006508E+03  0.7546771E-02  0.9398355E-01
        -11   -1    0    0    0    0  0.00000000000E+00  0.00000000000E+00  0.50000000000E+03  0.50000000000E+03  0.00000000000E+00 0.  1.
         11   -1    0    0    0    0 -0.00000000000E+00 -0.00000000000E+00 -0.50000000000E+03  0.50000000000E+03  0.00000000000E+00 0.  1.
        -11    1    1    2    0    0  0.54006494185E+01 -0.16004425553E+02  0.49906341871E+03  0.49934918098E+03  0.00000000000E+00 0.  1.
         11    1    1    2    0    0 -0.57937604819E+01 -0.31899537076E+01 -0.35993020117E+03  0.35999096264E+03  0.00000000000E+00 0.  1.
        -15    1    1    2    0    0  0.14719784104E+01  0.23374956859E+01 -0.14052972414E+02  0.14431714007E+02  0.17770000000E+01 0. -1.
         15    1    1    2    0    0 -0.10788673471E+01  0.16856883575E+02 -0.12508024512E+03  0.12622814237E+03  0.17770000000E+01 0. -1.
</event>
<event>
 6   1  0.1826851E-04  0.5014551E+03  0.7546771E-02  0.9396560E-01
        -11   -1    0    0    0    0  0.00000000000E+00  0.00000000000E+00  0.50000000000E+03  0.50000000000E+03  0.00000000000E+00 0.  1.
         11   -1    0    0    0    0 -0.00000000000E+00 -0.00000000000E+00 -0.50000000000E+03  0.50000000000E+03  0.00000000000E+00 0.  1.
        -11    1    1    2    0    0  0.15865941410E+02  0.16252063260E+02  0.44480355488E+03  0.44538304872E+03  0.00000000000E+00 0.  1.
         11    1    1    2    0    0 -0.25429962336E+01 -0.14569699035E+02 -0.49832544986E+03  0.49854487957E+03  0.00000000000E+00 0.  1.
        -15    1    1    2    0    0 -0.71768236383E+01  0.40847519207E+00  0.12716875021E+02  0.14715647754E+02  0.17770000000E+01 0. -1.
         15    1    1    2    0    0 -0.61461215386E+01 -0.20908394176E+01  0.40805019966E+02  0.41356423962E+02  0.17770000000E+01 0.  1.
</event>
<event>
 6   1  0.1826851E-04  0.5001673E+03  0.7546771E-02  0.9399435E-01
        -11   -1    0    0    0    0  0.00000000000E+00  0.00000000000E+00  0.50000000000E+03  0.50000000000E+03  0.00000000000E+00 0. -1.
         11   -1    0    0    0    0 -0.00000000000E+00 -0.00000000000E+00 -0.50000000000E+03  0.50000000000E+03  0.00000000000E+00 0. -1.
        -11    1    1    2    0    0 -0.14554410769E+02  0.52514417542E+01  0.27114940423E+03  0.27159051517E+03  0.00000000000E+00 0. -1.
         11    1    1    2    0    0  0.14434812086E+02 -0.10934479654E+01 -0.49962298286E+03  0.49983265643E+03  0.00000000000E+00 0. -1.
        -15    1    1    2    0    0  0.10055018364E-01 -0.17589359531E+01  0.39192773391E+02  0.39272448000E+02  0.17770000000E+01 0. -1.
         15    1    1    2    0    0  0.10954366440E+00 -0.23990578357E+01  0.18928080524E+03  0.18930438040E+03  0.17770000000E+01 0. -1.
</event>
<event>
 6   1  0.1826851E-04  0.5005283E+03  0.7546771E-02  0.9398628E-01
        -11   -1    0    0    0    0  0.00000000000E+00  0.00000000000E+00  0.50000000000E+03  0.50000000000E+03  0.00000000000E+00 0. -1.
         11   -1    0    0    0    0 -0.00000000000E+00 -0.00000000000E+00 -0.50000000000E+03  0.50000000000E+03  0.00000000000E+00 0.  1.
        -11    1    1    2    0    0  0.44891398370E+01 -0.43092404435E+01  0.29980981928E+02  0.30619947861E+02  0.00000000000E+00 0. -1.
         11    1    1    2    0    0  0.11645388201E+02 -0.18677219563E+02 -0.49898652647E+03  0.49947172812E+03  0.00000000000E+00 0.  1.
        -15    1    1    2    0    0 -0.52187084320E+01  0.45034906340E+01  0.15617272918E+03  0.15633488227E+03  0.17770000000E+01 0.  1.
         15    1    1    2    0    0 -0.10915819606E+02  0.18482969373E+02  0.31283281536E+03  0.31357344175E+03  0.17770000000E+01 0. -1.
</event>
<event>
 6   1  0.1826851E-04  0.5000073E+03  0.7546771E-02  0.9399793E-01
        -11   -1    0    0    0    0  0.00000000000E+00  0.00000000000E+00  0.50000000000E+03  0.50000000000E+03  0.00000000000E+00 0. -1.
         11   -1    0    0    0    0 -0.00000000000E+00 -0.00000000000E+00 -0.50000000000E+03  0.50000000000E+03  0.00000000000E+00 0.  1.
        -11    1    1    2    0    0 -0.60761597999E+01 -0.35606953587E+01 -0.44554352164E+02  0.45107522278E+02  0.00000000000E+00 0. -1.
         11    1    1    2    0    0 -0.59122250689E+01  0.84508090458E+01 -0.45476820849E+03  0.45488514378E+03  0.00000000000E+00 0.  1.
        -15    1    1    2    0    0 -0.18318623386E+01  0.13921213221E+00  0.68387919773E+01  0.73008153212E+01  0.17770000000E+01 0.  1.
         15    1    1    2    0    0  0.13820247207E+02 -0.50293258193E+01  0.49248376868E+03  0.49270651862E+03  0.17770000000E+01 0. -1.
</event>
<event>
 6   1  0.1826851E-04  0.5001324E+03  0.7546771E-02  0.9399514E-01
        -11   -1    0    0    0    0  0.00000000000E+00  0.00000000000E+00  0.50000000000E+03  0.50000000000E+03  0.00000000000E+00 0.  1.
         11   -1    0    0    0    0 -0.00000000000E+00 -0.00000000000E+00 -0.50000000000E+03  0.50000000000E+03  0.00000000000E+00 0. -1.
        -11    1    1    2    0    0 -0.10802924065E+02 -0.31366501064E+01  0.16370501265E+03  0.16409105066E+03  0.00000000000E+00 0.  1.
         11    1    1    2    0    0  0.13163942283E+02  0.34203104453E-01 -0.49969428134E+03  0.49986764784E+03  0.00000000000E+00 0. -1.
        -15    1    1    2    0    0 -0.22237768820E+01  0.12766157068E+01  0.23084146343E+03  0.23086254330E+03  0.17770000000E+01 0.  1.
         15    1    1    2    0    0 -0.13724133598E+00  0.18258312952E+01  0.10514780527E+03  0.10517875820E+03  0.17770000000E+01 0.  1.
</event>
<event>
 6   1  0.1826851E-04  0.5001989E+03  0.7546771E-02  0.9399365E-01
        -11   -1    0    0    0    0  0.00000000000E+00  0.00000000000E+00  0.50000000000E+03  0.50000000000E+03  0.00000000000E+00 0. -1.
         11   -1    0    0    0    0 -0.00000000000E+00 -0.00000000000E+00 -0.50000000000E+03  0.50000000000E+03  0.00000000000E+00 0.  1.
        -11    1    1    2    0    0  0.10635378684E+02 -0.12721081901E+02  0.21141253206E+03  0.21206177382E+03  0.00000000000E+00 0. -1.
         11    1    1    2    0    0 -0.15557719842E+02  0.12738267180E+02 -0.49939648125E+03  0.49980111202E+03  0.00000000000E+00 0.  1.
        -15    1    1    2    0    0  0.63860493786E+00 -0.31911429082E+01  0.98207765435E+02  0.98277739748E+02  0.17770000000E+01 0.  1.
         15    1    1    2    0    0  0.42837362205E+01  0.31739576296E+01  0.18977618375E+03  0.18985937441E+03  0.17770000000E+01 0. -1.
</event>
<event>
 6   1  0.1826851E-04  0.4424970E+03  0.7546771E-02  0.9538551E-01
        -11   -1    0    0    0    0  0.00000000000E+00  0.00000000000E+00  0.50000000000E+03  0.50000000000E+03  0.00000000000E+00 0.  1.
         11   -1    0    0    0    0 -0.00000000000E+00 -0.00000000000E+00 -0.50000000000E+03  0.50000000000E+03  0.00000000000E+00 0. -1.
        -11    1    1    2    0    0 -0.46619748162E+02  0.41531753131E+02  0.44648264653E+03  0.45082706340E+03  0.00000000000E+00 0.  1.
         11    1    1    2    0    0 -0.29932186040E+02  0.32138405992E+02 -0.43836379546E+03  0.44055831631E+03  0.00000000000E+00 0. -1.
        -15    1    1    2    0    0  0.74992443749E+02 -0.74576092110E+02 -0.80427419886E+01  0.10608158917E+03  0.17770000000E+01 0.  1.
         15    1    1    2    0    0  0.15594904529E+01  0.90593298702E+00 -0.76109079765E-01  0.25330311174E+01  0.17770000000E+01 0. -1.
</event>
<event>
 6   1  0.1826851E-04  0.5010359E+03  0.7546771E-02  0.9397495E-01
        -11   -1    0    0    0    0  0.00000000000E+00  0.00000000000E+00  0.50000000000E+03  0.50000000000E+03  0.00000000000E+00 0.  1.
         11   -1    0    0    0    0 -0.00000000000E+00 -0.00000000000E+00 -0.50000000000E+03  0.50000000000E+03  0.00000000000E+00 0.  1.
        -11    1    1    2    0    0 -0.75390419702E+01  0.19560332328E+01  0.49890331005E+03  0.49896410291E+03  0.00000000000E+00 0.  1.
         11    1    1    2    0    0  0.17685927597E+01 -0.69129486298E+01 -0.46051075313E+03  0.46056603275E+03  0.00000000000E+00 0.  1.
        -15    1    1    2    0    0  0.74117798346E+01  0.20642965246E+01 -0.16960445569E+02  0.18708560698E+02  0.17770000000E+01 0.  1.
         15    1    1    2    0    0 -0.16413306241E+01  0.28926188724E+01 -0.21432111350E+02  0.21761303639E+02  0.17770000000E+01 0. -1.
</event>
<event>
 6   1  0.1826851E-04  0.5004287E+03  0.7546771E-02  0.9398851E-01
        -11   -1    0    0    0    0  0.00000000000E+00  0.00000000000E+00  0.50000000000E+03  0.50000000000E+03  0.00000000000E+00 0.  1.
         11   -1    0    0    0    0 -0.00000000000E+00 -0.00000000000E+00 -0.50000000000E+03  0.50000000000E+03  0.00000000000E+00 0. -1.
        -11    1    1    2    0    0 -0.54803142729E+01 -0.32249455052E+01  0.11230144721E+03  0.11248132806E+03  0.00000000000E+00 0.  1.
         11    1    1    2    0    0 -0.10547725438E+02  0.70265547120E+01 -0.49941053630E+03  0.49957132699E+03  0.00000000000E+00 0. -1.
        -15    1    1    2    0    0  0.11495338213E+01 -0.91870417249E+01  0.16405221337E+03  0.16432288217E+03  0.17770000000E+01 0. -1.
         15    1    1    2    0    0  0.14878505889E+02  0.53854325180E+01  0.22305687571E+03  0.22362446278E+03  0.17770000000E+01 0.  1.
</event>
<event>
 6   1  0.1826851E-04  0.5015514E+03  0.7546771E-02  0.9396345E-01
        -11   -1    0    0    0    0  0.00000000000E+00  0.00000000000E+00  0.50000000000E+03  0.50000000000E+03  0.00000000000E+00 0. -1.
         11   -1    0    0    0    0 -0.00000000000E+00 -0.00000000000E+00 -0.50000000000E+03  0.50000000000E+03  0.00000000000E+00 0. -1.
        -11    1    1    2    0    0 -0.33468938987E+00 -0.22583860798E+02  0.49793663500E+03  0.49844862850E+03  0.00000000000E+00 0. -1.
         11    1    1    2    0    0  0.10664993722E+01 -0.58660109883E+01 -0.37500847557E+03  0.37505586818E+03  0.00000000000E+00 0. -1.
        -15    1    1    2    0    0  0.22681264962E+01  0.24017198801E+02 -0.99567270653E+02  0.10246350253E+03  0.17770000000E+01 0. -1.
         15    1    1    2    0    0 -0.29999364785E+01  0.44326729857E+01 -0.23360888774E+02  0.24032000791E+02  0.17770000000E+01 0.  1.
</event>
<event>
 6   1  0.1826851E-04  0.5009567E+03  0.7546771E-02  0.9397672E-01
        -11   -1    0    0    0    0  0.00000000000E+00  0.00000000000E+00  0.50000000000E+03  0.50000000000E+03  0.00000000000E+00 0.  1.
         11   -1    0    0    0    0 -0.00000000000E+00 -0.00000000000E+00 -0.50000000000E+03  0.50000000000E+03  0.00000000000E+00 0. -1.
        -11    1    1    2    0    0 -0.63068778092E+01 -0.14156517067E+01  0.40449810666E+03  0.40454974857E+03  0.00000000000E+00 0.  1.
         11    1    1    2    0    0 -0.32256620870E+01  0.75097490647E+01 -0.49897639537E+03  0.49904332914E+03  0.00000000000E+00 0. -1.
        -15    1    1    2    0    0 -0.35650947522E+01 -0.39825890112E+01  0.34162514594E+02  0.34623778653E+02  0.17770000000E+01 0.  1.
         15    1    1    2    0    0  0.13097634648E+02 -0.21115083468E+01  0.60315774118E+02  0.61783143634E+02  0.17770000000E+01 0. -1.
</event>
<event>
 6   1  0.1826851E-04  0.5015957E+03  0.7546771E-02  0.9396246E-01
        -11   -1    0    0    0    0  0.00000000000E+00  0.00000000000E+00  0.50000000000E+03  0.50000000000E+03  0.00000000000E+00 0. -1.
         11   -1    0    0    0    0 -0.00000000000E+00 -0.00000000000E+00 -0.50000000000E+03  0.50000000000E+03  0.00000000000E+00 0. -1.
        -11    1    1    2    0    0 -0.18476168469E+02  0.14231424328E+02  0.49785839642E+03  0.49840433899E+03  0.00000000000E+00 0. -1.
         11    1    1    2    0    0  0.77537426127E+01  0.14558742694E+01 -0.38395375546E+03  0.38403479845E+03  0.00000000000E+00 0. -1.
        -15    1    1    2    0    0  0.14561486662E+02 -0.12468689407E+02 -0.52365046575E+02  0.55792122573E+02  0.17770000000E+01 0. -1.
         15    1    1    2    0    0 -0.38390608055E+01 -0.32186091900E+01 -0.61539594386E+02  0.61768739984E+02  0.17770000000E+01 0.  1.
</event>
<event>
 6   1  0.1826851E-04  0.5001478E+03  0.7546771E-02  0.9399479E-01
        -11   -1    0    0    0    0  0.00000000000E+00  0.00000000000E+00  0.50000000000E+03  0.50000000000E+03  0.00000000000E+00 0.  1.
         11   -1    0    0    0    0 -0.00000000000E+00 -0.00000000000E+00 -0.50000000000E+03  0.50000000000E+03  0.00000000000E+00 0. -1.
        -11    1    1    2    0    0 -0.13394465612E+02  0.16807482066E+02  0.49938996591E+03  0.49985221938E+03  0.00000000000E+00 0.  1.
         11    1    1    2    0    0  0.13412452309E+02 -0.12415763752E+02 -0.27802019922E+03  0.27862030838E+03  0.00000000000E+00 0. -1.
        -15    1    1    2    0    0 -0.30336385777E+01 -0.28357814030E+01 -0.11434835839E+03  0.11443753499E+03  0.17770000000E+01 0. -1.
         15    1    1    2    0    0  0.30156518806E+01 -0.15559369113E+01 -0.10702140830E+03  0.10708993725E+03  0.17770000000E+01 0. -1.
</event>
<event>
 6   1  0.1826851E-04  0.5020758E+03  0.7546771E-02  0.9395177E-01
        -11   -1    0    0    0    0  0.00000000000E+00  0.00000000000E+00  0.50000000000E+03  0.50000000000E+03  0.00000000000E+00 0.  1.
         11   -1    0    0    0    0 -0.00000000000E+00 -0.00000000000E+00 -0.50000000000E+03  0.50000000000E+03  0.00000000000E+00 0.  1.
        -11    1    1    2    0    0 -0.89129021652E+01 -0.22194892327E+00  0.76433841907E+01  0.11743526226E+02  0.00000000000E+00 0.  1.
         11    1    1    2    0    0  0.86592742695E+01 -0.61048762757E+00 -0.49784853665E+03  0.49792421228E+03  0.00000000000E+00 0.  1.
        -15    1    1    2    0    0  0.10650891929E+01  0.53565480479E+01  0.33406641490E+03  0.33411577980E+03  0.17770000000E+01 0.  1.
         15    1    1    2    0    0 -0.81146129719E+00 -0.45241114971E+01  0.15613873757E+03  0.15621648169E+03  0.17770000000E+01 0. -1.
</event>
<event>
 6   1  0.1826851E-04  0.4926784E+03  0.7546771E-02  0.9416343E-01
        -11   -1    0    0    0    0  0.00000000000E+00  0.00000000000E+00  0.50000000000E+03  0.50000000000E+03  0.00000000000E+00 0. -1.
         11   -1    0    0    0    0 -0.00000000000E+00 -0.00000000000E+00 -0.50000000000E+03  0.50000000000E+03  0.00000000000E+00 0. -1.
        -11    1    1    2    0    0  0.30124804716E+01  0.93268558274E+01  0.49316113295E+03  0.49325852079E+03  0.00000000000E+00 0. -1.
         11    1    1    2    0    0 -0.58231743209E+01 -0.36199162549E+01 -0.49207161511E+03  0.49211938343E+03  0.00000000000E+00 0. -1.
        -15    1    1    2    0    0  0.33119677807E+01  0.17800668115E+01 -0.45549413624E+01  0.61678998247E+01  0.17770000000E+01 0. -1.
         15    1    1    2    0    0 -0.50127393134E+00 -0.74870063839E+01  0.34654235177E+01  0.84541959585E+01  0.17770000000E+01 0.  1.
</event>
<event>
 6   1  0.1826851E-04  0.5045410E+03  0.7546771E-02  0.9389706E-01
        -11   -1    0    0    0    0  0.00000000000E+00  0.00000000000E+00  0.50000000000E+03  0.50000000000E+03  0.00000000000E+00 0. -1.
         11   -1    0    0    0    0 -0.00000000000E+00 -0.00000000000E+00 -0.50000000000E+03  0.50000000000E+03  0.00000000000E+00 0. -1.
        -11    1    1    2    0    0 -0.32742584109E+01 -0.14726083034E+02  0.49522932002E+03  0.49545903736E+03  0.00000000000E+00 0. -1.
         11    1    1    2    0    0 -0.69757629640E+01  0.24960069215E+01 -0.48334872884E+03  0.48340550782E+03  0.00000000000E+00 0. -1.
        -15    1    1    2    0    0  0.44916476266E+01  0.52672389911E+01 -0.89884309486E+01  0.11483393440E+02  0.17770000000E+01 0.  1.
         15    1    1    2    0    0  0.57583737484E+01  0.69628371214E+01 -0.28921602330E+01  0.96520613767E+01  0.17770000000E+01 0. -1.
</event>
<event>
 6   1  0.1826851E-04  0.5003113E+03  0.7546771E-02  0.9399113E-01
        -11   -1    0    0    0    0  0.00000000000E+00  0.00000000000E+00  0.50000000000E+03  0.50000000000E+03  0.00000000000E+00 0. -1.
         11   -1    0    0    0    0 -0.00000000000E+00 -0.00000000000E+00 -0.50000000000E+03  0.50000000000E+03  0.00000000000E+00 0.  1.
        -11    1    1    2    0    0 -0.21672284338E+01  0.25270043939E+01  0.11605897484E+02  0.12073917620E+02  0.00000000000E+00 0. -1.
         11    1    1    2    0    0 -0.86836069731E+01 -0.22555588665E+01 -0.49960815500E+03  0.49968870421E+03  0.00000000000E+00 0.  1.
        -15    1    1    2    0    0 -0.13441238384E+01 -0.33808995165E+00  0.13762701330E+03  0.13764546303E+03  0.17770000000E+01 0.  1.
         15    1    1    2    0    0  0.12194959245E+02  0.66644424349E-01  0.35037524422E+03  0.35059191514E+03  0.17770000000E+01 0. -1.
</event>
<event>
 6   1  0.1826851E-04  0.5082317E+03  0.7546771E-02  0.9381577E-01
        -11   -1    0    0    0    0  0.00000000000E+00  0.00000000000E+00  0.50000000000E+03  0.50000000000E+03  0.00000000000E+00 0. -1.
         11   -1    0    0    0    0 -0.00000000000E+00 -0.00000000000E+00 -0.50000000000E+03  0.50000000000E+03  0.00000000000E+00 0. -1.
        -11    1    1    2    0    0  0.30810265302E+02 -0.62406309266E+02  0.48681844145E+03  0.49176825316E+03  0.00000000000E+00 0. -1.
         11    1    1    2    0    0 -0.40219962466E+02  0.73110344287E+02 -0.38621844794E+03  0.39512967156E+03  0.00000000000E+00 0. -1.
        -15    1    1    2    0    0 -0.87580570990E+01 -0.16714178744E+02 -0.11979645791E+02  0.22421796928E+02  0.17770000000E+01 0. -1.
         15    1    1    2    0    0  0.18167754263E+02  0.60101437233E+01 -0.88620347720E+02  0.90680278350E+02  0.17770000000E+01 0.  1.
</event>
<event>
 6   1  0.1826851E-04  0.4887658E+03  0.7546771E-02  0.9425304E-01
        -11   -1    0    0    0    0  0.00000000000E+00  0.00000000000E+00  0.50000000000E+03  0.50000000000E+03  0.00000000000E+00 0. -1.
         11   -1    0    0    0    0 -0.00000000000E+00 -0.00000000000E+00 -0.50000000000E+03  0.50000000000E+03  0.00000000000E+00 0.  1.
        -11    1    1    2    0    0 -0.32105274082E+01  0.14051242993E+02  0.48541990119E+03  0.48563383880E+03  0.00000000000E+00 0. -1.
         11    1    1    2    0    0 -0.68050470858E+01  0.21559363985E+00 -0.49202842646E+03  0.49207553037E+03  0.00000000000E+00 0.  1.
        -15    1    1    2    0    0  0.12037129504E+02 -0.95689570510E+01  0.67199117334E+01  0.16875199804E+02  0.17770000000E+01 0.  1.
         15    1    1    2    0    0 -0.20215550095E+01 -0.46978795820E+01 -0.11138646514E+00  0.54154310233E+01  0.17770000000E+01 0. -1.
</event>
<event>
 6   1  0.1826851E-04  0.5018572E+03  0.7546771E-02  0.9395664E-01
        -11   -1    0    0    0    0  0.00000000000E+00  0.00000000000E+00  0.50000000000E+03  0.50000000000E+03  0.00000000000E+00 0.  1.
         11   -1    0    0    0    0 -0.00000000000E+00 -0.00000000000E+00 -0.50000000000E+03  0.50000000000E+03  0.00000000000E+00 0.  1.
        -11    1    1    2    0    0 -0.78093900600E+01  0.47835241816E+01  0.39603543763E+03  0.39614130880E+03  0.00000000000E+00 0.  1.
         11    1    1    2    0    0 -0.12354400318E+02 -0.64343093527E+01 -0.49794805224E+03  0.49814284525E+03  0.00000000000E+00 0.  1.
        -15    1    1    2    0    0  0.16820926116E+02 -0.37097345315E+01  0.93270658327E+02  0.94864530355E+02  0.17770000000E+01 0. -1.
         15    1    1    2    0    0  0.33428642623E+01  0.53605197026E+01  0.86419562763E+01  0.10851315599E+02  0.17770000000E+01 0.  1.
</event>
<event>
 6   1  0.1826851E-04  0.5000527E+03  0.7546771E-02  0.9399692E-01
        -11   -1    0    0    0    0  0.00000000000E+00  0.00000000000E+00  0.50000000000E+03  0.50000000000E+03  0.00000000000E+00 0. -1.
         11   -1    0    0    0    0 -0.00000000000E+00 -0.00000000000E+00 -0.50000000000E+03  0.50000000000E+03  0.00000000000E+00 0. -1.
        -11    1    1    2    0    0 -0.29767133887E+01  0.32022099652E+01  0.10859309656E+03  0.10868107284E+03  0.00000000000E+00 0. -1.
         11    1    1    2    0    0 -0.36784696357E+00 -0.10360797825E+02 -0.49983982326E+03  0.49994732758E+03  0.00000000000E+00 0. -1.
        -15    1    1    2    0    0  0.14044610276E+00  0.56467077098E+01  0.23678680161E+03  0.23686082871E+03  0.17770000000E+01 0. -1.
         15    1    1    2    0    0  0.32041142495E+01  0.15118801499E+01  0.15445992508E+03  0.15451077087E+03  0.17770000000E+01 0.  1.
</event>
<event>
 6   1  0.1826851E-04  0.5001303E+03  0.7546771E-02  0.9399518E-01
        -11   -1    0    0    0    0  0.00000000000E+00  0.00000000000E+00  0.50000000000E+03  0.50000000000E+03  0.00000000000E+00 0. -1.
         11   -1    0    0    0    0 -0.00000000000E+00 -0.00000000000E+00 -0.50000000000E+03  0.50000000000E+03  0.00000000000E+00 0. -1.
        -11    1    1    2    0    0 -0.88354245456E+01  0.86563085492E+00  0.23286871249E+03  0.23303787524E+03  0.00000000000E+00 0. -1.
         11    1    1    2    0    0  0.69958081840E+01 -0.47700350976E+00 -0.49982051173E+03  0.49986969583E+03  0.00000000000E+00 0. -1.
        -15    1    1    2    0    0 -0.18838839505E+01 -0.27904569554E+01  0.10016979517E+03  0.10024211322E+03  0.17770000000E+01 0. -1.
         15    1    1    2    0    0  0.37235003121E+01  0.24018296103E+01  0.16678200407E+03  0.16685031570E+03  0.17770000000E+01 0.  1.
</event>
<event>
 6   1  0.1826851E-04  0.5012390E+03  0.7546771E-02  0.9397042E-01
        -11   -1    0    0    0    0  0.00000000000E+00  0.00000000000E+00  0.50000000000E+03  0.50000000000E+03  0.00000000000E+00 0. -1.
         11   -1    0    0    0    0 -0.00000000000E+00 -0.00000000000E+00 -0.50000000000E+03  0.50000000000E+03  0.00000000000E+00 0. -1.
        -11    1    1    2    0    0  0.13663149783E+02 -0.76255173719E+01  0.41727383131E+03  0.41756709698E+03  0.00000000000E+00 0. -1.
         11    1    1    2    0    0 -0.11877186149E+01  0.10006510892E+02 -0.49865915379E+03  0.49876095737E+03  0.00000000000E+00 0. -1.
        -15    1    1    2    0    0 -0.63931156480E+01 -0.79642702648E+01  0.54986397615E+02  0.55955010323E+02  0.17770000000E+01 0.  1.
         15    1    1    2    0    0 -0.60823155201E+01  0.55832767448E+01  0.26398924863E+02  0.27716935332E+02  0.17770000000E+01 0. -1.
</event>
<event>
 6   1  0.1826851E-04  0.4867609E+03  0.7546771E-02  0.9429930E-01
        -11   -1    0    0    0    0  0.00000000000E+00  0.00000000000E+00  0.50000000000E+03  0.50000000000E+03  0.00000000000E+00 0. -1.
         11   -1    0    0    0    0 -0.00000000000E+00 -0.00000000000E+00 -0.50000000000E+03  0.50000000000E+03  0.00000000000E+00 0.  1.
        -11    1    1    2    0    0 -0.57101559160E+01  0.21100875183E+02  0.48369706693E+03  0.48419077374E+03  0.00000000000E+00 0. -1.
         11    1    1    2    0    0 -0.52525126557E+01 -0.42661995251E+01 -0.48950878169E+03  0.48955555017E+03  0.00000000000E+00 0.  1.
        -15    1    1    2    0    0  0.33280585403E+01 -0.11376473586E+02 -0.39269211985E+01  0.12612635094E+02  0.17770000000E+01 0. -1.
         15    1    1    2    0    0  0.76346100314E+01 -0.54582020713E+01  0.97386359624E+01  0.13641041001E+02  0.17770000000E+01 0.  1.
</event>
<event>
 6   1  0.1826851E-04  0.5043667E+03  0.7546771E-02  0.9390092E-01
        -11   -1    0    0    0    0  0.00000000000E+00  0.00000000000E+00  0.50000000000E+03  0.50000000000E+03  0.00000000000E+00 0.  1.
         11   -1    0    0    0    0 -0.00000000000E+00 -0.00000000000E+00 -0.50000000000E+03  0.50000000000E+03  0.00000000000E+00 0. -1.
        -11    1    1    2    0    0  0.46610179430E+01  0.12915111092E+02  0.41700904070E+03  0.41723502395E+03  0.00000000000E+00 0.  1.
         11    1    1    2    0    0 -0.13867254695E+02 -0.20535293999E+01 -0.49543505352E+03  0.49563334230E+03  0.00000000000E+00 0. -1.
        -15    1    1    2    0    0  0.16337328065E+01 -0.75537509829E+01  0.78277310061E+02  0.78677971734E+02  0.17770000000E+01 0.  1.
         15    1    1    2    0    0  0.75725039451E+01 -0.33078307096E+01  0.14870275776E+00  0.84536620178E+01  0.17770000000E+01 0. -1.
</event>
<event>
 6   1  0.1826851E-04  0.4930651E+03  0.7546771E-02  0.9415462E-01
        -11   -1    0    0    0    0  0.00000000000E+00  0.00000000000E+00  0.50000000000E+03  0.50000000000E+03  0.00000000000E+00 0. -1.
         11   -1    0    0    0    0 -0.00000000000E+00 -0.00000000000E+00 -0.50000000000E+03  0.50000000000E+03  0.00000000000E+00 0. -1.
        -11    1    1    2    0    0  0.77335741802E+01 -0.14460801578E+02  0.49185190059E+03  0.49212520264E+03  0.00000000000E+00 0. -1.
         11    1    1    2    0    0  0.15683946444E+00  0.10644659481E+02 -0.49393134186E+03  0.49404605438E+03  0.00000000000E+00 0. -1.
        -15    1    1    2    0    0 -0.53342810241E+01  0.71592139419E+01  0.13428783935E+01  0.92016275566E+01  0.17770000000E+01 0. -1.
         15    1    1    2    0    0 -0.25561326206E+01 -0.33430718449E+01  0.73656287431E+00  0.46271154299E+01  0.17770000000E+01 0.  1.
</event>
<event>
 6   1  0.1826851E-04  0.5003659E+03  0.7546771E-02  0.9398991E-01
        -11   -1    0    0    0    0  0.00000000000E+00  0.00000000000E+00  0.50000000000E+03  0.50000000000E+03  0.00000000000E+00 0. -1.
         11   -1    0    0    0    0 -0.00000000000E+00 -0.00000000000E+00 -0.50000000000E+03  0.50000000000E+03  0.00000000000E+00 0.  1.
        -11    1    1    2    0    0 -0.72952722404E+01  0.29515583523E+01  0.42032366088E+03  0.42039732705E+03  0.00000000000E+00 0. -1.
         11    1    1    2    0    0  0.94684829862E+01  0.94596066911E+00 -0.49954347655E+03  0.49963409809E+03  0.00000000000E+00 0.  1.
        -15    1    1    2    0    0  0.28157094220E+01 -0.37010790280E+01  0.51992061908E+02  0.52229861535E+02  0.17770000000E+01 0. -1.
         15    1    1    2    0    0 -0.49889201678E+01 -0.19643999339E+00  0.27227753759E+02  0.27738713324E+02  0.17770000000E+01 0.  1.
</event>
<event>
 6   1  0.1826851E-04  0.5009895E+03  0.7546771E-02  0.9397598E-01
        -11   -1    0    0    0    0  0.00000000000E+00  0.00000000000E+00  0.50000000000E+03  0.50000000000E+03  0.00000000000E+00 0.  1.
         11   -1    0    0    0    0 -0.00000000000E+00 -0.00000000000E+00 -0.50000000000E+03  0.50000000000E+03  0.00000000000E+00 0. -1.
        -11    1    1    2    0    0  0.15768943992E+02  0.11742116294E+02  0.49862303782E+03  0.49901049161E+03  0.00000000000E+00 0.  1.
         11    1    1    2    0    0 -0.52924580378E+01  0.33145440283E+01 -0.39072143530E+03  0.39077133507E+03  0.00000000000E+00 0. -1.
        -15    1    1    2    0    0 -0.11979412229E+02 -0.69838803869E+01 -0.72239553298E+02  0.73579832102E+02  0.17770000000E+01 0.  1.
         15    1    1    2    0    0  0.15029262739E+01 -0.80727799352E+01 -0.35662049225E+02  0.36638341218E+02  0.17770000000E+01 0. -1.
</event>
<event>
 6   1  0.1826851E-04  0.3508454E+03  0.7546771E-02  0.9813943E-01
        -11   -1    0    0    0    0  0.00000000000E+00  0.00000000000E+00  0.50000000000E+03  0.50000000000E+03  0.00000000000E+00 0.  1.
         11   -1    0    0    0    0 -0.00000000000E+00 -0.00000000000E+00 -0.50000000000E+03  0.50000000000E+03  0.00000000000E+00 0. -1.
        -11    1    1    2    0    0  0.54302996313E+02 -0.17110544503E+03  0.36870830104E+03  0.41008742968E+03  0.00000000000E+00 0.  1.
         11    1    1    2    0    0  0.11089331147E+02  0.11323679047E+02 -0.31418477371E+03  0.31458428283E+03  0.00000000000E+00 0. -1.
        -15    1    1    2    0    0  0.85555451839E+01 -0.47878771662E+02 -0.19715056080E+01  0.48709533899E+02  0.17770000000E+01 0.  1.
         15    1    1    2    0    0 -0.73947872645E+02  0.20766053764E+03 -0.52552021720E+02  0.22661875359E+03  0.17770000000E+01 0. -1.
</event>
<event>
 6   1  0.1826851E-04  0.5033158E+03  0.7546771E-02  0.9392421E-01
        -11   -1    0    0    0    0  0.00000000000E+00  0.00000000000E+00  0.50000000000E+03  0.50000000000E+03  0.00000000000E+00 0. -1.
         11   -1    0    0    0    0 -0.00000000000E+00 -0.00000000000E+00 -0.50000000000E+03  0.50000000000E+03  0.00000000000E+00 0.  1.
        -11    1    1    2    0    0  0.23191085518E+01  0.12158040753E+02  0.49653000309E+03  0.49668424596E+03  0.00000000000E+00 0. -1.
         11    1    1    2    0    0 -0.69453986552E+01  0.11938075637E+01 -0.47538325083E+03  0.47543548343E+03  0.00000000000E+00 0.  1.
        -15    1    1    2    0    0  0.49282251269E+01 -0.92458917455E+01 -0.62618701946E+01  0.12334612455E+02  0.17770000000E+01 0. -1.
         15    1    1    2    0    0 -0.30193502353E+00 -0.41059565709E+01 -0.14884882069E+02  0.15545658151E+02  0.17770000000E+01 0.  1.
</event>
<event>
 6   1  0.1826851E-04  0.5023870E+03  0.7546771E-02  0.9394484E-01
        -11   -1    0    0    0    0  0.00000000000E+00  0.00000000000E+00  0.50000000000E+03  0.50000000000E+03  0.00000000000E+00 0. -1.
         11   -1    0    0    0    0 -0.00000000000E+00 -0.00000000000E+00 -0.50000000000E+03  0.50000000000E+03  0.00000000000E+00 0.  1.
        -11    1    1    2    0    0  0.49677346499E+01 -0.14879676858E+02  0.21561345692E+02  0.26664110692E+02  0.00000000000E+00 0. -1.
         11    1    1    2    0    0  0.38911873121E+01  0.21414422764E+02 -0.49713674951E+03  0.49761296864E+03  0.00000000000E+00 0.  1.
        -15    1    1    2    0    0 -0.50333862104E+01 -0.31698999950E+01  0.30150674536E+03  0.30157065254E+03  0.17770000000E+01 0. -1.
         15    1    1    2    0    0 -0.38255357516E+01 -0.33648459106E+01  0.17406865846E+03  0.17415226814E+03  0.17770000000E+01 0. -1.
</event>
<event>
 6   1  0.1826851E-04  0.5052569E+03  0.7546771E-02  0.9388123E-01
        -11   -1    0    0    0    0  0.00000000000E+00  0.00000000000E+00  0.50000000000E+03  0.50000000000E+03  0.00000000000E+00 0. -1.
         11   -1    0    0    0    0 -0.00000000000E+00 -0.00000000000E+00 -0.50000000000E+03  0.50000000000E+03  0.00000000000E+00 0.  1.
        -11    1    1    2    0    0 -0.68466836266E+01 -0.15949502708E+02  0.49443853596E+03  0.49474309450E+03  0.00000000000E+00 0. -1.
         11    1    1    2    0    0 -0.53979234952E+01  0.62082385084E+01 -0.48231610855E+03  0.48238626469E+03  0.00000000000E+00 0.  1.
        -15    1    1    2    0    0  0.51566755498E+01  0.60575880077E+00  0.67831330200E+00  0.55295645748E+01  0.17770000000E+01 0.  1.
         15    1    1    2    0    0  0.70879315720E+01  0.91355053985E+01 -0.12800740718E+02  0.17341076229E+02  0.17770000000E+01 0. -1.
</event>
<event>
 6   1  0.1826851E-04  0.4889231E+03  0.7546771E-02  0.9424942E-01
        -11   -1    0    0    0    0  0.00000000000E+00  0.00000000000E+00  0.50000000000E+03  0.50000000000E+03  0.00000000000E+00 0. -1.
         11   -1    0    0    0    0 -0.00000000000E+00 -0.00000000000E+00 -0.50000000000E+03  0.50000000000E+03  0.00000000000E+00 0.  1.
        -11    1    1    2    0    0  0.19492989166E+02 -0.31349687860E+01  0.48712298782E+03  0.48752293271E+03  0.00000000000E+00 0. -1.
         11    1    1    2    0    0 -0.86692720416E+01 -0.25728048271E+00 -0.49031748563E+03  0.49039418756E+03  0.00000000000E+00 0.  1.
        -15    1    1    2    0    0  0.51592509796E+01  0.13225270821E+01  0.12546690753E+01  0.57531619169E+01  0.17770000000E+01 0. -1.
         15    1    1    2    0    0 -0.15982968104E+02  0.20697221867E+01  0.19398287348E+01  0.16329717813E+02  0.17770000000E+01 0.  1.
</event>
<event>
 6   1  0.1826851E-04  0.5001076E+03  0.7546771E-02  0.9399569E-01
        -11   -1    0    0    0    0  0.00000000000E+00  0.00000000000E+00  0.50000000000E+03  0.50000000000E+03  0.00000000000E+00 0. -1.
         11   -1    0    0    0    0 -0.00000000000E+00 -0.00000000000E+00 -0.50000000000E+03  0.50000000000E+03  0.00000000000E+00 0.  1.
        -11    1    1    2    0    0  0.33715201623E+01 -0.84449825410E+01  0.49980966353E+03  0.49989237306E+03  0.00000000000E+00 0. -1.
         11    1    1    2    0    0  0.50595676110E+01  0.31834892359E+01 -0.18080182191E+03  0.18090061535E+03  0.00000000000E+00 0.  1.
        -15    1    1    2    0    0 -0.55703314545E+00  0.13291884772E+01 -0.69605966591E+02  0.69643559228E+02  0.17770000000E+01 0. -1.
         15    1    1    2    0    0 -0.78740546279E+01  0.39323048279E+01 -0.24940187503E+03  0.24956345237E+03  0.17770000000E+01 0.  1.
</event>
<event>
 6   1  0.1826851E-04  0.5049601E+03  0.7546771E-02  0.9388779E-01
        -11   -1    0    0    0    0  0.00000000000E+00  0.00000000000E+00  0.50000000000E+03  0.50000000000E+03  0.00000000000E+00 0. -1.
         11   -1    0    0    0    0 -0.00000000000E+00 -0.00000000000E+00 -0.50000000000E+03  0.50000000000E+03  0.00000000000E+00 0. -1.
        -11    1    1    2    0    0 -0.86722644288E+01  0.15127902088E+02  0.49473270883E+03  0.49503991231E+03  0.00000000000E+00 0. -1.
         11    1    1    2    0    0 -0.17701670396E+01  0.71700657320E+01 -0.46370660779E+03  0.46376541639E+03  0.00000000000E+00 0. -1.
        -15    1    1    2    0    0  0.18787379539E+00 -0.78865586965E+01 -0.15963436088E+02  0.17894751336E+02  0.17770000000E+01 0. -1.
         15    1    1    2    0    0  0.10254557673E+02 -0.14411409124E+02 -0.15062664949E+02  0.23299919965E+02  0.17770000000E+01 0.  1.
</event>
<event>
 6   1  0.1826851E-04  0.5040759E+03  0.7546771E-02  0.9390735E-01
        -11   -1    0    0    0    0  0.00000000000E+00  0.00000000000E+00  0.50000000000E+03  0.50000000000E+03  0.00000000000E+00 0. -1.
         11   -1    0    0    0    0 -0.00000000000E+00 -0.00000000000E+00 -0.50000000000E+03  0.50000000000E+03  0.00000000000E+00 0. -1.
        -11    1    1    2    0    0  0.88985431025E+01  0.10149499775E+02  0.49574036407E+03  0.49592409195E+03  0.00000000000E+00 0. -1.
         11    1    1    2    0    0  0.30170800059E+01 -0.80823821678E+01 -0.48719168879E+03  0.48726806718E+03  0.00000000000E+00 0. -1.
        -15    1    1    2    0    0 -0.86424622202E+01 -0.45496589098E+01 -0.51213346362E+01  0.11170378099E+02  0.17770000000E+01 0.  1.
         15    1    1    2    0    0 -0.32731608882E+01  0.24825413023E+01 -0.34273406434E+01  0.56374627629E+01  0.17770000000E+01 0. -1.
</event>
<event>
 6   1  0.1826851E-04  0.5031916E+03  0.7546771E-02  0.9392697E-01
        -11   -1    0    0    0    0  0.00000000000E+00  0.00000000000E+00  0.50000000000E+03  0.50000000000E+03  0.00000000000E+00 0. -1.
         11   -1    0    0    0    0 -0.00000000000E+00 -0.00000000000E+00 -0.50000000000E+03  0.50000000000E+03  0.00000000000E+00 0.  1.
        -11    1    1    2    0    0  0.30725828224E+00  0.11456060507E+02  0.49667625159E+03  0.49680844863E+03  0.00000000000E+00 0. -1.
         11    1    1    2    0    0  0.13167862407E+02 -0.34399326294E+01 -0.46887814634E+03  0.46907562488E+03  0.00000000000E+00 0.  1.
        -15    1    1    2    0    0 -0.12481293617E+02 -0.15112302660E+01 -0.20630645176E+02  0.24224940798E+02  0.17770000000E+01 0.  1.
         15    1    1    2    0    0 -0.99382707285E+00 -0.65048976114E+01 -0.71674600751E+01  0.98909856998E+01  0.17770000000E+01 0. -1.
</event>
<event>
 6   1  0.1826851E-04  0.5001306E+03  0.7546771E-02  0.9399517E-01
        -11   -1    0    0    0    0  0.00000000000E+00  0.00000000000E+00  0.50000000000E+03  0.50000000000E+03  0.00000000000E+00 0. -1.
         11   -1    0    0    0    0 -0.00000000000E+00 -0.00000000000E+00 -0.50000000000E+03  0.50000000000E+03  0.00000000000E+00 0. -1.
        -11    1    1    2    0    0  0.35098736534E+02 -0.17476735191E+02  0.49832924939E+03  0.49986938131E+03  0.00000000000E+00 0. -1.
         11    1    1    2    0    0  0.12255421601E+00  0.22927230438E+01 -0.59182063715E+02  0.59226584099E+02  0.00000000000E+00 0. -1.
        -15    1    1    2    0    0 -0.21352599615E+02  0.13115716423E+02 -0.29295006594E+03  0.29402526148E+03  0.17770000000E+01 0.  1.
         15    1    1    2    0    0 -0.13868691135E+02  0.20682957245E+01 -0.14619711974E+03  0.14687877311E+03  0.17770000000E+01 0. -1.
</event>
<event>
 6   1  0.1826851E-04  0.5011102E+03  0.7546771E-02  0.9397329E-01
        -11   -1    0    0    0    0  0.00000000000E+00  0.00000000000E+00  0.50000000000E+03  0.50000000000E+03  0.00000000000E+00 0.  1.
         11   -1    0    0    0    0 -0.00000000000E+00 -0.00000000000E+00 -0.50000000000E+03  0.50000000000E+03  0.00000000000E+00 0.  1.
        -11    1    1    2    0    0 -0.37431999639E+01 -0.13432669237E+02  0.29308494205E+03  0.29341648114E+03  0.00000000000E+00 0.  1.
         11    1    1    2    0    0  0.69098656392E+01 -0.13287314381E+01 -0.49884017633E+03  0.49888980075E+03  0.00000000000E+00 0.  1.
        -15    1    1    2    0    0 -0.34115856035E+01  0.14345356189E+01  0.49159636480E+01  0.64047823039E+01  0.17770000000E+01 0. -1.
         15    1    1    2    0    0  0.24491992817E+00  0.13326865056E+02  0.20083927063E+03  0.20128893580E+03  0.17770000000E+01 0.  1.
</event>
<event>
 6   1  0.1826851E-04  0.5008382E+03  0.7546771E-02  0.9397936E-01
        -11   -1    0    0    0    0  0.00000000000E+00  0.00000000000E+00  0.50000000000E+03  0.50000000000E+03  0.00000000000E+00 0. -1.
         11   -1    0    0    0    0 -0.00000000000E+00 -0.00000000000E+00 -0.50000000000E+03  0.50000000000E+03  0.00000000000E+00 0.  1.
        -11    1    1    2    0    0  0.52058408567E+01  0.10640479333E+02  0.44586188283E+03  0.44601921386E+03  0.00000000000E+00 0. -1.
         11    1    1    2    0    0 -0.88823691141E+01 -0.63225981657E+00 -0.49908233107E+03  0.49916176679E+03  0.00000000000E+00 0.  1.
        -15    1    1    2    0    0  0.22842114618E+01 -0.82145291396E+01  0.48588948878E+02  0.49363344630E+02  0.17770000000E+01 0. -1.
         15    1    1    2    0    0  0.13923167956E+01 -0.17936903765E+01  0.46314993680E+01  0.54556747173E+01  0.17770000000E+01 0.  1.
</event>
<event>
 6   1  0.1826851E-04  0.5020693E+03  0.7546771E-02  0.9395191E-01
        -11   -1    0    0    0    0  0.00000000000E+00  0.00000000000E+00  0.50000000000E+03  0.50000000000E+03  0.00000000000E+00 0. -1.
         11   -1    0    0    0    0 -0.00000000000E+00 -0.00000000000E+00 -0.50000000000E+03  0.50000000000E+03  0.00000000000E+00 0.  1.
        -11    1    1    2    0    0 -0.36016231649E+02  0.14771444447E+02  0.13478384556E+03  0.14029272803E+03  0.00000000000E+00 0. -1.
         11    1    1    2    0    0  0.33087950785E+02 -0.18072279366E+02 -0.49650128116E+03  0.49793065979E+03  0.00000000000E+00 0.  1.
        -15    1    1    2    0    0 -0.43311415369E+00  0.13188832257E+01  0.12247566854E+03  0.12249642507E+03  0.17770000000E+01 0. -1.
         15    1    1    2    0    0  0.33613950185E+01  0.19819516936E+01  0.23924176706E+03  0.23928018711E+03  0.17770000000E+01 0. -1.
</event>
<event>
 6   1  0.1826851E-04  0.5061417E+03  0.7546771E-02  0.9386171E-01
        -11   -1    0    0    0    0  0.00000000000E+00  0.00000000000E+00  0.50000000000E+03  0.50000000000E+03  0.00000000000E+00 0. -1.
         11   -1    0    0    0    0 -0.00000000000E+00 -0.00000000000E+00 -0.50000000000E+03  0.50000000000E+03  0.00000000000E+00 0.  1.
        -11    1    1    2    0    0 -0.71593827697E+01 -0.54991179834E+02  0.89870370919E+02  0.10560288912E+03  0.00000000000E+00 0. -1.
         11    1    1    2    0    0 -0.22778003802E+02  0.64383579634E+02 -0.48911338996E+03  0.49385827018E+03  0.00000000000E+00 0.  1.
        -15    1    1    2    0    0  0.11910466123E+02 -0.75397954455E+00  0.16175334769E+03  0.16220274630E+03  0.17770000000E+01 0. -1.
         15    1    1    2    0    0  0.18026920449E+02 -0.86384202551E+01  0.23748967135E+03  0.23833609440E+03  0.17770000000E+01 0. -1.
</event>
<event>
 6   1  0.1826851E-04  0.5005552E+03  0.7546771E-02  0.9398568E-01
        -11   -1    0    0    0    0  0.00000000000E+00  0.00000000000E+00  0.50000000000E+03  0.50000000000E+03  0.00000000000E+00 0.  1.
         11   -1    0    0    0    0 -0.00000000000E+00 -0.00000000000E+00 -0.50000000000E+03  0.50000000000E+03  0.00000000000E+00 0.  1.
        -11    1    1    2    0    0  0.61306345600E+01 -0.24944962603E+01  0.85971293109E+02  0.86225694723E+02  0.00000000000E+00 0.  1.
         11    1    1    2    0    0  0.81068260864E+01 -0.12866259182E+02 -0.49921318843E+03  0.49944476046E+03  0.00000000000E+00 0.  1.
        -15    1    1    2    0    0 -0.20213192765E+01 -0.37327135589E+01  0.24835486060E+02  0.25258225966E+02  0.17770000000E+01 0. -1.
         15    1    1    2    0    0 -0.12216141370E+02  0.19093469001E+02  0.38840640926E+03  0.38907131885E+03  0.17770000000E+01 0.  1.
</event>
<event>
 6   1  0.1826851E-04  0.5026025E+03  0.7546771E-02  0.9394005E-01
        -11   -1    0    0    0    0  0.00000000000E+00  0.00000000000E+00  0.50000000000E+03  0.50000000000E+03  0.00000000000E+00 0.  1.
         11   -1    0    0    0    0 -0.00000000000E+00 -0.00000000000E+00 -0.50000000000E+03  0.50000000000E+03  0.00000000000E+00 0.  1.
        -11    1    1    2    0    0 -0.45007276158E+01 -0.80409375487E+01  0.61251072807E+01  0.11064816534E+02  0.00000000000E+00 0.  1.
         11    1    1    2    0    0 -0.38199127309E+01 -0.71313093932E+01 -0.49733167654E+03  0.49739747064E+03  0.00000000000E+00 0.  1.
        -15    1    1    2    0    0  0.51862026464E+01  0.10694210205E+02  0.28961632605E+03  0.28986554964E+03  0.17770000000E+01 0.  1.
         15    1    1    2    0    0  0.31344377003E+01  0.44780367371E+01  0.20159024322E+03  0.20167216318E+03  0.17770000000E+01 0.  1.
</event>
<event>
 6   1  0.1826851E-04  0.5181423E+03  0.7546771E-02  0.9360105E-01
        -11   -1    0    0    0    0  0.00000000000E+00  0.00000000000E+00  0.50000000000E+03  0.50000000000E+03  0.00000000000E+00 0.  1.
         11   -1    0    0    0    0 -0.00000000000E+00 -0.00000000000E+00 -0.50000000000E+03  0.50000000000E+03  0.00000000000E+00 0.  1.
        -11    1    1    2    0    0  0.10163538416E+03  0.44075204070E+02 -0.17648642801E+03  0.20837426472E+03  0.00000000000E+00 0.  1.
         11    1    1    2    0    0 -0.63534161171E+02 -0.16713224531E+02 -0.30272155810E+03  0.30976807977E+03  0.00000000000E+00 0.  1.
        -15    1    1    2    0    0 -0.37287369613E+02 -0.29378423582E+02  0.44254084671E+03  0.44508313655E+03  0.17770000000E+01 0.  1.
         15    1    1    2    0    0 -0.81385337846E+00  0.20164440424E+01  0.36667139393E+02  0.36774518952E+02  0.17770000000E+01 0. -1.
</event>
<event>
 6   1  0.1826851E-04  0.5008366E+03  0.7546771E-02  0.9397940E-01
        -11   -1    0    0    0    0  0.00000000000E+00  0.00000000000E+00  0.50000000000E+03  0.50000000000E+03  0.00000000000E+00 0. -1.
         11   -1    0    0    0    0 -0.00000000000E+00 -0.00000000000E+00 -0.50000000000E+03  0.50000000000E+03  0.00000000000E+00 0. -1.
        -11    1    1    2    0    0  0.10011945862E+02 -0.53168966164E+01  0.49903467276E+03  0.49916341319E+03  0.00000000000E+00 0. -1.
         11    1    1    2    0    0  0.11578053883E+01  0.64315531038E+01 -0.43711252805E+03  0.43716137474E+03  0.00000000000E+00 0. -1.
        -15    1    1    2    0    0 -0.10723388368E+00 -0.10185780261E+01 -0.25159334556E+02  0.25242797876E+02  0.17770000000E+01 0.  1.
         15    1    1    2    0    0 -0.11062517367E+02 -0.96078461312E-01 -0.36762810150E+02  0.38432414193E+02  0.17770000000E+01 0. -1.
</event>
<event>
 6   1  0.1826851E-04  0.4875983E+03  0.7546771E-02  0.9427995E-01
        -11   -1    0    0    0    0  0.00000000000E+00  0.00000000000E+00  0.50000000000E+03  0.50000000000E+03  0.00000000000E+00 0. -1.
         11   -1    0    0    0    0 -0.00000000000E+00 -0.00000000000E+00 -0.50000000000E+03  0.50000000000E+03  0.00000000000E+00 0.  1.
        -11    1    1    2    0    0 -0.18423864843E+02  0.27081133806E+02  0.48964322209E+03  0.49073751797E+03  0.00000000000E+00 0. -1.
         11    1    1    2    0    0 -0.10533947034E+00 -0.18601539212E+02 -0.48432928879E+03  0.48468638143E+03  0.00000000000E+00 0.  1.
        -15    1    1    2    0    0  0.16790005159E+02 -0.68535050650E+01  0.30028957604E+00  0.18224234079E+02  0.17770000000E+01 0.  1.
         15    1    1    2    0    0  0.17391991543E+01 -0.16260895285E+01 -0.56142228749E+01  0.63518665242E+01  0.17770000000E+01 0. -1.
</event>
<event>
 6   1  0.1826851E-04  0.5017552E+03  0.7546771E-02  0.9395891E-01
        -11   -1    0    0    0    0  0.00000000000E+00  0.00000000000E+00  0.50000000000E+03  0.50000000000E+03  0.00000000000E+00 0.  1.
         11   -1    0    0    0    0 -0.00000000000E+00 -0.00000000000E+00 -0.50000000000E+03  0.50000000000E+03  0.00000000000E+00 0.  1.
        -11    1    1    2    0    0  0.22437238885E+02  0.25174478014E+00  0.49773928689E+03  0.49824481008E+03  0.00000000000E+00 0.  1.
         11    1    1    2    0    0 -0.54360035306E+01 -0.67071509437E+01 -0.41401033882E+03  0.41410034612E+03  0.00000000000E+00 0.  1.
        -15    1    1    2    0    0  0.36561333658E+01 -0.17822324471E+00 -0.16233958833E+02  0.16736135250E+02  0.17770000000E+01 0. -1.
         15    1    1    2    0    0 -0.20657368720E+02  0.66336294083E+01 -0.67494989234E+02  0.70918708549E+02  0.17770000000E+01 0.  1.
</event>
<event>
 6   1  0.1826851E-04  0.5036485E+03  0.7546771E-02  0.9391683E-01
        -11   -1    0    0    0    0  0.00000000000E+00  0.00000000000E+00  0.50000000000E+03  0.50000000000E+03  0.00000000000E+00 0. -1.
         11   -1    0    0    0    0 -0.00000000000E+00 -0.00000000000E+00 -0.50000000000E+03  0.50000000000E+03  0.00000000000E+00 0.  1.
        -11    1    1    2    0    0  0.87796760247E+01  0.92668467054E+01  0.49618729425E+03  0.49635147641E+03  0.00000000000E+00 0. -1.
         11    1    1    2    0    0  0.33598217635E+01  0.90162454353E+01 -0.42830812246E+03  0.42841618649E+03  0.00000000000E+00 0.  1.
        -15    1    1    2    0    0 -0.70586470884E+01 -0.15274574368E+02 -0.17015667594E+02  0.23996412097E+02  0.17770000000E+01 0. -1.
         15    1    1    2    0    0 -0.50808506998E+01 -0.30085177724E+01 -0.50863504194E+02  0.51235925003E+02  0.17770000000E+01 0.  1.
</event>
<event>
 6   1  0.1826851E-04  0.5014876E+03  0.7546771E-02  0.9396487E-01
        -11   -1    0    0    0    0  0.00000000000E+00  0.00000000000E+00  0.50000000000E+03  0.50000000000E+03  0.00000000000E+00 0.  1.
         11   -1    0    0    0    0 -0.00000000000E+00 -0.00000000000E+00 -0.50000000000E+03  0.50000000000E+03  0.00000000000E+00 0. -1.
        -11    1    1    2    0    0  0.18924500892E+01 -0.88999708509E+01  0.49842932769E+03  0.49851237251E+03  0.00000000000E+00 0.  1.
         11    1    1    2    0    0  0.70461622541E+01  0.17030035642E+01 -0.44384953966E+03  0.44390873215E+03  0.00000000000E+00 0. -1.
        -15    1    1    2    0    0 -0.74052660776E+01  0.62264010718E+01 -0.15124946617E+02  0.18042388289E+02  0.17770000000E+01 0.  1.
         15    1    1    2    0    0 -0.15333462657E+01  0.97056621492E+00 -0.39454841410E+02  0.39536507044E+02  0.17770000000E+01 0. -1.
</event>
<event>
 6   1  0.1826851E-04  0.5005159E+03  0.7546771E-02  0.9398656E-01
        -11   -1    0    0    0    0  0.00000000000E+00  0.00000000000E+00  0.50000000000E+03  0.50000000000E+03  0.00000000000E+00 0. -1.
         11   -1    0    0    0    0 -0.00000000000E+00 -0.00000000000E+00 -0.50000000000E+03  0.50000000000E+03  0.00000000000E+00 0. -1.
        -11    1    1    2    0    0 -0.19993520722E+02  0.35614493176E+01  0.15905806577E+03  0.16034928462E+03  0.00000000000E+00 0. -1.
         11    1    1    2    0    0  0.19415114892E+02  0.30109525574E+01 -0.49909756763E+03  0.49948412841E+03  0.00000000000E+00 0. -1.
        -15    1    1    2    0    0  0.61444941876E+00  0.36552350299E+00  0.10672386968E+03  0.10674105697E+03  0.17770000000E+01 0. -1.
         15    1    1    2    0    0 -0.36043588782E-01 -0.69379253780E+01  0.23331563218E+03  0.23342553000E+03  0.17770000000E+01 0. -1.
</event>
<event>
 6   1  0.1826851E-04  0.4869684E+03  0.7546771E-02  0.9429450E-01
        -11   -1    0    0    0    0  0.00000000000E+00  0.00000000000E+00  0.50000000000E+03  0.50000000000E+03  0.00000000000E+00 0. -1.
         11   -1    0    0    0    0 -0.00000000000E+00 -0.00000000000E+00 -0.50000000000E+03  0.50000000000E+03  0.00000000000E+00 0.  1.
        -11    1    1    2    0    0 -0.17334136660E+02  0.65638698522E+01  0.49086457983E+03  0.49121440574E+03  0.00000000000E+00 0. -1.
         11    1    1    2    0    0  0.77877971371E+01  0.91412350840E+01 -0.48278007668E+03  0.48292940934E+03  0.00000000000E+00 0.  1.
        -15    1    1    2    0    0 -0.45059523942E+00 -0.14025509991E+02 -0.33951859933E+01  0.14546579787E+02  0.17770000000E+01 0.  1.
         15    1    1    2    0    0  0.99969347625E+01 -0.16795949456E+01 -0.46893171514E+01  0.11309605129E+02  0.17770000000E+01 0. -1.
</event>
<event>
 6   1  0.1826851E-04  0.5061610E+03  0.7546771E-02  0.9386129E-01
        -11   -1    0    0    0    0  0.00000000000E+00  0.00000000000E+00  0.50000000000E+03  0.50000000000E+03  0.00000000000E+00 0. -1.
         11   -1    0    0    0    0 -0.00000000000E+00 -0.00000000000E+00 -0.50000000000E+03  0.50000000000E+03  0.00000000000E+00 0.  1.
        -11    1    1    2    0    0  0.15034810015E+02 -0.14471220100E+03  0.47192085671E+03  0.49383900375E+03  0.00000000000E+00 0. -1.
         11    1    1    2    0    0 -0.63155465587E+01  0.14569388654E+03 -0.29666069842E+03  0.33056643008E+03  0.00000000000E+00 0.  1.
        -15    1    1    2    0    0 -0.40654825213E+01  0.19397527678E+01 -0.62913303110E+02  0.63099383722E+02  0.17770000000E+01 0.  1.
         15    1    1    2    0    0 -0.46537809351E+01 -0.29214383126E+01 -0.11234685517E+03  0.11249518245E+03  0.17770000000E+01 0.  1.
</event>
<event>
 6   1  0.1826851E-04  0.4558270E+03  0.7546771E-02  0.9504465E-01
        -11   -1    0    0    0    0  0.00000000000E+00  0.00000000000E+00  0.50000000000E+03  0.50000000000E+03  0.00000000000E+00 0.  1.
         11   -1    0    0    0    0 -0.00000000000E+00 -0.00000000000E+00 -0.50000000000E+03  0.50000000000E+03  0.00000000000E+00 0.  1.
        -11    1    1    2    0    0 -0.46961142836E+02 -0.37078841313E+02  0.43975757597E+03  0.44380954816E+03  0.00000000000E+00 0.  1.
         11    1    1    2    0    0 -0.18758426244E+02  0.15486447267E+02 -0.47034823790E+03  0.47097682904E+03  0.00000000000E+00 0.  1.
        -15    1    1    2    0    0  0.33515119491E+02  0.23732308966E+02  0.58540741465E+00  0.41109441181E+02  0.17770000000E+01 0.  1.
         15    1    1    2    0    0  0.32204449589E+02 -0.21399149198E+01  0.30005254509E+02  0.44104181620E+02  0.17770000000E+01 0. -1.
</event>
<event>
 6   1  0.1826851E-04  0.5037879E+03  0.7546771E-02  0.9391374E-01
        -11   -1    0    0    0    0  0.00000000000E+00  0.00000000000E+00  0.50000000000E+03  0.50000000000E+03  0.00000000000E+00 0.  1.
         11   -1    0    0    0    0 -0.00000000000E+00 -0.00000000000E+00 -0.50000000000E+03  0.50000000000E+03  0.00000000000E+00 0. -1.
        -11    1    1    2    0    0 -0.50065931045E+01 -0.53860241705E+01  0.49615759049E+03  0.49621208150E+03  0.00000000000E+00 0.  1.
         11    1    1    2    0    0 -0.22050954254E+01  0.12744480109E+02 -0.48588802260E+03  0.48606013489E+03  0.00000000000E+00 0. -1.
        -15    1    1    2    0    0  0.57940462060E+01 -0.94841363272E+01 -0.87950649536E+01  0.14283931876E+02  0.17770000000E+01 0.  1.
         15    1    1    2    0    0  0.14176423239E+01  0.21256803887E+01 -0.14745029339E+01  0.34438517354E+01  0.17770000000E+01 0.  1.
</event>
<event>
 6   1  0.1826851E-04  0.5032882E+03  0.7546771E-02  0.9392482E-01
        -11   -1    0    0    0    0  0.00000000000E+00  0.00000000000E+00  0.50000000000E+03  0.50000000000E+03  0.00000000000E+00 0. -1.
         11   -1    0    0    0    0 -0.00000000000E+00 -0.00000000000E+00 -0.50000000000E+03  0.50000000000E+03  0.00000000000E+00 0. -1.
        -11    1    1    2    0    0  0.20625678627E+02  0.20266530428E+02  0.33020596619E+03  0.33146965319E+03  0.00000000000E+00 0. -1.
         11    1    1    2    0    0  0.98540402102E+01  0.15633756908E+01 -0.49661161890E+03  0.49671183424E+03  0.00000000000E+00 0. -1.
        -15    1    1    2    0    0 -0.54949159132E+00 -0.84420422502E+00  0.44281177278E+02  0.44328264256E+02  0.17770000000E+01 0.  1.
         15    1    1    2    0    0 -0.29930227245E+02 -0.20985701893E+02  0.12212447543E+03  0.12749024831E+03  0.17770000000E+01 0. -1.
</event>
<event>
 6   1  0.1826851E-04  0.5040044E+03  0.7546771E-02  0.9390894E-01
        -11   -1    0    0    0    0  0.00000000000E+00  0.00000000000E+00  0.50000000000E+03  0.50000000000E+03  0.00000000000E+00 0.  1.
         11   -1    0    0    0    0 -0.00000000000E+00 -0.00000000000E+00 -0.50000000000E+03  0.50000000000E+03  0.00000000000E+00 0.  1.
        -11    1    1    2    0    0 -0.31008001463E+02  0.30332508843E+01  0.45633941229E+03  0.45740174461E+03  0.00000000000E+00 0.  1.
         11    1    1    2    0    0  0.11503433365E+02  0.43812005690E+01 -0.49584282310E+03  0.49599559385E+03  0.00000000000E+00 0.  1.
        -15    1    1    2    0    0  0.71139029717E+01 -0.34901483089E+01  0.28004413899E+02  0.29158080827E+02  0.17770000000E+01 0. -1.
         15    1    1    2    0    0  0.12390665126E+02 -0.39243031443E+01  0.11498996910E+02  0.17444580716E+02  0.17770000000E+01 0.  1.
</event>
<event>
 6   1  0.1826851E-04  0.5072403E+03  0.7546771E-02  0.9383753E-01
        -11   -1    0    0    0    0  0.00000000000E+00  0.00000000000E+00  0.50000000000E+03  0.50000000000E+03  0.00000000000E+00 0.  1.
         11   -1    0    0    0    0 -0.00000000000E+00 -0.00000000000E+00 -0.50000000000E+03  0.50000000000E+03  0.00000000000E+00 0.  1.
        -11    1    1    2    0    0  0.77831210102E+01 -0.25668624593E+02  0.45195504158E+03  0.45275027871E+03  0.00000000000E+00 0.  1.
         11    1    1    2    0    0  0.11533030216E+02 -0.33851509663E+01 -0.49261306950E+03  0.49275968410E+03  0.00000000000E+00 0.  1.
        -15    1    1    2    0    0 -0.45212199905E+01  0.14673734027E+02  0.15272306030E+02  0.21729265082E+02  0.17770000000E+01 0. -1.
         15    1    1    2    0    0 -0.14794931236E+02  0.14380041532E+02  0.25385721882E+02  0.32760772109E+02  0.17770000000E+01 0.  1.
</event>
<event>
 6   1  0.1826851E-04  0.5026602E+03  0.7546771E-02  0.9393877E-01
        -11   -1    0    0    0    0  0.00000000000E+00  0.00000000000E+00  0.50000000000E+03  0.50000000000E+03  0.00000000000E+00 0. -1.
         11   -1    0    0    0    0 -0.00000000000E+00 -0.00000000000E+00 -0.50000000000E+03  0.50000000000E+03  0.00000000000E+00 0.  1.
        -11    1    1    2    0    0  0.14307946123E+02  0.93240937612E+01  0.45615679874E+03  0.45647637517E+03  0.00000000000E+00 0. -1.
         11    1    1    2    0    0 -0.43814906682E+01 -0.72813387288E+01 -0.49726720678E+03  0.49733981371E+03  0.00000000000E+00 0.  1.
        -15    1    1    2    0    0  0.36835286126E+01  0.38546558400E+01  0.16086439286E+02  0.17039894735E+02  0.17770000000E+01 0. -1.
         15    1    1    2    0    0 -0.13609984067E+02 -0.58974108724E+01  0.25023968757E+02  0.29143916392E+02  0.17770000000E+01 0.  1.
</event>
<event>
 6   1  0.1826851E-04  0.5001378E+03  0.7546771E-02  0.9399501E-01
        -11   -1    0    0    0    0  0.00000000000E+00  0.00000000000E+00  0.50000000000E+03  0.50000000000E+03  0.00000000000E+00 0.  1.
         11   -1    0    0    0    0 -0.00000000000E+00 -0.00000000000E+00 -0.50000000000E+03  0.50000000000E+03  0.00000000000E+00 0. -1.
        -11    1    1    2    0    0 -0.52743926476E+01  0.96009767215E+01  0.19988898570E+03  0.20018892221E+03  0.00000000000E+00 0.  1.
         11    1    1    2    0    0  0.79035352710E+01 -0.53645761020E+01 -0.49977093905E+03  0.49986221708E+03  0.00000000000E+00 0. -1.
        -15    1    1    2    0    0 -0.81296983517E+00 -0.22031471847E+01  0.17363404400E+03  0.17365901573E+03  0.17770000000E+01 0.  1.
         15    1    1    2    0    0 -0.18161727882E+01 -0.20332534347E+01  0.12624790934E+03  0.12628984498E+03  0.17770000000E+01 0.  1.
</event>
<event>
 6   1  0.1826851E-04  0.4859426E+03  0.7546771E-02  0.9431826E-01
        -11   -1    0    0    0    0  0.00000000000E+00  0.00000000000E+00  0.50000000000E+03  0.50000000000E+03  0.00000000000E+00 0. -1.
         11   -1    0    0    0    0 -0.00000000000E+00 -0.00000000000E+00 -0.50000000000E+03  0.50000000000E+03  0.00000000000E+00 0.  1.
        -11    1    1    2    0    0 -0.11719125451E+02  0.12400814489E+02  0.48715667965E+03  0.48745538117E+03  0.00000000000E+00 0. -1.
         11    1    1    2    0    0  0.68257976862E+01  0.55069306997E+01 -0.48453120637E+03  0.48461057330E+03  0.00000000000E+00 0.  1.
        -15    1    1    2    0    0  0.62884175061E+01 -0.16686386295E+02  0.60284095700E+01  0.18907118587E+02  0.17770000000E+01 0.  1.
         15    1    1    2    0    0 -0.13950897410E+01 -0.12213588937E+01 -0.86538828430E+01  0.90269269518E+01  0.17770000000E+01 0. -1.
</event>
<event>
 6   1  0.1826851E-04  0.5105555E+03  0.7546771E-02  0.9376496E-01
        -11   -1    0    0    0    0  0.00000000000E+00  0.00000000000E+00  0.50000000000E+03  0.50000000000E+03  0.00000000000E+00 0. -1.
         11   -1    0    0    0    0 -0.00000000000E+00 -0.00000000000E+00 -0.50000000000E+03  0.50000000000E+03  0.00000000000E+00 0.  1.
        -11    1    1    2    0    0 -0.29223308718E+02  0.24652335635E+01  0.48856505887E+03  0.48944447683E+03  0.00000000000E+00 0. -1.
         11    1    1    2    0    0 -0.32864050005E+00  0.76683497520E+01 -0.46070638710E+03  0.46077031883E+03  0.00000000000E+00 0.  1.
        -15    1    1    2    0    0  0.44375848794E+01 -0.41470134151E+01 -0.22479083082E+02  0.23352875305E+02  0.17770000000E+01 0. -1.
         15    1    1    2    0    0  0.25114364338E+02 -0.59865699004E+01 -0.53795886818E+01  0.26432329044E+02  0.17770000000E+01 0.  1.
</event>
<event>
 6   1  0.1826851E-04  0.5081483E+03  0.7546771E-02  0.9381760E-01
        -11   -1    0    0    0    0  0.00000000000E+00  0.00000000000E+00  0.50000000000E+03  0.50000000000E+03  0.00000000000E+00 0. -1.
         11   -1    0    0    0    0 -0.00000000000E+00 -0.00000000000E+00 -0.50000000000E+03  0.50000000000E+03  0.00000000000E+00 0. -1.
        -11    1    1    2    0    0 -0.14184450851E+02  0.86141604038E+01  0.49157164308E+03  0.49185168770E+03  0.00000000000E+00 0. -1.
         11    1    1    2    0    0  0.63156199948E+01  0.26993064836E+01 -0.48322329434E+03  0.48327210297E+03  0.00000000000E+00 0. -1.
        -15    1    1    2    0    0  0.16773683396E+01 -0.33265676888E+01 -0.12978584768E+02  0.13619141262E+02  0.17770000000E+01 0.  1.
         15    1    1    2    0    0  0.61914625164E+01 -0.79868991986E+01  0.46302360277E+01  0.11257068072E+02  0.17770000000E+01 0. -1.
</event>
<event>
 6   1  0.1826851E-04  0.5158078E+03  0.7546771E-02  0.9365117E-01
        -11   -1    0    0    0    0  0.00000000000E+00  0.00000000000E+00  0.50000000000E+03  0.50000000000E+03  0.00000000000E+00 0. -1.
         11   -1    0    0    0    0 -0.00000000000E+00 -0.00000000000E+00 -0.50000000000E+03  0.50000000000E+03  0.00000000000E+00 0.  1.
        -11    1    1    2    0    0  0.56306345877E+02  0.46980439057E+02  0.47860685097E+03  0.48419219742E+03  0.00000000000E+00 0. -1.
         11    1    1    2    0    0  0.16383083668E+02  0.13864345344E+02 -0.35360840231E+03  0.35425912506E+03  0.00000000000E+00 0.  1.
        -15    1    1    2    0    0 -0.28305997945E+02 -0.42977923667E+02 -0.83946505823E+02  0.98480988070E+02  0.17770000000E+01 0.  1.
         15    1    1    2    0    0 -0.44383431600E+02 -0.17866860734E+02 -0.41051942839E+02  0.63067689453E+02  0.17770000000E+01 0. -1.
</event>
<event>
 6   1  0.1826851E-04  0.5076084E+03  0.7546771E-02  0.9382945E-01
        -11   -1    0    0    0    0  0.00000000000E+00  0.00000000000E+00  0.50000000000E+03  0.50000000000E+03  0.00000000000E+00 0. -1.
         11   -1    0    0    0    0 -0.00000000000E+00 -0.00000000000E+00 -0.50000000000E+03  0.50000000000E+03  0.00000000000E+00 0.  1.
        -11    1    1    2    0    0 -0.46347252742E+01 -0.21286678943E+02  0.38969714605E+03  0.39030560977E+03  0.00000000000E+00 0. -1.
         11    1    1    2    0    0  0.87836356437E+01  0.30914487224E+00 -0.49231318030E+03  0.49239162800E+03  0.00000000000E+00 0.  1.
        -15    1    1    2    0    0  0.24090589833E+02  0.10611634518E+02  0.41800988137E+02  0.49431201117E+02  0.17770000000E+01 0. -1.
         15    1    1    2    0    0 -0.28239500202E+02  0.10365899553E+02  0.60815046111E+02  0.67871561111E+02  0.17770000000E+01 0.  1.
</event>
<event>
 6   1  0.1826851E-04  0.5006146E+03  0.7546771E-02  0.9398436E-01
        -11   -1    0    0    0    0  0.00000000000E+00  0.00000000000E+00  0.50000000000E+03  0.50000000000E+03  0.00000000000E+00 0.  1.
         11   -1    0    0    0    0 -0.00000000000E+00 -0.00000000000E+00 -0.50000000000E+03  0.50000000000E+03  0.00000000000E+00 0. -1.
        -11    1    1    2    0    0 -0.79579513776E+01  0.53435463350E+00  0.42448566078E+03  0.42456058546E+03  0.00000000000E+00 0.  1.
         11    1    1    2    0    0 -0.38510463979E+00 -0.76583387370E+01 -0.49932651811E+03  0.49938539240E+03  0.00000000000E+00 0. -1.
        -15    1    1    2    0    0  0.11151303098E+01  0.33304070462E+00  0.30894541401E+02  0.30967480509E+02  0.17770000000E+01 0.  1.
         15    1    1    2    0    0  0.72279257076E+01  0.67909433989E+01  0.43946315935E+02  0.45086541623E+02  0.17770000000E+01 0. -1.
</event>
<event>
 6   1  0.1826851E-04  0.5304754E+03  0.7546771E-02  0.9334087E-01
        -11   -1    0    0    0    0  0.00000000000E+00  0.00000000000E+00  0.50000000000E+03  0.50000000000E+03  0.00000000000E+00 0.  1.
         11   -1    0    0    0    0 -0.00000000000E+00 -0.00000000000E+00 -0.50000000000E+03  0.50000000000E+03  0.00000000000E+00 0.  1.
        -11    1    1    2    0    0  0.80631228300E+02 -0.64745721882E+02  0.34297208993E+03  0.35822235825E+03  0.00000000000E+00 0.  1.
         11    1    1    2    0    0  0.55119853735E-01 -0.12248300724E+02 -0.46936483263E+03  0.46952462132E+03  0.00000000000E+00 0.  1.
        -15    1    1    2    0    0 -0.15990015151E+02  0.23180860232E+02  0.55275181412E+02  0.62060746650E+02  0.17770000000E+01 0. -1.
         15    1    1    2    0    0 -0.64696333003E+02  0.53813162374E+02  0.71117561291E+02  0.11019227378E+03  0.17770000000E+01 0.  1.
</event>
<event>
 6   1  0.1826851E-04  0.5012217E+03  0.7546771E-02  0.9397080E-01
        -11   -1    0    0    0    0  0.00000000000E+00  0.00000000000E+00  0.50000000000E+03  0.50000000000E+03  0.00000000000E+00 0. -1.
         11   -1    0    0    0    0 -0.00000000000E+00 -0.00000000000E+00 -0.50000000000E+03  0.50000000000E+03  0.00000000000E+00 0. -1.
        -11    1    1    2    0    0  0.10797271122E+00  0.13914591761E+02  0.49858415933E+03  0.49877829891E+03  0.00000000000E+00 0. -1.
         11    1    1    2    0    0  0.10566854792E+02  0.18021154446E+00 -0.42071077000E+03  0.42084348979E+03  0.00000000000E+00 0. -1.
        -15    1    1    2    0    0 -0.38226116673E+01 -0.12812456854E+01 -0.29843646322E+02  0.30167116290E+02  0.17770000000E+01 0.  1.
         15    1    1    2    0    0 -0.68522158354E+01 -0.12813557620E+02 -0.48029743006E+02  0.50211095018E+02  0.17770000000E+01 0. -1.
</event>
<event>
 6   1  0.1826851E-04  0.5013748E+03  0.7546771E-02  0.9396739E-01
        -11   -1    0    0    0    0  0.00000000000E+00  0.00000000000E+00  0.50000000000E+03  0.50000000000E+03  0.00000000000E+00 0.  1.
         11   -1    0    0    0    0 -0.00000000000E+00 -0.00000000000E+00 -0.50000000000E+03  0.50000000000E+03  0.00000000000E+00 0.  1.
        -11    1    1    2    0    0  0.22535755933E+02 -0.22831625842E+02  0.49759219409E+03  0.49862524511E+03  0.00000000000E+00 0.  1.
         11    1    1    2    0    0 -0.11218854752E+02  0.40680870224E+01 -0.20519074566E+02  0.23736984961E+02  0.00000000000E+00 0.  1.
        -15    1    1    2    0    0 -0.33683270025E+01  0.70087679002E+01 -0.11145086681E+03  0.11173594720E+03  0.17770000000E+01 0. -1.
         15    1    1    2    0    0 -0.79485741789E+01  0.11754770919E+02 -0.36562225271E+03  0.36590182273E+03  0.17770000000E+01 0.  1.
</event>
<event>
 6   1  0.1826851E-04  0.5021155E+03  0.7546771E-02  0.9395088E-01
        -11   -1    0    0    0    0  0.00000000000E+00  0.00000000000E+00  0.50000000000E+03  0.50000000000E+03  0.00000000000E+00 0.  1.
         11   -1    0    0    0    0 -0.00000000000E+00 -0.00000000000E+00 -0.50000000000E+03  0.50000000000E+03  0.00000000000E+00 0.  1.
        -11    1    1    2    0    0 -0.11722825678E+02  0.54794750760E+01  0.38974256094E+03  0.38995732215E+03  0.00000000000E+00 0.  1.
         11    1    1    2    0    0  0.50236625493E+01 -0.51850137998E+01 -0.49783211251E+03  0.49788445828E+03  0.00000000000E+00 0.  1.
        -15    1    1    2    0    0 -0.50956805491E+01 -0.29901338736E+01  0.40001554343E+01  0.73529472552E+01  0.17770000000E+01 0.  1.
         15    1    1    2    0    0  0.11794843678E+02  0.26956725974E+01  0.10408939613E+03  0.10480527231E+03  0.17770000000E+01 0. -1.
</event>
<event>
 6   1  0.1826851E-04  0.5043586E+03  0.7546771E-02  0.9390110E-01
        -11   -1    0    0    0    0  0.00000000000E+00  0.00000000000E+00  0.50000000000E+03  0.50000000000E+03  0.00000000000E+00 0.  1.
         11   -1    0    0    0    0 -0.00000000000E+00 -0.00000000000E+00 -0.50000000000E+03  0.50000000000E+03  0.00000000000E+00 0. -1.
        -11    1    1    2    0    0  0.21449575608E+02  0.29599753773E+02  0.41683147653E+03  0.41843124829E+03  0.00000000000E+00 0.  1.
         11    1    1    2    0    0 -0.40181621831E+01 -0.21360062731E+02 -0.49516464142E+03  0.49564142282E+03  0.00000000000E+00 0. -1.
        -15    1    1    2    0    0  0.84243340234E+00  0.85448041083E+01  0.10516692765E+02  0.13692403989E+02  0.17770000000E+01 0. -1.
         15    1    1    2    0    0 -0.18273846827E+02 -0.16784495151E+02  0.67816472122E+02  0.72234924900E+02  0.17770000000E+01 0.  1.
</event>
<event>
 6   1  0.1826851E-04  0.5128625E+03  0.7546771E-02  0.9371480E-01
        -11   -1    0    0    0    0  0.00000000000E+00  0.00000000000E+00  0.50000000000E+03  0.50000000000E+03  0.00000000000E+00 0. -1.
         11   -1    0    0    0    0 -0.00000000000E+00 -0.00000000000E+00 -0.50000000000E+03  0.50000000000E+03  0.00000000000E+00 0.  1.
        -11    1    1    2    0    0  0.31152173972E+02  0.49096082851E+02  0.48365485340E+03  0.48713745546E+03  0.00000000000E+00 0. -1.
         11    1    1    2    0    0 -0.11063266797E+01 -0.64749386551E+01 -0.43731482997E+03  0.43736416097E+03  0.00000000000E+00 0.  1.
        -15    1    1    2    0    0 -0.32278562142E+02 -0.42126366406E+02 -0.34534758943E+02  0.63343062957E+02  0.17770000000E+01 0.  1.
         15    1    1    2    0    0  0.22327148504E+01 -0.49477779059E+00 -0.11805264489E+02  0.12155320618E+02  0.17770000000E+01 0.  1.
</event>
<event>
 6   1  0.1826851E-04  0.5004624E+03  0.7546771E-02  0.9398776E-01
        -11   -1    0    0    0    0  0.00000000000E+00  0.00000000000E+00  0.50000000000E+03  0.50000000000E+03  0.00000000000E+00 0. -1.
         11   -1    0    0    0    0 -0.00000000000E+00 -0.00000000000E+00 -0.50000000000E+03  0.50000000000E+03  0.00000000000E+00 0.  1.
        -11    1    1    2    0    0 -0.18147494925E+01 -0.17728623502E+02  0.20257531920E+03  0.20335770789E+03  0.00000000000E+00 0. -1.
         11    1    1    2    0    0  0.77163924822E+00  0.82823262503E+01 -0.49946832281E+03  0.49953758402E+03  0.00000000000E+00 0.  1.
        -15    1    1    2    0    0  0.28498755284E+01  0.65558847296E+01  0.19872676191E+03  0.19886323200E+03  0.17770000000E+01 0.  1.
         15    1    1    2    0    0 -0.18067652841E+01  0.28904125220E+01  0.98166241700E+02  0.98241476088E+02  0.17770000000E+01 0. -1.
</event>
<event>
 6   1  0.1826851E-04  0.5777054E+03  0.7546771E-02  0.9240974E-01
        -11   -1    0    0    0    0  0.00000000000E+00  0.00000000000E+00  0.50000000000E+03  0.50000000000E+03  0.00000000000E+00 0. -1.
         11   -1    0    0    0    0 -0.00000000000E+00 -0.00000000000E+00 -0.50000000000E+03  0.50000000000E+03  0.00000000000E+00 0. -1.
        -11    1    1    2    0    0  0.42815533607E+02 -0.76447544006E+02  0.33771067262E+03  0.34889238356E+03  0.00000000000E+00 0. -1.
         11    1    1    2    0    0 -0.54358035010E+02 -0.11337461548E+02 -0.41862801932E+03  0.42229462767E+03  0.00000000000E+00 0. -1.
        -15    1    1    2    0    0  0.54745819325E+02  0.80835820702E+02 -0.35915676989E+02  0.10404147358E+03  0.17770000000E+01 0. -1.
         15    1    1    2    0    0 -0.43203317921E+02  0.69491848522E+01  0.11683302368E+03  0.12477151518E+03  0.17770000000E+01 0.  1.
</event>
<event>
 6   1  0.1826851E-04  0.5070800E+03  0.7546771E-02  0.9384106E-01
        -11   -1    0    0    0    0  0.00000000000E+00  0.00000000000E+00  0.50000000000E+03  0.50000000000E+03  0.00000000000E+00 0.  1.
         11   -1    0    0    0    0 -0.00000000000E+00 -0.00000000000E+00 -0.50000000000E+03  0.50000000000E+03  0.00000000000E+00 0. -1.
        -11    1    1    2    0    0 -0.37197008557E+01 -0.14960533556E+02  0.49267886703E+03  0.49291999327E+03  0.00000000000E+00 0.  1.
         11    1    1    2    0    0  0.11982889325E+02 -0.19425514224E+02 -0.44785960528E+03  0.44844081692E+03  0.00000000000E+00 0. -1.
        -15    1    1    2    0    0 -0.30240873495E+01  0.11345155774E+02 -0.25266259936E+02  0.27917723475E+02  0.17770000000E+01 0.  1.
         15    1    1    2    0    0 -0.52391011198E+01  0.23040892006E+02 -0.19553001820E+02  0.30721466341E+02  0.17770000000E+01 0. -1.
</event>
<event>
 6   1  0.1826851E-04  0.5016904E+03  0.7546771E-02  0.9396035E-01
        -11   -1    0    0    0    0  0.00000000000E+00  0.00000000000E+00  0.50000000000E+03  0.50000000000E+03  0.00000000000E+00 0. -1.
         11   -1    0    0    0    0 -0.00000000000E+00 -0.00000000000E+00 -0.50000000000E+03  0.50000000000E+03  0.00000000000E+00 0.  1.
        -11    1    1    2    0    0 -0.71050112231E+01  0.14776618103E+02  0.49803982451E+03  0.49830963910E+03  0.00000000000E+00 0. -1.
         11    1    1    2    0    0 -0.11799585594E+00  0.13298790728E+02 -0.34110105206E+03  0.34136021952E+03  0.00000000000E+00 0.  1.
        -15    1    1    2    0    0  0.74465701713E+01 -0.25674620159E+02 -0.10705588412E+03  0.11035740836E+03  0.17770000000E+01 0. -1.
         15    1    1    2    0    0 -0.22356309226E+00 -0.24007886726E+01 -0.49882888338E+02  0.49972733011E+02  0.17770000000E+01 0.  1.
</event>
<event>
 6   1  0.1826851E-04  0.5011470E+03  0.7546771E-02  0.9397247E-01
        -11   -1    0    0    0    0  0.00000000000E+00  0.00000000000E+00  0.50000000000E+03  0.50000000000E+03  0.00000000000E+00 0. -1.
         11   -1    0    0    0    0 -0.00000000000E+00 -0.00000000000E+00 -0.50000000000E+03  0.50000000000E+03  0.00000000000E+00 0. -1.
        -11    1    1    2    0    0  0.58940575589E+01 -0.17253312295E+02  0.54167649346E+02  0.57153748218E+02  0.00000000000E+00 0. -1.
         11    1    1    2    0    0 -0.63292549215E+01  0.29755618266E+02 -0.49792451668E+03  0.49885296491E+03  0.00000000000E+00 0. -1.
        -15    1    1    2    0    0 -0.27091848640E+01 -0.50850182780E+01  0.15133026644E+03  0.15145033630E+03  0.17770000000E+01 0. -1.
         15    1    1    2    0    0  0.31443822266E+01 -0.74172876933E+01  0.29242660089E+03  0.29254295058E+03  0.17770000000E+01 0.  1.
</event>
<event>
 6   1  0.1826851E-04  0.5004950E+03  0.7546771E-02  0.9398703E-01
        -11   -1    0    0    0    0  0.00000000000E+00  0.00000000000E+00  0.50000000000E+03  0.50000000000E+03  0.00000000000E+00 0. -1.
         11   -1    0    0    0    0 -0.00000000000E+00 -0.00000000000E+00 -0.50000000000E+03  0.50000000000E+03  0.00000000000E+00 0.  1.
        -11    1    1    2    0    0 -0.14357521405E+02  0.37028111759E+02  0.49792370430E+03  0.49950498975E+03  0.00000000000E+00 0. -1.
         11    1    1    2    0    0  0.17639509996E+01  0.14908382103E+01 -0.61735416566E+02  0.61778602932E+02  0.00000000000E+00 0.  1.
        -15    1    1    2    0    0  0.11911087540E+02 -0.43440418233E+01 -0.11827054236E+03  0.11896143755E+03  0.17770000000E+01 0. -1.
         15    1    1    2    0    0  0.68248286470E+00 -0.34174908146E+02 -0.31791774538E+03  0.31975496976E+03  0.17770000000E+01 0.  1.
</event>
<event>
 6   1  0.1826851E-04  0.5057859E+03  0.7546771E-02  0.9386956E-01
        -11   -1    0    0    0    0  0.00000000000E+00  0.00000000000E+00  0.50000000000E+03  0.50000000000E+03  0.00000000000E+00 0.  1.
         11   -1    0    0    0    0 -0.00000000000E+00 -0.00000000000E+00 -0.50000000000E+03  0.50000000000E+03  0.00000000000E+00 0.  1.
        -11    1    1    2    0    0  0.29282381785E+02 -0.16772134376E+02  0.49306069285E+03  0.49421413295E+03  0.00000000000E+00 0.  1.
         11    1    1    2    0    0  0.63890320906E+01  0.13669436421E+01 -0.43212520302E+03  0.43217459359E+03  0.00000000000E+00 0.  1.
        -15    1    1    2    0    0 -0.81509968716E+01  0.10151294372E+02 -0.17280382535E+02  0.21708451741E+02  0.17770000000E+01 0. -1.
         15    1    1    2    0    0 -0.27520417004E+02  0.52538963618E+01 -0.43655107301E+02  0.51902821710E+02  0.17770000000E+01 0.  1.
</event>
<event>
 6   1  0.1826851E-04  0.5023694E+03  0.7546771E-02  0.9394524E-01
        -11   -1    0    0    0    0  0.00000000000E+00  0.00000000000E+00  0.50000000000E+03  0.50000000000E+03  0.00000000000E+00 0. -1.
         11   -1    0    0    0    0 -0.00000000000E+00 -0.00000000000E+00 -0.50000000000E+03  0.50000000000E+03  0.00000000000E+00 0.  1.
        -11    1    1    2    0    0 -0.87730749094E+01 -0.14426925871E+02  0.39440418590E+03  0.39476545554E+03  0.00000000000E+00 0. -1.
         11    1    1    2    0    0 -0.98720164241E+01  0.89302012834E+00 -0.49753186510E+03  0.49763059691E+03  0.00000000000E+00 0.  1.
        -15    1    1    2    0    0  0.20002046134E+02  0.59672496861E+01  0.88900882518E+02  0.91335724445E+02  0.17770000000E+01 0.  1.
         15    1    1    2    0    0 -0.13569548007E+01  0.75666560570E+01  0.14226796678E+02  0.16268223103E+02  0.17770000000E+01 0. -1.
</event>
<event>
 6   1  0.1826851E-04  0.5001717E+03  0.7546771E-02  0.9399426E-01
        -11   -1    0    0    0    0  0.00000000000E+00  0.00000000000E+00  0.50000000000E+03  0.50000000000E+03  0.00000000000E+00 0. -1.
         11   -1    0    0    0    0 -0.00000000000E+00 -0.00000000000E+00 -0.50000000000E+03  0.50000000000E+03  0.00000000000E+00 0. -1.
        -11    1    1    2    0    0 -0.66078907665E+01  0.10248881131E+02  0.49967948326E+03  0.49982826028E+03  0.00000000000E+00 0. -1.
         11    1    1    2    0    0  0.80896073954E+00 -0.12959392896E+01 -0.95832229669E+02  0.95844405781E+02  0.00000000000E+00 0. -1.
        -15    1    1    2    0    0  0.84695183603E+01 -0.62945730014E+01 -0.37759144157E+03  0.37774304608E+03  0.17770000000E+01 0. -1.
         15    1    1    2    0    0 -0.26705883333E+01 -0.26583688402E+01 -0.26255812023E+02  0.26584287859E+02  0.17770000000E+01 0.  1.
</event>
<event>
 6   1  0.1826851E-04  0.4828283E+03  0.7546771E-02  0.9439074E-01
        -11   -1    0    0    0    0  0.00000000000E+00  0.00000000000E+00  0.50000000000E+03  0.50000000000E+03  0.00000000000E+00 0. -1.
         11   -1    0    0    0    0 -0.00000000000E+00 -0.00000000000E+00 -0.50000000000E+03  0.50000000000E+03  0.00000000000E+00 0. -1.
        -11    1    1    2    0    0 -0.14826060465E+02 -0.11852307274E+02  0.48330224970E+03  0.48367484308E+03  0.00000000000E+00 0. -1.
         11    1    1    2    0    0  0.15013331850E+02  0.19183489794E+02 -0.48139555349E+03  0.48201149917E+03  0.00000000000E+00 0. -1.
        -15    1    1    2    0    0  0.71278482852E+01  0.10096970971E+02 -0.74453764164E+01  0.14537757838E+02  0.17770000000E+01 0. -1.
         15    1    1    2    0    0 -0.73151196702E+01 -0.17428153491E+02  0.55386802048E+01  0.19775899912E+02  0.17770000000E+01 0.  1.
</event>
<event>
 6   1  0.1826851E-04  0.5131966E+03  0.7546771E-02  0.9370756E-01
        -11   -1    0    0    0    0  0.00000000000E+00  0.00000000000E+00  0.50000000000E+03  0.50000000000E+03  0.00000000000E+00 0.  1.
         11   -1    0    0    0    0 -0.00000000000E+00 -0.00000000000E+00 -0.50000000000E+03  0.50000000000E+03  0.00000000000E+00 0.  1.
        -11    1    1    2    0    0  0.35446509278E+02  0.54082424635E+02  0.48248954224E+03  0.48680337103E+03  0.00000000000E+00 0.  1.
         11    1    1    2    0    0  0.81539414196E+01 -0.26654844385E+01 -0.41224723295E+03  0.41233647988E+03  0.00000000000E+00 0.  1.
        -15    1    1    2    0    0 -0.43545354409E+02 -0.42974206514E+02 -0.50625175148E+02  0.79429505877E+02  0.17770000000E+01 0.  1.
         15    1    1    2    0    0 -0.55096287725E-01 -0.84427336818E+01 -0.19617134141E+02  0.21430643213E+02  0.17770000000E+01 0. -1.
</event>
<event>
 6   1  0.1826851E-04  0.5107844E+03  0.7546771E-02  0.9375997E-01
        -11   -1    0    0    0    0  0.00000000000E+00  0.00000000000E+00  0.50000000000E+03  0.50000000000E+03  0.00000000000E+00 0.  1.
         11   -1    0    0    0    0 -0.00000000000E+00 -0.00000000000E+00 -0.50000000000E+03  0.50000000000E+03  0.00000000000E+00 0. -1.
        -11    1    1    2    0    0  0.23517087050E+02 -0.52964413217E+02  0.18498676822E+03  0.19385145568E+03  0.00000000000E+00 0.  1.
         11    1    1    2    0    0  0.16847995980E+01  0.94045333435E+01 -0.48912227364E+03  0.48921557862E+03  0.00000000000E+00 0. -1.
        -15    1    1    2    0    0 -0.27238539713E+02  0.46075010682E+02  0.30738455281E+03  0.31201484851E+03  0.17770000000E+01 0.  1.
         15    1    1    2    0    0  0.20366530650E+01 -0.25151308080E+01 -0.32490473950E+01  0.49181171868E+01  0.17770000000E+01 0. -1.
</event>
<event>
 6   1  0.1826851E-04  0.4917892E+03  0.7546771E-02  0.9418372E-01
        -11   -1    0    0    0    0  0.00000000000E+00  0.00000000000E+00  0.50000000000E+03  0.50000000000E+03  0.00000000000E+00 0. -1.
         11   -1    0    0    0    0 -0.00000000000E+00 -0.00000000000E+00 -0.50000000000E+03  0.50000000000E+03  0.00000000000E+00 0. -1.
        -11    1    1    2    0    0 -0.29221392140E+01 -0.76186110506E+01  0.49438733215E+03  0.49445466559E+03  0.00000000000E+00 0. -1.
         11    1    1    2    0    0 -0.70920055271E+01  0.12152719201E+01 -0.48915658279E+03  0.48920950105E+03  0.00000000000E+00 0. -1.
        -15    1    1    2    0    0  0.52271779005E+01  0.80781960711E+01 -0.49228262909E+01  0.10953199910E+02  0.17770000000E+01 0.  1.
         15    1    1    2    0    0  0.47869668406E+01 -0.16748569406E+01 -0.30792306739E+00  0.53826334558E+01  0.17770000000E+01 0. -1.
</event>
<event>
 6   1  0.1826851E-04  0.5049601E+03  0.7546771E-02  0.9388779E-01
        -11   -1    0    0    0    0  0.00000000000E+00  0.00000000000E+00  0.50000000000E+03  0.50000000000E+03  0.00000000000E+00 0. -1.
         11   -1    0    0    0    0 -0.00000000000E+00 -0.00000000000E+00 -0.50000000000E+03  0.50000000000E+03  0.00000000000E+00 0. -1.
        -11    1    1    2    0    0 -0.71584711558E+01 -0.21281947561E+02  0.35365423098E+03  0.35436630778E+03  0.00000000000E+00 0. -1.
         11    1    1    2    0    0 -0.67040042490E+00  0.82880354037E+01 -0.49497004810E+03  0.49503988676E+03  0.00000000000E+00 0. -1.
        -15    1    1    2    0    0  0.53668405798E+01 -0.48175281502E+01 -0.67480495896E+00  0.74581932141E+01  0.17770000000E+01 0. -1.
         15    1    1    2    0    0  0.24620310009E+01  0.17811440307E+02  0.14199062208E+03  0.14313561224E+03  0.17770000000E+01 0.  1.
</event>
<event>
 6   1  0.1826851E-04  0.5001380E+03  0.7546771E-02  0.9399501E-01
        -11   -1    0    0    0    0  0.00000000000E+00  0.00000000000E+00  0.50000000000E+03  0.50000000000E+03  0.00000000000E+00 0.  1.
         11   -1    0    0    0    0 -0.00000000000E+00 -0.00000000000E+00 -0.50000000000E+03  0.50000000000E+03  0.00000000000E+00 0.  1.
        -11    1    1    2    0    0  0.91065236118E+00  0.24791644066E+00  0.15319488751E+01  0.17993381118E+01  0.00000000000E+00 0.  1.
         11    1    1    2    0    0 -0.68278188654E+01  0.10325156174E+01 -0.49981431062E+03  0.49986201126E+03  0.00000000000E+00 0.  1.
        -15    1    1    2    0    0  0.95590522727E+00  0.16096539672E+00  0.14018275372E+03  0.14019736743E+03  0.17770000000E+01 0.  1.
         15    1    1    2    0    0  0.49612612769E+01 -0.14413974548E+01  0.35809960802E+03  0.35814128320E+03  0.17770000000E+01 0.  1.
</event>
<event>
 6   1  0.1826851E-04  0.5014292E+03  0.7546771E-02  0.9396617E-01
        -11   -1    0    0    0    0  0.00000000000E+00  0.00000000000E+00  0.50000000000E+03  0.50000000000E+03  0.00000000000E+00 0.  1.
         11   -1    0    0    0    0 -0.00000000000E+00 -0.00000000000E+00 -0.50000000000E+03  0.50000000000E+03  0.00000000000E+00 0. -1.
        -11    1    1    2    0    0 -0.15653080866E+02  0.22875280412E+01  0.44438377559E+03  0.44466525807E+03  0.00000000000E+00 0.  1.
         11    1    1    2    0    0  0.34734686619E+01 -0.73037419071E+01 -0.49850517472E+03  0.49857077617E+03  0.00000000000E+00 0. -1.
        -15    1    1    2    0    0 -0.21924318282E+00  0.20474808540E+01  0.21870784354E+02  0.22039264568E+02  0.17770000000E+01 0. -1.
         15    1    1    2    0    0  0.12398855387E+02  0.29687330119E+01  0.32250614773E+02  0.34724701192E+02  0.17770000000E+01 0.  1.
</event>
<event>
 6   1  0.1826851E-04  0.5021527E+03  0.7546771E-02  0.9395006E-01
        -11   -1    0    0    0    0  0.00000000000E+00  0.00000000000E+00  0.50000000000E+03  0.50000000000E+03  0.00000000000E+00 0. -1.
         11   -1    0    0    0    0 -0.00000000000E+00 -0.00000000000E+00 -0.50000000000E+03  0.50000000000E+03  0.00000000000E+00 0.  1.
        -11    1    1    2    0    0 -0.29781591997E+01  0.26602446215E+02  0.12022062761E+03  0.12316476314E+03  0.00000000000E+00 0. -1.
         11    1    1    2    0    0 -0.75059315644E+01 -0.95553369631E+01 -0.49769895824E+03  0.49784726222E+03  0.00000000000E+00 0.  1.
        -15    1    1    2    0    0  0.18394076927E+02 -0.13947133470E+02  0.32237014961E+03  0.32320045744E+03  0.17770000000E+01 0. -1.
         15    1    1    2    0    0 -0.79099861624E+01 -0.30999757813E+01  0.55108181016E+02  0.55787517195E+02  0.17770000000E+01 0.  1.
</event>
<event>
 6   1  0.1826851E-04  0.4880505E+03  0.7546771E-02  0.9426952E-01
        -11   -1    0    0    0    0  0.00000000000E+00  0.00000000000E+00  0.50000000000E+03  0.50000000000E+03  0.00000000000E+00 0.  1.
         11   -1    0    0    0    0 -0.00000000000E+00 -0.00000000000E+00 -0.50000000000E+03  0.50000000000E+03  0.00000000000E+00 0.  1.
        -11    1    1    2    0    0  0.17366024922E+02 -0.16501446431E+01  0.48698607774E+03  0.48729841135E+03  0.00000000000E+00 0.  1.
         11    1    1    2    0    0  0.44777867411E+01  0.52601228668E+01 -0.48900695191E+03  0.48905574169E+03  0.00000000000E+00 0.  1.
        -15    1    1    2    0    0 -0.37134005400E+01 -0.30307755680E+01  0.17948675597E+01  0.54179537347E+01  0.17770000000E+01 0. -1.
         15    1    1    2    0    0 -0.18130411123E+02 -0.57920265565E+00  0.22600661305E+00  0.18227893219E+02  0.17770000000E+01 0.  1.
</event>
<event>
 6   1  0.1826851E-04  0.4993885E+03  0.7546771E-02  0.9401179E-01
        -11   -1    0    0    0    0  0.00000000000E+00  0.00000000000E+00  0.50000000000E+03  0.50000000000E+03  0.00000000000E+00 0.  1.
         11   -1    0    0    0    0 -0.00000000000E+00 -0.00000000000E+00 -0.50000000000E+03  0.50000000000E+03  0.00000000000E+00 0. -1.
        -11    1    1    2    0    0 -0.31748198828E-01  0.87378021919E+00  0.90614509392E+00  0.12592056031E+01  0.00000000000E+00 0.  1.
         11    1    1    2    0    0  0.96942345880E+01  0.63384406470E+01 -0.49966499152E+03  0.49979921745E+03  0.00000000000E+00 0. -1.
        -15    1    1    2    0    0 -0.77160361004E+01 -0.46749579535E+01  0.41640400939E+03  0.41650552122E+03  0.17770000000E+01 0.  1.
         15    1    1    2    0    0 -0.19464502888E+01 -0.25372629128E+01  0.82354837034E+02  0.82436055726E+02  0.17770000000E+01 0.  1.
</event>
<event>
 6   1  0.1826851E-04  0.5057362E+03  0.7546771E-02  0.9387065E-01
        -11   -1    0    0    0    0  0.00000000000E+00  0.00000000000E+00  0.50000000000E+03  0.50000000000E+03  0.00000000000E+00 0.  1.
         11   -1    0    0    0    0 -0.00000000000E+00 -0.00000000000E+00 -0.50000000000E+03  0.50000000000E+03  0.00000000000E+00 0. -1.
        -11    1    1    2    0    0 -0.63521663796E+00  0.21266102304E+02  0.49380572688E+03  0.49426384301E+03  0.00000000000E+00 0.  1.
         11    1    1    2    0    0 -0.78993487025E+01 -0.93149706194E+00 -0.47650496095E+03  0.47657134325E+03  0.00000000000E+00 0. -1.
        -15    1    1    2    0    0  0.34569883183E+01 -0.24864383172E+01 -0.19213497106E+01  0.49982454370E+01  0.17770000000E+01 0.  1.
         15    1    1    2    0    0  0.50775770221E+01 -0.17848166925E+02 -0.15379416226E+02  0.24166568301E+02  0.17770000000E+01 0. -1.
</event>
<event>
 6   1  0.1826851E-04  0.5002268E+03  0.7546771E-02  0.9399302E-01
        -11   -1    0    0    0    0  0.00000000000E+00  0.00000000000E+00  0.50000000000E+03  0.50000000000E+03  0.00000000000E+00 0.  1.
         11   -1    0    0    0    0 -0.00000000000E+00 -0.00000000000E+00 -0.50000000000E+03  0.50000000000E+03  0.00000000000E+00 0.  1.
        -11    1    1    2    0    0  0.94129106962E+01 -0.11016834145E+02  0.22362419731E+03  0.22409318407E+03  0.00000000000E+00 0.  1.
         11    1    1    2    0    0 -0.44551115224E+01  0.12612757971E+02 -0.49959410930E+03  0.49977315227E+03  0.00000000000E+00 0.  1.
        -15    1    1    2    0    0  0.96848970120E+00  0.13090934180E+01  0.47005394685E+02  0.47067149440E+02  0.17770000000E+01 0.  1.
         15    1    1    2    0    0 -0.59262888750E+01 -0.29050172440E+01  0.22896451730E+03  0.22906651422E+03  0.17770000000E+01 0.  1.
</event>
<event>
 6   1  0.1826851E-04  0.5067089E+03  0.7546771E-02  0.9384922E-01
        -11   -1    0    0    0    0  0.00000000000E+00  0.00000000000E+00  0.50000000000E+03  0.50000000000E+03  0.00000000000E+00 0. -1.
         11   -1    0    0    0    0 -0.00000000000E+00 -0.00000000000E+00 -0.50000000000E+03  0.50000000000E+03  0.00000000000E+00 0.  1.
        -11    1    1    2    0    0  0.95727944533E+01 -0.45914163356E+02  0.38006107217E+03  0.38294407864E+03  0.00000000000E+00 0. -1.
         11    1    1    2    0    0 -0.90183733343E+01  0.24830870144E+02 -0.49258315967E+03  0.49329106252E+03  0.00000000000E+00 0.  1.
        -15    1    1    2    0    0  0.12110039218E+02  0.61469540879E+01  0.98900503531E+02  0.99844406063E+02  0.17770000000E+01 0. -1.
         15    1    1    2    0    0 -0.12664460337E+02  0.14936339124E+02  0.13621583976E+02  0.23920452777E+02  0.17770000000E+01 0.  1.
</event>
<event>
 6   1  0.1826851E-04  0.4903455E+03  0.7546771E-02  0.9421675E-01
        -11   -1    0    0    0    0  0.00000000000E+00  0.00000000000E+00  0.50000000000E+03  0.50000000000E+03  0.00000000000E+00 0. -1.
         11   -1    0    0    0    0 -0.00000000000E+00 -0.00000000000E+00 -0.50000000000E+03  0.50000000000E+03  0.00000000000E+00 0.  1.
        -11    1    1    2    0    0  0.70669309282E+01 -0.12728569635E+02  0.48836720008E+03  0.48858415868E+03  0.00000000000E+00 0. -1.
         11    1    1    2    0    0 -0.67749014654E+01  0.42639290653E+01 -0.49208534127E+03  0.49215044800E+03  0.00000000000E+00 0.  1.
        -15    1    1    2    0    0  0.64532636733E+01  0.52690642648E+01 -0.30361359403E+01  0.90434230638E+01  0.17770000000E+01 0. -1.
         15    1    1    2    0    0 -0.67452931361E+01  0.31955763050E+01  0.67542771280E+01  0.10221970257E+02  0.17770000000E+01 0.  1.
</event>
<event>
 6   1  0.1826851E-04  0.5012093E+03  0.7546771E-02  0.9397108E-01
        -11   -1    0    0    0    0  0.00000000000E+00  0.00000000000E+00  0.50000000000E+03  0.50000000000E+03  0.00000000000E+00 0.  1.
         11   -1    0    0    0    0 -0.00000000000E+00 -0.00000000000E+00 -0.50000000000E+03  0.50000000000E+03  0.00000000000E+00 0.  1.
        -11    1    1    2    0    0  0.14326711256E+02 -0.17720078499E+02  0.49826989841E+03  0.49879068505E+03  0.00000000000E+00 0.  1.
         11    1    1    2    0    0 -0.52515627979E+01  0.42774226875E+01 -0.44400361036E+03  0.44405526826E+03  0.00000000000E+00 0.  1.
        -15    1    1    2    0    0 -0.91334382639E+00 -0.99481595022E-01 -0.51507012013E+01  0.55255357567E+01  0.17770000000E+01 0. -1.
         15    1    1    2    0    0 -0.81618046313E+01  0.13542137407E+02 -0.49115586852E+02  0.51628510933E+02  0.17770000000E+01 0. -1.
</event>
<event>
 6   1  0.1826851E-04  0.4780211E+03  0.7546771E-02  0.9450378E-01
        -11   -1    0    0    0    0  0.00000000000E+00  0.00000000000E+00  0.50000000000E+03  0.50000000000E+03  0.00000000000E+00 0.  1.
         11   -1    0    0    0    0 -0.00000000000E+00 -0.00000000000E+00 -0.50000000000E+03  0.50000000000E+03  0.00000000000E+00 0.  1.
        -11    1    1    2    0    0  0.30652596992E+02  0.19757784911E+02  0.47624102622E+03  0.47763528641E+03  0.00000000000E+00 0.  1.
         11    1    1    2    0    0  0.84338011096E+00  0.71637084053E+01 -0.47925481311E+03  0.47930909223E+03  0.00000000000E+00 0.  1.
        -15    1    1    2    0    0 -0.52468719013E+01 -0.35304183409E+00  0.10142384691E+00  0.55517852158E+01  0.17770000000E+01 0.  1.
         15    1    1    2    0    0 -0.26249105202E+02 -0.26568451482E+02  0.29123630340E+01  0.37503836144E+02  0.17770000000E+01 0. -1.
</event>
<event>
 6   1  0.1826851E-04  0.5001406E+03  0.7546771E-02  0.9399495E-01
        -11   -1    0    0    0    0  0.00000000000E+00  0.00000000000E+00  0.50000000000E+03  0.50000000000E+03  0.00000000000E+00 0.  1.
         11   -1    0    0    0    0 -0.00000000000E+00 -0.00000000000E+00 -0.50000000000E+03  0.50000000000E+03  0.00000000000E+00 0. -1.
        -11    1    1    2    0    0  0.81636127155E+01  0.10488921977E+02  0.20888892126E+03  0.20931135536E+03  0.00000000000E+00 0.  1.
         11    1    1    2    0    0 -0.17543023673E+02 -0.93825813178E+01 -0.49946331957E+03  0.49985937834E+03  0.00000000000E+00 0. -1.
        -15    1    1    2    0    0  0.56577028312E+01 -0.20269052951E+01  0.23896430207E+03  0.23904646690E+03  0.17770000000E+01 0.  1.
         15    1    1    2    0    0  0.37217081262E+01  0.92056463588E+00  0.51610096243E+02  0.51782799401E+02  0.17770000000E+01 0. -1.
</event>
<event>
 6   1  0.1826851E-04  0.5016376E+03  0.7546771E-02  0.9396153E-01
        -11   -1    0    0    0    0  0.00000000000E+00  0.00000000000E+00  0.50000000000E+03  0.50000000000E+03  0.00000000000E+00 0. -1.
         11   -1    0    0    0    0 -0.00000000000E+00 -0.00000000000E+00 -0.50000000000E+03  0.50000000000E+03  0.00000000000E+00 0. -1.
        -11    1    1    2    0    0  0.98383998297E+01  0.16350831866E+02  0.10428552539E+03  0.10601704872E+03  0.00000000000E+00 0. -1.
         11    1    1    2    0    0  0.30125602991E+01 -0.93343284829E+01 -0.49826589446E+03  0.49836242514E+03  0.00000000000E+00 0. -1.
        -15    1    1    2    0    0 -0.41464937981E+01 -0.56078658739E+01  0.16127013088E+02  0.17660120345E+02  0.17770000000E+01 0. -1.
         15    1    1    2    0    0 -0.87044663307E+01 -0.14086375097E+01  0.37785335598E+03  0.37796040580E+03  0.17770000000E+01 0. -1.
</event>
<event>
 6   1  0.1826851E-04  0.5010586E+03  0.7546771E-02  0.9397444E-01
        -11   -1    0    0    0    0  0.00000000000E+00  0.00000000000E+00  0.50000000000E+03  0.50000000000E+03  0.00000000000E+00 0. -1.
         11   -1    0    0    0    0 -0.00000000000E+00 -0.00000000000E+00 -0.50000000000E+03  0.50000000000E+03  0.00000000000E+00 0.  1.
        -11    1    1    2    0    0 -0.72450382863E+01 -0.31703422808E+01  0.41843836745E+03  0.41851309299E+03  0.00000000000E+00 0. -1.
         11    1    1    2    0    0 -0.65860754912E+01 -0.62233730041E+01 -0.49885908197E+03  0.49894136973E+03  0.00000000000E+00 0.  1.
        -15    1    1    2    0    0  0.56233659731E+01  0.22886346790E+01  0.16233311944E+02  0.17422348844E+02  0.17770000000E+01 0.  1.
         15    1    1    2    0    0  0.82077478044E+01  0.71050806059E+01  0.64187402573E+02  0.65123188439E+02  0.17770000000E+01 0. -1.
</event>
<event>
 6   1  0.1826851E-04  0.5018542E+03  0.7546771E-02  0.9395670E-01
        -11   -1    0    0    0    0  0.00000000000E+00  0.00000000000E+00  0.50000000000E+03  0.50000000000E+03  0.00000000000E+00 0.  1.
         11   -1    0    0    0    0 -0.00000000000E+00 -0.00000000000E+00 -0.50000000000E+03  0.50000000000E+03  0.00000000000E+00 0.  1.
        -11    1    1    2    0    0  0.11591389367E+02 -0.99972878964E+01  0.49791057643E+03  0.49814581017E+03  0.00000000000E+00 0.  1.
         11    1    1    2    0    0  0.32381785402E+01  0.10848570356E+02 -0.44881070923E+03  0.44895348311E+03  0.00000000000E+00 0.  1.
        -15    1    1    2    0    0 -0.73480905141E+01  0.16091006803E+01 -0.39981220454E+02  0.40721485204E+02  0.17770000000E+01 0. -1.
         15    1    1    2    0    0 -0.74814773935E+01 -0.24603831395E+01 -0.91186467481E+01  0.12179221515E+02  0.17770000000E+01 0.  1.
</event>
<event>
 6   1  0.1826851E-04  0.5019011E+03  0.7546771E-02  0.9395566E-01
        -11   -1    0    0    0    0  0.00000000000E+00  0.00000000000E+00  0.50000000000E+03  0.50000000000E+03  0.00000000000E+00 0. -1.
         11   -1    0    0    0    0 -0.00000000000E+00 -0.00000000000E+00 -0.50000000000E+03  0.50000000000E+03  0.00000000000E+00 0. -1.
        -11    1    1    2    0    0  0.96154831110E+01  0.62896256756E+01  0.49796638476E+03  0.49809892316E+03  0.00000000000E+00 0. -1.
         11    1    1    2    0    0 -0.25943262630E+01  0.65705868678E+01 -0.44076757936E+03  0.44082418509E+03  0.00000000000E+00 0. -1.
        -15    1    1    2    0    0  0.12316162650E+01 -0.89258407612E+01 -0.13058250512E+02  0.15964433825E+02  0.17770000000E+01 0. -1.
         15    1    1    2    0    0 -0.82527731129E+01 -0.39343717822E+01 -0.44140554886E+02  0.45112457924E+02  0.17770000000E+01 0.  1.
</event>
<event>
 6   1  0.1826851E-04  0.5002196E+03  0.7546771E-02  0.9399319E-01
        -11   -1    0    0    0    0  0.00000000000E+00  0.00000000000E+00  0.50000000000E+03  0.50000000000E+03  0.00000000000E+00 0.  1.
         11   -1    0    0    0    0 -0.00000000000E+00 -0.00000000000E+00 -0.50000000000E+03  0.50000000000E+03  0.00000000000E+00 0. -1.
        -11    1    1    2    0    0 -0.58636665980E+01 -0.49833817897E+01  0.31180089751E+03  0.31189584218E+03  0.00000000000E+00 0.  1.
         11    1    1    2    0    0  0.98582983378E+01  0.13918197651E+01 -0.49968127238E+03  0.49978044898E+03  0.00000000000E+00 0. -1.
        -15    1    1    2    0    0  0.30534342737E+01 -0.12905392673E+01  0.37353701554E+02  0.37542585170E+02  0.17770000000E+01 0.  1.
         15    1    1    2    0    0 -0.70480660135E+01  0.48821012919E+01  0.15052667331E+03  0.15078112367E+03  0.17770000000E+01 0.  1.
</event>
<event>
 6   1  0.1826851E-04  0.5000538E+03  0.7546771E-02  0.9399689E-01
        -11   -1    0    0    0    0  0.00000000000E+00  0.00000000000E+00  0.50000000000E+03  0.50000000000E+03  0.00000000000E+00 0.  1.
         11   -1    0    0    0    0 -0.00000000000E+00 -0.00000000000E+00 -0.50000000000E+03  0.50000000000E+03  0.00000000000E+00 0.  1.
        -11    1    1    2    0    0 -0.22536779751E+01 -0.13540055212E+01  0.12583671560E+03  0.12586417834E+03  0.00000000000E+00 0.  1.
         11    1    1    2    0    0 -0.51891924008E+01  0.44227316010E+01 -0.49989967053E+03  0.49994616597E+03  0.00000000000E+00 0.  1.
        -15    1    1    2    0    0  0.30572594032E+01 -0.34486107447E+01  0.17173549481E+03  0.17180651227E+03  0.17770000000E+01 0. -1.
         15    1    1    2    0    0  0.43856109727E+01  0.37988466488E+00  0.20232746012E+03  0.20238314343E+03  0.17770000000E+01 0.  1.
</event>
<event>
 6   1  0.1826851E-04  0.5026336E+03  0.7546771E-02  0.9393936E-01
        -11   -1    0    0    0    0  0.00000000000E+00  0.00000000000E+00  0.50000000000E+03  0.50000000000E+03  0.00000000000E+00 0.  1.
         11   -1    0    0    0    0 -0.00000000000E+00 -0.00000000000E+00 -0.50000000000E+03  0.50000000000E+03  0.00000000000E+00 0. -1.
        -11    1    1    2    0    0 -0.14420507180E+02  0.36750988467E+01  0.34538790276E+03  0.34570834637E+03  0.00000000000E+00 0.  1.
         11    1    1    2    0    0 -0.39448980120E+01 -0.25720951998E+02 -0.49668524295E+03  0.49736642444E+03  0.00000000000E+00 0. -1.
        -15    1    1    2    0    0  0.21042787738E+02  0.16779531675E+02  0.14688379261E+03  0.14933973972E+03  0.17770000000E+01 0.  1.
         15    1    1    2    0    0 -0.26773825451E+01  0.52663214763E+01  0.44135475762E+01  0.75854894629E+01  0.17770000000E+01 0. -1.
</event>
<event>
 6   1  0.1826851E-04  0.4972630E+03  0.7546771E-02  0.9405955E-01
        -11   -1    0    0    0    0  0.00000000000E+00  0.00000000000E+00  0.50000000000E+03  0.50000000000E+03  0.00000000000E+00 0. -1.
         11   -1    0    0    0    0 -0.00000000000E+00 -0.00000000000E+00 -0.50000000000E+03  0.50000000000E+03  0.00000000000E+00 0.  1.
        -11    1    1    2    0    0  0.46755877869E+01  0.25183778058E+01  0.36957107345E+01  0.64700560863E+01  0.00000000000E+00 0. -1.
         11    1    1    2    0    0 -0.39054113521E+01  0.69793170075E+01 -0.49802434241E+03  0.49808855511E+03  0.00000000000E+00 0.  1.
        -15    1    1    2    0    0 -0.11043834835E+02 -0.11861150216E+02  0.42318996627E+03  0.42350390607E+03  0.17770000000E+01 0. -1.
         15    1    1    2    0    0  0.10273658400E+02  0.23634554022E+01  0.71138665401E+02  0.71937482736E+02  0.17770000000E+01 0.  1.
</event>
<event>
 6   1  0.1826851E-04  0.4911690E+03  0.7546771E-02  0.9419790E-01
        -11   -1    0    0    0    0  0.00000000000E+00  0.00000000000E+00  0.50000000000E+03  0.50000000000E+03  0.00000000000E+00 0.  1.
         11   -1    0    0    0    0 -0.00000000000E+00 -0.00000000000E+00 -0.50000000000E+03  0.50000000000E+03  0.00000000000E+00 0.  1.
        -11    1    1    2    0    0  0.72117313434E+02  0.10173881266E+03  0.47931500271E+03  0.49527221275E+03  0.00000000000E+00 0.  1.
         11    1    1    2    0    0  0.92245198016E+01 -0.70880022238E+01 -0.19700445088E+02  0.22878791003E+02  0.00000000000E+00 0.  1.
        -15    1    1    2    0    0 -0.44592516295E+02 -0.73538089906E+02 -0.18553340235E+03  0.20450463147E+03  0.17770000000E+01 0.  1.
         15    1    1    2    0    0 -0.36749316941E+02 -0.21112720536E+02 -0.27408115528E+03  0.27734436478E+03  0.17770000000E+01 0. -1.
</event>
<event>
 6   1  0.1826851E-04  0.5001653E+03  0.7546771E-02  0.9399440E-01
        -11   -1    0    0    0    0  0.00000000000E+00  0.00000000000E+00  0.50000000000E+03  0.50000000000E+03  0.00000000000E+00 0. -1.
         11   -1    0    0    0    0 -0.00000000000E+00 -0.00000000000E+00 -0.50000000000E+03  0.50000000000E+03  0.00000000000E+00 0. -1.
        -11    1    1    2    0    0 -0.83396456384E+01 -0.40945307567E+01  0.13540589727E+03  0.13572424944E+03  0.00000000000E+00 0. -1.
         11    1    1    2    0    0  0.53104818144E+01  0.48317135322E+01 -0.49978317229E+03  0.49983473867E+03  0.00000000000E+00 0. -1.
        -15    1    1    2    0    0  0.14778818381E+01  0.19592681042E+01  0.12385293349E+03  0.12388999043E+03  0.17770000000E+01 0.  1.
         15    1    1    2    0    0  0.15512819859E+01 -0.26964508797E+01  0.24052434154E+03  0.24055102146E+03  0.17770000000E+01 0. -1.
</event>
<event>
 6   1  0.1826851E-04  0.5002922E+03  0.7546771E-02  0.9399156E-01
        -11   -1    0    0    0    0  0.00000000000E+00  0.00000000000E+00  0.50000000000E+03  0.50000000000E+03  0.00000000000E+00 0. -1.
         11   -1    0    0    0    0 -0.00000000000E+00 -0.00000000000E+00 -0.50000000000E+03  0.50000000000E+03  0.00000000000E+00 0. -1.
        -11    1    1    2    0    0 -0.33874613600E+01 -0.10505857358E+02  0.49958590774E+03  0.49970784179E+03  0.00000000000E+00 0. -1.
         11    1    1    2    0    0 -0.43511079709E+01  0.28055504794E+01 -0.35039919807E+03  0.35043744272E+03  0.00000000000E+00 0. -1.
        -15    1    1    2    0    0 -0.69820512927E+00 -0.47942598165E+00 -0.12713017148E+02  0.12864519956E+02  0.17770000000E+01 0.  1.
         15    1    1    2    0    0  0.84367744602E+01  0.81797328605E+01 -0.13647369252E+03  0.13699019553E+03  0.17770000000E+01 0.  1.
</event>
<event>
 6   1  0.1826851E-04  0.5001380E+03  0.7546771E-02  0.9399501E-01
        -11   -1    0    0    0    0  0.00000000000E+00  0.00000000000E+00  0.50000000000E+03  0.50000000000E+03  0.00000000000E+00 0. -1.
         11   -1    0    0    0    0 -0.00000000000E+00 -0.00000000000E+00 -0.50000000000E+03  0.50000000000E+03  0.00000000000E+00 0. -1.
        -11    1    1    2    0    0  0.95265629596E+01  0.91478246109E+01  0.36776054696E+03  0.36799763314E+03  0.00000000000E+00 0. -1.
         11    1    1    2    0    0 -0.61678754985E+01 -0.86880183991E+01 -0.49974842446E+03  0.49986199306E+03  0.00000000000E+00 0. -1.
        -15    1    1    2    0    0 -0.86557122333E+00 -0.20500263514E+01  0.67925925011E+02  0.67985592879E+02  0.17770000000E+01 0.  1.
         15    1    1    2    0    0 -0.24931162377E+01  0.15902201396E+01  0.64061952490E+02  0.64154780917E+02  0.17770000000E+01 0. -1.
</event>
<event>
 6   1  0.1826851E-04  0.5434276E+03  0.7546771E-02  0.9307559E-01
        -11   -1    0    0    0    0  0.00000000000E+00  0.00000000000E+00  0.50000000000E+03  0.50000000000E+03  0.00000000000E+00 0.  1.
         11   -1    0    0    0    0 -0.00000000000E+00 -0.00000000000E+00 -0.50000000000E+03  0.50000000000E+03  0.00000000000E+00 0. -1.
        -11    1    1    2    0    0  0.24626144755E+02 -0.79504792352E+02  0.44892191862E+03  0.45657239079E+03  0.00000000000E+00 0.  1.
         11    1    1    2    0    0 -0.15595491010E+00  0.60122965624E+01 -0.36090560375E+03  0.36095571314E+03  0.00000000000E+00 0. -1.
        -15    1    1    2    0    0 -0.28323574108E+02  0.89055275427E+02 -0.48745571738E+00  0.93469044468E+02  0.17770000000E+01 0. -1.
         15    1    1    2    0    0  0.38533842630E+01 -0.15562779638E+02 -0.87528859149E+02  0.89002851602E+02  0.17770000000E+01 0.  1.
</event>
<event>
 6   1  0.1826851E-04  0.5002927E+03  0.7546771E-02  0.9399155E-01
        -11   -1    0    0    0    0  0.00000000000E+00  0.00000000000E+00  0.50000000000E+03  0.50000000000E+03  0.00000000000E+00 0.  1.
         11   -1    0    0    0    0 -0.00000000000E+00 -0.00000000000E+00 -0.50000000000E+03  0.50000000000E+03  0.00000000000E+00 0.  1.
        -11    1    1    2    0    0 -0.12003870358E+02 -0.41783156306E+01  0.14479399417E+03  0.14535078938E+03  0.00000000000E+00 0.  1.
         11    1    1    2    0    0  0.13305233117E+02  0.80952941789E+01 -0.49946455511E+03  0.49970731916E+03  0.00000000000E+00 0.  1.
        -15    1    1    2    0    0 -0.68520506079E+01 -0.44757523947E+00  0.18252475722E+03  0.18266251846E+03  0.17770000000E+01 0. -1.
         15    1    1    2    0    0  0.55506878493E+01 -0.34694033088E+01  0.17214580371E+03  0.17227937299E+03  0.17770000000E+01 0.  1.
</event>
<event>
 6   1  0.1826851E-04  0.5002625E+03  0.7546771E-02  0.9399223E-01
        -11   -1    0    0    0    0  0.00000000000E+00  0.00000000000E+00  0.50000000000E+03  0.50000000000E+03  0.00000000000E+00 0.  1.
         11   -1    0    0    0    0 -0.00000000000E+00 -0.00000000000E+00 -0.50000000000E+03  0.50000000000E+03  0.00000000000E+00 0.  1.
        -11    1    1    2    0    0  0.39246201979E-01  0.14240028436E+02  0.23651032577E+03  0.23693862949E+03  0.00000000000E+00 0.  1.
         11    1    1    2    0    0 -0.91933315249E+01 -0.93607638668E+01 -0.49956528171E+03  0.49973754305E+03  0.00000000000E+00 0.  1.
        -15    1    1    2    0    0  0.14492251662E+01 -0.28431121555E+01  0.95977019532E+02  0.96046496800E+02  0.17770000000E+01 0.  1.
         15    1    1    2    0    0  0.77048601566E+01 -0.20361524136E+01  0.16707793641E+03  0.16727733065E+03  0.17770000000E+01 0.  1.
</event>
<event>
 6   1  0.1826851E-04  0.5055403E+03  0.7546771E-02  0.9387498E-01
        -11   -1    0    0    0    0  0.00000000000E+00  0.00000000000E+00  0.50000000000E+03  0.50000000000E+03  0.00000000000E+00 0.  1.
         11   -1    0    0    0    0 -0.00000000000E+00 -0.00000000000E+00 -0.50000000000E+03  0.50000000000E+03  0.00000000000E+00 0. -1.
        -11    1    1    2    0    0 -0.18561593173E+02 -0.35953756418E+01  0.48393023844E+03  0.48429942716E+03  0.00000000000E+00 0.  1.
         11    1    1    2    0    0  0.63282870231E+01 -0.38702028702E+01 -0.49440405916E+03  0.49445970452E+03  0.00000000000E+00 0. -1.
        -15    1    1    2    0    0  0.12599610587E+02  0.64299571766E+01  0.12015335401E+02  0.18644585006E+02  0.17770000000E+01 0. -1.
         15    1    1    2    0    0 -0.36630443691E+00  0.10356213354E+01 -0.15415146889E+01  0.25962833102E+01  0.17770000000E+01 0. -1.
</event>
<event>
 6   1  0.1826851E-04  0.5012524E+03  0.7546771E-02  0.9397012E-01
        -11   -1    0    0    0    0  0.00000000000E+00  0.00000000000E+00  0.50000000000E+03  0.50000000000E+03  0.00000000000E+00 0. -1.
         11   -1    0    0    0    0 -0.00000000000E+00 -0.00000000000E+00 -0.50000000000E+03  0.50000000000E+03  0.00000000000E+00 0.  1.
        -11    1    1    2    0    0  0.12587685223E+02  0.20632932493E+01  0.22876506327E+03  0.22912040758E+03  0.00000000000E+00 0. -1.
         11    1    1    2    0    0  0.23814239191E+02 -0.33008712668E+01 -0.49816775176E+03  0.49874755401E+03  0.00000000000E+00 0.  1.
        -15    1    1    2    0    0 -0.35464034068E+02 -0.85657226269E+00  0.25146366870E+03  0.25395977208E+03  0.17770000000E+01 0. -1.
         15    1    1    2    0    0 -0.93789034586E+00  0.20941502802E+01  0.17939019788E+02  0.18172266332E+02  0.17770000000E+01 0. -1.
</event>
<event>
 6   1  0.1826851E-04  0.5026932E+03  0.7546771E-02  0.9393804E-01
        -11   -1    0    0    0    0  0.00000000000E+00  0.00000000000E+00  0.50000000000E+03  0.50000000000E+03  0.00000000000E+00 0.  1.
         11   -1    0    0    0    0 -0.00000000000E+00 -0.00000000000E+00 -0.50000000000E+03  0.50000000000E+03  0.00000000000E+00 0.  1.
        -11    1    1    2    0    0  0.48784636838E+01 -0.45755025412E+01  0.46570879896E+03  0.46575682503E+03  0.00000000000E+00 0.  1.
         11    1    1    2    0    0 -0.11434707295E+01 -0.10702865372E+02 -0.49719028879E+03  0.49730678873E+03  0.00000000000E+00 0.  1.
        -15    1    1    2    0    0 -0.62755848429E+01  0.14790432420E+02  0.26891517899E+02  0.31375967239E+02  0.17770000000E+01 0.  1.
         15    1    1    2    0    0  0.25405918886E+01  0.48793549343E+00  0.45899719276E+01  0.55604190028E+01  0.17770000000E+01 0. -1.
</event>
<event>
 6   1  0.1826851E-04  0.5003650E+03  0.7546771E-02  0.9398993E-01
        -11   -1    0    0    0    0  0.00000000000E+00  0.00000000000E+00  0.50000000000E+03  0.50000000000E+03  0.00000000000E+00 0.  1.
         11   -1    0    0    0    0 -0.00000000000E+00 -0.00000000000E+00 -0.50000000000E+03  0.50000000000E+03  0.00000000000E+00 0. -1.
        -11    1    1    2    0    0  0.19600000336E+02  0.85335020802E+00  0.14837549583E+03  0.14966688338E+03  0.00000000000E+00 0.  1.
         11    1    1    2    0    0 -0.25997973392E+02 -0.79651874632E+01 -0.49889455407E+03  0.49963498167E+03  0.00000000000E+00 0. -1.
        -15    1    1    2    0    0  0.48013724404E+01  0.38947199731E+01  0.14839261670E+03  0.14853197784E+03  0.17770000000E+01 0.  1.
         15    1    1    2    0    0  0.15966006151E+01  0.32171172821E+01  0.20212644155E+03  0.20216615710E+03  0.17770000000E+01 0.  1.
</event>
<event>
 6   1  0.1826851E-04  0.5015900E+03  0.7546771E-02  0.9396259E-01
        -11   -1    0    0    0    0  0.00000000000E+00  0.00000000000E+00  0.50000000000E+03  0.50000000000E+03  0.00000000000E+00 0.  1.
         11   -1    0    0    0    0 -0.00000000000E+00 -0.00000000000E+00 -0.50000000000E+03  0.50000000000E+03  0.00000000000E+00 0. -1.
        -11    1    1    2    0    0  0.33683522177E+01  0.10582977417E+02  0.44625988999E+03  0.44639806745E+03  0.00000000000E+00 0.  1.
         11    1    1    2    0    0 -0.71131670579E+01  0.53632766358E+01 -0.49833035738E+03  0.49840997880E+03  0.00000000000E+00 0. -1.
        -15    1    1    2    0    0  0.34080248486E+01 -0.13849345810E+02  0.34037961945E+02  0.36948066189E+02  0.17770000000E+01 0. -1.
         15    1    1    2    0    0  0.33678999160E+00 -0.20969082426E+01  0.18032505444E+02  0.18243887559E+02  0.17770000000E+01 0.  1.
</event>
<event>
 6   1  0.1826851E-04  0.5039048E+03  0.7546771E-02  0.9391115E-01
        -11   -1    0    0    0    0  0.00000000000E+00  0.00000000000E+00  0.50000000000E+03  0.50000000000E+03  0.00000000000E+00 0. -1.
         11   -1    0    0    0    0 -0.00000000000E+00 -0.00000000000E+00 -0.50000000000E+03  0.50000000000E+03  0.00000000000E+00 0. -1.
        -11    1    1    2    0    0 -0.15786775601E+02 -0.49678553683E+01  0.46350061531E+03  0.46379599207E+03  0.00000000000E+00 0. -1.
         11    1    1    2    0    0  0.20564644353E+01  0.77029956081E+01 -0.49603117414E+03  0.49609524379E+03  0.00000000000E+00 0. -1.
        -15    1    1    2    0    0  0.16105807544E+02  0.11972099041E+01  0.30915301249E+02  0.34924832548E+02  0.17770000000E+01 0. -1.
         15    1    1    2    0    0 -0.23754963777E+01 -0.39323501439E+01  0.16152575873E+01  0.51839315937E+01  0.17770000000E+01 0.  1.
</event>
<event>
 6   1  0.1826851E-04  0.5031109E+03  0.7546771E-02  0.9392876E-01
        -11   -1    0    0    0    0  0.00000000000E+00  0.00000000000E+00  0.50000000000E+03  0.50000000000E+03  0.00000000000E+00 0.  1.
         11   -1    0    0    0    0 -0.00000000000E+00 -0.00000000000E+00 -0.50000000000E+03  0.50000000000E+03  0.00000000000E+00 0.  1.
        -11    1    1    2    0    0  0.37719972014E+02  0.64390288889E+02  0.49125337285E+03  0.49688910426E+03  0.00000000000E+00 0.  1.
         11    1    1    2    0    0 -0.13105133117E+02  0.63905920210E+01 -0.20603209868E+03  0.20654735502E+03  0.00000000000E+00 0.  1.
        -15    1    1    2    0    0 -0.14722119128E+02 -0.99579908230E+01 -0.41786241615E+02  0.45443922478E+02  0.17770000000E+01 0. -1.
         15    1    1    2    0    0 -0.98927197681E+01 -0.60822890087E+02 -0.24343503255E+03  0.25111961824E+03  0.17770000000E+01 0.  1.
</event>
<event>
 6   1  0.1826851E-04  0.5007579E+03  0.7546771E-02  0.9398115E-01
        -11   -1    0    0    0    0  0.00000000000E+00  0.00000000000E+00  0.50000000000E+03  0.50000000000E+03  0.00000000000E+00 0.  1.
         11   -1    0    0    0    0 -0.00000000000E+00 -0.00000000000E+00 -0.50000000000E+03  0.50000000000E+03  0.00000000000E+00 0. -1.
        -11    1    1    2    0    0 -0.23034323042E+02  0.15600922592E+02  0.49846631674E+03  0.49924206328E+03  0.00000000000E+00 0.  1.
         11    1    1    2    0    0 -0.68611218222E+00 -0.29100028880E+01 -0.21130980630E+03  0.21133095633E+03  0.00000000000E+00 0. -1.
        -15    1    1    2    0    0 -0.13254556530E+00  0.45340575329E+01 -0.84247014995E+02  0.84387750951E+02  0.17770000000E+01 0.  1.
         15    1    1    2    0    0  0.23852980790E+02 -0.17224977237E+02 -0.20290949545E+03  0.20503922943E+03  0.17770000000E+01 0. -1.
</event>
<event>
 6   1  0.1826851E-04  0.5001005E+03  0.7546771E-02  0.9399585E-01
        -11   -1    0    0    0    0  0.00000000000E+00  0.00000000000E+00  0.50000000000E+03  0.50000000000E+03  0.00000000000E+00 0.  1.
         11   -1    0    0    0    0 -0.00000000000E+00 -0.00000000000E+00 -0.50000000000E+03  0.50000000000E+03  0.00000000000E+00 0. -1.
        -11    1    1    2    0    0  0.62769306843E+01 -0.65379139738E+01  0.49981734605E+03  0.49989951349E+03  0.00000000000E+00 0.  1.
         11    1    1    2    0    0 -0.43685508117E+01 -0.21840572251E+01 -0.23650851649E+03  0.23655894132E+03  0.00000000000E+00 0. -1.
        -15    1    1    2    0    0  0.13937711031E+01  0.56486627980E+01 -0.12532329038E+03  0.12547085251E+03  0.17770000000E+01 0. -1.
         15    1    1    2    0    0 -0.33021509757E+01  0.30733084010E+01 -0.13798553918E+03  0.13807069268E+03  0.17770000000E+01 0.  1.
</event>
<event>
 6   1  0.1826851E-04  0.5063598E+03  0.7546771E-02  0.9385691E-01
        -11   -1    0    0    0    0  0.00000000000E+00  0.00000000000E+00  0.50000000000E+03  0.50000000000E+03  0.00000000000E+00 0. -1.
         11   -1    0    0    0    0 -0.00000000000E+00 -0.00000000000E+00 -0.50000000000E+03  0.50000000000E+03  0.00000000000E+00 0. -1.
        -11    1    1    2    0    0 -0.13339137440E+02  0.48812268291E+01  0.47526175614E+03  0.47547396964E+03  0.00000000000E+00 0. -1.
         11    1    1    2    0    0  0.77205652779E+01  0.21336719704E+01 -0.49357521459E+03  0.49364020516E+03  0.00000000000E+00 0. -1.
        -15    1    1    2    0    0  0.11336789031E+02 -0.97119683646E+01  0.46666991936E+01  0.15741058586E+02  0.17770000000E+01 0.  1.
         15    1    1    2    0    0 -0.57182168696E+01  0.26970695651E+01  0.13646759265E+02  0.15144766616E+02  0.17770000000E+01 0. -1.
</event>
<event>
 6   1  0.1826851E-04  0.4738829E+03  0.7546771E-02  0.9460223E-01
        -11   -1    0    0    0    0  0.00000000000E+00  0.00000000000E+00  0.50000000000E+03  0.50000000000E+03  0.00000000000E+00 0. -1.
         11   -1    0    0    0    0 -0.00000000000E+00 -0.00000000000E+00 -0.50000000000E+03  0.50000000000E+03  0.00000000000E+00 0. -1.
        -11    1    1    2    0    0  0.19970499328E+02  0.17563706329E+02  0.47280161973E+03  0.47354902201E+03  0.00000000000E+00 0. -1.
         11    1    1    2    0    0  0.23965426385E+02  0.61122254243E+01 -0.47488856291E+03  0.47553217362E+03  0.00000000000E+00 0. -1.
        -15    1    1    2    0    0 -0.38801528361E+02 -0.18502762774E+02  0.39008830353E+01  0.43200526049E+02  0.17770000000E+01 0.  1.
         15    1    1    2    0    0 -0.51343973529E+01 -0.51731689788E+01 -0.18139398556E+01  0.77182783223E+01  0.17770000000E+01 0. -1.
</event>
<event>
 6   1  0.1826851E-04  0.5008047E+03  0.7546771E-02  0.9398011E-01
        -11   -1    0    0    0    0  0.00000000000E+00  0.00000000000E+00  0.50000000000E+03  0.50000000000E+03  0.00000000000E+00 0. -1.
         11   -1    0    0    0    0 -0.00000000000E+00 -0.00000000000E+00 -0.50000000000E+03  0.50000000000E+03  0.00000000000E+00 0. -1.
        -11    1    1    2    0    0 -0.21425001491E+02 -0.12561756545E+02  0.49857707562E+03  0.49919528118E+03  0.00000000000E+00 0. -1.
         11    1    1    2    0    0 -0.59531849137E+01  0.39530630707E+00 -0.24683167744E+03  0.24690377410E+03  0.00000000000E+00 0. -1.
        -15    1    1    2    0    0  0.95989900400E+01 -0.11205502672E+01 -0.52176066985E+02  0.53093275824E+02  0.17770000000E+01 0.  1.
         15    1    1    2    0    0  0.17779196365E+02  0.13287000505E+02 -0.19956933119E+03  0.20080766890E+03  0.17770000000E+01 0. -1.
</event>
<event>
 6   1  0.1826851E-04  0.5002956E+03  0.7546771E-02  0.9399149E-01
        -11   -1    0    0    0    0  0.00000000000E+00  0.00000000000E+00  0.50000000000E+03  0.50000000000E+03  0.00000000000E+00 0.  1.
         11   -1    0    0    0    0 -0.00000000000E+00 -0.00000000000E+00 -0.50000000000E+03  0.50000000000E+03  0.00000000000E+00 0.  1.
        -11    1    1    2    0    0 -0.34700934744E+02  0.25681028078E+02  0.49783614152E+03  0.49970440650E+03  0.00000000000E+00 0.  1.
         11    1    1    2    0    0  0.34122454127E+02 -0.23939483477E+02 -0.36322355085E+03  0.36560742421E+03  0.00000000000E+00 0.  1.
        -15    1    1    2    0    0 -0.49759826661E+00 -0.12489954598E+01 -0.51539148628E+02  0.51587296537E+02  0.17770000000E+01 0.  1.
         15    1    1    2    0    0  0.10760788828E+01 -0.49254914133E+00 -0.83073442044E+02  0.83100872754E+02  0.17770000000E+01 0. -1.
</event>
<event>
 6   1  0.1826851E-04  0.5048386E+03  0.7546771E-02  0.9389048E-01
        -11   -1    0    0    0    0  0.00000000000E+00  0.00000000000E+00  0.50000000000E+03  0.50000000000E+03  0.00000000000E+00 0.  1.
         11   -1    0    0    0    0 -0.00000000000E+00 -0.00000000000E+00 -0.50000000000E+03  0.50000000000E+03  0.00000000000E+00 0.  1.
        -11    1    1    2    0    0  0.10637577964E+02 -0.17328280199E+00  0.49504708269E+03  0.49516139002E+03  0.00000000000E+00 0.  1.
         11    1    1    2    0    0  0.54998695693E+01  0.35315896041E+01 -0.48379639632E+03  0.48384054583E+03  0.00000000000E+00 0.  1.
        -15    1    1    2    0    0 -0.11967489173E+02 -0.43232614382E+01 -0.97438349857E+01  0.16124870102E+02  0.17770000000E+01 0. -1.
         15    1    1    2    0    0 -0.41699583603E+01  0.96495463614E+00 -0.15068513769E+01  0.48731940500E+01  0.17770000000E+01 0.  1.
</event>
<event>
 6   1  0.1826851E-04  0.5002635E+03  0.7546771E-02  0.9399220E-01
        -11   -1    0    0    0    0  0.00000000000E+00  0.00000000000E+00  0.50000000000E+03  0.50000000000E+03  0.00000000000E+00 0. -1.
         11   -1    0    0    0    0 -0.00000000000E+00 -0.00000000000E+00 -0.50000000000E+03  0.50000000000E+03  0.00000000000E+00 0.  1.
        -11    1    1    2    0    0 -0.23252431705E+01 -0.27719678325E+02  0.27717649556E+03  0.27856883712E+03  0.00000000000E+00 0. -1.
         11    1    1    2    0    0  0.19145460690E+00  0.31399117161E+02 -0.49874908995E+03  0.49973652652E+03  0.00000000000E+00 0.  1.
        -15    1    1    2    0    0  0.40876370902E+00 -0.56331110462E+00  0.22076159900E+02  0.22158496612E+02  0.17770000000E+01 0.  1.
         15    1    1    2    0    0  0.17250248545E+01 -0.31161277309E+01  0.19949643449E+03  0.19953613975E+03  0.17770000000E+01 0.  1.
</event>
<event>
 6   1  0.1826851E-04  0.5007121E+03  0.7546771E-02  0.9398218E-01
        -11   -1    0    0    0    0  0.00000000000E+00  0.00000000000E+00  0.50000000000E+03  0.50000000000E+03  0.00000000000E+00 0. -1.
         11   -1    0    0    0    0 -0.00000000000E+00 -0.00000000000E+00 -0.50000000000E+03  0.50000000000E+03  0.00000000000E+00 0.  1.
        -11    1    1    2    0    0 -0.72837171154E+01  0.30128734560E+01  0.49922568551E+03  0.49928790794E+03  0.00000000000E+00 0. -1.
         11    1    1    2    0    0  0.77040122624E+00  0.10951139086E+02 -0.13030145857E+03  0.13076311051E+03  0.00000000000E+00 0.  1.
        -15    1    1    2    0    0  0.12311232548E+02 -0.15354547776E+01 -0.12318448617E+03  0.12382043220E+03  0.17770000000E+01 0. -1.
         15    1    1    2    0    0 -0.57979166588E+01 -0.12428557764E+02 -0.24573974077E+03  0.24612854936E+03  0.17770000000E+01 0.  1.
</event>
<event>
 6   1  0.1826851E-04  0.4944921E+03  0.7546771E-02  0.9412219E-01
        -11   -1    0    0    0    0  0.00000000000E+00  0.00000000000E+00  0.50000000000E+03  0.50000000000E+03  0.00000000000E+00 0.  1.
         11   -1    0    0    0    0 -0.00000000000E+00 -0.00000000000E+00 -0.50000000000E+03  0.50000000000E+03  0.00000000000E+00 0.  1.
        -11    1    1    2    0    0  0.10415914930E+02  0.26394896209E+01  0.26628306535E+01  0.11070178697E+02  0.00000000000E+00 0.  1.
         11    1    1    2    0    0 -0.86837424833E+01  0.91129640915E+01 -0.49558654249E+03  0.49574638132E+03  0.00000000000E+00 0.  1.
        -15    1    1    2    0    0 -0.40249157208E+01 -0.11194673060E+02  0.30587875117E+03  0.30611515610E+03  0.17770000000E+01 0.  1.
         15    1    1    2    0    0  0.22927432743E+01 -0.55778065184E+00  0.18704496067E+03  0.18706828388E+03  0.17770000000E+01 0. -1.
</event>
<event>
 6   1  0.1826851E-04  0.5012627E+03  0.7546771E-02  0.9396989E-01
        -11   -1    0    0    0    0  0.00000000000E+00  0.00000000000E+00  0.50000000000E+03  0.50000000000E+03  0.00000000000E+00 0. -1.
         11   -1    0    0    0    0 -0.00000000000E+00 -0.00000000000E+00 -0.50000000000E+03  0.50000000000E+03  0.00000000000E+00 0.  1.
        -11    1    1    2    0    0  0.11400397749E+02 -0.54737093080E+01  0.49857693038E+03  0.49873729164E+03  0.00000000000E+00 0. -1.
         11    1    1    2    0    0 -0.37589715371E+00  0.76813213954E+01 -0.45421632464E+03  0.45428142551E+03  0.00000000000E+00 0.  1.
        -15    1    1    2    0    0 -0.60252349447E+01  0.34358267319E+01 -0.15080534023E+02  0.16693968878E+02  0.17770000000E+01 0. -1.
         15    1    1    2    0    0 -0.49992656502E+01 -0.56434388194E+01 -0.29280071719E+02  0.30287313971E+02  0.17770000000E+01 0.  1.
</event>
<event>
 6   1  0.1826851E-04  0.5033852E+03  0.7546771E-02  0.9392267E-01
        -11   -1    0    0    0    0  0.00000000000E+00  0.00000000000E+00  0.50000000000E+03  0.50000000000E+03  0.00000000000E+00 0.  1.
         11   -1    0    0    0    0 -0.00000000000E+00 -0.00000000000E+00 -0.50000000000E+03  0.50000000000E+03  0.00000000000E+00 0.  1.
        -11    1    1    2    0    0 -0.11988751479E+01 -0.19348931079E+02  0.24078526560E+02  0.30912681489E+02  0.00000000000E+00 0.  1.
         11    1    1    2    0    0 -0.42921638340E+00  0.13818842953E+02 -0.49642235046E+03  0.49661483534E+03  0.00000000000E+00 0.  1.
        -15    1    1    2    0    0  0.48117728378E+01  0.10360197630E+01  0.23164489818E+03  0.23170399884E+03  0.17770000000E+01 0. -1.
         15    1    1    2    0    0 -0.31836813065E+01  0.44940683629E+01  0.24069892571E+03  0.24076848433E+03  0.17770000000E+01 0.  1.
</event>
<event>
 6   1  0.1826851E-04  0.5004399E+03  0.7546771E-02  0.9398826E-01
        -11   -1    0    0    0    0  0.00000000000E+00  0.00000000000E+00  0.50000000000E+03  0.50000000000E+03  0.00000000000E+00 0. -1.
         11   -1    0    0    0    0 -0.00000000000E+00 -0.00000000000E+00 -0.50000000000E+03  0.50000000000E+03  0.00000000000E+00 0.  1.
        -11    1    1    2    0    0 -0.67716404837E+02 -0.49839944032E+02  0.49243352067E+03  0.49956011028E+03  0.00000000000E+00 0. -1.
         11    1    1    2    0    0  0.60052980610E+02  0.43395171433E+02 -0.41008332932E+03  0.41672273560E+03  0.00000000000E+00 0.  1.
        -15    1    1    2    0    0  0.53501205536E+01  0.19357612590E+01 -0.14819992799E+02  0.15973755888E+02  0.17770000000E+01 0. -1.
         15    1    1    2    0    0  0.23133036736E+01  0.45090113404E+01 -0.67530198556E+02  0.67743398225E+02  0.17770000000E+01 0.  1.
</event>
<event>
 6   1  0.1826851E-04  0.5002765E+03  0.7546771E-02  0.9399191E-01
        -11   -1    0    0    0    0  0.00000000000E+00  0.00000000000E+00  0.50000000000E+03  0.50000000000E+03  0.00000000000E+00 0. -1.
         11   -1    0    0    0    0 -0.00000000000E+00 -0.00000000000E+00 -0.50000000000E+03  0.50000000000E+03  0.00000000000E+00 0.  1.
        -11    1    1    2    0    0  0.37105244250E+01 -0.10704906165E+02  0.49959506101E+03  0.49972351155E+03  0.00000000000E+00 0. -1.
         11    1    1    2    0    0 -0.32820941887E+01  0.84592887691E+01 -0.91815514878E+02  0.92262779500E+02  0.00000000000E+00 0.  1.
        -15    1    1    2    0    0 -0.48226930143E+01  0.50405341546E+01 -0.30671913480E+03  0.30680360287E+03  0.17770000000E+01 0.  1.
         15    1    1    2    0    0  0.43942627780E+01 -0.27949167590E+01 -0.10106041133E+03  0.10121010608E+03  0.17770000000E+01 0. -1.
</event>
<event>
 6   1  0.1826851E-04  0.5031890E+03  0.7546771E-02  0.9392702E-01
        -11   -1    0    0    0    0  0.00000000000E+00  0.00000000000E+00  0.50000000000E+03  0.50000000000E+03  0.00000000000E+00 0.  1.
         11   -1    0    0    0    0 -0.00000000000E+00 -0.00000000000E+00 -0.50000000000E+03  0.50000000000E+03  0.00000000000E+00 0.  1.
        -11    1    1    2    0    0 -0.84907657630E+01 -0.30167091037E+02  0.28947124801E+03  0.29116275502E+03  0.00000000000E+00 0.  1.
         11    1    1    2    0    0 -0.12566014068E+02  0.15082674030E+01 -0.49664975888E+03  0.49681099281E+03  0.00000000000E+00 0.  1.
        -15    1    1    2    0    0  0.10587961864E+02  0.45142531289E+00  0.10348152499E+03  0.10403793762E+03  0.17770000000E+01 0.  1.
         15    1    1    2    0    0  0.10468817967E+02  0.28207398321E+02  0.10369698588E+03  0.10798831455E+03  0.17770000000E+01 0. -1.
</event>
<event>
 6   1  0.1826851E-04  0.5015995E+03  0.7546771E-02  0.9396238E-01
        -11   -1    0    0    0    0  0.00000000000E+00  0.00000000000E+00  0.50000000000E+03  0.50000000000E+03  0.00000000000E+00 0.  1.
         11   -1    0    0    0    0 -0.00000000000E+00 -0.00000000000E+00 -0.50000000000E+03  0.50000000000E+03  0.00000000000E+00 0.  1.
        -11    1    1    2    0    0  0.50020207176E+01 -0.41579292688E+01  0.44406404929E+03  0.44411168467E+03  0.00000000000E+00 0.  1.
         11    1    1    2    0    0 -0.11554039524E+02 -0.41840477877E+01 -0.49824901009E+03  0.49840051981E+03  0.00000000000E+00 0.  1.
        -15    1    1    2    0    0 -0.11888828851E+01 -0.14179857384E+01  0.87148796302E+00  0.27094918967E+01  0.17770000000E+01 0. -1.
         15    1    1    2    0    0  0.77409016920E+01  0.97599627949E+01  0.53313472843E+02  0.54778303628E+02  0.17770000000E+01 0.  1.
</event>
<event>
 6   1  0.1826851E-04  0.5030108E+03  0.7546771E-02  0.9393098E-01
        -11   -1    0    0    0    0  0.00000000000E+00  0.00000000000E+00  0.50000000000E+03  0.50000000000E+03  0.00000000000E+00 0.  1.
         11   -1    0    0    0    0 -0.00000000000E+00 -0.00000000000E+00 -0.50000000000E+03  0.50000000000E+03  0.00000000000E+00 0. -1.
        -11    1    1    2    0    0  0.42283951709E+01 -0.51055639864E+01  0.47757034167E+03  0.47761634955E+03  0.00000000000E+00 0.  1.
         11    1    1    2    0    0  0.40922638279E+01 -0.56992729567E+01 -0.49693962731E+03  0.49698915634E+03  0.00000000000E+00 0. -1.
        -15    1    1    2    0    0  0.11297083335E+01  0.40541237844E+01  0.67697431258E+01  0.81669646484E+01  0.17770000000E+01 0.  1.
         15    1    1    2    0    0 -0.94503673322E+01  0.67507131587E+01  0.12599542508E+02  0.17227529459E+02  0.17770000000E+01 0. -1.
</event>
<event>
 6   1  0.1826851E-04  0.5006175E+03  0.7546771E-02  0.9398429E-01
        -11   -1    0    0    0    0  0.00000000000E+00  0.00000000000E+00  0.50000000000E+03  0.50000000000E+03  0.00000000000E+00 0. -1.
         11   -1    0    0    0    0 -0.00000000000E+00 -0.00000000000E+00 -0.50000000000E+03  0.50000000000E+03  0.00000000000E+00 0. -1.
        -11    1    1    2    0    0  0.97875327480E+01  0.78690932125E+01  0.49922454017E+03  0.49938247860E+03  0.00000000000E+00 0. -1.
         11    1    1    2    0    0  0.46170399363E+01 -0.16693084073E+01 -0.35970188908E+03  0.35973539255E+03  0.00000000000E+00 0. -1.
        -15    1    1    2    0    0  0.10003880572E+01 -0.28728885753E+01 -0.19441418743E+02  0.19758055491E+02  0.17770000000E+01 0.  1.
         15    1    1    2    0    0 -0.15404960742E+02 -0.33268962300E+01 -0.12008123235E+03  0.12112407335E+03  0.17770000000E+01 0. -1.
</event>
<event>
 6   1  0.1826851E-04  0.5007282E+03  0.7546771E-02  0.9398182E-01
        -11   -1    0    0    0    0  0.00000000000E+00  0.00000000000E+00  0.50000000000E+03  0.50000000000E+03  0.00000000000E+00 0.  1.
         11   -1    0    0    0    0 -0.00000000000E+00 -0.00000000000E+00 -0.50000000000E+03  0.50000000000E+03  0.00000000000E+00 0. -1.
        -11    1    1    2    0    0 -0.40504828624E+01 -0.82204681515E+01  0.35053332517E+03  0.35065309718E+03  0.00000000000E+00 0.  1.
         11    1    1    2    0    0 -0.55954248634E+01 -0.49496032391E+01 -0.49921591278E+03  0.49927180466E+03  0.00000000000E+00 0. -1.
        -15    1    1    2    0    0 -0.72094068194E+00  0.16705156844E+01  0.56499883526E+01  0.61960048018E+01  0.17770000000E+01 0. -1.
         15    1    1    2    0    0  0.10366848408E+02  0.11499555706E+02  0.14303259925E+03  0.14387909336E+03  0.17770000000E+01 0. -1.
</event>
<event>
 6   1  0.1826851E-04  0.5002229E+03  0.7546771E-02  0.9399311E-01
        -11   -1    0    0    0    0  0.00000000000E+00  0.00000000000E+00  0.50000000000E+03  0.50000000000E+03  0.00000000000E+00 0. -1.
         11   -1    0    0    0    0 -0.00000000000E+00 -0.00000000000E+00 -0.50000000000E+03  0.50000000000E+03  0.00000000000E+00 0.  1.
        -11    1    1    2    0    0 -0.11158605063E+02 -0.10687309927E+02  0.49953815441E+03  0.49977705107E+03  0.00000000000E+00 0. -1.
         11    1    1    2    0    0  0.78718928488E+01 -0.46078921913E+01 -0.19324760176E+03  0.19346274823E+03  0.00000000000E+00 0.  1.
        -15    1    1    2    0    0  0.45364975192E+01  0.12578593181E+02 -0.24443739068E+03  0.24480930642E+03  0.17770000000E+01 0.  1.
         15    1    1    2    0    0 -0.12497853051E+01  0.27166089373E+01 -0.61853161972E+02  0.61950894282E+02  0.17770000000E+01 0.  1.
</event>
<event>
 6   1  0.1826851E-04  0.5004977E+03  0.7546771E-02  0.9398697E-01
        -11   -1    0    0    0    0  0.00000000000E+00  0.00000000000E+00  0.50000000000E+03  0.50000000000E+03  0.00000000000E+00 0.  1.
         11   -1    0    0    0    0 -0.00000000000E+00 -0.00000000000E+00 -0.50000000000E+03  0.50000000000E+03  0.00000000000E+00 0.  1.
        -11    1    1    2    0    0  0.91009539789E+01  0.23045275682E+02  0.49888736966E+03  0.49950227197E+03  0.00000000000E+00 0.  1.
         11    1    1    2    0    0 -0.34970020042E+01 -0.72208466652E+00 -0.24001455172E+03  0.24004111203E+03  0.00000000000E+00 0.  1.
        -15    1    1    2    0    0  0.18223279028E+01 -0.75682750778E+01 -0.15988763634E+03  0.16008689406E+03  0.17770000000E+01 0. -1.
         15    1    1    2    0    0 -0.74262798775E+01 -0.14754915938E+02 -0.98985181602E+02  0.10036972194E+03  0.17770000000E+01 0.  1.
</event>
<event>
 6   1  0.1826851E-04  0.5072565E+03  0.7546771E-02  0.9383718E-01
        -11   -1    0    0    0    0  0.00000000000E+00  0.00000000000E+00  0.50000000000E+03  0.50000000000E+03  0.00000000000E+00 0.  1.
         11   -1    0    0    0    0 -0.00000000000E+00 -0.00000000000E+00 -0.50000000000E+03  0.50000000000E+03  0.00000000000E+00 0. -1.
        -11    1    1    2    0    0  0.26394628957E+02  0.80383618661E+01  0.49197038586E+03  0.49274349540E+03  0.00000000000E+00 0.  1.
         11    1    1    2    0    0 -0.95107367641E+01  0.80640358371E+01 -0.47121015509E+03  0.47137510864E+03  0.00000000000E+00 0. -1.
        -15    1    1    2    0    0 -0.73759140470E+01 -0.20060172944E+01 -0.16487238381E+02  0.18259654209E+02  0.17770000000E+01 0. -1.
         15    1    1    2    0    0 -0.95079781461E+01 -0.14096380409E+02 -0.42729923881E+01  0.17621741742E+02  0.17770000000E+01 0.  1.
</event>
<event>
 6   1  0.1826851E-04  0.5001982E+03  0.7546771E-02  0.9399366E-01
        -11   -1    0    0    0    0  0.00000000000E+00  0.00000000000E+00  0.50000000000E+03  0.50000000000E+03  0.00000000000E+00 0. -1.
         11   -1    0    0    0    0 -0.00000000000E+00 -0.00000000000E+00 -0.50000000000E+03  0.50000000000E+03  0.00000000000E+00 0. -1.
        -11    1    1    2    0    0  0.82922812883E+01  0.27747250008E+01  0.37257760772E+03  0.37268020447E+03  0.00000000000E+00 0. -1.
         11    1    1    2    0    0 -0.58494255332E+01  0.52322686411E+01 -0.49974019871E+03  0.49980181934E+03  0.00000000000E+00 0. -1.
        -15    1    1    2    0    0 -0.86424145923E+00 -0.15478079793E+01  0.25729042131E+02  0.25851188770E+02  0.17770000000E+01 0. -1.
         15    1    1    2    0    0 -0.15786142959E+01 -0.64591856626E+01  0.10143354885E+03  0.10166678742E+03  0.17770000000E+01 0.  1.
</event>
<event>
 6   1  0.1826851E-04  0.5003454E+03  0.7546771E-02  0.9399037E-01
        -11   -1    0    0    0    0  0.00000000000E+00  0.00000000000E+00  0.50000000000E+03  0.50000000000E+03  0.00000000000E+00 0. -1.
         11   -1    0    0    0    0 -0.00000000000E+00 -0.00000000000E+00 -0.50000000000E+03  0.50000000000E+03  0.00000000000E+00 0. -1.
        -11    1    1    2    0    0  0.59913282076E+01  0.83212703139E+01  0.40864365271E+03  0.40877227701E+03  0.00000000000E+00 0. -1.
         11    1    1    2    0    0  0.48180816101E+00 -0.98693238498E+01 -0.49955691357E+03  0.49965462631E+03  0.00000000000E+00 0. -1.
        -15    1    1    2    0    0 -0.18101974387E+01 -0.24449055841E+01  0.15779569753E+02  0.16168083643E+02  0.17770000000E+01 0. -1.
         15    1    1    2    0    0 -0.46629389299E+01  0.39929591200E+01  0.75133691115E+02  0.75405013040E+02  0.17770000000E+01 0.  1.
</event>
<event>
 6   1  0.1826851E-04  0.5030927E+03  0.7546771E-02  0.9392916E-01
        -11   -1    0    0    0    0  0.00000000000E+00  0.00000000000E+00  0.50000000000E+03  0.50000000000E+03  0.00000000000E+00 0. -1.
         11   -1    0    0    0    0 -0.00000000000E+00 -0.00000000000E+00 -0.50000000000E+03  0.50000000000E+03  0.00000000000E+00 0. -1.
        -11    1    1    2    0    0 -0.37043768280E+01  0.11058184986E+02  0.49677039161E+03  0.49690726282E+03  0.00000000000E+00 0. -1.
         11    1    1    2    0    0 -0.22996656611E+01  0.10800826058E+02 -0.44775785921E+03  0.44789401289E+03  0.00000000000E+00 0. -1.
        -15    1    1    2    0    0  0.69234919720E+01 -0.17743787126E+02 -0.29519147489E+02  0.35175481804E+02  0.17770000000E+01 0. -1.
         15    1    1    2    0    0 -0.91944948293E+00 -0.41152239183E+01 -0.19493384911E+02  0.20023242484E+02  0.17770000000E+01 0.  1.
</event>
<event>
 6   1  0.1826851E-04  0.5015079E+03  0.7546771E-02  0.9396442E-01
        -11   -1    0    0    0    0  0.00000000000E+00  0.00000000000E+00  0.50000000000E+03  0.50000000000E+03  0.00000000000E+00 0.  1.
         11   -1    0    0    0    0 -0.00000000000E+00 -0.00000000000E+00 -0.50000000000E+03  0.50000000000E+03  0.00000000000E+00 0. -1.
        -11    1    1    2    0    0 -0.87116866058E+01  0.10552598320E+02  0.45079170677E+03  0.45099935001E+03  0.00000000000E+00 0.  1.
         11    1    1    2    0    0 -0.57604175493E+01 -0.15313825883E+02 -0.49822351854E+03  0.49849209633E+03  0.00000000000E+00 0. -1.
        -15    1    1    2    0    0  0.11609932527E+02  0.11724929082E+01  0.26568748463E+02  0.29072691599E+02  0.17770000000E+01 0. -1.
         15    1    1    2    0    0  0.28621716282E+01  0.35887346547E+01  0.20863063306E+02  0.21435862062E+02  0.17770000000E+01 0.  1.
</event>
<event>
 6   1  0.1826851E-04  0.4769768E+03  0.7546771E-02  0.9452853E-01
        -11   -1    0    0    0    0  0.00000000000E+00  0.00000000000E+00  0.50000000000E+03  0.50000000000E+03  0.00000000000E+00 0. -1.
         11   -1    0    0    0    0 -0.00000000000E+00 -0.00000000000E+00 -0.50000000000E+03  0.50000000000E+03  0.00000000000E+00 0. -1.
        -11    1    1    2    0    0  0.13199061300E+02 -0.13881712244E+02  0.47449232265E+03  0.47487880707E+03  0.00000000000E+00 0. -1.
         11    1    1    2    0    0 -0.62246641351E+00 -0.12501499437E+02 -0.47937156182E+03  0.47953495101E+03  0.00000000000E+00 0. -1.
        -15    1    1    2    0    0 -0.24490193210E+01  0.11769514764E+02 -0.14704210932E+02  0.19075919940E+02  0.17770000000E+01 0.  1.
         15    1    1    2    0    0 -0.10127575566E+02  0.14613696917E+02  0.19583450107E+02  0.26510321981E+02  0.17770000000E+01 0. -1.
</event>
<event>
 6   1  0.1826851E-04  0.5001183E+03  0.7546771E-02  0.9399545E-01
        -11   -1    0    0    0    0  0.00000000000E+00  0.00000000000E+00  0.50000000000E+03  0.50000000000E+03  0.00000000000E+00 0.  1.
         11   -1    0    0    0    0 -0.00000000000E+00 -0.00000000000E+00 -0.50000000000E+03  0.50000000000E+03  0.00000000000E+00 0. -1.
        -11    1    1    2    0    0 -0.38893477460E+01  0.55203166424E+01  0.24046893503E+03  0.24056373300E+03  0.00000000000E+00 0.  1.
         11    1    1    2    0    0  0.11089920159E+02 -0.14205276694E+01 -0.49975665602E+03  0.49988170547E+03  0.00000000000E+00 0. -1.
        -15    1    1    2    0    0 -0.49622253129E+01 -0.41887596168E+01  0.23540918921E+03  0.23550544258E+03  0.17770000000E+01 0.  1.
         15    1    1    2    0    0 -0.22383470997E+01  0.88970643810E-01  0.23878531777E+02  0.24049118951E+02  0.17770000000E+01 0. -1.
</event>
<event>
 6   1  0.1826851E-04  0.5028571E+03  0.7546771E-02  0.9393439E-01
        -11   -1    0    0    0    0  0.00000000000E+00  0.00000000000E+00  0.50000000000E+03  0.50000000000E+03  0.00000000000E+00 0. -1.
         11   -1    0    0    0    0 -0.00000000000E+00 -0.00000000000E+00 -0.50000000000E+03  0.50000000000E+03  0.00000000000E+00 0.  1.
        -11    1    1    2    0    0 -0.77322361455E+01  0.65959135815E+02  0.49268715305E+03  0.49714286262E+03  0.00000000000E+00 0. -1.
         11    1    1    2    0    0 -0.88475813775E+01  0.45491872168E+01 -0.20731441789E+03  0.20755298761E+03  0.00000000000E+00 0.  1.
        -15    1    1    2    0    0  0.51334267244E+01 -0.43775632970E+02 -0.20804589623E+03  0.21267089782E+03  0.17770000000E+01 0. -1.
         15    1    1    2    0    0  0.11446390799E+02 -0.26732690062E+02 -0.77326838929E+02  0.82633251951E+02  0.17770000000E+01 0.  1.
</event>
<event>
 6   1  0.1826851E-04  0.5018949E+03  0.7546771E-02  0.9395580E-01
        -11   -1    0    0    0    0  0.00000000000E+00  0.00000000000E+00  0.50000000000E+03  0.50000000000E+03  0.00000000000E+00 0.  1.
         11   -1    0    0    0    0 -0.00000000000E+00 -0.00000000000E+00 -0.50000000000E+03  0.50000000000E+03  0.00000000000E+00 0. -1.
        -11    1    1    2    0    0 -0.10329893710E+01 -0.25689064554E+02  0.49744111975E+03  0.49810507197E+03  0.00000000000E+00 0.  1.
         11    1    1    2    0    0  0.56284196041E+01  0.39502808006E+01 -0.37675201103E+03  0.37681475772E+03  0.00000000000E+00 0. -1.
        -15    1    1    2    0    0 -0.52424025822E+01 -0.16852000183E+00 -0.54783186238E+01  0.77897938207E+01  0.17770000000E+01 0. -1.
         15    1    1    2    0    0  0.64697234900E+00  0.21907303755E+02 -0.11521079010E+03  0.11729037648E+03  0.17770000000E+01 0.  1.
</event>
<event>
 6   1  0.1826851E-04  0.5006574E+03  0.7546771E-02  0.9398340E-01
        -11   -1    0    0    0    0  0.00000000000E+00  0.00000000000E+00  0.50000000000E+03  0.50000000000E+03  0.00000000000E+00 0.  1.
         11   -1    0    0    0    0 -0.00000000000E+00 -0.00000000000E+00 -0.50000000000E+03  0.50000000000E+03  0.00000000000E+00 0. -1.
        -11    1    1    2    0    0 -0.31295216338E+02 -0.25784966279E+02  0.49769348517E+03  0.49934262810E+03  0.00000000000E+00 0.  1.
         11    1    1    2    0    0  0.14530089925E+02 -0.13425999035E+01 -0.25130238870E+03  0.25172567739E+03  0.00000000000E+00 0. -1.
        -15    1    1    2    0    0  0.15933136773E+02  0.11536205779E+02 -0.13447182988E+03  0.13591460426E+03  0.17770000000E+01 0.  1.
         15    1    1    2    0    0  0.83198963955E+00  0.15591360403E+02 -0.11191926660E+03  0.11301709026E+03  0.17770000000E+01 0. -1.
</event>
<event>
 6   1  0.1826851E-04  0.5021468E+03  0.7546771E-02  0.9395019E-01
        -11   -1    0    0    0    0  0.00000000000E+00  0.00000000000E+00  0.50000000000E+03  0.50000000000E+03  0.00000000000E+00 0.  1.
         11   -1    0    0    0    0 -0.00000000000E+00 -0.00000000000E+00 -0.50000000000E+03  0.50000000000E+03  0.00000000000E+00 0. -1.
        -11    1    1    2    0    0 -0.55615396760E+01  0.27318428924E+02  0.65833261674E+02  0.71492976054E+02  0.00000000000E+00 0.  1.
         11    1    1    2    0    0  0.40070997021E+01 -0.45972518495E+02 -0.49570986221E+03  0.49785318799E+03  0.00000000000E+00 0. -1.
        -15    1    1    2    0    0  0.23117779887E+00 -0.33218300627E+01  0.62194856425E+02  0.62309276139E+02  0.17770000000E+01 0. -1.
         15    1    1    2    0    0  0.13232621750E+01  0.21975919634E+02  0.36768174411E+03  0.36834455981E+03  0.17770000000E+01 0.  1.
</event>
<event>
 6   1  0.1826851E-04  0.5022882E+03  0.7546771E-02  0.9394704E-01
        -11   -1    0    0    0    0  0.00000000000E+00  0.00000000000E+00  0.50000000000E+03  0.50000000000E+03  0.00000000000E+00 0.  1.
         11   -1    0    0    0    0 -0.00000000000E+00 -0.00000000000E+00 -0.50000000000E+03  0.50000000000E+03  0.00000000000E+00 0.  1.
        -11    1    1    2    0    0  0.61062813740E+01 -0.50782854301E+01  0.46005506940E+03  0.46012361658E+03  0.00000000000E+00 0.  1.
         11    1    1    2    0    0  0.53432724542E+01  0.65754084761E+01 -0.49763965789E+03  0.49771177971E+03  0.00000000000E+00 0.  1.
        -15    1    1    2    0    0  0.22914737963E+01 -0.12807271638E+01  0.17367185586E+02  0.17654120720E+02  0.17770000000E+01 0.  1.
         15    1    1    2    0    0 -0.13741027625E+02 -0.21639588219E+00  0.20217402904E+02  0.24510482992E+02  0.17770000000E+01 0. -1.
</event>
<event>
 6   1  0.1826851E-04  0.5024334E+03  0.7546771E-02  0.9394381E-01
        -11   -1    0    0    0    0  0.00000000000E+00  0.00000000000E+00  0.50000000000E+03  0.50000000000E+03  0.00000000000E+00 0. -1.
         11   -1    0    0    0    0 -0.00000000000E+00 -0.00000000000E+00 -0.50000000000E+03  0.50000000000E+03  0.00000000000E+00 0. -1.
        -11    1    1    2    0    0 -0.29031239587E+01 -0.27388531167E+02  0.29620984544E+03  0.29748753303E+03  0.00000000000E+00 0. -1.
         11    1    1    2    0    0  0.10923315211E+02 -0.37030349131E+01 -0.49743290017E+03  0.49756660002E+03  0.00000000000E+00 0. -1.
        -15    1    1    2    0    0 -0.68540285540E+01  0.14092946985E+01  0.70991163918E+02  0.71357318492E+02  0.17770000000E+01 0. -1.
         15    1    1    2    0    0 -0.11661626987E+01  0.29682271382E+02  0.13023189081E+03  0.13358854847E+03  0.17770000000E+01 0.  1.
</event>
<event>
 6   1  0.1826851E-04  0.5002985E+03  0.7546771E-02  0.9399142E-01
        -11   -1    0    0    0    0  0.00000000000E+00  0.00000000000E+00  0.50000000000E+03  0.50000000000E+03  0.00000000000E+00 0. -1.
         11   -1    0    0    0    0 -0.00000000000E+00 -0.00000000000E+00 -0.50000000000E+03  0.50000000000E+03  0.00000000000E+00 0. -1.
        -11    1    1    2    0    0 -0.11920108479E+00 -0.37779700816E+01  0.12511789955E+02  0.13070277530E+02  0.00000000000E+00 0. -1.
         11    1    1    2    0    0  0.69472043517E+01  0.26065795940E+00 -0.49965314004E+03  0.49970150284E+03  0.00000000000E+00 0. -1.
        -15    1    1    2    0    0 -0.48856357335E+00  0.12464600520E+01  0.10809139556E+03  0.10811429083E+03  0.17770000000E+01 0. -1.
         15    1    1    2    0    0 -0.63394396935E+01  0.22708520702E+01  0.37904995452E+03  0.37911392881E+03  0.17770000000E+01 0. -1.
</event>
<event>
 6   1  0.1826851E-04  0.5026592E+03  0.7546771E-02  0.9393879E-01
        -11   -1    0    0    0    0  0.00000000000E+00  0.00000000000E+00  0.50000000000E+03  0.50000000000E+03  0.00000000000E+00 0.  1.
         11   -1    0    0    0    0 -0.00000000000E+00 -0.00000000000E+00 -0.50000000000E+03  0.50000000000E+03  0.00000000000E+00 0. -1.
        -11    1    1    2    0    0  0.99235969828E+01 -0.49441140221E+00  0.44073311688E+03  0.44084510039E+03  0.00000000000E+00 0.  1.
         11    1    1    2    0    0 -0.38006997118E+01  0.81076817556E+01 -0.49726022497E+03  0.49734084002E+03  0.00000000000E+00 0. -1.
        -15    1    1    2    0    0 -0.28526090411E+01  0.58835520986E+01  0.37959708782E+02  0.38559704141E+02  0.17770000000E+01 0.  1.
         15    1    1    2    0    0 -0.32702882299E+01 -0.13496822452E+02  0.18567399305E+02  0.23254355449E+02  0.17770000000E+01 0. -1.
</event>
<event>
 6   1  0.1826851E-04  0.5036900E+03  0.7546771E-02  0.9391591E-01
        -11   -1    0    0    0    0  0.00000000000E+00  0.00000000000E+00  0.50000000000E+03  0.50000000000E+03  0.00000000000E+00 0.  1.
         11   -1    0    0    0    0 -0.00000000000E+00 -0.00000000000E+00 -0.50000000000E+03  0.50000000000E+03  0.00000000000E+00 0. -1.
        -11    1    1    2    0    0 -0.82871084167E+01  0.19528141403E+02  0.27163898180E+02  0.34465951850E+02  0.00000000000E+00 0.  1.
         11    1    1    2    0    0  0.16576146331E+02 -0.64192007271E+01 -0.49599159796E+03  0.49631002409E+03  0.00000000000E+00 0. -1.
        -15    1    1    2    0    0  0.15156960187E+01 -0.71455254808E+01  0.15636023498E+03  0.15654084668E+03  0.17770000000E+01 0. -1.
         15    1    1    2    0    0 -0.98047339334E+01 -0.59634151953E+01  0.31246746480E+03  0.31268317738E+03  0.17770000000E+01 0.  1.
</event>
<event>
 6   1  0.1826851E-04  0.5026387E+03  0.7546771E-02  0.9393925E-01
        -11   -1    0    0    0    0  0.00000000000E+00  0.00000000000E+00  0.50000000000E+03  0.50000000000E+03  0.00000000000E+00 0. -1.
         11   -1    0    0    0    0 -0.00000000000E+00 -0.00000000000E+00 -0.50000000000E+03  0.50000000000E+03  0.00000000000E+00 0.  1.
        -11    1    1    2    0    0 -0.14224917656E+02  0.30236338457E+01  0.39987608326E+03  0.40014044111E+03  0.00000000000E+00 0. -1.
         11    1    1    2    0    0 -0.49847264139E+01 -0.94346459914E+01 -0.49724682665E+03  0.49736130394E+03  0.00000000000E+00 0.  1.
        -15    1    1    2    0    0  0.20489612500E+02 -0.19130785893E+00  0.90171805275E+02  0.92487691152E+02  0.17770000000E+01 0.  1.
         15    1    1    2    0    0 -0.12799684299E+01  0.66023200047E+01  0.71989381126E+01  0.10010563799E+02  0.17770000000E+01 0. -1.
</event>
<event>
 6   1  0.1826851E-04  0.5068818E+03  0.7546771E-02  0.9384542E-01
        -11   -1    0    0    0    0  0.00000000000E+00  0.00000000000E+00  0.50000000000E+03  0.50000000000E+03  0.00000000000E+00 0. -1.
         11   -1    0    0    0    0 -0.00000000000E+00 -0.00000000000E+00 -0.50000000000E+03  0.50000000000E+03  0.00000000000E+00 0.  1.
        -11    1    1    2    0    0 -0.54678467643E+01 -0.48805839028E+01  0.49306374444E+03  0.49311821456E+03  0.00000000000E+00 0. -1.
         11    1    1    2    0    0 -0.54183781673E+00 -0.11247329387E+02 -0.48257805129E+03  0.48270940698E+03  0.00000000000E+00 0.  1.
        -15    1    1    2    0    0  0.37165211853E+01  0.15756974106E+02 -0.35835704835E+01  0.16676164700E+02  0.17770000000E+01 0. -1.
         15    1    1    2    0    0  0.22931633958E+01  0.37093918376E+00 -0.69021226729E+01  0.74962137529E+01  0.17770000000E+01 0.  1.
</event>
<event>
 6   1  0.1826851E-04  0.5040421E+03  0.7546771E-02  0.9390810E-01
        -11   -1    0    0    0    0  0.00000000000E+00  0.00000000000E+00  0.50000000000E+03  0.50000000000E+03  0.00000000000E+00 0.  1.
         11   -1    0    0    0    0 -0.00000000000E+00 -0.00000000000E+00 -0.50000000000E+03  0.50000000000E+03  0.00000000000E+00 0.  1.
        -11    1    1    2    0    0 -0.40389877089E+01  0.77484785443E+01  0.49588091279E+03  0.49595789338E+03  0.00000000000E+00 0.  1.
         11    1    1    2    0    0  0.65713570523E+01 -0.26538768165E+01 -0.49092866578E+03  0.49097981698E+03  0.00000000000E+00 0.  1.
        -15    1    1    2    0    0 -0.78646241159E-01 -0.16255150031E+01  0.30149867785E+01  0.38595800978E+01  0.17770000000E+01 0. -1.
         15    1    1    2    0    0 -0.24537231022E+01 -0.34690867248E+01 -0.79672337810E+01  0.92027095405E+01  0.17770000000E+01 0.  1.
</event>
<event>
 6   1  0.1826851E-04  0.4985801E+03  0.7546771E-02  0.9402992E-01
        -11   -1    0    0    0    0  0.00000000000E+00  0.00000000000E+00  0.50000000000E+03  0.50000000000E+03  0.00000000000E+00 0. -1.
         11   -1    0    0    0    0 -0.00000000000E+00 -0.00000000000E+00 -0.50000000000E+03  0.50000000000E+03  0.00000000000E+00 0. -1.
        -11    1    1    2    0    0 -0.20362939079E+01  0.28768229782E+01  0.68651940813E+00  0.35908094108E+01  0.00000000000E+00 0. -1.
         11    1    1    2    0    0  0.47903013465E+01 -0.60832494390E+02 -0.49459558882E+03  0.49834559880E+03  0.00000000000E+00 0. -1.
        -15    1    1    2    0    0  0.10554240631E+02  0.12431203231E+02  0.15013969393E+03  0.15103314945E+03  0.17770000000E+01 0.  1.
         15    1    1    2    0    0 -0.13308248069E+02  0.45524468181E+02  0.34376937548E+03  0.34703044235E+03  0.17770000000E+01 0. -1.
</event>
<event>
 6   1  0.1826851E-04  0.5143170E+03  0.7546771E-02  0.9368332E-01
        -11   -1    0    0    0    0  0.00000000000E+00  0.00000000000E+00  0.50000000000E+03  0.50000000000E+03  0.00000000000E+00 0. -1.
         11   -1    0    0    0    0 -0.00000000000E+00 -0.00000000000E+00 -0.50000000000E+03  0.50000000000E+03  0.00000000000E+00 0. -1.
        -11    1    1    2    0    0 -0.43364437832E+02  0.16613685324E+02  0.48345781352E+03  0.48568296909E+03  0.00000000000E+00 0. -1.
         11    1    1    2    0    0  0.33247769921E+01 -0.70138998781E+01 -0.44099998724E+03  0.44106829140E+03  0.00000000000E+00 0. -1.
        -15    1    1    2    0    0 -0.77168477969E+01 -0.26510538430E+01 -0.16330733539E+02  0.18341984989E+02  0.17770000000E+01 0. -1.
         15    1    1    2    0    0  0.47756508636E+02 -0.69487316033E+01 -0.26127092741E+02  0.54906754522E+02  0.17770000000E+01 0.  1.
</event>
<event>
 6   1  0.1826851E-04  0.4415367E+03  0.7546771E-02  0.9541056E-01
        -11   -1    0    0    0    0  0.00000000000E+00  0.00000000000E+00  0.50000000000E+03  0.50000000000E+03  0.00000000000E+00 0. -1.
         11   -1    0    0    0    0 -0.00000000000E+00 -0.00000000000E+00 -0.50000000000E+03  0.50000000000E+03  0.00000000000E+00 0. -1.
        -11    1    1    2    0    0  0.55682929146E+02  0.77320657284E+02 -0.55469908812E+02  0.11025417645E+03  0.00000000000E+00 0. -1.
         11    1    1    2    0    0 -0.76015971034E+02 -0.49592873636E+02 -0.41147289793E+03  0.42136424469E+03  0.00000000000E+00 0. -1.
        -15    1    1    2    0    0  0.13887272453E+02 -0.86837858350E+01  0.21856917615E+03  0.21918920358E+03  0.17770000000E+01 0. -1.
         15    1    1    2    0    0  0.64457694348E+01 -0.19043997814E+02  0.24837363059E+03  0.24919237528E+03  0.17770000000E+01 0.  1.
</event>
<event>
 6   1  0.1826851E-04  0.5010785E+03  0.7546771E-02  0.9397400E-01
        -11   -1    0    0    0    0  0.00000000000E+00  0.00000000000E+00  0.50000000000E+03  0.50000000000E+03  0.00000000000E+00 0. -1.
         11   -1    0    0    0    0 -0.00000000000E+00 -0.00000000000E+00 -0.50000000000E+03  0.50000000000E+03  0.00000000000E+00 0. -1.
        -11    1    1    2    0    0 -0.11528582473E+02  0.10992163708E+02  0.41256981822E+03  0.41287721030E+03  0.00000000000E+00 0. -1.
         11    1    1    2    0    0  0.89014147128E+01 -0.24408083127E+01 -0.49883614691E+03  0.49892153110E+03  0.00000000000E+00 0. -1.
        -15    1    1    2    0    0 -0.26677737251E+01 -0.32932913442E+01  0.59437689565E+01  0.75132484942E+01  0.17770000000E+01 0.  1.
         15    1    1    2    0    0  0.52949414851E+01 -0.52580640512E+01  0.80322559737E+02  0.80688010104E+02  0.17770000000E+01 0. -1.
</event>
<event>
 6   1  0.1826851E-04  0.5055815E+03  0.7546771E-02  0.9387407E-01
        -11   -1    0    0    0    0  0.00000000000E+00  0.00000000000E+00  0.50000000000E+03  0.50000000000E+03  0.00000000000E+00 0. -1.
         11   -1    0    0    0    0 -0.00000000000E+00 -0.00000000000E+00 -0.50000000000E+03  0.50000000000E+03  0.00000000000E+00 0. -1.
        -11    1    1    2    0    0  0.10084427879E+02 -0.15230169818E+02  0.49408100218E+03  0.49441853775E+03  0.00000000000E+00 0. -1.
         11    1    1    2    0    0 -0.93280809385E+01 -0.83588356235E+00 -0.47239501750E+03  0.47248784572E+03  0.00000000000E+00 0. -1.
        -15    1    1    2    0    0 -0.64840261951E+01  0.15828054008E+02 -0.20861205531E+02  0.27035486209E+02  0.17770000000E+01 0. -1.
         15    1    1    2    0    0  0.57276792544E+01  0.23799937310E+00 -0.82477914548E+00  0.60581303207E+01  0.17770000000E+01 0.  1.
</event>
<event>
 6   1  0.1826851E-04  0.5024019E+03  0.7546771E-02  0.9394451E-01
        -11   -1    0    0    0    0  0.00000000000E+00  0.00000000000E+00  0.50000000000E+03  0.50000000000E+03  0.00000000000E+00 0. -1.
         11   -1    0    0    0    0 -0.00000000000E+00 -0.00000000000E+00 -0.50000000000E+03  0.50000000000E+03  0.00000000000E+00 0. -1.
        -11    1    1    2    0    0 -0.21196111852E+02 -0.15780033200E+02  0.49689599375E+03  0.49759814430E+03  0.00000000000E+00 0. -1.
         11    1    1    2    0    0  0.48985758803E+01  0.67738280224E+01 -0.44691594829E+03  0.44699412259E+03  0.00000000000E+00 0. -1.
        -15    1    1    2    0    0  0.17128266232E+02  0.75814641439E+01 -0.30924630119E+02  0.36198709641E+02  0.17770000000E+01 0. -1.
         15    1    1    2    0    0 -0.83073025992E+00  0.14247410337E+01 -0.19055415345E+02  0.19209023472E+02  0.17770000000E+01 0.  1.
</event>
<event>
 6   1  0.1826851E-04  0.5036266E+03  0.7546771E-02  0.9391731E-01
        -11   -1    0    0    0    0  0.00000000000E+00  0.00000000000E+00  0.50000000000E+03  0.50000000000E+03  0.00000000000E+00 0. -1.
         11   -1    0    0    0    0 -0.00000000000E+00 -0.00000000000E+00 -0.50000000000E+03  0.50000000000E+03  0.00000000000E+00 0. -1.
        -11    1    1    2    0    0 -0.34023981729E+02  0.44524824758E+02  0.49320024137E+03  0.49637341734E+03  0.00000000000E+00 0. -1.
         11    1    1    2    0    0  0.69345537578E+01 -0.11383942940E+02 -0.35411605303E+03  0.35436684552E+03  0.00000000000E+00 0. -1.
        -15    1    1    2    0    0  0.30723113033E+01  0.41899580613E+01 -0.43628496961E+02  0.43972699728E+02  0.17770000000E+01 0. -1.
         15    1    1    2    0    0  0.24017116668E+02 -0.37330839879E+02 -0.95455691386E+02  0.10528703741E+03  0.17770000000E+01 0.  1.
</event>
<event>
 6   1  0.1826851E-04  0.5006536E+03  0.7546771E-02  0.9398349E-01
        -11   -1    0    0    0    0  0.00000000000E+00  0.00000000000E+00  0.50000000000E+03  0.50000000000E+03  0.00000000000E+00 0. -1.
         11   -1    0    0    0    0 -0.00000000000E+00 -0.00000000000E+00 -0.50000000000E+03  0.50000000000E+03  0.00000000000E+00 0.  1.
        -11    1    1    2    0    0 -0.36512534407E+01 -0.62048052028E+01  0.26925651467E+03  0.26935274632E+03  0.00000000000E+00 0. -1.
         11    1    1    2    0    0  0.31485128782E+01 -0.17176848307E+02 -0.49904099950E+03  0.49934644931E+03  0.00000000000E+00 0.  1.
        -15    1    1    2    0    0  0.67429080832E+00  0.20419583427E+02  0.21938243660E+03  0.22033888734E+03  0.17770000000E+01 0. -1.
         15    1    1    2    0    0 -0.17155024576E+00  0.29620700822E+01  0.10402048231E+02  0.10961917033E+02  0.17770000000E+01 0.  1.
</event>
<event>
 6   1  0.1826851E-04  0.4952160E+03  0.7546771E-02  0.9410578E-01
        -11   -1    0    0    0    0  0.00000000000E+00  0.00000000000E+00  0.50000000000E+03  0.50000000000E+03  0.00000000000E+00 0. -1.
         11   -1    0    0    0    0 -0.00000000000E+00 -0.00000000000E+00 -0.50000000000E+03  0.50000000000E+03  0.00000000000E+00 0. -1.
        -11    1    1    2    0    0 -0.92856489867E+01  0.13345221050E+01  0.18124441008E+01  0.95545371406E+01  0.00000000000E+00 0. -1.
         11    1    1    2    0    0  0.11002872179E+00 -0.89183784033E+01 -0.49600080415E+03  0.49608098865E+03  0.00000000000E+00 0. -1.
        -15    1    1    2    0    0  0.71697238278E+01  0.72323540491E+01  0.41912419183E+03  0.41925166403E+03  0.17770000000E+01 0. -1.
         15    1    1    2    0    0  0.20058964371E+01  0.35150224920E+00  0.75064168215E+02  0.75112810180E+02  0.17770000000E+01 0. -1.
</event>
<event>
 6   1  0.1826851E-04  0.5033835E+03  0.7546771E-02  0.9392270E-01
        -11   -1    0    0    0    0  0.00000000000E+00  0.00000000000E+00  0.50000000000E+03  0.50000000000E+03  0.00000000000E+00 0.  1.
         11   -1    0    0    0    0 -0.00000000000E+00 -0.00000000000E+00 -0.50000000000E+03  0.50000000000E+03  0.00000000000E+00 0.  1.
        -11    1    1    2    0    0  0.18023605073E+02 -0.45606221188E+02  0.49418937603E+03  0.49661646885E+03  0.00000000000E+00 0.  1.
         11    1    1    2    0    0 -0.74303189555E+01 -0.67621552257E+01 -0.32216620607E+03  0.32232282066E+03  0.00000000000E+00 0.  1.
        -15    1    1    2    0    0 -0.73163380085E+01  0.46740037416E+02 -0.16333670924E+03  0.17005939613E+03  0.17770000000E+01 0.  1.
         15    1    1    2    0    0 -0.32769481092E+01  0.56283389977E+01 -0.86864607177E+01  0.11001314357E+02  0.17770000000E+01 0.  1.
</event>
<event>
 6   1  0.1826851E-04  0.5021366E+03  0.7546771E-02  0.9395042E-01
        -11   -1    0    0    0    0  0.00000000000E+00  0.00000000000E+00  0.50000000000E+03  0.50000000000E+03  0.00000000000E+00 0.  1.
         11   -1    0    0    0    0 -0.00000000000E+00 -0.00000000000E+00 -0.50000000000E+03  0.50000000000E+03  0.00000000000E+00 0.  1.
        -11    1    1    2    0    0  0.49227574523E+01  0.15727645067E+02  0.49759058693E+03  0.49786341959E+03  0.00000000000E+00 0.  1.
         11    1    1    2    0    0 -0.66466809355E+01  0.34502737803E+01 -0.43645346245E+03  0.43651770599E+03  0.00000000000E+00 0.  1.
        -15    1    1    2    0    0  0.81220717181E+00 -0.14156512310E+02 -0.22839922480E+02  0.26942277357E+02  0.17770000000E+01 0.  1.
         15    1    1    2    0    0  0.91171631132E+00 -0.50214065373E+01 -0.38297202005E+02  0.38676597066E+02  0.17770000000E+01 0. -1.
</event>
<event>
 6   1  0.1826851E-04  0.5011118E+03  0.7546771E-02  0.9397325E-01
        -11   -1    0    0    0    0  0.00000000000E+00  0.00000000000E+00  0.50000000000E+03  0.50000000000E+03  0.00000000000E+00 0.  1.
         11   -1    0    0    0    0 -0.00000000000E+00 -0.00000000000E+00 -0.50000000000E+03  0.50000000000E+03  0.00000000000E+00 0. -1.
        -11    1    1    2    0    0 -0.22918703709E+01 -0.87164248463E+01  0.49880678547E+03  0.49888820186E+03  0.00000000000E+00 0.  1.
         11    1    1    2    0    0 -0.83649150270E+01  0.35611079345E+01 -0.46402196241E+03  0.46411101570E+03  0.00000000000E+00 0. -1.
        -15    1    1    2    0    0  0.38290405220E+01  0.29779886891E+01 -0.12533050479E+02  0.13555996875E+02  0.17770000000E+01 0. -1.
         15    1    1    2    0    0  0.68277448759E+01  0.21773282227E+01 -0.22251772575E+02  0.23444785561E+02  0.17770000000E+01 0.  1.
</event>
<event>
 6   1  0.1826851E-04  0.5056954E+03  0.7546771E-02  0.9387155E-01
        -11   -1    0    0    0    0  0.00000000000E+00  0.00000000000E+00  0.50000000000E+03  0.50000000000E+03  0.00000000000E+00 0.  1.
         11   -1    0    0    0    0 -0.00000000000E+00 -0.00000000000E+00 -0.50000000000E+03  0.50000000000E+03  0.00000000000E+00 0.  1.
        -11    1    1    2    0    0 -0.71110776454E+01 -0.85558732843E+01  0.48372658490E+03  0.48385450223E+03  0.00000000000E+00 0.  1.
         11    1    1    2    0    0 -0.96590701177E+00 -0.67164634114E+01 -0.49425800454E+03  0.49430458111E+03  0.00000000000E+00 0.  1.
        -15    1    1    2    0    0  0.82184217632E+00  0.35191224259E+01 -0.52284814677E+00  0.40608800026E+01  0.17770000000E+01 0. -1.
         15    1    1    2    0    0  0.72551424809E+01  0.11753214270E+02  0.11054267790E+02  0.17780036655E+02  0.17770000000E+01 0.  1.
</event>
<event>
 6   1  0.1826851E-04  0.5054650E+03  0.7546771E-02  0.9387664E-01
        -11   -1    0    0    0    0  0.00000000000E+00  0.00000000000E+00  0.50000000000E+03  0.50000000000E+03  0.00000000000E+00 0.  1.
         11   -1    0    0    0    0 -0.00000000000E+00 -0.00000000000E+00 -0.50000000000E+03  0.50000000000E+03  0.00000000000E+00 0.  1.
        -11    1    1    2    0    0 -0.89223470101E+01  0.11327652811E+02  0.49432474054E+03  0.49453500696E+03  0.00000000000E+00 0.  1.
         11    1    1    2    0    0  0.45176583596E+01 -0.78533931393E+01 -0.48053654664E+03  0.48062194880E+03  0.00000000000E+00 0.  1.
        -15    1    1    2    0    0  0.87857417804E+01 -0.91152847808E+01 -0.59832262922E+01  0.14115041662E+02  0.17770000000E+01 0.  1.
         15    1    1    2    0    0 -0.43810531299E+01  0.56410251093E+01 -0.78049676141E+01  0.10728002576E+02  0.17770000000E+01 0. -1.
</event>
<event>
 6   1  0.1826851E-04  0.5006380E+03  0.7546771E-02  0.9398383E-01
        -11   -1    0    0    0    0  0.00000000000E+00  0.00000000000E+00  0.50000000000E+03  0.50000000000E+03  0.00000000000E+00 0. -1.
         11   -1    0    0    0    0 -0.00000000000E+00 -0.00000000000E+00 -0.50000000000E+03  0.50000000000E+03  0.00000000000E+00 0.  1.
        -11    1    1    2    0    0 -0.17225480644E+02  0.14297013261E+02  0.17332427717E+03  0.17476391741E+03  0.00000000000E+00 0. -1.
         11    1    1    2    0    0  0.21598951857E+02 -0.36396765512E+01 -0.49888142802E+03  0.49936203419E+03  0.00000000000E+00 0.  1.
        -15    1    1    2    0    0 -0.57210010772E+01 -0.40481929252E+01  0.14120371468E+03  0.14138870000E+03  0.17770000000E+01 0.  1.
         15    1    1    2    0    0  0.13475298640E+01 -0.66091437851E+01  0.18435343617E+03  0.18448534840E+03  0.17770000000E+01 0. -1.
</event>
<event>
 6   1  0.1826851E-04  0.5043060E+03  0.7546771E-02  0.9390226E-01
        -11   -1    0    0    0    0  0.00000000000E+00  0.00000000000E+00  0.50000000000E+03  0.50000000000E+03  0.00000000000E+00 0.  1.
         11   -1    0    0    0    0 -0.00000000000E+00 -0.00000000000E+00 -0.50000000000E+03  0.50000000000E+03  0.00000000000E+00 0.  1.
        -11    1    1    2    0    0  0.15352086086E+02  0.14451257875E+02  0.21154303051E+02  0.29866870257E+02  0.00000000000E+00 0.  1.
         11    1    1    2    0    0 -0.13865457198E+02 -0.82642455136E+01 -0.49543110693E+03  0.49569398864E+03  0.00000000000E+00 0.  1.
        -15    1    1    2    0    0 -0.16223098046E+01 -0.87908866096E+01  0.31848445671E+03  0.31861484346E+03  0.17770000000E+01 0.  1.
         15    1    1    2    0    0  0.13568091676E+00  0.26038742485E+01  0.15579234717E+03  0.15582429764E+03  0.17770000000E+01 0.  1.
</event>
<event>
 6   1  0.1826851E-04  0.5038199E+03  0.7546771E-02  0.9391303E-01
        -11   -1    0    0    0    0  0.00000000000E+00  0.00000000000E+00  0.50000000000E+03  0.50000000000E+03  0.00000000000E+00 0.  1.
         11   -1    0    0    0    0 -0.00000000000E+00 -0.00000000000E+00 -0.50000000000E+03  0.50000000000E+03  0.00000000000E+00 0. -1.
        -11    1    1    2    0    0  0.16140936312E+02 -0.10623325287E+02  0.49580368315E+03  0.49618008534E+03  0.00000000000E+00 0.  1.
         11    1    1    2    0    0  0.73537640110E+01  0.11002149091E+02 -0.45318080947E+03  0.45337398602E+03  0.00000000000E+00 0. -1.
        -15    1    1    2    0    0 -0.10967846153E+02 -0.50646229446E+01 -0.28015715269E+02  0.30561120494E+02  0.17770000000E+01 0. -1.
         15    1    1    2    0    0 -0.12526854169E+02  0.46857991406E+01 -0.14607158413E+02  0.19884808143E+02  0.17770000000E+01 0.  1.
</event>
<event>
 6   1  0.1826851E-04  0.5014884E+03  0.7546771E-02  0.9396485E-01
        -11   -1    0    0    0    0  0.00000000000E+00  0.00000000000E+00  0.50000000000E+03  0.50000000000E+03  0.00000000000E+00 0. -1.
         11   -1    0    0    0    0 -0.00000000000E+00 -0.00000000000E+00 -0.50000000000E+03  0.50000000000E+03  0.00000000000E+00 0. -1.
        -11    1    1    2    0    0  0.67709783384E+01 -0.23477216585E+01 -0.60086867757E+01  0.93521260371E+01  0.00000000000E+00 0. -1.
         11    1    1    2    0    0  0.42273351236E+01  0.58716123535E+01 -0.49208308594E+03  0.49213627143E+03  0.00000000000E+00 0. -1.
        -15    1    1    2    0    0 -0.14352404186E+02 -0.62755510972E+01  0.38109853503E+03  0.38142446851E+03  0.17770000000E+01 0. -1.
         15    1    1    2    0    0  0.33540907243E+01  0.27516604021E+01  0.11699323769E+03  0.11708713402E+03  0.17770000000E+01 0.  1.
</event>
<event>
 6   1  0.1826851E-04  0.5018254E+03  0.7546771E-02  0.9395734E-01
        -11   -1    0    0    0    0  0.00000000000E+00  0.00000000000E+00  0.50000000000E+03  0.50000000000E+03  0.00000000000E+00 0. -1.
         11   -1    0    0    0    0 -0.00000000000E+00 -0.00000000000E+00 -0.50000000000E+03  0.50000000000E+03  0.00000000000E+00 0.  1.
        -11    1    1    2    0    0 -0.11823840679E+02  0.62675367713E+01  0.42637277549E+03  0.42658273395E+03  0.00000000000E+00 0. -1.
         11    1    1    2    0    0 -0.22909727355E+01  0.84349402994E+01 -0.49809788294E+03  0.49817456555E+03  0.00000000000E+00 0.  1.
        -15    1    1    2    0    0  0.37160795403E+01 -0.94611613159E+01  0.24789498554E+02  0.26851439219E+02  0.17770000000E+01 0.  1.
         15    1    1    2    0    0  0.10398733874E+02 -0.52413157548E+01  0.46935608891E+02  0.48391261277E+02  0.17770000000E+01 0. -1.
</event>
<event>
 6   1  0.1826851E-04  0.5004758E+03  0.7546771E-02  0.9398746E-01
        -11   -1    0    0    0    0  0.00000000000E+00  0.00000000000E+00  0.50000000000E+03  0.50000000000E+03  0.00000000000E+00 0.  1.
         11   -1    0    0    0    0 -0.00000000000E+00 -0.00000000000E+00 -0.50000000000E+03  0.50000000000E+03  0.00000000000E+00 0. -1.
        -11    1    1    2    0    0 -0.70853141609E+01  0.82188797122E+01  0.24808577444E+03  0.24832298150E+03  0.00000000000E+00 0.  1.
         11    1    1    2    0    0 -0.96876741269E+01 -0.57402723376E+01 -0.49939723676E+03  0.49952417543E+03  0.00000000000E+00 0. -1.
        -15    1    1    2    0    0  0.60786685094E+01  0.46999276344E-02  0.16583291068E+03  0.16595379545E+03  0.17770000000E+01 0.  1.
         15    1    1    2    0    0  0.10694319778E+02 -0.24833073023E+01  0.85478551643E+02  0.86199047621E+02  0.17770000000E+01 0. -1.
</event>
<event>
 6   1  0.1826851E-04  0.5000415E+03  0.7546771E-02  0.9399717E-01
        -11   -1    0    0    0    0  0.00000000000E+00  0.00000000000E+00  0.50000000000E+03  0.50000000000E+03  0.00000000000E+00 0.  1.
         11   -1    0    0    0    0 -0.00000000000E+00 -0.00000000000E+00 -0.50000000000E+03  0.50000000000E+03  0.00000000000E+00 0.  1.
        -11    1    1    2    0    0  0.29155859424E+01 -0.25879491820E+01  0.76155709569E+02  0.76255427494E+02  0.00000000000E+00 0.  1.
         11    1    1    2    0    0 -0.78090460836E+01  0.58773167345E+01 -0.49986299680E+03  0.49995853790E+03  0.00000000000E+00 0.  1.
        -15    1    1    2    0    0  0.67530115984E-01 -0.15816439827E+01  0.78051127746E+02  0.78087402502E+02  0.17770000000E+01 0. -1.
         15    1    1    2    0    0  0.48259300252E+01 -0.17077235697E+01  0.34565615948E+03  0.34569863210E+03  0.17770000000E+01 0.  1.
</event>
<event>
 6   1  0.1826851E-04  0.4900419E+03  0.7546771E-02  0.9422372E-01
        -11   -1    0    0    0    0  0.00000000000E+00  0.00000000000E+00  0.50000000000E+03  0.50000000000E+03  0.00000000000E+00 0. -1.
         11   -1    0    0    0    0 -0.00000000000E+00 -0.00000000000E+00 -0.50000000000E+03  0.50000000000E+03  0.00000000000E+00 0. -1.
        -11    1    1    2    0    0 -0.58340279080E+01  0.77519274243E+01  0.48735284794E+03  0.48744940933E+03  0.00000000000E+00 0. -1.
         11    1    1    2    0    0 -0.38289143468E+01  0.71025565019E+01 -0.49274332845E+03  0.49280938975E+03  0.00000000000E+00 0. -1.
        -15    1    1    2    0    0  0.63644442497E+01 -0.12524710305E+02  0.22807917081E+01  0.14343439568E+02  0.17770000000E+01 0. -1.
         15    1    1    2    0    0  0.32984980051E+01 -0.23297736216E+01  0.31096887999E+01  0.53977613554E+01  0.17770000000E+01 0.  1.
</event>
<event>
 6   1  0.1826851E-04  0.5128428E+03  0.7546771E-02  0.9371523E-01
        -11   -1    0    0    0    0  0.00000000000E+00  0.00000000000E+00  0.50000000000E+03  0.50000000000E+03  0.00000000000E+00 0.  1.
         11   -1    0    0    0    0 -0.00000000000E+00 -0.00000000000E+00 -0.50000000000E+03  0.50000000000E+03  0.00000000000E+00 0. -1.
        -11    1    1    2    0    0 -0.16542587559E+02  0.35680009333E+02  0.48556715514E+03  0.48715724609E+03  0.00000000000E+00 0.  1.
         11    1    1    2    0    0 -0.37288001700E+01  0.50001788324E+01 -0.45150765536E+03  0.45155073756E+03  0.00000000000E+00 0. -1.
        -15    1    1    2    0    0  0.13012016809E+01 -0.44090304223E+01 -0.15589914881E+02  0.16350408254E+02  0.17770000000E+01 0.  1.
         15    1    1    2    0    0  0.18970186048E+02 -0.36271157743E+02 -0.18469584895E+02  0.44941608092E+02  0.17770000000E+01 0. -1.
</event>
<event>
 6   1  0.1826851E-04  0.5002704E+03  0.7546771E-02  0.9399205E-01
        -11   -1    0    0    0    0  0.00000000000E+00  0.00000000000E+00  0.50000000000E+03  0.50000000000E+03  0.00000000000E+00 0.  1.
         11   -1    0    0    0    0 -0.00000000000E+00 -0.00000000000E+00 -0.50000000000E+03  0.50000000000E+03  0.00000000000E+00 0. -1.
        -11    1    1    2    0    0  0.19219243060E+02  0.19959647217E+02  0.42085322045E+03  0.42176438919E+03  0.00000000000E+00 0.  1.
         11    1    1    2    0    0 -0.14767290954E+02 -0.20657452035E+02 -0.49908398844E+03  0.49972955758E+03  0.00000000000E+00 0. -1.
        -15    1    1    2    0    0 -0.23509106487E+01  0.12694351161E+01  0.25601784445E+02  0.25802080190E+02  0.17770000000E+01 0. -1.
         15    1    1    2    0    0 -0.21010414576E+01 -0.57163029814E+00  0.52628983542E+02  0.52703973039E+02  0.17770000000E+01 0.  1.
</event>
<event>
 6   1  0.1826851E-04  0.5064812E+03  0.7546771E-02  0.9385423E-01
        -11   -1    0    0    0    0  0.00000000000E+00  0.00000000000E+00  0.50000000000E+03  0.50000000000E+03  0.00000000000E+00 0. -1.
         11   -1    0    0    0    0 -0.00000000000E+00 -0.00000000000E+00 -0.50000000000E+03  0.50000000000E+03  0.00000000000E+00 0. -1.
        -11    1    1    2    0    0 -0.70946100746E+01 -0.10097773648E+02  0.49336444024E+03  0.49351876298E+03  0.00000000000E+00 0. -1.
         11    1    1    2    0    0 -0.62985508642E+01 -0.86956392207E+01 -0.47701788504E+03  0.47713870995E+03  0.00000000000E+00 0. -1.
        -15    1    1    2    0    0  0.29541994564E+01  0.39197217426E+01 -0.64172255362E+00  0.52593773209E+01  0.17770000000E+01 0.  1.
         15    1    1    2    0    0  0.10438961482E+02  0.14873691127E+02 -0.15704832646E+02  0.24083149752E+02  0.17770000000E+01 0. -1.
</event>
<event>
 6   1  0.1826851E-04  0.5231953E+03  0.7546771E-02  0.9349354E-01
        -11   -1    0    0    0    0  0.00000000000E+00  0.00000000000E+00  0.50000000000E+03  0.50000000000E+03  0.00000000000E+00 0. -1.
         11   -1    0    0    0    0 -0.00000000000E+00 -0.00000000000E+00 -0.50000000000E+03  0.50000000000E+03  0.00000000000E+00 0.  1.
        -11    1    1    2    0    0  0.18494422822E+01 -0.37643469412E+02  0.41370453524E+03  0.41541773398E+03  0.00000000000E+00 0. -1.
         11    1    1    2    0    0 -0.10092095299E+02 -0.74372887621E+01 -0.47663991175E+03  0.47680474948E+03  0.00000000000E+00 0.  1.
        -15    1    1    2    0    0 -0.18271349504E+02  0.44600668314E+00 -0.78551720280E+01  0.19972545938E+02  0.17770000000E+01 0. -1.
         15    1    1    2    0    0  0.26514002521E+02  0.44634751491E+02  0.70790548544E+02  0.87804970603E+02  0.17770000000E+01 0.  1.
</event>
<event>
 6   1  0.1826851E-04  0.5005345E+03  0.7546771E-02  0.9398615E-01
        -11   -1    0    0    0    0  0.00000000000E+00  0.00000000000E+00  0.50000000000E+03  0.50000000000E+03  0.00000000000E+00 0.  1.
         11   -1    0    0    0    0 -0.00000000000E+00 -0.00000000000E+00 -0.50000000000E+03  0.50000000000E+03  0.00000000000E+00 0. -1.
        -11    1    1    2    0    0  0.48899177972E+01 -0.10458480893E+02  0.49933207263E+03  0.49946552421E+03  0.00000000000E+00 0.  1.
         11    1    1    2    0    0 -0.10813126193E+02  0.16183603722E+01 -0.41057323845E+03  0.41071879300E+03  0.00000000000E+00 0. -1.
        -15    1    1    2    0    0  0.59472559508E+01  0.80617966758E+01 -0.50887201055E+02  0.51894386780E+02  0.17770000000E+01 0. -1.
         15    1    1    2    0    0 -0.24047554564E-01  0.77832384540E+00 -0.37871633126E+02  0.37921296008E+02  0.17770000000E+01 0.  1.
</event>
<event>
 6   1  0.1826851E-04  0.5003979E+03  0.7546771E-02  0.9398920E-01
        -11   -1    0    0    0    0  0.00000000000E+00  0.00000000000E+00  0.50000000000E+03  0.50000000000E+03  0.00000000000E+00 0. -1.
         11   -1    0    0    0    0 -0.00000000000E+00 -0.00000000000E+00 -0.50000000000E+03  0.50000000000E+03  0.00000000000E+00 0.  1.
        -11    1    1    2    0    0 -0.61637548227E+01  0.13006746487E+02  0.49939468668E+03  0.49960206206E+03  0.00000000000E+00 0. -1.
         11    1    1    2    0    0  0.18838803050E+01  0.67920980586E+01 -0.19584283659E+03  0.19596963603E+03  0.00000000000E+00 0.  1.
        -15    1    1    2    0    0  0.40947156044E+01 -0.15197618271E+01 -0.60267574873E+02  0.60451754995E+02  0.17770000000E+01 0. -1.
         15    1    1    2    0    0  0.18515891328E+00 -0.18279082718E+02 -0.24328427522E+03  0.24397654692E+03  0.17770000000E+01 0.  1.
</event>
<event>
 6   1  0.1826851E-04  0.5008116E+03  0.7546771E-02  0.9397995E-01
        -11   -1    0    0    0    0  0.00000000000E+00  0.00000000000E+00  0.50000000000E+03  0.50000000000E+03  0.00000000000E+00 0. -1.
         11   -1    0    0    0    0 -0.00000000000E+00 -0.00000000000E+00 -0.50000000000E+03  0.50000000000E+03  0.00000000000E+00 0.  1.
        -11    1    1    2    0    0  0.19536332676E+01  0.65229390626E+01  0.37118546615E+03  0.37124791676E+03  0.00000000000E+00 0. -1.
         11    1    1    2    0    0  0.59665970458E+01 -0.12647076773E+02 -0.49899246212E+03  0.49918836733E+03  0.00000000000E+00 0.  1.
        -15    1    1    2    0    0 -0.18180445121E+01  0.10247451434E+02  0.10504012601E+03  0.10556941484E+03  0.17770000000E+01 0. -1.
         15    1    1    2    0    0 -0.61021858014E+01 -0.41233137239E+01  0.22766869950E+02  0.23994301072E+02  0.17770000000E+01 0.  1.
</event>
<event>
 6   1  0.1826851E-04  0.5057489E+03  0.7546771E-02  0.9387037E-01
        -11   -1    0    0    0    0  0.00000000000E+00  0.00000000000E+00  0.50000000000E+03  0.50000000000E+03  0.00000000000E+00 0.  1.
         11   -1    0    0    0    0 -0.00000000000E+00 -0.00000000000E+00 -0.50000000000E+03  0.50000000000E+03  0.00000000000E+00 0. -1.
        -11    1    1    2    0    0 -0.12067663822E+02 -0.17040116008E+02  0.49380979331E+03  0.49425105568E+03  0.00000000000E+00 0.  1.
         11    1    1    2    0    0  0.78435272555E+01 -0.41993656770E+01 -0.47483433551E+03  0.47491767894E+03  0.00000000000E+00 0. -1.
        -15    1    1    2    0    0  0.46721539152E+01  0.21803906295E+02 -0.17195675538E+02  0.28215037447E+02  0.17770000000E+01 0. -1.
         15    1    1    2    0    0 -0.44801734850E+00 -0.56442461010E+00 -0.17797822636E+01  0.26162279317E+01  0.17770000000E+01 0. -1.
</event>
<event>
 6   1  0.1826851E-04  0.5002782E+03  0.7546771E-02  0.9399188E-01
        -11   -1    0    0    0    0  0.00000000000E+00  0.00000000000E+00  0.50000000000E+03  0.50000000000E+03  0.00000000000E+00 0.  1.
         11   -1    0    0    0    0 -0.00000000000E+00 -0.00000000000E+00 -0.50000000000E+03  0.50000000000E+03  0.00000000000E+00 0.  1.
        -11    1    1    2    0    0  0.98505231838E+00  0.26355069548E+01 -0.48248966147E+01  0.55853247283E+01  0.00000000000E+00 0.  1.
         11    1    1    2    0    0  0.98762074805E+01  0.40536114543E+01 -0.49457762563E+03  0.49469283299E+03  0.00000000000E+00 0.  1.
        -15    1    1    2    0    0 -0.13003391285E+02 -0.50055536408E+01  0.44540729880E+03  0.44562872810E+03  0.17770000000E+01 0.  1.
         15    1    1    2    0    0  0.21421314858E+01 -0.16835647683E+01  0.53995223447E+02  0.54093114180E+02  0.17770000000E+01 0. -1.
</event>
<event>
 6   1  0.1826851E-04  0.5008765E+03  0.7546771E-02  0.9397851E-01
        -11   -1    0    0    0    0  0.00000000000E+00  0.00000000000E+00  0.50000000000E+03  0.50000000000E+03  0.00000000000E+00 0. -1.
         11   -1    0    0    0    0 -0.00000000000E+00 -0.00000000000E+00 -0.50000000000E+03  0.50000000000E+03  0.00000000000E+00 0.  1.
        -11    1    1    2    0    0  0.98111324464E+01  0.54133593773E+01  0.49899770682E+03  0.49912350595E+03  0.00000000000E+00 0. -1.
         11    1    1    2    0    0  0.59343591111E+01 -0.68540301118E+00 -0.32558063867E+03  0.32563543829E+03  0.00000000000E+00 0.  1.
        -15    1    1    2    0    0 -0.16339993914E+02  0.22373971262E+01 -0.14401459925E+03  0.14496676817E+03  0.17770000000E+01 0.  1.
         15    1    1    2    0    0  0.59450235663E+00 -0.69653534924E+01 -0.29402468905E+02  0.30274287589E+02  0.17770000000E+01 0. -1.
</event>
<event>
 6   1  0.1826851E-04  0.5003902E+03  0.7546771E-02  0.9398937E-01
        -11   -1    0    0    0    0  0.00000000000E+00  0.00000000000E+00  0.50000000000E+03  0.50000000000E+03  0.00000000000E+00 0. -1.
         11   -1    0    0    0    0 -0.00000000000E+00 -0.00000000000E+00 -0.50000000000E+03  0.50000000000E+03  0.00000000000E+00 0. -1.
        -11    1    1    2    0    0  0.38974641230E+01 -0.14995359773E+02  0.49936953345E+03  0.49960982975E+03  0.00000000000E+00 0. -1.
         11    1    1    2    0    0 -0.66046361592E+01 -0.35575065696E+01 -0.23142209704E+03  0.23154365478E+03  0.00000000000E+00 0. -1.
        -15    1    1    2    0    0  0.31012299943E+01  0.11264718631E+02 -0.94447100784E+02  0.95183633513E+02  0.17770000000E+01 0. -1.
         15    1    1    2    0    0 -0.39405795801E+00  0.72881477120E+01 -0.17350033563E+03  0.17366288196E+03  0.17770000000E+01 0.  1.
</event>
<event>
 6   1  0.1826851E-04  0.5030933E+03  0.7546771E-02  0.9392915E-01
        -11   -1    0    0    0    0  0.00000000000E+00  0.00000000000E+00  0.50000000000E+03  0.50000000000E+03  0.00000000000E+00 0. -1.
         11   -1    0    0    0    0 -0.00000000000E+00 -0.00000000000E+00 -0.50000000000E+03  0.50000000000E+03  0.00000000000E+00 0. -1.
        -11    1    1    2    0    0  0.52618817400E+01  0.13771110849E+02  0.49668800730E+03  0.49690673923E+03  0.00000000000E+00 0. -1.
         11    1    1    2    0    0  0.17084796844E+02 -0.40236318976E+01 -0.43896153064E+03  0.43931230950E+03  0.00000000000E+00 0. -1.
        -15    1    1    2    0    0 -0.61523550287E+01 -0.67398285352E+01 -0.30739097436E+02  0.32114274105E+02  0.17770000000E+01 0. -1.
         15    1    1    2    0    0 -0.16194323555E+02 -0.30076504160E+01 -0.26987379222E+02  0.31666677165E+02  0.17770000000E+01 0.  1.
</event>
<event>
 6   1  0.1826851E-04  0.5009486E+03  0.7546771E-02  0.9397690E-01
        -11   -1    0    0    0    0  0.00000000000E+00  0.00000000000E+00  0.50000000000E+03  0.50000000000E+03  0.00000000000E+00 0. -1.
         11   -1    0    0    0    0 -0.00000000000E+00 -0.00000000000E+00 -0.50000000000E+03  0.50000000000E+03  0.00000000000E+00 0.  1.
        -11    1    1    2    0    0 -0.12233599843E+02  0.33555671795E+01  0.49889011692E+03  0.49905136966E+03  0.00000000000E+00 0. -1.
         11    1    1    2    0    0  0.55879967072E+01  0.36909047651E+01 -0.47013214088E+03  0.47017983620E+03  0.00000000000E+00 0.  1.
        -15    1    1    2    0    0  0.16683765024E+01 -0.39856941484E+01 -0.15130599165E+02  0.15835466463E+02  0.17770000000E+01 0. -1.
         15    1    1    2    0    0  0.49772266338E+01 -0.30607777961E+01 -0.13627376880E+02  0.14933327670E+02  0.17770000000E+01 0.  1.
</event>
<event>
 6   1  0.1826851E-04  0.5026228E+03  0.7546771E-02  0.9393960E-01
        -11   -1    0    0    0    0  0.00000000000E+00  0.00000000000E+00  0.50000000000E+03  0.50000000000E+03  0.00000000000E+00 0. -1.
         11   -1    0    0    0    0 -0.00000000000E+00 -0.00000000000E+00 -0.50000000000E+03  0.50000000000E+03  0.00000000000E+00 0.  1.
        -11    1    1    2    0    0  0.16760107583E+02 -0.27866276328E+01  0.49708688515E+03  0.49737715859E+03  0.00000000000E+00 0. -1.
         11    1    1    2    0    0 -0.94513263217E+00 -0.65584939873E+01 -0.46613519753E+03  0.46618229213E+03  0.00000000000E+00 0.  1.
        -15    1    1    2    0    0 -0.64374825227E+01  0.19789420274E+01 -0.14021772756E+02  0.15656475753E+02  0.17770000000E+01 0.  1.
         15    1    1    2    0    0 -0.93774924284E+01  0.73661795927E+01 -0.16929914865E+02  0.20784073527E+02  0.17770000000E+01 0. -1.
</event>
<event>
 6   1  0.1826851E-04  0.5023475E+03  0.7546771E-02  0.9394572E-01
        -11   -1    0    0    0    0  0.00000000000E+00  0.00000000000E+00  0.50000000000E+03  0.50000000000E+03  0.00000000000E+00 0. -1.
         11   -1    0    0    0    0 -0.00000000000E+00 -0.00000000000E+00 -0.50000000000E+03  0.50000000000E+03  0.00000000000E+00 0. -1.
        -11    1    1    2    0    0 -0.32183693477E+00  0.13564603873E+02  0.48832045430E+03  0.48850892330E+03  0.00000000000E+00 0. -1.
         11    1    1    2    0    0 -0.45896730526E+01 -0.77116803232E+01 -0.49757153461E+03  0.49765245621E+03  0.00000000000E+00 0. -1.
        -15    1    1    2    0    0  0.47115185649E+01 -0.33226060859E+01  0.88552658851E+01  0.10715016625E+02  0.17770000000E+01 0. -1.
         15    1    1    2    0    0  0.19999142249E+00 -0.25303174641E+01  0.39581442688E+00  0.31236038640E+01  0.17770000000E+01 0. -1.
</event>
<event>
 6   1  0.1826851E-04  0.5003844E+03  0.7546771E-02  0.9398950E-01
        -11   -1    0    0    0    0  0.00000000000E+00  0.00000000000E+00  0.50000000000E+03  0.50000000000E+03  0.00000000000E+00 0.  1.
         11   -1    0    0    0    0 -0.00000000000E+00 -0.00000000000E+00 -0.50000000000E+03  0.50000000000E+03  0.00000000000E+00 0. -1.
        -11    1    1    2    0    0  0.60055321934E+01 -0.46242033860E+01  0.25905408969E+03  0.25916494952E+03  0.00000000000E+00 0.  1.
         11    1    1    2    0    0  0.59554460908E+01 -0.47164420464E+01 -0.49955783611E+03  0.49961559601E+03  0.00000000000E+00 0. -1.
        -15    1    1    2    0    0 -0.42245395259E+01  0.32461465795E+01  0.32998231471E+02  0.33472753264E+02  0.17770000000E+01 0. -1.
         15    1    1    2    0    0 -0.77364387582E+01  0.60944988529E+01  0.20750551494E+03  0.20774670121E+03  0.17770000000E+01 0.  1.
</event>
<event>
 6   1  0.1826851E-04  0.5020351E+03  0.7546771E-02  0.9395267E-01
        -11   -1    0    0    0    0  0.00000000000E+00  0.00000000000E+00  0.50000000000E+03  0.50000000000E+03  0.00000000000E+00 0.  1.
         11   -1    0    0    0    0 -0.00000000000E+00 -0.00000000000E+00 -0.50000000000E+03  0.50000000000E+03  0.00000000000E+00 0. -1.
        -11    1    1    2    0    0  0.20915940282E+02  0.15263747997E+02  0.33026754337E+03  0.33128101178E+03  0.00000000000E+00 0.  1.
         11    1    1    2    0    0  0.93514139548E+01 -0.13070733449E+02 -0.49770543931E+03  0.49796485553E+03  0.00000000000E+00 0. -1.
        -15    1    1    2    0    0 -0.28490947523E+02 -0.42100103823E+01  0.16088275915E+03  0.16344992566E+03  0.17770000000E+01 0. -1.
         15    1    1    2    0    0 -0.17764067134E+01  0.20169958342E+01  0.65551367936E+01  0.73042070335E+01  0.17770000000E+01 0.  1.
</event>
<event>
 6   1  0.1826851E-04  0.5067145E+03  0.7546771E-02  0.9384910E-01
        -11   -1    0    0    0    0  0.00000000000E+00  0.00000000000E+00  0.50000000000E+03  0.50000000000E+03  0.00000000000E+00 0.  1.
         11   -1    0    0    0    0 -0.00000000000E+00 -0.00000000000E+00 -0.50000000000E+03  0.50000000000E+03  0.00000000000E+00 0. -1.
        -11    1    1    2    0    0 -0.18417891061E+01  0.23991145256E+02  0.49269832870E+03  0.49328552618E+03  0.00000000000E+00 0.  1.
         11    1    1    2    0    0 -0.80228948431E+01 -0.26395267367E+01 -0.45093261144E+03  0.45101170051E+03  0.00000000000E+00 0. -1.
        -15    1    1    2    0    0  0.11821257877E+02 -0.19905708895E+02 -0.12669430653E+02  0.26450927895E+02  0.17770000000E+01 0.  1.
         15    1    1    2    0    0 -0.19565739278E+01 -0.14459096236E+01 -0.29096286612E+02  0.29251845409E+02  0.17770000000E+01 0. -1.
</event>
<event>
 6   1  0.1826851E-04  0.5004656E+03  0.7546771E-02  0.9398768E-01
        -11   -1    0    0    0    0  0.00000000000E+00  0.00000000000E+00  0.50000000000E+03  0.50000000000E+03  0.00000000000E+00 0. -1.
         11   -1    0    0    0    0 -0.00000000000E+00 -0.00000000000E+00 -0.50000000000E+03  0.50000000000E+03  0.00000000000E+00 0. -1.
        -11    1    1    2    0    0 -0.86808830522E+01  0.78639765903E+01  0.29001001157E+03  0.29024645849E+03  0.00000000000E+00 0. -1.
         11    1    1    2    0    0 -0.76635508025E+00 -0.68803922756E+01 -0.49948642446E+03  0.49953439853E+03  0.00000000000E+00 0. -1.
        -15    1    1    2    0    0 -0.28358293061E+01 -0.10058265724E+00  0.96791697499E+02  0.96849586878E+02  0.17770000000E+01 0.  1.
         15    1    1    2    0    0  0.12283067439E+02 -0.88300165746E+00  0.11268471539E+03  0.11336955610E+03  0.17770000000E+01 0. -1.
</event>
<event>
 6   1  0.1826851E-04  0.4895671E+03  0.7546771E-02  0.9423462E-01
        -11   -1    0    0    0    0  0.00000000000E+00  0.00000000000E+00  0.50000000000E+03  0.50000000000E+03  0.00000000000E+00 0.  1.
         11   -1    0    0    0    0 -0.00000000000E+00 -0.00000000000E+00 -0.50000000000E+03  0.50000000000E+03  0.00000000000E+00 0.  1.
        -11    1    1    2    0    0 -0.19441639526E+02  0.95756898041E+01  0.90482983712E+00  0.21690779140E+02  0.00000000000E+00 0.  1.
         11    1    1    2    0    0  0.25985921301E+02 -0.29895140991E+02 -0.48803717570E+03  0.48964198393E+03  0.00000000000E+00 0.  1.
        -15    1    1    2    0    0  0.22436143154E+01  0.21714102950E+02  0.44637963857E+03  0.44691663153E+03  0.17770000000E+01 0.  1.
         15    1    1    2    0    0 -0.87878960903E+01 -0.13946517630E+01  0.40752707289E+02  0.41750605404E+02  0.17770000000E+01 0. -1.
</event>
<event>
 6   1  0.1826851E-04  0.5005905E+03  0.7546771E-02  0.9398489E-01
        -11   -1    0    0    0    0  0.00000000000E+00  0.00000000000E+00  0.50000000000E+03  0.50000000000E+03  0.00000000000E+00 0. -1.
         11   -1    0    0    0    0 -0.00000000000E+00 -0.00000000000E+00 -0.50000000000E+03  0.50000000000E+03  0.00000000000E+00 0. -1.
        -11    1    1    2    0    0 -0.64757933345E+01  0.12347489525E+02  0.31060956123E+03  0.31092233101E+03  0.00000000000E+00 0. -1.
         11    1    1    2    0    0  0.59980523082E+01  0.34676775028E+01 -0.49936146781E+03  0.49940952829E+03  0.00000000000E+00 0. -1.
        -15    1    1    2    0    0 -0.36803231518E+01 -0.12044320242E+02  0.12557447562E+03  0.12621694452E+03  0.17770000000E+01 0. -1.
         15    1    1    2    0    0  0.41580641780E+01 -0.37708467851E+01  0.63177430961E+02  0.63451196167E+02  0.17770000000E+01 0. -1.
</event>
<event>
 6   1  0.1826851E-04  0.5016171E+03  0.7546771E-02  0.9396199E-01
        -11   -1    0    0    0    0  0.00000000000E+00  0.00000000000E+00  0.50000000000E+03  0.50000000000E+03  0.00000000000E+00 0. -1.
         11   -1    0    0    0    0 -0.00000000000E+00 -0.00000000000E+00 -0.50000000000E+03  0.50000000000E+03  0.00000000000E+00 0.  1.
        -11    1    1    2    0    0  0.66940154851E+01  0.15382125542E+01  0.45211388434E+03  0.45216605396E+03  0.00000000000E+00 0. -1.
         11    1    1    2    0    0 -0.67827258717E+01 -0.92155835936E+01 -0.49825150060E+03  0.49838287511E+03  0.00000000000E+00 0.  1.
        -15    1    1    2    0    0 -0.70342607410E+00 -0.29105647289E+01  0.29030881184E+02  0.29238946401E+02  0.17770000000E+01 0.  1.
         15    1    1    2    0    0  0.79213646074E+00  0.10587935768E+02  0.17106735072E+02  0.20212124525E+02  0.17770000000E+01 0. -1.
</event>
<event>
 6   1  0.1826851E-04  0.5006619E+03  0.7546771E-02  0.9398330E-01
        -11   -1    0    0    0    0  0.00000000000E+00  0.00000000000E+00  0.50000000000E+03  0.50000000000E+03  0.00000000000E+00 0. -1.
         11   -1    0    0    0    0 -0.00000000000E+00 -0.00000000000E+00 -0.50000000000E+03  0.50000000000E+03  0.00000000000E+00 0. -1.
        -11    1    1    2    0    0 -0.71956186454E+01  0.98502804073E+01  0.49918910310E+03  0.49933812753E+03  0.00000000000E+00 0. -1.
         11    1    1    2    0    0  0.34607600334E+01 -0.53514496056E+01 -0.35909064467E+03  0.35914719261E+03  0.00000000000E+00 0. -1.
        -15    1    1    2    0    0 -0.38648620921E+01 -0.48523052110E+00 -0.11190420189E+03  0.11198607386E+03  0.17770000000E+01 0.  1.
         15    1    1    2    0    0  0.75997207041E+01 -0.40136002806E+01 -0.28194256539E+02  0.29528606008E+02  0.17770000000E+01 0. -1.
</event>
<event>
 6   1  0.1826851E-04  0.5032119E+03  0.7546771E-02  0.9392651E-01
        -11   -1    0    0    0    0  0.00000000000E+00  0.00000000000E+00  0.50000000000E+03  0.50000000000E+03  0.00000000000E+00 0.  1.
         11   -1    0    0    0    0 -0.00000000000E+00 -0.00000000000E+00 -0.50000000000E+03  0.50000000000E+03  0.00000000000E+00 0.  1.
        -11    1    1    2    0    0 -0.24701137150E+02  0.19162576231E+02  0.49580346961E+03  0.49678811478E+03  0.00000000000E+00 0.  1.
         11    1    1    2    0    0  0.10410819832E+02 -0.15247013307E+02 -0.47472369452E+03  0.47508256411E+03  0.00000000000E+00 0.  1.
        -15    1    1    2    0    0  0.11304578853E+02 -0.71996712519E+01 -0.13090721096E+02  0.18818965885E+02  0.17770000000E+01 0.  1.
         15    1    1    2    0    0  0.29857384655E+01  0.32841083286E+01 -0.79890539941E+01  0.93103552252E+01  0.17770000000E+01 0. -1.
</event>
<event>
 6   1  0.1826851E-04  0.5010395E+03  0.7546771E-02  0.9397487E-01
        -11   -1    0    0    0    0  0.00000000000E+00  0.00000000000E+00  0.50000000000E+03  0.50000000000E+03  0.00000000000E+00 0. -1.
         11   -1    0    0    0    0 -0.00000000000E+00 -0.00000000000E+00 -0.50000000000E+03  0.50000000000E+03  0.00000000000E+00 0.  1.
        -11    1    1    2    0    0 -0.31648083406E+01 -0.21005656614E+02  0.49850806966E+03  0.49896046851E+03  0.00000000000E+00 0. -1.
         11    1    1    2    0    0  0.52091678235E+01 -0.15749716824E+01 -0.37456765347E+03  0.37460718492E+03  0.00000000000E+00 0.  1.
        -15    1    1    2    0    0  0.36370686853E+01  0.67681156874E+01 -0.32420726680E+02  0.33366104149E+02  0.17770000000E+01 0. -1.
         15    1    1    2    0    0 -0.56814281683E+01  0.15812512609E+02 -0.91519689510E+02  0.93066242419E+02  0.17770000000E+01 0.  1.
</event>
<event>
 6   1  0.1826851E-04  0.5007508E+03  0.7546771E-02  0.9398131E-01
        -11   -1    0    0    0    0  0.00000000000E+00  0.00000000000E+00  0.50000000000E+03  0.50000000000E+03  0.00000000000E+00 0. -1.
         11   -1    0    0    0    0 -0.00000000000E+00 -0.00000000000E+00 -0.50000000000E+03  0.50000000000E+03  0.00000000000E+00 0. -1.
        -11    1    1    2    0    0 -0.10831570728E+02  0.16221498186E+02  0.49886797343E+03  0.49924915107E+03  0.00000000000E+00 0. -1.
         11    1    1    2    0    0 -0.49848542953E+01  0.31212426524E+00 -0.29535603859E+03  0.29539826629E+03  0.00000000000E+00 0. -1.
        -15    1    1    2    0    0  0.17315722097E+02 -0.14713214328E+02 -0.14632104590E+03  0.14808551283E+03  0.17770000000E+01 0.  1.
         15    1    1    2    0    0 -0.14992970737E+01 -0.18204081233E+01 -0.57190888944E+02  0.57267069810E+02  0.17770000000E+01 0.  1.
</event>
<event>
 6   1  0.1826851E-04  0.4882374E+03  0.7546771E-02  0.9426521E-01
        -11   -1    0    0    0    0  0.00000000000E+00  0.00000000000E+00  0.50000000000E+03  0.50000000000E+03  0.00000000000E+00 0.  1.
         11   -1    0    0    0    0 -0.00000000000E+00 -0.00000000000E+00 -0.50000000000E+03  0.50000000000E+03  0.00000000000E+00 0.  1.
        -11    1    1    2    0    0  0.84797906967E+01  0.24998618445E+00  0.48546942112E+03  0.48554353892E+03  0.00000000000E+00 0.  1.
         11    1    1    2    0    0  0.12102364232E+02  0.27297207084E+01 -0.49101169269E+03  0.49116840386E+03  0.00000000000E+00 0.  1.
        -15    1    1    2    0    0 -0.86505893579E+01 -0.48597888691E+01  0.44873215310E+01  0.11033767607E+02  0.17770000000E+01 0. -1.
         15    1    1    2    0    0 -0.11931565571E+02  0.18800819762E+01  0.10549500375E+01  0.12254289607E+02  0.17770000000E+01 0.  1.
</event>
<event>
 6   1  0.1826851E-04  0.5044892E+03  0.7546771E-02  0.9389820E-01
        -11   -1    0    0    0    0  0.00000000000E+00  0.00000000000E+00  0.50000000000E+03  0.50000000000E+03  0.00000000000E+00 0.  1.
         11   -1    0    0    0    0 -0.00000000000E+00 -0.00000000000E+00 -0.50000000000E+03  0.50000000000E+03  0.00000000000E+00 0. -1.
        -11    1    1    2    0    0 -0.11136382125E+02  0.58501068374E+01  0.46405935884E+03  0.46422982593E+03  0.00000000000E+00 0.  1.
         11    1    1    2    0    0 -0.21111462958E+01  0.74671085712E+01 -0.49545005537E+03  0.49551081927E+03  0.00000000000E+00 0. -1.
        -15    1    1    2    0    0 -0.17388964990E+01 -0.85816185724E+01  0.15156100277E+02  0.17593551176E+02  0.17770000000E+01 0.  1.
         15    1    1    2    0    0  0.14986424919E+02 -0.47355968361E+01  0.16234596256E+02  0.22665803623E+02  0.17770000000E+01 0. -1.
</event>
<event>
 6   1  0.1826851E-04  0.5015918E+03  0.7546771E-02  0.9396255E-01
        -11   -1    0    0    0    0  0.00000000000E+00  0.00000000000E+00  0.50000000000E+03  0.50000000000E+03  0.00000000000E+00 0.  1.
         11   -1    0    0    0    0 -0.00000000000E+00 -0.00000000000E+00 -0.50000000000E+03  0.50000000000E+03  0.00000000000E+00 0. -1.
        -11    1    1    2    0    0  0.87450040834E+01  0.29058351355E+02  0.37311177343E+03  0.37434377029E+03  0.00000000000E+00 0.  1.
         11    1    1    2    0    0 -0.19902713820E+02 -0.13096320703E+02 -0.49783842284E+03  0.49840819304E+03  0.00000000000E+00 0. -1.
        -15    1    1    2    0    0  0.11262748300E+02 -0.10607144077E+02  0.11461688799E+03  0.11567000366E+03  0.17770000000E+01 0. -1.
         15    1    1    2    0    0 -0.10503856282E+00 -0.53548865751E+01  0.10109761421E+02  0.11578033008E+02  0.17770000000E+01 0.  1.
</event>
<event>
 6   1  0.1826851E-04  0.5017667E+03  0.7546771E-02  0.9395865E-01
        -11   -1    0    0    0    0  0.00000000000E+00  0.00000000000E+00  0.50000000000E+03  0.50000000000E+03  0.00000000000E+00 0. -1.
         11   -1    0    0    0    0 -0.00000000000E+00 -0.00000000000E+00 -0.50000000000E+03  0.50000000000E+03  0.00000000000E+00 0. -1.
        -11    1    1    2    0    0 -0.14230677887E+02 -0.62908181076E+01  0.49799030589E+03  0.49823331016E+03  0.00000000000E+00 0. -1.
         11    1    1    2    0    0  0.19117282087E-01 -0.71142353317E+01 -0.43315964470E+03  0.43321806346E+03  0.00000000000E+00 0. -1.
        -15    1    1    2    0    0  0.10372693605E+02  0.11182234774E+02 -0.59221511538E+02  0.61179901152E+02  0.17770000000E+01 0.  1.
         15    1    1    2    0    0  0.38388670000E+01  0.22228186649E+01 -0.56091496518E+01  0.73687252274E+01  0.17770000000E+01 0. -1.
</event>
<event>
 6   1  0.1826851E-04  0.5010417E+03  0.7546771E-02  0.9397482E-01
        -11   -1    0    0    0    0  0.00000000000E+00  0.00000000000E+00  0.50000000000E+03  0.50000000000E+03  0.00000000000E+00 0. -1.
         11   -1    0    0    0    0 -0.00000000000E+00 -0.00000000000E+00 -0.50000000000E+03  0.50000000000E+03  0.00000000000E+00 0.  1.
        -11    1    1    2    0    0 -0.13371003816E+01 -0.96207632747E+01  0.49886375269E+03  0.49895830555E+03  0.00000000000E+00 0. -1.
         11    1    1    2    0    0  0.33761906409E+01 -0.61036805267E+01 -0.42264937590E+03  0.42270692983E+03  0.00000000000E+00 0.  1.
        -15    1    1    2    0    0 -0.14056859258E+01  0.27239132902E+01 -0.32406951975E+02  0.32600060151E+02  0.17770000000E+01 0. -1.
         15    1    1    2    0    0 -0.63340433344E+00  0.13000530511E+02 -0.43807424820E+02  0.45734704471E+02  0.17770000000E+01 0.  1.
</event>
<event>
 6   1  0.1826851E-04  0.5032753E+03  0.7546771E-02  0.9392511E-01
        -11   -1    0    0    0    0  0.00000000000E+00  0.00000000000E+00  0.50000000000E+03  0.50000000000E+03  0.00000000000E+00 0. -1.
         11   -1    0    0    0    0 -0.00000000000E+00 -0.00000000000E+00 -0.50000000000E+03  0.50000000000E+03  0.00000000000E+00 0. -1.
        -11    1    1    2    0    0 -0.11911661381E+02  0.75362726390E+02  0.49082993415E+03  0.49672472503E+03  0.00000000000E+00 0. -1.
         11    1    1    2    0    0 -0.70499515993E+01 -0.27383937769E+01 -0.62373831111E+02  0.62830688564E+02  0.00000000000E+00 0. -1.
        -15    1    1    2    0    0 -0.35397206823E+01  0.12856971189E+02 -0.66513859049E+02  0.67860758213E+02  0.17770000000E+01 0.  1.
         15    1    1    2    0    0  0.22501333663E+02 -0.85481303801E+02 -0.36194224399E+03  0.37258382819E+03  0.17770000000E+01 0. -1.
</event>
<event>
 6   1  0.1826851E-04  0.5075402E+03  0.7546771E-02  0.9383094E-01
        -11   -1    0    0    0    0  0.00000000000E+00  0.00000000000E+00  0.50000000000E+03  0.50000000000E+03  0.00000000000E+00 0.  1.
         11   -1    0    0    0    0 -0.00000000000E+00 -0.00000000000E+00 -0.50000000000E+03  0.50000000000E+03  0.00000000000E+00 0.  1.
        -11    1    1    2    0    0 -0.22085561369E+02 -0.29048486982E+02  0.31339192716E+03  0.31550924967E+03  0.00000000000E+00 0.  1.
         11    1    1    2    0    0 -0.12762420962E+02  0.44245881407E+01 -0.49227447815E+03  0.49245976303E+03  0.00000000000E+00 0.  1.
        -15    1    1    2    0    0  0.20555306864E+02  0.33343974182E+02  0.58180549630E+02  0.70160354466E+02  0.17770000000E+01 0.  1.
         15    1    1    2    0    0  0.14292675468E+02 -0.87200753407E+01  0.12070200136E+03  0.12187063283E+03  0.17770000000E+01 0. -1.
</event>
<event>
 6   1  0.1826851E-04  0.5037357E+03  0.7546771E-02  0.9391489E-01
        -11   -1    0    0    0    0  0.00000000000E+00  0.00000000000E+00  0.50000000000E+03  0.50000000000E+03  0.00000000000E+00 0. -1.
         11   -1    0    0    0    0 -0.00000000000E+00 -0.00000000000E+00 -0.50000000000E+03  0.50000000000E+03  0.00000000000E+00 0.  1.
        -11    1    1    2    0    0  0.19990435343E+02 -0.18224468537E+02  0.49552652846E+03  0.49626433396E+03  0.00000000000E+00 0. -1.
         11    1    1    2    0    0 -0.97826842025E+01 -0.63936109816E+01 -0.37693389510E+03  0.37711502284E+03  0.00000000000E+00 0.  1.
        -15    1    1    2    0    0  0.10659598748E+02 -0.34526504815E+00 -0.42316265255E+02  0.43675740264E+02  0.17770000000E+01 0. -1.
         15    1    1    2    0    0 -0.20867349888E+02  0.24963344566E+02 -0.76276368100E+02  0.82944902935E+02  0.17770000000E+01 0.  1.
</event>
<event>
 6   1  0.1826851E-04  0.5000518E+03  0.7546771E-02  0.9399694E-01
        -11   -1    0    0    0    0  0.00000000000E+00  0.00000000000E+00  0.50000000000E+03  0.50000000000E+03  0.00000000000E+00 0.  1.
         11   -1    0    0    0    0 -0.00000000000E+00 -0.00000000000E+00 -0.50000000000E+03  0.50000000000E+03  0.00000000000E+00 0.  1.
        -11    1    1    2    0    0 -0.82894082824E+01 -0.96841915019E+01  0.49978565463E+03  0.49994819574E+03  0.00000000000E+00 0.  1.
         11    1    1    2    0    0  0.32855887170E+01  0.40848703641E+01 -0.25724786871E+03  0.25730127714E+03  0.00000000000E+00 0.  1.
        -15    1    1    2    0    0  0.53300437425E+01  0.46762271608E+01 -0.13834063574E+03  0.13853362658E+03  0.17770000000E+01 0. -1.
         15    1    1    2    0    0 -0.32622417704E+00  0.92309397706E+00 -0.10419715017E+03  0.10421690054E+03  0.17770000000E+01 0.  1.
</event>
<event>
 6   1  0.1826851E-04  0.5018906E+03  0.7546771E-02  0.9395589E-01
        -11   -1    0    0    0    0  0.00000000000E+00  0.00000000000E+00  0.50000000000E+03  0.50000000000E+03  0.00000000000E+00 0.  1.
         11   -1    0    0    0    0 -0.00000000000E+00 -0.00000000000E+00 -0.50000000000E+03  0.50000000000E+03  0.00000000000E+00 0.  1.
        -11    1    1    2    0    0  0.57572686485E+01  0.11570548395E+02  0.49794173609E+03  0.49810942199E+03  0.00000000000E+00 0.  1.
         11    1    1    2    0    0 -0.83579978510E+01  0.26307869797E+01 -0.46523915678E+03  0.46532166312E+03  0.00000000000E+00 0.  1.
        -15    1    1    2    0    0  0.12831282071E+01 -0.10212790984E+02 -0.28549884160E+02  0.30400676509E+02  0.17770000000E+01 0.  1.
         15    1    1    2    0    0  0.13176009953E+01 -0.39885443910E+01 -0.41526951456E+01  0.61682383801E+01  0.17770000000E+01 0. -1.
</event>
<event>
 6   1  0.1826851E-04  0.5004456E+03  0.7546771E-02  0.9398813E-01
        -11   -1    0    0    0    0  0.00000000000E+00  0.00000000000E+00  0.50000000000E+03  0.50000000000E+03  0.00000000000E+00 0. -1.
         11   -1    0    0    0    0 -0.00000000000E+00 -0.00000000000E+00 -0.50000000000E+03  0.50000000000E+03  0.00000000000E+00 0. -1.
        -11    1    1    2    0    0  0.75303237347E+01  0.80503863331E+01  0.49943280093E+03  0.49955443861E+03  0.00000000000E+00 0. -1.
         11    1    1    2    0    0 -0.62031545275E+01 -0.92451777030E+00 -0.43607335021E+03  0.43611844793E+03  0.00000000000E+00 0. -1.
        -15    1    1    2    0    0 -0.20770086411E+01  0.39997929081E+00 -0.27346535519E+02  0.27485717786E+02  0.17770000000E+01 0. -1.
         15    1    1    2    0    0  0.74983943399E+00 -0.75258478536E+01 -0.36012915197E+02  0.36841395672E+02  0.17770000000E+01 0. -1.
</event>
<event>
 6   1  0.1826851E-04  0.5021574E+03  0.7546771E-02  0.9394995E-01
        -11   -1    0    0    0    0  0.00000000000E+00  0.00000000000E+00  0.50000000000E+03  0.50000000000E+03  0.00000000000E+00 0. -1.
         11   -1    0    0    0    0 -0.00000000000E+00 -0.00000000000E+00 -0.50000000000E+03  0.50000000000E+03  0.00000000000E+00 0. -1.
        -11    1    1    2    0    0 -0.34941653168E+00 -0.17369229764E+02  0.49753936375E+03  0.49784257623E+03  0.00000000000E+00 0. -1.
         11    1    1    2    0    0  0.10360168272E+02  0.42816056914E+01 -0.44992658546E+03  0.45006621462E+03  0.00000000000E+00 0. -1.
        -15    1    1    2    0    0 -0.51028714681E+01  0.52695742491E+01 -0.37628483169E+02  0.38377964831E+02  0.17770000000E+01 0. -1.
         15    1    1    2    0    0 -0.49078802724E+01  0.78180498236E+01 -0.99842951152E+01  0.13713244319E+02  0.17770000000E+01 0.  1.
</event>
<event>
 6   1  0.1826851E-04  0.5000991E+03  0.7546771E-02  0.9399588E-01
        -11   -1    0    0    0    0  0.00000000000E+00  0.00000000000E+00  0.50000000000E+03  0.50000000000E+03  0.00000000000E+00 0. -1.
         11   -1    0    0    0    0 -0.00000000000E+00 -0.00000000000E+00 -0.50000000000E+03  0.50000000000E+03  0.00000000000E+00 0. -1.
        -11    1    1    2    0    0 -0.26730012015E+01 -0.87994522920E+01  0.44836409192E+03  0.44845839742E+03  0.00000000000E+00 0. -1.
         11    1    1    2    0    0  0.22515390996E+01  0.72969173969E+01 -0.49984253670E+03  0.49990086610E+03  0.00000000000E+00 0. -1.
        -15    1    1    2    0    0 -0.96390158845E-01  0.12696364294E+01  0.31295655403E+02  0.31371914889E+02  0.17770000000E+01 0. -1.
         15    1    1    2    0    0  0.51785226081E+00  0.23289846564E+00  0.20182789374E+02  0.20268821588E+02  0.17770000000E+01 0.  1.
</event>
<event>
 6   1  0.1826851E-04  0.5177690E+03  0.7546771E-02  0.9360905E-01
        -11   -1    0    0    0    0  0.00000000000E+00  0.00000000000E+00  0.50000000000E+03  0.50000000000E+03  0.00000000000E+00 0.  1.
         11   -1    0    0    0    0 -0.00000000000E+00 -0.00000000000E+00 -0.50000000000E+03  0.50000000000E+03  0.00000000000E+00 0.  1.
        -11    1    1    2    0    0 -0.64253904019E+01  0.54428958707E+02  0.68655861690E+02  0.87848873255E+02  0.00000000000E+00 0.  1.
         11    1    1    2    0    0 -0.14016275626E+02  0.19054366663E+01 -0.48202349160E+03  0.48223099561E+03  0.00000000000E+00 0.  1.
        -15    1    1    2    0    0 -0.25779908916E+02 -0.50991190506E+02  0.32545789983E+03  0.33044017235E+03  0.17770000000E+01 0.  1.
         15    1    1    2    0    0  0.46221574944E+02 -0.53432048665E+01  0.87909730080E+02  0.99479958787E+02  0.17770000000E+01 0. -1.
</event>
<event>
 6   1  0.1826851E-04  0.5023940E+03  0.7546771E-02  0.9394469E-01
        -11   -1    0    0    0    0  0.00000000000E+00  0.00000000000E+00  0.50000000000E+03  0.50000000000E+03  0.00000000000E+00 0. -1.
         11   -1    0    0    0    0 -0.00000000000E+00 -0.00000000000E+00 -0.50000000000E+03  0.50000000000E+03  0.00000000000E+00 0. -1.
        -11    1    1    2    0    0  0.55860918719E+01 -0.11725459080E+02  0.49743642549E+03  0.49760595678E+03  0.00000000000E+00 0. -1.
         11    1    1    2    0    0 -0.89120199521E+01  0.29157187292E+01 -0.46662844336E+03  0.46672264748E+03  0.00000000000E+00 0. -1.
        -15    1    1    2    0    0  0.60852750523E+01 -0.46219050291E+00 -0.20329140146E+02  0.21299668086E+02  0.17770000000E+01 0.  1.
         15    1    1    2    0    0 -0.27593469720E+01  0.92719308537E+01 -0.10478841986E+02  0.14371727657E+02  0.17770000000E+01 0. -1.
</event>
<event>
 6   1  0.1826851E-04  0.4844303E+03  0.7546771E-02  0.9435338E-01
        -11   -1    0    0    0    0  0.00000000000E+00  0.00000000000E+00  0.50000000000E+03  0.50000000000E+03  0.00000000000E+00 0.  1.
         11   -1    0    0    0    0 -0.00000000000E+00 -0.00000000000E+00 -0.50000000000E+03  0.50000000000E+03  0.00000000000E+00 0.  1.
        -11    1    1    2    0    0 -0.12756657864E+02 -0.27989719555E+02  0.55413072029E+01  0.31254804529E+02  0.00000000000E+00 0.  1.
         11    1    1    2    0    0  0.13950004398E+02  0.18710471003E+02 -0.48650637482E+03  0.48706584472E+03  0.00000000000E+00 0.  1.
        -15    1    1    2    0    0 -0.95995390924E+01  0.15621174395E+01  0.36646210224E+03  0.36659544660E+03  0.17770000000E+01 0.  1.
         15    1    1    2    0    0  0.84061925588E+01  0.77171311123E+01  0.11450296538E+03  0.11508390415E+03  0.17770000000E+01 0. -1.
</event>
<event>
 6   1  0.1826851E-04  0.5023793E+03  0.7546771E-02  0.9394502E-01
        -11   -1    0    0    0    0  0.00000000000E+00  0.00000000000E+00  0.50000000000E+03  0.50000000000E+03  0.00000000000E+00 0. -1.
         11   -1    0    0    0    0 -0.00000000000E+00 -0.00000000000E+00 -0.50000000000E+03  0.50000000000E+03  0.00000000000E+00 0. -1.
        -11    1    1    2    0    0  0.10833738569E+02  0.58798866819E-01  0.41101414573E+03  0.41115690598E+03  0.00000000000E+00 0. -1.
         11    1    1    2    0    0  0.14695998376E+02  0.34178489712E+01 -0.49739193908E+03  0.49762073422E+03  0.00000000000E+00 0. -1.
        -15    1    1    2    0    0 -0.53331364842E+01  0.41803032260E+00  0.59876913004E+01  0.82235801339E+01  0.17770000000E+01 0.  1.
         15    1    1    2    0    0 -0.20196600461E+02 -0.38946781606E+01  0.80390102056E+02  0.82998779664E+02  0.17770000000E+01 0. -1.
</event>
<event>
 6   1  0.1826851E-04  0.5030503E+03  0.7546771E-02  0.9393010E-01
        -11   -1    0    0    0    0  0.00000000000E+00  0.00000000000E+00  0.50000000000E+03  0.50000000000E+03  0.00000000000E+00 0.  1.
         11   -1    0    0    0    0 -0.00000000000E+00 -0.00000000000E+00 -0.50000000000E+03  0.50000000000E+03  0.00000000000E+00 0. -1.
        -11    1    1    2    0    0  0.13717916319E+02  0.48162189621E+02  0.49442011945E+03  0.49694972809E+03  0.00000000000E+00 0.  1.
         11    1    1    2    0    0 -0.86332460751E+01  0.22082312199E+01 -0.31660914234E+03  0.31673452328E+03  0.00000000000E+00 0. -1.
        -15    1    1    2    0    0 -0.41997697761E+00 -0.44862850863E+02 -0.12177453532E+03  0.12978847002E+03  0.17770000000E+01 0. -1.
         15    1    1    2    0    0 -0.46646932660E+01 -0.55075699777E+01 -0.56036441787E+02  0.56527278614E+02  0.17770000000E+01 0.  1.
</event>
<event>
 6   1  0.1826851E-04  0.5030450E+03  0.7546771E-02  0.9393022E-01
        -11   -1    0    0    0    0  0.00000000000E+00  0.00000000000E+00  0.50000000000E+03  0.50000000000E+03  0.00000000000E+00 0.  1.
         11   -1    0    0    0    0 -0.00000000000E+00 -0.00000000000E+00 -0.50000000000E+03  0.50000000000E+03  0.00000000000E+00 0. -1.
        -11    1    1    2    0    0  0.95334261417E+01  0.84765256223E+01  0.41151373503E+03  0.41171141813E+03  0.00000000000E+00 0.  1.
         11    1    1    2    0    0  0.10511733493E+01  0.20139760237E+02 -0.49654557982E+03  0.49695495545E+03  0.00000000000E+00 0. -1.
        -15    1    1    2    0    0 -0.78797848821E+01 -0.26951178237E+02  0.81664090054E+02  0.86374986839E+02  0.17770000000E+01 0. -1.
         15    1    1    2    0    0 -0.27048146090E+01 -0.16651076224E+01  0.33677547422E+01  0.49586395782E+01  0.17770000000E+01 0.  1.
</event>
<event>
 6   1  0.1826851E-04  0.5015536E+03  0.7546771E-02  0.9396340E-01
        -11   -1    0    0    0    0  0.00000000000E+00  0.00000000000E+00  0.50000000000E+03  0.50000000000E+03  0.00000000000E+00 0.  1.
         11   -1    0    0    0    0 -0.00000000000E+00 -0.00000000000E+00 -0.50000000000E+03  0.50000000000E+03  0.00000000000E+00 0. -1.
        -11    1    1    2    0    0  0.30730652642E+01  0.22839187161E+02  0.94925579566E+02  0.97682843203E+02  0.00000000000E+00 0.  1.
         11    1    1    2    0    0  0.13424442809E+02 -0.10574315573E+02 -0.49815338825E+03  0.49844641642E+03  0.00000000000E+00 0. -1.
        -15    1    1    2    0    0  0.59165465260E+00 -0.21082618299E+01  0.51006617158E+02  0.51084513759E+02  0.17770000000E+01 0.  1.
         15    1    1    2    0    0 -0.17089162726E+02 -0.10156609759E+02  0.35222119153E+03  0.35278622662E+03  0.17770000000E+01 0.  1.
</event>
<event>
 6   1  0.1826851E-04  0.5002877E+03  0.7546771E-02  0.9399166E-01
        -11   -1    0    0    0    0  0.00000000000E+00  0.00000000000E+00  0.50000000000E+03  0.50000000000E+03  0.00000000000E+00 0.  1.
         11   -1    0    0    0    0 -0.00000000000E+00 -0.00000000000E+00 -0.50000000000E+03  0.50000000000E+03  0.00000000000E+00 0. -1.
        -11    1    1    2    0    0  0.13288814455E+02 -0.16245507536E+01  0.49953291786E+03  0.49971228500E+03  0.00000000000E+00 0.  1.
         11    1    1    2    0    0 -0.91686772151E+01  0.24146227592E+01 -0.42511134530E+03  0.42521706333E+03  0.00000000000E+00 0. -1.
        -15    1    1    2    0    0 -0.63234961541E+01 -0.85662298091E+00 -0.41251461049E+02  0.41779913525E+02  0.17770000000E+01 0.  1.
         15    1    1    2    0    0  0.22033589146E+01  0.66550975332E-01 -0.33170111508E+02  0.33290738141E+02  0.17770000000E+01 0. -1.
</event>
<event>
 6   1  0.1826851E-04  0.5013619E+03  0.7546771E-02  0.9396768E-01
        -11   -1    0    0    0    0  0.00000000000E+00  0.00000000000E+00  0.50000000000E+03  0.50000000000E+03  0.00000000000E+00 0. -1.
         11   -1    0    0    0    0 -0.00000000000E+00 -0.00000000000E+00 -0.50000000000E+03  0.50000000000E+03  0.00000000000E+00 0.  1.
        -11    1    1    2    0    0 -0.81433374235E+01 -0.22075401866E+02  0.88854814772E+02  0.91917438063E+02  0.00000000000E+00 0. -1.
         11    1    1    2    0    0  0.16679064220E+02  0.30252744562E+02 -0.49744001714E+03  0.49863813571E+03  0.00000000000E+00 0.  1.
        -15    1    1    2    0    0 -0.92267407998E+00  0.58233186369E+01  0.36651091955E+02  0.37164803752E+02  0.17770000000E+01 0.  1.
         15    1    1    2    0    0 -0.76130527162E+01 -0.14000661333E+02  0.37193411041E+03  0.37227962247E+03  0.17770000000E+01 0. -1.
</event>
<event>
 6   1  0.1826851E-04  0.5002363E+03  0.7546771E-02  0.9399281E-01
        -11   -1    0    0    0    0  0.00000000000E+00  0.00000000000E+00  0.50000000000E+03  0.50000000000E+03  0.00000000000E+00 0. -1.
         11   -1    0    0    0    0 -0.00000000000E+00 -0.00000000000E+00 -0.50000000000E+03  0.50000000000E+03  0.00000000000E+00 0.  1.
        -11    1    1    2    0    0 -0.14584804799E+02 -0.93355203065E+01  0.25912672430E+03  0.25970469329E+03  0.00000000000E+00 0. -1.
         11    1    1    2    0    0  0.16294844265E+02  0.81979608223E+01 -0.49943068508E+03  0.49976368187E+03  0.00000000000E+00 0.  1.
        -15    1    1    2    0    0 -0.38218205568E+01  0.38530013436E+00  0.21847878569E+03  0.21851977553E+03  0.17770000000E+01 0. -1.
         15    1    1    2    0    0  0.21117810903E+01  0.75225934980E+00  0.21825175086E+02  0.22011849310E+02  0.17770000000E+01 0.  1.
</event>
<event>
 6   1  0.1826851E-04  0.5025942E+03  0.7546771E-02  0.9394024E-01
        -11   -1    0    0    0    0  0.00000000000E+00  0.00000000000E+00  0.50000000000E+03  0.50000000000E+03  0.00000000000E+00 0. -1.
         11   -1    0    0    0    0 -0.00000000000E+00 -0.00000000000E+00 -0.50000000000E+03  0.50000000000E+03  0.00000000000E+00 0.  1.
        -11    1    1    2    0    0 -0.12138984647E+02  0.62286363054E+01  0.46919925995E+03  0.46939758883E+03  0.00000000000E+00 0. -1.
         11    1    1    2    0    0  0.41532280526E-01 -0.88174719095E+01 -0.49732762901E+03  0.49740579019E+03  0.00000000000E+00 0.  1.
        -15    1    1    2    0    0  0.94972282648E+01  0.59839487408E+01  0.25387765598E+02  0.27815487741E+02  0.17770000000E+01 0.  1.
         15    1    1    2    0    0  0.26002241022E+01 -0.33951131367E+01  0.27406034614E+01  0.53811332380E+01  0.17770000000E+01 0. -1.
</event>
<event>
 6   1  0.1826851E-04  0.5001279E+03  0.7546771E-02  0.9399524E-01
        -11   -1    0    0    0    0  0.00000000000E+00  0.00000000000E+00  0.50000000000E+03  0.50000000000E+03  0.00000000000E+00 0. -1.
         11   -1    0    0    0    0 -0.00000000000E+00 -0.00000000000E+00 -0.50000000000E+03  0.50000000000E+03  0.00000000000E+00 0. -1.
        -11    1    1    2    0    0 -0.11389708197E+02  0.38143311407E+01  0.49972775348E+03  0.49987208581E+03  0.00000000000E+00 0. -1.
         11    1    1    2    0    0 -0.97291236182E+00 -0.17765223299E+01 -0.12464654497E+03  0.12466300078E+03  0.00000000000E+00 0. -1.
        -15    1    1    2    0    0  0.18203954419E+01 -0.48575522447E+01 -0.16718961964E+03  0.16727951547E+03  0.17770000000E+01 0. -1.
         15    1    1    2    0    0  0.10542225117E+02  0.28197434339E+01 -0.20789158887E+03  0.20818539794E+03  0.17770000000E+01 0.  1.
</event>
<event>
 6   1  0.1826851E-04  0.5004416E+03  0.7546771E-02  0.9398822E-01
        -11   -1    0    0    0    0  0.00000000000E+00  0.00000000000E+00  0.50000000000E+03  0.50000000000E+03  0.00000000000E+00 0. -1.
         11   -1    0    0    0    0 -0.00000000000E+00 -0.00000000000E+00 -0.50000000000E+03  0.50000000000E+03  0.00000000000E+00 0.  1.
        -11    1    1    2    0    0 -0.77451909299E+01  0.84409482984E+01  0.49942703812E+03  0.49955840900E+03  0.00000000000E+00 0. -1.
         11    1    1    2    0    0 -0.19927746885E+01  0.65059892578E+01 -0.19682892994E+03  0.19694650722E+03  0.00000000000E+00 0.  1.
        -15    1    1    2    0    0  0.13022241586E+02 -0.14402393510E+02 -0.24619406482E+03  0.24696494285E+03  0.17770000000E+01 0.  1.
         15    1    1    2    0    0 -0.32842759677E+01 -0.54454404630E+00 -0.56404043366E+02  0.56530140933E+02  0.17770000000E+01 0. -1.
</event>
<event>
 6   1  0.1826851E-04  0.5018426E+03  0.7546771E-02  0.9395696E-01
        -11   -1    0    0    0    0  0.00000000000E+00  0.00000000000E+00  0.50000000000E+03  0.50000000000E+03  0.00000000000E+00 0.  1.
         11   -1    0    0    0    0 -0.00000000000E+00 -0.00000000000E+00 -0.50000000000E+03  0.50000000000E+03  0.00000000000E+00 0.  1.
        -11    1    1    2    0    0 -0.16678365914E+02 -0.15610286956E+02  0.49763330193E+03  0.49815735680E+03  0.00000000000E+00 0.  1.
         11    1    1    2    0    0  0.55153279039E+01  0.47630666806E+01 -0.38514900868E+03  0.38521794420E+03  0.00000000000E+00 0.  1.
        -15    1    1    2    0    0  0.14313835739E+02  0.17829370052E+02 -0.83086188645E+02  0.86193067022E+02  0.17770000000E+01 0. -1.
         15    1    1    2    0    0 -0.31507977289E+01 -0.69821497769E+01 -0.29398104598E+02  0.30431631977E+02  0.17770000000E+01 0.  1.
</event>
<event>
 6   1  0.1826851E-04  0.5091395E+03  0.7546771E-02  0.9379588E-01
        -11   -1    0    0    0    0  0.00000000000E+00  0.00000000000E+00  0.50000000000E+03  0.50000000000E+03  0.00000000000E+00 0.  1.
         11   -1    0    0    0    0 -0.00000000000E+00 -0.00000000000E+00 -0.50000000000E+03  0.50000000000E+03  0.00000000000E+00 0. -1.
        -11    1    1    2    0    0 -0.94833884026E+00 -0.11769440937E+03  0.47654083134E+03  0.49086050695E+03  0.00000000000E+00 0.  1.
         11    1    1    2    0    0  0.46030526501E+01  0.31702220288E+01 -0.19019718979E+03  0.19027929316E+03  0.00000000000E+00 0. -1.
        -15    1    1    2    0    0 -0.28895923293E+01  0.80232118122E+01 -0.12635985373E+03  0.12665974907E+03  0.17770000000E+01 0.  1.
         15    1    1    2    0    0 -0.76512148052E+00  0.10650097553E+03 -0.15998378782E+03  0.19220045082E+03  0.17770000000E+01 0. -1.
</event>
<event>
 6   1  0.1826851E-04  0.5021617E+03  0.7546771E-02  0.9394986E-01
        -11   -1    0    0    0    0  0.00000000000E+00  0.00000000000E+00  0.50000000000E+03  0.50000000000E+03  0.00000000000E+00 0. -1.
         11   -1    0    0    0    0 -0.00000000000E+00 -0.00000000000E+00 -0.50000000000E+03  0.50000000000E+03  0.00000000000E+00 0.  1.
        -11    1    1    2    0    0 -0.20412540908E+02  0.54149296616E+01  0.36480916014E+03  0.36541991819E+03  0.00000000000E+00 0. -1.
         11    1    1    2    0    0 -0.78939573894E+01  0.76459069720E+01 -0.49771697612E+03  0.49783828978E+03  0.00000000000E+00 0.  1.
        -15    1    1    2    0    0  0.14972988211E+02 -0.68948683290E+01  0.84958409656E+02  0.86561069111E+02  0.17770000000E+01 0. -1.
         15    1    1    2    0    0  0.13333510086E+02 -0.61659683045E+01  0.47949406328E+02  0.50180722918E+02  0.17770000000E+01 0.  1.
</event>
<event>
 6   1  0.1826851E-04  0.5057438E+03  0.7546771E-02  0.9387049E-01
        -11   -1    0    0    0    0  0.00000000000E+00  0.00000000000E+00  0.50000000000E+03  0.50000000000E+03  0.00000000000E+00 0.  1.
         11   -1    0    0    0    0 -0.00000000000E+00 -0.00000000000E+00 -0.50000000000E+03  0.50000000000E+03  0.00000000000E+00 0.  1.
        -11    1    1    2    0    0  0.27210558428E+02  0.23360478001E+02  0.49295343025E+03  0.49425621981E+03  0.00000000000E+00 0.  1.
         11    1    1    2    0    0  0.64473427713E+01 -0.36836173483E+01 -0.43568410156E+03  0.43574737362E+03  0.00000000000E+00 0.  1.
        -15    1    1    2    0    0 -0.12428897834E+02 -0.49879655812E+01 -0.26869923700E+02  0.30075036669E+02  0.17770000000E+01 0. -1.
         15    1    1    2    0    0 -0.21229003366E+02 -0.14688895072E+02 -0.30399404990E+02  0.39921369905E+02  0.17770000000E+01 0.  1.
</event>
<event>
 6   1  0.1826851E-04  0.5018035E+03  0.7546771E-02  0.9395783E-01
        -11   -1    0    0    0    0  0.00000000000E+00  0.00000000000E+00  0.50000000000E+03  0.50000000000E+03  0.00000000000E+00 0. -1.
         11   -1    0    0    0    0 -0.00000000000E+00 -0.00000000000E+00 -0.50000000000E+03  0.50000000000E+03  0.00000000000E+00 0.  1.
        -11    1    1    2    0    0  0.13494200374E+02  0.33893414284E+01  0.49800213170E+03  0.49819645147E+03  0.00000000000E+00 0. -1.
         11    1    1    2    0    0  0.71309275356E+01  0.22803593381E+01 -0.43290715725E+03  0.43297188934E+03  0.00000000000E+00 0.  1.
        -15    1    1    2    0    0 -0.20789985608E+01 -0.17303785834E+01 -0.74470581354E+01  0.81199044902E+01  0.17770000000E+01 0. -1.
         15    1    1    2    0    0 -0.18546129349E+02 -0.39393221831E+01 -0.57647916322E+02  0.60711754696E+02  0.17770000000E+01 0.  1.
</event>
<event>
 6   1  0.1826851E-04  0.4731312E+03  0.7546771E-02  0.9462023E-01
        -11   -1    0    0    0    0  0.00000000000E+00  0.00000000000E+00  0.50000000000E+03  0.50000000000E+03  0.00000000000E+00 0. -1.
         11   -1    0    0    0    0 -0.00000000000E+00 -0.00000000000E+00 -0.50000000000E+03  0.50000000000E+03  0.00000000000E+00 0. -1.
        -11    1    1    2    0    0  0.19216028076E+02  0.35084714153E+02  0.48291656796E+03  0.48457053615E+03  0.00000000000E+00 0. -1.
         11    1    1    2    0    0  0.47002419285E+01 -0.66968285490E+01 -0.46256597193E+03  0.46263832329E+03  0.00000000000E+00 0. -1.
        -15    1    1    2    0    0 -0.63094970891E+01 -0.29835926918E+02 -0.16114979320E+02  0.34537553128E+02  0.17770000000E+01 0. -1.
         15    1    1    2    0    0 -0.17606772915E+02  0.14480413137E+01 -0.42356167021E+01  0.18253587428E+02  0.17770000000E+01 0.  1.
</event>
<event>
 6   1  0.1826851E-04  0.5019987E+03  0.7546771E-02  0.9395349E-01
        -11   -1    0    0    0    0  0.00000000000E+00  0.00000000000E+00  0.50000000000E+03  0.50000000000E+03  0.00000000000E+00 0. -1.
         11   -1    0    0    0    0 -0.00000000000E+00 -0.00000000000E+00 -0.50000000000E+03  0.50000000000E+03  0.00000000000E+00 0.  1.
        -11    1    1    2    0    0 -0.62134666536E+02  0.14385031926E+02  0.17113685199E+03  0.18263479416E+03  0.00000000000E+00 0. -1.
         11    1    1    2    0    0  0.10164607493E+03 -0.16490414471E+02 -0.48723856762E+03  0.49800128524E+03  0.00000000000E+00 0.  1.
        -15    1    1    2    0    0 -0.30589421129E+02  0.98876054130E+01  0.26088707410E+03  0.26286631695E+03  0.17770000000E+01 0. -1.
         15    1    1    2    0    0 -0.89219872644E+01 -0.77822228682E+01  0.55214641540E+02  0.56497603656E+02  0.17770000000E+01 0.  1.
</event>
<event>
 6   1  0.1826851E-04  0.4923111E+03  0.7546771E-02  0.9417181E-01
        -11   -1    0    0    0    0  0.00000000000E+00  0.00000000000E+00  0.50000000000E+03  0.50000000000E+03  0.00000000000E+00 0.  1.
         11   -1    0    0    0    0 -0.00000000000E+00 -0.00000000000E+00 -0.50000000000E+03  0.50000000000E+03  0.00000000000E+00 0. -1.
        -11    1    1    2    0    0  0.96218007891E+01  0.39541273249E-01  0.49426538571E+03  0.49435903160E+03  0.00000000000E+00 0.  1.
         11    1    1    2    0    0 -0.26842194502E+01  0.75588649333E+01 -0.49025941765E+03  0.49032503308E+03  0.00000000000E+00 0. -1.
        -15    1    1    2    0    0 -0.17988632393E+01 -0.51760551633E+01  0.26890813826E+01  0.63573849726E+01  0.17770000000E+01 0.  1.
         15    1    1    2    0    0 -0.51387180996E+01 -0.24223510433E+01 -0.66950494462E+01  0.89585503499E+01  0.17770000000E+01 0. -1.
</event>
<event>
 6   1  0.1826851E-04  0.5040595E+03  0.7546771E-02  0.9390772E-01
        -11   -1    0    0    0    0  0.00000000000E+00  0.00000000000E+00  0.50000000000E+03  0.50000000000E+03  0.00000000000E+00 0.  1.
         11   -1    0    0    0    0 -0.00000000000E+00 -0.00000000000E+00 -0.50000000000E+03  0.50000000000E+03  0.00000000000E+00 0.  1.
        -11    1    1    2    0    0 -0.20659225984E+02  0.42749563420E+02  0.19591801090E+03  0.20158917577E+03  0.00000000000E+00 0.  1.
         11    1    1    2    0    0  0.61824373214E+01 -0.80428180443E+01 -0.49583671342E+03  0.49594047609E+03  0.00000000000E+00 0.  1.
        -15    1    1    2    0    0  0.40426481177E+01 -0.29189689713E+01  0.28059286324E+02  0.28554240695E+02  0.17770000000E+01 0.  1.
         15    1    1    2    0    0  0.10434140545E+02 -0.31787776404E+02  0.27185941619E+03  0.27391610744E+03  0.17770000000E+01 0.  1.
</event>
<event>
 6   1  0.1826851E-04  0.5065362E+03  0.7546771E-02  0.9385302E-01
        -11   -1    0    0    0    0  0.00000000000E+00  0.00000000000E+00  0.50000000000E+03  0.50000000000E+03  0.00000000000E+00 0.  1.
         11   -1    0    0    0    0 -0.00000000000E+00 -0.00000000000E+00 -0.50000000000E+03  0.50000000000E+03  0.00000000000E+00 0. -1.
        -11    1    1    2    0    0 -0.21331565055E+02 -0.94771379577E+01  0.49291143796E+03  0.49346381578E+03  0.00000000000E+00 0.  1.
         11    1    1    2    0    0  0.13859206215E+02  0.21115663598E+01 -0.46957332658E+03  0.46978255113E+03  0.00000000000E+00 0. -1.
        -15    1    1    2    0    0 -0.28180295754E+01 -0.67676075852E+01 -0.16041207421E+02  0.17726247986E+02  0.17770000000E+01 0.  1.
         15    1    1    2    0    0  0.10290388416E+02  0.14133179183E+02 -0.72969039591E+01  0.19027385106E+02  0.17770000000E+01 0. -1.
</event>
<event>
 6   1  0.1826851E-04  0.5063976E+03  0.7546771E-02  0.9385607E-01
        -11   -1    0    0    0    0  0.00000000000E+00  0.00000000000E+00  0.50000000000E+03  0.50000000000E+03  0.00000000000E+00 0.  1.
         11   -1    0    0    0    0 -0.00000000000E+00 -0.00000000000E+00 -0.50000000000E+03  0.50000000000E+03  0.00000000000E+00 0. -1.
        -11    1    1    2    0    0 -0.25863728849E+02 -0.14307204517E+02  0.43778497002E+03  0.43878161829E+03  0.00000000000E+00 0.  1.
         11    1    1    2    0    0  0.93296771491E+01 -0.11746264021E+00 -0.49351417879E+03  0.49360237169E+03  0.00000000000E+00 0. -1.
        -15    1    1    2    0    0  0.21264945616E+02  0.17205936344E+02  0.55432696772E+02  0.61839985106E+02  0.17770000000E+01 0.  1.
         15    1    1    2    0    0 -0.47308939162E+01 -0.27812691866E+01  0.29651199529E+00  0.57760249219E+01  0.17770000000E+01 0. -1.
</event>
<event>
 6   1  0.1826851E-04  0.4974384E+03  0.7546771E-02  0.9405560E-01
        -11   -1    0    0    0    0  0.00000000000E+00  0.00000000000E+00  0.50000000000E+03  0.50000000000E+03  0.00000000000E+00 0.  1.
         11   -1    0    0    0    0 -0.00000000000E+00 -0.00000000000E+00 -0.50000000000E+03  0.50000000000E+03  0.00000000000E+00 0. -1.
        -11    1    1    2    0    0 -0.49983514592E+01 -0.99817452027E+00 -0.13322132432E+01  0.52682693370E+01  0.00000000000E+00 0.  1.
         11    1    1    2    0    0  0.42877682338E+01 -0.69361107444E+01 -0.49655502104E+03  0.49662197244E+03  0.00000000000E+00 0. -1.
        -15    1    1    2    0    0  0.41556424076E+01  0.22222776593E+00  0.30029164392E+03  0.30032573630E+03  0.17770000000E+01 0.  1.
         15    1    1    2    0    0 -0.34450591822E+01  0.77120574988E+01  0.19759559037E+03  0.19778402192E+03  0.17770000000E+01 0. -1.
</event>
<event>
 6   1  0.1826851E-04  0.4676084E+03  0.7546771E-02  0.9475356E-01
        -11   -1    0    0    0    0  0.00000000000E+00  0.00000000000E+00  0.50000000000E+03  0.50000000000E+03  0.00000000000E+00 0. -1.
         11   -1    0    0    0    0 -0.00000000000E+00 -0.00000000000E+00 -0.50000000000E+03  0.50000000000E+03  0.00000000000E+00 0. -1.
        -11    1    1    2    0    0  0.17771546394E+02  0.35222344676E+02  0.45870094331E+03  0.46039439269E+03  0.00000000000E+00 0. -1.
         11    1    1    2    0    0  0.14295829236E+02  0.10966558475E+01 -0.47602076338E+03  0.47623664344E+03  0.00000000000E+00 0. -1.
        -15    1    1    2    0    0 -0.26021291439E+02 -0.30991918865E+02  0.28460464624E+02  0.49505175676E+02  0.17770000000E+01 0. -1.
         15    1    1    2    0    0 -0.60460841912E+01 -0.53270816591E+01 -0.11140644554E+02  0.13863788196E+02  0.17770000000E+01 0.  1.
</event>
<event>
 6   1  0.1826851E-04  0.5010808E+03  0.7546771E-02  0.9397395E-01
        -11   -1    0    0    0    0  0.00000000000E+00  0.00000000000E+00  0.50000000000E+03  0.50000000000E+03  0.00000000000E+00 0.  1.
         11   -1    0    0    0    0 -0.00000000000E+00 -0.00000000000E+00 -0.50000000000E+03  0.50000000000E+03  0.00000000000E+00 0. -1.
        -11    1    1    2    0    0 -0.17398378211E+02  0.24192736878E+02  0.49802849647E+03  0.49891920726E+03  0.00000000000E+00 0.  1.
         11    1    1    2    0    0  0.29212058074E+01  0.33849720572E+01 -0.30754972010E+03  0.30758221960E+03  0.00000000000E+00 0. -1.
        -15    1    1    2    0    0  0.16139429859E+02 -0.26684354121E+02 -0.16883956456E+03  0.17170466575E+03  0.17770000000E+01 0.  1.
         15    1    1    2    0    0 -0.16622574553E+01 -0.89335481417E+00 -0.21639211808E+02  0.21793907390E+02  0.17770000000E+01 0. -1.
</event>
<event>
 6   1  0.1826851E-04  0.5008471E+03  0.7546771E-02  0.9397916E-01
        -11   -1    0    0    0    0  0.00000000000E+00  0.00000000000E+00  0.50000000000E+03  0.50000000000E+03  0.00000000000E+00 0. -1.
         11   -1    0    0    0    0 -0.00000000000E+00 -0.00000000000E+00 -0.50000000000E+03  0.50000000000E+03  0.00000000000E+00 0.  1.
        -11    1    1    2    0    0  0.13408378295E+02 -0.19659146341E+02  0.49858536677E+03  0.49915291705E+03  0.00000000000E+00 0. -1.
         11    1    1    2    0    0 -0.80526066818E+00  0.26216614935E+01 -0.18609543622E+03  0.18611564399E+03  0.00000000000E+00 0.  1.
        -15    1    1    2    0    0 -0.27838180393E+01  0.21520575565E+02 -0.12199465201E+03  0.12392230495E+03  0.17770000000E+01 0. -1.
         15    1    1    2    0    0 -0.98192995873E+01 -0.44830907169E+01 -0.19049527854E+03  0.19080913401E+03  0.17770000000E+01 0.  1.
</event>
<event>
 6   1  0.1826851E-04  0.5119600E+03  0.7546771E-02  0.9373439E-01
        -11   -1    0    0    0    0  0.00000000000E+00  0.00000000000E+00  0.50000000000E+03  0.50000000000E+03  0.00000000000E+00 0. -1.
         11   -1    0    0    0    0 -0.00000000000E+00 -0.00000000000E+00 -0.50000000000E+03  0.50000000000E+03  0.00000000000E+00 0. -1.
        -11    1    1    2    0    0 -0.17542174775E+02 -0.11255807255E+02  0.47031558538E+03  0.47077719884E+03  0.00000000000E+00 0. -1.
         11    1    1    2    0    0  0.13089301806E+02  0.26464961004E+02 -0.48714607751E+03  0.48803998281E+03  0.00000000000E+00 0. -1.
        -15    1    1    2    0    0 -0.77020572092E+01 -0.19837040649E+02  0.18102407849E+02  0.27994370253E+02  0.17770000000E+01 0.  1.
         15    1    1    2    0    0  0.12154930178E+02  0.46278868995E+01 -0.12719157199E+01  0.13188448104E+02  0.17770000000E+01 0. -1.
</event>
<event>
 6   1  0.1826851E-04  0.5002785E+03  0.7546771E-02  0.9399187E-01
        -11   -1    0    0    0    0  0.00000000000E+00  0.00000000000E+00  0.50000000000E+03  0.50000000000E+03  0.00000000000E+00 0.  1.
         11   -1    0    0    0    0 -0.00000000000E+00 -0.00000000000E+00 -0.50000000000E+03  0.50000000000E+03  0.00000000000E+00 0. -1.
        -11    1    1    2    0    0  0.12217756936E+01  0.39218445941E+01 -0.29738010826E+02  0.30020374560E+02  0.00000000000E+00 0.  1.
         11    1    1    2    0    0 -0.32240180855E+01  0.16414395975E+02 -0.46940320331E+03  0.46970117518E+03  0.00000000000E+00 0. -1.
        -15    1    1    2    0    0 -0.10273051782E+02 -0.65241184132E+00  0.15254722886E+03  0.15290446689E+03  0.17770000000E+01 0. -1.
         15    1    1    2    0    0  0.12275294174E+02 -0.19683828727E+02  0.34659398528E+03  0.34737398337E+03  0.17770000000E+01 0.  1.
</event>
<event>
 6   1  0.1826851E-04  0.5000420E+03  0.7546771E-02  0.9399716E-01
        -11   -1    0    0    0    0  0.00000000000E+00  0.00000000000E+00  0.50000000000E+03  0.50000000000E+03  0.00000000000E+00 0.  1.
         11   -1    0    0    0    0 -0.00000000000E+00 -0.00000000000E+00 -0.50000000000E+03  0.50000000000E+03  0.00000000000E+00 0.  1.
        -11    1    1    2    0    0  0.81353259212E+01  0.10337009841E+02  0.49978494424E+03  0.49995802603E+03  0.00000000000E+00 0.  1.
         11    1    1    2    0    0 -0.46778802429E+01 -0.15749410824E+01 -0.15518502794E+03  0.15526350473E+03  0.00000000000E+00 0.  1.
        -15    1    1    2    0    0 -0.36918521569E+01 -0.68754396934E+01 -0.20829483181E+03  0.20844854552E+03  0.17770000000E+01 0. -1.
         15    1    1    2    0    0  0.23440647854E+00 -0.18866290655E+01 -0.13630508449E+03  0.13632992372E+03  0.17770000000E+01 0.  1.
</event>
<event>
 6   1  0.1826851E-04  0.5006988E+03  0.7546771E-02  0.9398247E-01
        -11   -1    0    0    0    0  0.00000000000E+00  0.00000000000E+00  0.50000000000E+03  0.50000000000E+03  0.00000000000E+00 0.  1.
         11   -1    0    0    0    0 -0.00000000000E+00 -0.00000000000E+00 -0.50000000000E+03  0.50000000000E+03  0.00000000000E+00 0. -1.
        -11    1    1    2    0    0  0.10837202714E+02 -0.34367318191E+01  0.49917172083E+03  0.49930117461E+03  0.00000000000E+00 0.  1.
         11    1    1    2    0    0  0.60421606265E+01 -0.25409291678E+01 -0.35962060064E+03  0.35968033090E+03  0.00000000000E+00 0. -1.
        -15    1    1    2    0    0 -0.14337108702E+02  0.24625511640E+01 -0.12099753770E+03  0.12188182270E+03  0.17770000000E+01 0. -1.
         15    1    1    2    0    0 -0.25422546393E+01  0.35151098230E+01 -0.18553582483E+02  0.19136671802E+02  0.17770000000E+01 0.  1.
</event>
<event>
 6   1  0.1826851E-04  0.5053009E+03  0.7546771E-02  0.9388026E-01
        -11   -1    0    0    0    0  0.00000000000E+00  0.00000000000E+00  0.50000000000E+03  0.50000000000E+03  0.00000000000E+00 0.  1.
         11   -1    0    0    0    0 -0.00000000000E+00 -0.00000000000E+00 -0.50000000000E+03  0.50000000000E+03  0.00000000000E+00 0. -1.
        -11    1    1    2    0    0  0.63981489402E+00  0.87028397414E+01  0.47817345837E+03  0.47825307639E+03  0.00000000000E+00 0.  1.
         11    1    1    2    0    0 -0.92731829665E+01  0.70764143857E+01 -0.49456155540E+03  0.49469910011E+03  0.00000000000E+00 0. -1.
        -15    1    1    2    0    0 -0.98883220132E+00 -0.62968971852E+01  0.10019241640E+02  0.12007149342E+02  0.17770000000E+01 0. -1.
         15    1    1    2    0    0  0.96222002738E+01 -0.94823569419E+01  0.63688553933E+01  0.15040674164E+02  0.17770000000E+01 0.  1.
</event>
<event>
 6   1  0.1826851E-04  0.5004878E+03  0.7546771E-02  0.9398719E-01
        -11   -1    0    0    0    0  0.00000000000E+00  0.00000000000E+00  0.50000000000E+03  0.50000000000E+03  0.00000000000E+00 0. -1.
         11   -1    0    0    0    0 -0.00000000000E+00 -0.00000000000E+00 -0.50000000000E+03  0.50000000000E+03  0.00000000000E+00 0. -1.
        -11    1    1    2    0    0  0.76415628452E+01 -0.34117159415E+01  0.25913342672E+03  0.25926852129E+03  0.00000000000E+00 0. -1.
         11    1    1    2    0    0 -0.67615955623E+01  0.21743524662E+02 -0.49899290149E+03  0.49951217781E+03  0.00000000000E+00 0. -1.
        -15    1    1    2    0    0  0.24329723827E-01 -0.16890375723E+02  0.23619911943E+03  0.23680892537E+03  0.17770000000E+01 0. -1.
         15    1    1    2    0    0 -0.90429700678E+00 -0.14414329972E+01  0.36603553329E+01  0.44103755311E+01  0.17770000000E+01 0. -1.
</event>
<event>
 6   1  0.1826851E-04  0.5038114E+03  0.7546771E-02  0.9391322E-01
        -11   -1    0    0    0    0  0.00000000000E+00  0.00000000000E+00  0.50000000000E+03  0.50000000000E+03  0.00000000000E+00 0.  1.
         11   -1    0    0    0    0 -0.00000000000E+00 -0.00000000000E+00 -0.50000000000E+03  0.50000000000E+03  0.00000000000E+00 0.  1.
        -11    1    1    2    0    0 -0.10321822803E+02  0.21182795904E+02  0.49562881780E+03  0.49618864951E+03  0.00000000000E+00 0.  1.
         11    1    1    2    0    0  0.66450664842E+01 -0.29866931023E+01 -0.46762184409E+03  0.46767859296E+03  0.00000000000E+00 0.  1.
        -15    1    1    2    0    0 -0.13191300300E+01  0.13345722935E+01 -0.34710969031E+01  0.43275200696E+01  0.17770000000E+01 0.  1.
         15    1    1    2    0    0  0.49958863484E+01 -0.19530675096E+02 -0.24535876805E+02  0.31805237457E+02  0.17770000000E+01 0. -1.
</event>
<event>
 6   1  0.1826851E-04  0.5025572E+03  0.7546771E-02  0.9394106E-01
        -11   -1    0    0    0    0  0.00000000000E+00  0.00000000000E+00  0.50000000000E+03  0.50000000000E+03  0.00000000000E+00 0. -1.
         11   -1    0    0    0    0 -0.00000000000E+00 -0.00000000000E+00 -0.50000000000E+03  0.50000000000E+03  0.00000000000E+00 0.  1.
        -11    1    1    2    0    0  0.69958130114E+01  0.10586495610E+02  0.49728096268E+03  0.49744283202E+03  0.00000000000E+00 0. -1.
         11    1    1    2    0    0  0.78917365777E+01  0.61369687151E+01 -0.41728657582E+03  0.41740631074E+03  0.00000000000E+00 0.  1.
        -15    1    1    2    0    0  0.39758135465E+01 -0.52512380551E+01 -0.14800071076E+02  0.16296699891E+02  0.17770000000E+01 0.  1.
         15    1    1    2    0    0 -0.18863363136E+02 -0.11472226270E+02 -0.65194315781E+02  0.68854157344E+02  0.17770000000E+01 0. -1.
</event>
<event>
 6   1  0.1826851E-04  0.5018986E+03  0.7546771E-02  0.9395572E-01
        -11   -1    0    0    0    0  0.00000000000E+00  0.00000000000E+00  0.50000000000E+03  0.50000000000E+03  0.00000000000E+00 0.  1.
         11   -1    0    0    0    0 -0.00000000000E+00 -0.00000000000E+00 -0.50000000000E+03  0.50000000000E+03  0.00000000000E+00 0.  1.
        -11    1    1    2    0    0 -0.12924078121E+02  0.18739058130E+02  0.42230253317E+03  0.42291561051E+03  0.00000000000E+00 0.  1.
         11    1    1    2    0    0  0.64698059957E+01 -0.30535770527E+01 -0.49805006063E+03  0.49810144109E+03  0.00000000000E+00 0.  1.
        -15    1    1    2    0    0 -0.12802043681E+01 -0.10784855452E+02  0.24017019034E+02  0.26418307338E+02  0.17770000000E+01 0.  1.
         15    1    1    2    0    0  0.77344764930E+01 -0.49006256260E+01  0.51730508431E+02  0.52564641059E+02  0.17770000000E+01 0. -1.
</event>
<event>
 6   1  0.1826851E-04  0.5026344E+03  0.7546771E-02  0.9393934E-01
        -11   -1    0    0    0    0  0.00000000000E+00  0.00000000000E+00  0.50000000000E+03  0.50000000000E+03  0.00000000000E+00 0.  1.
         11   -1    0    0    0    0 -0.00000000000E+00 -0.00000000000E+00 -0.50000000000E+03  0.50000000000E+03  0.00000000000E+00 0.  1.
        -11    1    1    2    0    0  0.24202478422E+02 -0.74712599330E+01  0.49672018055E+03  0.49736557727E+03  0.00000000000E+00 0.  1.
         11    1    1    2    0    0  0.73825953937E+01 -0.14471230289E+01 -0.37153126815E+03  0.37160742739E+03  0.00000000000E+00 0.  1.
        -15    1    1    2    0    0 -0.32971027096E+02  0.11370554730E+02 -0.10758659629E+03  0.11311238470E+03  0.17770000000E+01 0. -1.
         15    1    1    2    0    0  0.13859532796E+01 -0.24521717683E+01 -0.17602316109E+02  0.17914610637E+02  0.17770000000E+01 0.  1.
</event>
<event>
 6   1  0.1826851E-04  0.5006598E+03  0.7546771E-02  0.9398335E-01
        -11   -1    0    0    0    0  0.00000000000E+00  0.00000000000E+00  0.50000000000E+03  0.50000000000E+03  0.00000000000E+00 0. -1.
         11   -1    0    0    0    0 -0.00000000000E+00 -0.00000000000E+00 -0.50000000000E+03  0.50000000000E+03  0.00000000000E+00 0.  1.
        -11    1    1    2    0    0 -0.27148377170E+02  0.14094047196E+02  0.49840240258E+03  0.49934019611E+03  0.00000000000E+00 0. -1.
         11    1    1    2    0    0  0.48136983403E+01 -0.21304589660E+02 -0.22310855065E+03  0.22417511594E+03  0.00000000000E+00 0.  1.
        -15    1    1    2    0    0  0.59196721776E+01 -0.47866832805E+00 -0.11344187697E+03  0.11361112983E+03  0.17770000000E+01 0. -1.
         15    1    1    2    0    0  0.16415006652E+02  0.76892107922E+01 -0.16185197496E+03  0.16287355811E+03  0.17770000000E+01 0.  1.
</event>
<event>
 6   1  0.1826851E-04  0.5005721E+03  0.7546771E-02  0.9398530E-01
        -11   -1    0    0    0    0  0.00000000000E+00  0.00000000000E+00  0.50000000000E+03  0.50000000000E+03  0.00000000000E+00 0.  1.
         11   -1    0    0    0    0 -0.00000000000E+00 -0.00000000000E+00 -0.50000000000E+03  0.50000000000E+03  0.00000000000E+00 0.  1.
        -11    1    1    2    0    0 -0.42843270472E+00 -0.11611267426E+02  0.49929270889E+03  0.49942788692E+03  0.00000000000E+00 0.  1.
         11    1    1    2    0    0 -0.32450212882E+01 -0.46710912986E+01 -0.37083780701E+03  0.37088142090E+03  0.00000000000E+00 0.  1.
        -15    1    1    2    0    0  0.24765184512E+01  0.14652934231E+02 -0.11494198775E+03  0.11591229401E+03  0.17770000000E+01 0. -1.
         15    1    1    2    0    0  0.11969355417E+01  0.16294244934E+01 -0.13512914127E+02  0.13778398168E+02  0.17770000000E+01 0.  1.
</event>
<event>
 6   1  0.1826851E-04  0.4698069E+03  0.7546771E-02  0.9470025E-01
        -11   -1    0    0    0    0  0.00000000000E+00  0.00000000000E+00  0.50000000000E+03  0.50000000000E+03  0.00000000000E+00 0. -1.
         11   -1    0    0    0    0 -0.00000000000E+00 -0.00000000000E+00 -0.50000000000E+03  0.50000000000E+03  0.00000000000E+00 0. -1.
        -11    1    1    2    0    0 -0.38838316597E+02 -0.23344745746E+02  0.47396377045E+03  0.47612503367E+03  0.00000000000E+00 0. -1.
         11    1    1    2    0    0 -0.69849809754E+01  0.76166429621E+00 -0.46486730161E+03  0.46492039985E+03  0.00000000000E+00 0. -1.
        -15    1    1    2    0    0  0.60830783421E+01 -0.33376562880E+00 -0.11335617578E+02  0.12991119909E+02  0.17770000000E+01 0.  1.
         15    1    1    2    0    0  0.39740219231E+02  0.22916847079E+02  0.22391487361E+01  0.45963446570E+02  0.17770000000E+01 0. -1.
</event>
<event>
 6   1  0.1826851E-04  0.4606508E+03  0.7546771E-02  0.9492434E-01
        -11   -1    0    0    0    0  0.00000000000E+00  0.00000000000E+00  0.50000000000E+03  0.50000000000E+03  0.00000000000E+00 0. -1.
         11   -1    0    0    0    0 -0.00000000000E+00 -0.00000000000E+00 -0.50000000000E+03  0.50000000000E+03  0.00000000000E+00 0. -1.
        -11    1    1    2    0    0 -0.34122892759E+02  0.23167152304E+01  0.46072973851E+03  0.46199743606E+03  0.00000000000E+00 0. -1.
         11    1    1    2    0    0 -0.49786595105E+01  0.72715762648E+01 -0.46009932011E+03  0.46018371031E+03  0.00000000000E+00 0. -1.
        -15    1    1    2    0    0  0.31350367457E+02 -0.13105436984E+02 -0.31121678888E+02  0.46111979399E+02  0.17770000000E+01 0.  1.
         15    1    1    2    0    0  0.77511848123E+01  0.35171454889E+01  0.30491260483E+02  0.31706874227E+02  0.17770000000E+01 0. -1.
</event>
<event>
 6   1  0.1826851E-04  0.5026976E+03  0.7546771E-02  0.9393794E-01
        -11   -1    0    0    0    0  0.00000000000E+00  0.00000000000E+00  0.50000000000E+03  0.50000000000E+03  0.00000000000E+00 0.  1.
         11   -1    0    0    0    0 -0.00000000000E+00 -0.00000000000E+00 -0.50000000000E+03  0.50000000000E+03  0.00000000000E+00 0.  1.
        -11    1    1    2    0    0  0.24429608908E+02  0.21438882067E+02  0.49623906187E+03  0.49730236073E+03  0.00000000000E+00 0.  1.
         11    1    1    2    0    0  0.39843486551E+01  0.32307148783E+01 -0.37391852566E+03  0.37395370888E+03  0.00000000000E+00 0.  1.
        -15    1    1    2    0    0 -0.25987141276E+02 -0.25931282152E+02 -0.11496999884E+03  0.12070220076E+03  0.17770000000E+01 0.  1.
         15    1    1    2    0    0 -0.24268162866E+01  0.12616852058E+01 -0.73505373663E+01  0.80417296287E+01  0.17770000000E+01 0.  1.
</event>
<event>
 6   1  0.1826851E-04  0.5005023E+03  0.7546771E-02  0.9398686E-01
        -11   -1    0    0    0    0  0.00000000000E+00  0.00000000000E+00  0.50000000000E+03  0.50000000000E+03  0.00000000000E+00 0. -1.
         11   -1    0    0    0    0 -0.00000000000E+00 -0.00000000000E+00 -0.50000000000E+03  0.50000000000E+03  0.00000000000E+00 0.  1.
        -11    1    1    2    0    0  0.41476349109E+01  0.71557934151E+01  0.49942922376E+03  0.49949770550E+03  0.00000000000E+00 0. -1.
         11    1    1    2    0    0 -0.16725498013E+01 -0.81311993105E+01 -0.47076276242E+03  0.47083595052E+03  0.00000000000E+00 0.  1.
        -15    1    1    2    0    0 -0.33343614490E+01 -0.14154341211E+01 -0.10722031012E+02  0.11456050718E+02  0.17770000000E+01 0.  1.
         15    1    1    2    0    0  0.85927633951E+00  0.23908400165E+01 -0.17944430331E+02  0.18210293263E+02  0.17770000000E+01 0. -1.
</event>
<event>
 6   1  0.1826851E-04  0.5001407E+03  0.7546771E-02  0.9399495E-01
        -11   -1    0    0    0    0  0.00000000000E+00  0.00000000000E+00  0.50000000000E+03  0.50000000000E+03  0.00000000000E+00 0.  1.
         11   -1    0    0    0    0 -0.00000000000E+00 -0.00000000000E+00 -0.50000000000E+03  0.50000000000E+03  0.00000000000E+00 0.  1.
        -11    1    1    2    0    0 -0.15128633047E+01  0.25269660288E+01  0.15181520496E+02  0.15464568447E+02  0.00000000000E+00 0.  1.
         11    1    1    2    0    0  0.86750937046E+01 -0.82435513179E+01 -0.49971605434E+03  0.49985932856E+03  0.00000000000E+00 0.  1.
        -15    1    1    2    0    0 -0.53305997107E+01  0.67568370112E+01  0.40046783162E+03  0.40056424208E+03  0.17770000000E+01 0.  1.
         15    1    1    2    0    0 -0.18316306892E+01 -0.10402517220E+01  0.84066702223E+02  0.84111860913E+02  0.17770000000E+01 0. -1.
</event>
<event>
 6   1  0.1826851E-04  0.5010067E+03  0.7546771E-02  0.9397560E-01
        -11   -1    0    0    0    0  0.00000000000E+00  0.00000000000E+00  0.50000000000E+03  0.50000000000E+03  0.00000000000E+00 0.  1.
         11   -1    0    0    0    0 -0.00000000000E+00 -0.00000000000E+00 -0.50000000000E+03  0.50000000000E+03  0.00000000000E+00 0. -1.
        -11    1    1    2    0    0 -0.10948521026E+02  0.45082671929E+01  0.40279852641E+03  0.40297251452E+03  0.00000000000E+00 0.  1.
         11    1    1    2    0    0 -0.11195691253E+01 -0.66910948351E+01 -0.49894716477E+03  0.49899328394E+03  0.00000000000E+00 0. -1.
        -15    1    1    2    0    0  0.97449890191E+01 -0.41223210371E+01  0.38465697889E+02  0.39934020394E+02  0.17770000000E+01 0. -1.
         15    1    1    2    0    0  0.23231011322E+01  0.63051486794E+01  0.57682940472E+02  0.58100181146E+02  0.17770000000E+01 0.  1.
</event>
<event>
 6   1  0.1826851E-04  0.5016634E+03  0.7546771E-02  0.9396095E-01
        -11   -1    0    0    0    0  0.00000000000E+00  0.00000000000E+00  0.50000000000E+03  0.50000000000E+03  0.00000000000E+00 0.  1.
         11   -1    0    0    0    0 -0.00000000000E+00 -0.00000000000E+00 -0.50000000000E+03  0.50000000000E+03  0.00000000000E+00 0.  1.
        -11    1    1    2    0    0 -0.19276520006E+02 -0.11947098092E+01  0.33956867798E+03  0.34011747768E+03  0.00000000000E+00 0.  1.
         11    1    1    2    0    0 -0.29408848828E+01 -0.10117205237E+02 -0.49822524460E+03  0.49833663422E+03  0.00000000000E+00 0.  1.
        -15    1    1    2    0    0  0.12271180503E+02  0.48164031348E+01  0.12687253443E+03  0.12756793222E+03  0.17770000000E+01 0.  1.
         15    1    1    2    0    0  0.99462243854E+01  0.64955119118E+01  0.31784032188E+02  0.33977955878E+02  0.17770000000E+01 0. -1.
</event>
<event>
 6   1  0.1826851E-04  0.5012693E+03  0.7546771E-02  0.9396974E-01
        -11   -1    0    0    0    0  0.00000000000E+00  0.00000000000E+00  0.50000000000E+03  0.50000000000E+03  0.00000000000E+00 0.  1.
         11   -1    0    0    0    0 -0.00000000000E+00 -0.00000000000E+00 -0.50000000000E+03  0.50000000000E+03  0.00000000000E+00 0.  1.
        -11    1    1    2    0    0 -0.29721306409E+01 -0.97700841606E+01  0.42050377932E+03  0.42062776481E+03  0.00000000000E+00 0.  1.
         11    1    1    2    0    0  0.81587753145E+01  0.84735951032E+01 -0.49859199906E+03  0.49873073793E+03  0.00000000000E+00 0.  1.
        -15    1    1    2    0    0  0.42140520506E+01  0.59714272494E+01  0.50721462501E+02  0.51276121785E+02  0.17770000000E+01 0.  1.
         15    1    1    2    0    0 -0.94006967243E+01 -0.46749381919E+01  0.27366757242E+02  0.29365375478E+02  0.17770000000E+01 0. -1.
</event>
<event>
 6   1  0.1826851E-04  0.5048449E+03  0.7546771E-02  0.9389034E-01
        -11   -1    0    0    0    0  0.00000000000E+00  0.00000000000E+00  0.50000000000E+03  0.50000000000E+03  0.00000000000E+00 0. -1.
         11   -1    0    0    0    0 -0.00000000000E+00 -0.00000000000E+00 -0.50000000000E+03  0.50000000000E+03  0.00000000000E+00 0. -1.
        -11    1    1    2    0    0  0.90492450210E+01  0.48455588097E+01  0.49504873282E+03  0.49515514351E+03  0.00000000000E+00 0. -1.
         11    1    1    2    0    0 -0.21377877859E+01  0.17489243047E+02 -0.46153153642E+03  0.46186773309E+03  0.00000000000E+00 0. -1.
        -15    1    1    2    0    0  0.59999535762E+00 -0.12088107352E+02 -0.86059300231E+01  0.14956673906E+02  0.17770000000E+01 0.  1.
         15    1    1    2    0    0 -0.75114525927E+01 -0.10246694505E+02 -0.24911266380E+02  0.28020449496E+02  0.17770000000E+01 0. -1.
</event>
<event>
 6   1  0.1826851E-04  0.5032768E+03  0.7546771E-02  0.9392507E-01
        -11   -1    0    0    0    0  0.00000000000E+00  0.00000000000E+00  0.50000000000E+03  0.50000000000E+03  0.00000000000E+00 0.  1.
         11   -1    0    0    0    0 -0.00000000000E+00 -0.00000000000E+00 -0.50000000000E+03  0.50000000000E+03  0.00000000000E+00 0. -1.
        -11    1    1    2    0    0 -0.47426552053E+01  0.37775615676E+02  0.18974867701E+03  0.19353048945E+03  0.00000000000E+00 0.  1.
         11    1    1    2    0    0 -0.20209150259E+02 -0.51188890551E+01 -0.49628551795E+03  0.49672319063E+03  0.00000000000E+00 0. -1.
        -15    1    1    2    0    0  0.16190805844E+02 -0.10364295501E+02  0.17224651541E+03  0.17332507209E+03  0.17770000000E+01 0. -1.
         15    1    1    2    0    0  0.87609996207E+01 -0.22292431119E+02  0.13429032553E+03  0.13642124783E+03  0.17770000000E+01 0.  1.
</event>
<event>
 6   1  0.1826851E-04  0.4937770E+03  0.7546771E-02  0.9413843E-01
        -11   -1    0    0    0    0  0.00000000000E+00  0.00000000000E+00  0.50000000000E+03  0.50000000000E+03  0.00000000000E+00 0.  1.
         11   -1    0    0    0    0 -0.00000000000E+00 -0.00000000000E+00 -0.50000000000E+03  0.50000000000E+03  0.00000000000E+00 0. -1.
        -11    1    1    2    0    0 -0.94508858828E+01  0.10187556224E+02  0.49184554861E+03  0.49204181655E+03  0.00000000000E+00 0.  1.
         11    1    1    2    0    0  0.83556143549E+01 -0.30791768029E+01 -0.49546489198E+03  0.49554490897E+03  0.00000000000E+00 0. -1.
        -15    1    1    2    0    0  0.32327226815E+01 -0.38915769398E+01  0.55736485849E+01  0.77342197126E+01  0.17770000000E+01 0. -1.
         15    1    1    2    0    0 -0.21374511536E+01 -0.32168024810E+01 -0.19543052192E+01  0.46790547684E+01  0.17770000000E+01 0.  1.
</event>
<event>
 6   1  0.1826851E-04  0.5025877E+03  0.7546771E-02  0.9394038E-01
        -11   -1    0    0    0    0  0.00000000000E+00  0.00000000000E+00  0.50000000000E+03  0.50000000000E+03  0.00000000000E+00 0. -1.
         11   -1    0    0    0    0 -0.00000000000E+00 -0.00000000000E+00 -0.50000000000E+03  0.50000000000E+03  0.00000000000E+00 0. -1.
        -11    1    1    2    0    0  0.39866153825E+00  0.32584500866E+02  0.16927764255E+03  0.17238569806E+03  0.00000000000E+00 0. -1.
         11    1    1    2    0    0 -0.69587100381E+01  0.23979504384E+01 -0.49735780653E+03  0.49741226515E+03  0.00000000000E+00 0. -1.
        -15    1    1    2    0    0  0.91127318521E+00 -0.22268522072E+02  0.23645059649E+03  0.23750528373E+03  0.17770000000E+01 0.  1.
         15    1    1    2    0    0  0.56487753146E+01 -0.12713929233E+02  0.91629567489E+02  0.92696753052E+02  0.17770000000E+01 0. -1.
</event>
<event>
 6   1  0.1826851E-04  0.5005510E+03  0.7546771E-02  0.9398578E-01
        -11   -1    0    0    0    0  0.00000000000E+00  0.00000000000E+00  0.50000000000E+03  0.50000000000E+03  0.00000000000E+00 0. -1.
         11   -1    0    0    0    0 -0.00000000000E+00 -0.00000000000E+00 -0.50000000000E+03  0.50000000000E+03  0.00000000000E+00 0.  1.
        -11    1    1    2    0    0 -0.73426330764E+01 -0.14866996971E+02  0.49917367412E+03  0.49944899518E+03  0.00000000000E+00 0. -1.
         11    1    1    2    0    0  0.67636835987E+00  0.16607454940E+02 -0.45798912196E+03  0.45829062926E+03  0.00000000000E+00 0.  1.
        -15    1    1    2    0    0  0.30675183708E+01 -0.34749657680E+01 -0.18269223129E+02  0.18931648074E+02  0.17770000000E+01 0. -1.
         15    1    1    2    0    0  0.35987463458E+01  0.17345077994E+01 -0.22915329022E+02  0.23328727478E+02  0.17770000000E+01 0.  1.
</event>
<event>
 6   1  0.1826851E-04  0.5226485E+03  0.7546771E-02  0.9350511E-01
        -11   -1    0    0    0    0  0.00000000000E+00  0.00000000000E+00  0.50000000000E+03  0.50000000000E+03  0.00000000000E+00 0. -1.
         11   -1    0    0    0    0 -0.00000000000E+00 -0.00000000000E+00 -0.50000000000E+03  0.50000000000E+03  0.00000000000E+00 0. -1.
        -11    1    1    2    0    0 -0.10626430960E+02 -0.77213995409E+02  0.36967734245E+03  0.37780452570E+03  0.00000000000E+00 0. -1.
         11    1    1    2    0    0 -0.53716068521E+02  0.14481904057E+02 -0.47409843124E+03  0.47735150997E+03  0.00000000000E+00 0. -1.
        -15    1    1    2    0    0  0.50281940873E+02  0.56088934900E+02  0.10493317561E+03  0.12918347909E+03  0.17770000000E+01 0.  1.
         15    1    1    2    0    0  0.14060558609E+02  0.66431564531E+01 -0.51208681597E+00  0.15660485240E+02  0.17770000000E+01 0. -1.
</event>
<event>
 6   1  0.1826851E-04  0.5019492E+03  0.7546771E-02  0.9395459E-01
        -11   -1    0    0    0    0  0.00000000000E+00  0.00000000000E+00  0.50000000000E+03  0.50000000000E+03  0.00000000000E+00 0.  1.
         11   -1    0    0    0    0 -0.00000000000E+00 -0.00000000000E+00 -0.50000000000E+03  0.50000000000E+03  0.00000000000E+00 0.  1.
        -11    1    1    2    0    0 -0.74962578531E+01 -0.80582058970E+00  0.57623264093E+01  0.94893431949E+01  0.00000000000E+00 0.  1.
         11    1    1    2    0    0 -0.22471392134E+01  0.34920591845E+02 -0.49682002595E+03  0.49805083631E+03  0.00000000000E+00 0.  1.
        -15    1    1    2    0    0  0.63760760886E+00 -0.20915327251E+02  0.27940621416E+03  0.28019430347E+03  0.17770000000E+01 0.  1.
         15    1    1    2    0    0  0.91057894576E+01 -0.13199444005E+02  0.21165148538E+03  0.21226551702E+03  0.17770000000E+01 0. -1.
</event>
<event>
 6   1  0.1826851E-04  0.5085294E+03  0.7546771E-02  0.9380924E-01
        -11   -1    0    0    0    0  0.00000000000E+00  0.00000000000E+00  0.50000000000E+03  0.50000000000E+03  0.00000000000E+00 0.  1.
         11   -1    0    0    0    0 -0.00000000000E+00 -0.00000000000E+00 -0.50000000000E+03  0.50000000000E+03  0.00000000000E+00 0. -1.
        -11    1    1    2    0    0 -0.42577366734E+02  0.77707947188E+01  0.48956116219E+03  0.49147059824E+03  0.00000000000E+00 0.  1.
         11    1    1    2    0    0  0.45791677789E+01 -0.49360375142E+01 -0.45738793235E+03  0.45743748634E+03  0.00000000000E+00 0. -1.
        -15    1    1    2    0    0  0.35332696299E+02  0.28858593942E-01 -0.28236179163E+02  0.45264111648E+02  0.17770000000E+01 0. -1.
         15    1    1    2    0    0  0.26655026559E+01 -0.28636157986E+01 -0.39370506721E+01  0.58278037755E+01  0.17770000000E+01 0.  1.
</event>
<event>
 6   1  0.1826851E-04  0.4931129E+03  0.7546771E-02  0.9415353E-01
        -11   -1    0    0    0    0  0.00000000000E+00  0.00000000000E+00  0.50000000000E+03  0.50000000000E+03  0.00000000000E+00 0.  1.
         11   -1    0    0    0    0 -0.00000000000E+00 -0.00000000000E+00 -0.50000000000E+03  0.50000000000E+03  0.00000000000E+00 0.  1.
        -11    1    1    2    0    0 -0.29122840691E+01  0.75459618569E+01  0.49394544424E+03  0.49401166467E+03  0.00000000000E+00 0.  1.
         11    1    1    2    0    0 -0.87071329808E+01 -0.81980027456E+01 -0.49213923912E+03  0.49228452351E+03  0.00000000000E+00 0.  1.
        -15    1    1    2    0    0  0.17432708788E+01 -0.67092387128E+00  0.15883742595E+01  0.30281667699E+01  0.17770000000E+01 0. -1.
         15    1    1    2    0    0  0.98761461711E+01  0.13229647600E+01 -0.33945793870E+01  0.10675645047E+02  0.17770000000E+01 0.  1.
</event>
<event>
 6   1  0.1826851E-04  0.5226255E+03  0.7546771E-02  0.9350560E-01
        -11   -1    0    0    0    0  0.00000000000E+00  0.00000000000E+00  0.50000000000E+03  0.50000000000E+03  0.00000000000E+00 0.  1.
         11   -1    0    0    0    0 -0.00000000000E+00 -0.00000000000E+00 -0.50000000000E+03  0.50000000000E+03  0.00000000000E+00 0.  1.
        -11    1    1    2    0    0 -0.44963108617E+02  0.42987301367E+02  0.54263783305E+02  0.82547849117E+02  0.00000000000E+00 0.  1.
         11    1    1    2    0    0  0.32184228870E+02 -0.16832825793E+02 -0.47599078662E+03  0.47737448356E+03  0.00000000000E+00 0.  1.
        -15    1    1    2    0    0 -0.39444980268E+02 -0.86660577748E+01  0.50041175918E+02  0.64329495894E+02  0.17770000000E+01 0.  1.
         15    1    1    2    0    0  0.52223860015E+02 -0.17488417799E+02  0.37168582740E+03  0.37574817142E+03  0.17770000000E+01 0. -1.
</event>
<event>
 6   1  0.1826851E-04  0.5000805E+03  0.7546771E-02  0.9399630E-01
        -11   -1    0    0    0    0  0.00000000000E+00  0.00000000000E+00  0.50000000000E+03  0.50000000000E+03  0.00000000000E+00 0.  1.
         11   -1    0    0    0    0 -0.00000000000E+00 -0.00000000000E+00 -0.50000000000E+03  0.50000000000E+03  0.00000000000E+00 0. -1.
        -11    1    1    2    0    0 -0.62148095447E+01  0.15470278127E+02  0.49964138223E+03  0.49991945771E+03  0.00000000000E+00 0.  1.
         11    1    1    2    0    0  0.38345490837E+01 -0.67814957892E+00 -0.13477334405E+03  0.13482958844E+03  0.00000000000E+00 0. -1.
        -15    1    1    2    0    0 -0.12199614903E+01 -0.24124953736E+01 -0.11364827632E+03  0.11369431331E+03  0.17770000000E+01 0. -1.
         15    1    1    2    0    0  0.36002219513E+01 -0.12379633175E+02 -0.25121976187E+03  0.25155664053E+03  0.17770000000E+01 0. -1.
</event>
<event>
 6   1  0.1826851E-04  0.5019627E+03  0.7546771E-02  0.9395429E-01
        -11   -1    0    0    0    0  0.00000000000E+00  0.00000000000E+00  0.50000000000E+03  0.50000000000E+03  0.00000000000E+00 0. -1.
         11   -1    0    0    0    0 -0.00000000000E+00 -0.00000000000E+00 -0.50000000000E+03  0.50000000000E+03  0.00000000000E+00 0. -1.
        -11    1    1    2    0    0 -0.24347925994E+01 -0.10541915451E+02  0.49791978319E+03  0.49803731857E+03  0.00000000000E+00 0. -1.
         11    1    1    2    0    0  0.96331394022E+01  0.27321019537E+01 -0.47222885510E+03  0.47233500119E+03  0.00000000000E+00 0. -1.
        -15    1    1    2    0    0 -0.35983252632E+01 -0.15261658552E+01 -0.10572351416E+02  0.11410936438E+02  0.17770000000E+01 0. -1.
         15    1    1    2    0    0 -0.36000215396E+01  0.93359793521E+01 -0.15118576666E+02  0.18216743808E+02  0.17770000000E+01 0.  1.
</event>
<event>
 6   1  0.1826851E-04  0.5090154E+03  0.7546771E-02  0.9379860E-01
        -11   -1    0    0    0    0  0.00000000000E+00  0.00000000000E+00  0.50000000000E+03  0.50000000000E+03  0.00000000000E+00 0. -1.
         11   -1    0    0    0    0 -0.00000000000E+00 -0.00000000000E+00 -0.50000000000E+03  0.50000000000E+03  0.00000000000E+00 0. -1.
        -11    1    1    2    0    0 -0.42571515668E+02 -0.32581827023E+02  0.31129727909E+03  0.31587957416E+03  0.00000000000E+00 0. -1.
         11    1    1    2    0    0 -0.34129849224E+01  0.15337047935E+02 -0.49073317437E+03  0.49098464531E+03  0.00000000000E+00 0. -1.
        -15    1    1    2    0    0  0.49771915334E+02  0.22641405540E+02  0.17791998583E+03  0.18614122565E+03  0.17770000000E+01 0. -1.
         15    1    1    2    0    0 -0.37874147433E+01 -0.53966264517E+01  0.15159094492E+01  0.69945548790E+01  0.17770000000E+01 0.  1.
</event>
<event>
 6   1  0.1826851E-04  0.4694075E+03  0.7546771E-02  0.9470991E-01
        -11   -1    0    0    0    0  0.00000000000E+00  0.00000000000E+00  0.50000000000E+03  0.50000000000E+03  0.00000000000E+00 0.  1.
         11   -1    0    0    0    0 -0.00000000000E+00 -0.00000000000E+00 -0.50000000000E+03  0.50000000000E+03  0.00000000000E+00 0. -1.
        -11    1    1    2    0    0 -0.18276086015E+02  0.95272426072E+01  0.46488671008E+03  0.46534335375E+03  0.00000000000E+00 0.  1.
         11    1    1    2    0    0 -0.13909895060E+02 -0.58578438191E+01 -0.47383265057E+03  0.47407296934E+03  0.00000000000E+00 0. -1.
        -15    1    1    2    0    0  0.24158210215E+02  0.13556272065E+01  0.29313766519E+02  0.38051432068E+02  0.17770000000E+01 0.  1.
         15    1    1    2    0    0  0.80277708600E+01 -0.50250259946E+01 -0.20367826034E+02  0.22532244841E+02  0.17770000000E+01 0. -1.
</event>
<event>
 6   1  0.1826851E-04  0.5074864E+03  0.7546771E-02  0.9383212E-01
        -11   -1    0    0    0    0  0.00000000000E+00  0.00000000000E+00  0.50000000000E+03  0.50000000000E+03  0.00000000000E+00 0. -1.
         11   -1    0    0    0    0 -0.00000000000E+00 -0.00000000000E+00 -0.50000000000E+03  0.50000000000E+03  0.00000000000E+00 0. -1.
        -11    1    1    2    0    0 -0.17541910641E+02  0.13962425849E+02  0.46726345911E+03  0.46780103482E+03  0.00000000000E+00 0. -1.
         11    1    1    2    0    0  0.67911818301E+01  0.68207917316E+01 -0.49241953046E+03  0.49251359101E+03  0.00000000000E+00 0. -1.
        -15    1    1    2    0    0 -0.21645003982E+01 -0.77613399232E+01  0.18212081522E+02  0.19994026651E+02  0.17770000000E+01 0.  1.
         15    1    1    2    0    0  0.12915229209E+02 -0.13021877657E+02  0.69439898328E+01  0.19691347517E+02  0.17770000000E+01 0. -1.
</event>
<event>
 6   1  0.1826851E-04  0.4896672E+03  0.7546771E-02  0.9423232E-01
        -11   -1    0    0    0    0  0.00000000000E+00  0.00000000000E+00  0.50000000000E+03  0.50000000000E+03  0.00000000000E+00 0.  1.
         11   -1    0    0    0    0 -0.00000000000E+00 -0.00000000000E+00 -0.50000000000E+03  0.50000000000E+03  0.00000000000E+00 0. -1.
        -11    1    1    2    0    0 -0.82070800260E+01  0.88887489480E+01  0.49353760091E+03  0.49368586118E+03  0.00000000000E+00 0.  1.
         11    1    1    2    0    0  0.38715983354E+01  0.53438532959E+01 -0.48574780261E+03  0.48579262426E+03  0.00000000000E+00 0. -1.
        -15    1    1    2    0    0  0.19624557392E+01 -0.11811288735E+02 -0.10342083822E+02  0.15920873120E+02  0.17770000000E+01 0.  1.
         15    1    1    2    0    0  0.23730259514E+01 -0.24213135085E+01  0.25522855266E+01  0.46006414424E+01  0.17770000000E+01 0. -1.
</event>
<event>
 6   1  0.1826851E-04  0.5005475E+03  0.7546771E-02  0.9398585E-01
        -11   -1    0    0    0    0  0.00000000000E+00  0.00000000000E+00  0.50000000000E+03  0.50000000000E+03  0.00000000000E+00 0.  1.
         11   -1    0    0    0    0 -0.00000000000E+00 -0.00000000000E+00 -0.50000000000E+03  0.50000000000E+03  0.00000000000E+00 0.  1.
        -11    1    1    2    0    0 -0.94445295566E+01 -0.49520705166E+01  0.21893481620E+03  0.21919437923E+03  0.00000000000E+00 0.  1.
         11    1    1    2    0    0 -0.49452022812E+01 -0.12505674053E+02 -0.49927138655E+03  0.49945246454E+03  0.00000000000E+00 0.  1.
        -15    1    1    2    0    0  0.42981421903E+01  0.29839463938E+01  0.42749682821E+02  0.43105348539E+02  0.17770000000E+01 0. -1.
         15    1    1    2    0    0  0.10091589648E+02  0.14473798175E+02  0.23758688753E+03  0.23824780769E+03  0.17770000000E+01 0.  1.
</event>
<event>
 6   1  0.1826851E-04  0.4841419E+03  0.7546771E-02  0.9436010E-01
        -11   -1    0    0    0    0  0.00000000000E+00  0.00000000000E+00  0.50000000000E+03  0.50000000000E+03  0.00000000000E+00 0. -1.
         11   -1    0    0    0    0 -0.00000000000E+00 -0.00000000000E+00 -0.50000000000E+03  0.50000000000E+03  0.00000000000E+00 0. -1.
        -11    1    1    2    0    0 -0.11790314389E+02  0.15362304682E+02  0.48270113561E+03  0.48308943089E+03  0.00000000000E+00 0. -1.
         11    1    1    2    0    0  0.89421301718E+01 -0.89692173346E+01 -0.48505715283E+03  0.48522247481E+03  0.00000000000E+00 0. -1.
        -15    1    1    2    0    0 -0.24619631446E+00  0.51503379988E+01 -0.11846433730E+02  0.13041561074E+02  0.17770000000E+01 0.  1.
         15    1    1    2    0    0  0.30943805318E+01 -0.11543425346E+02  0.14202450949E+02  0.18646533232E+02  0.17770000000E+01 0. -1.
</event>
<event>
 6   1  0.1826851E-04  0.5032743E+03  0.7546771E-02  0.9392513E-01
        -11   -1    0    0    0    0  0.00000000000E+00  0.00000000000E+00  0.50000000000E+03  0.50000000000E+03  0.00000000000E+00 0. -1.
         11   -1    0    0    0    0 -0.00000000000E+00 -0.00000000000E+00 -0.50000000000E+03  0.50000000000E+03  0.00000000000E+00 0.  1.
        -11    1    1    2    0    0 -0.30035886585E+02  0.15688482754E+02  0.35968641396E+03  0.36127911559E+03  0.00000000000E+00 0. -1.
         11    1    1    2    0    0  0.73430885268E+01  0.27567135929E+01 -0.49666376962E+03  0.49672569943E+03  0.00000000000E+00 0.  1.
        -15    1    1    2    0    0  0.22323503823E+02 -0.11957463429E+02  0.12935430721E+03  0.13182190364E+03  0.17770000000E+01 0. -1.
         15    1    1    2    0    0  0.36929423513E+00 -0.64877329178E+01  0.76230484528E+01  0.10173281347E+02  0.17770000000E+01 0.  1.
</event>
<event>
 6   1  0.1826851E-04  0.5028685E+03  0.7546771E-02  0.9393414E-01
        -11   -1    0    0    0    0  0.00000000000E+00  0.00000000000E+00  0.50000000000E+03  0.50000000000E+03  0.00000000000E+00 0.  1.
         11   -1    0    0    0    0 -0.00000000000E+00 -0.00000000000E+00 -0.50000000000E+03  0.50000000000E+03  0.00000000000E+00 0. -1.
        -11    1    1    2    0    0 -0.75846910675E+01 -0.78189140944E+01  0.49701214054E+03  0.49713150252E+03  0.00000000000E+00 0.  1.
         11    1    1    2    0    0 -0.43308476867E+01 -0.50038009846E+01 -0.45936909944E+03  0.45941676481E+03  0.00000000000E+00 0. -1.
        -15    1    1    2    0    0  0.71754400277E+01  0.60617344672E+00 -0.20503349654E+02  0.21803657076E+02  0.17770000000E+01 0. -1.
         15    1    1    2    0    0  0.47400987266E+01  0.12216541632E+02 -0.17139691440E+02  0.21648075597E+02  0.17770000000E+01 0.  1.
</event>
<event>
 6   1  0.1826851E-04  0.5002484E+03  0.7546771E-02  0.9399254E-01
        -11   -1    0    0    0    0  0.00000000000E+00  0.00000000000E+00  0.50000000000E+03  0.50000000000E+03  0.00000000000E+00 0. -1.
         11   -1    0    0    0    0 -0.00000000000E+00 -0.00000000000E+00 -0.50000000000E+03  0.50000000000E+03  0.00000000000E+00 0.  1.
        -11    1    1    2    0    0 -0.37224255610E+01 -0.10882000485E+02  0.49961921805E+03  0.49975157571E+03  0.00000000000E+00 0. -1.
         11    1    1    2    0    0  0.88147866245E+01 -0.30327754865E+01 -0.18406733855E+03  0.18430323739E+03  0.00000000000E+00 0.  1.
        -15    1    1    2    0    0 -0.36145281963E+01  0.78229958888E+01 -0.14309327520E+03  0.14336354911E+03  0.17770000000E+01 0. -1.
         15    1    1    2    0    0 -0.14778328671E+01  0.60917800825E+01 -0.17245860430E+03  0.17258163778E+03  0.17770000000E+01 0.  1.
</event>
<event>
 6   1  0.1826851E-04  0.5039758E+03  0.7546771E-02  0.9390957E-01
        -11   -1    0    0    0    0  0.00000000000E+00  0.00000000000E+00  0.50000000000E+03  0.50000000000E+03  0.00000000000E+00 0. -1.
         11   -1    0    0    0    0 -0.00000000000E+00 -0.00000000000E+00 -0.50000000000E+03  0.50000000000E+03  0.00000000000E+00 0. -1.
        -11    1    1    2    0    0  0.78315392565E+01  0.12499284022E+01  0.49596079727E+03  0.49602420078E+03  0.00000000000E+00 0. -1.
         11    1    1    2    0    0 -0.25737142460E+01  0.13661575754E+02 -0.47188200340E+03  0.47208673757E+03  0.00000000000E+00 0. -1.
        -15    1    1    2    0    0  0.87174158781E+00 -0.90869966961E+01 -0.41817378599E+01  0.10196965376E+02  0.17770000000E+01 0.  1.
         15    1    1    2    0    0 -0.61295665983E+01 -0.58245074604E+01 -0.19897056012E+02  0.21692096274E+02  0.17770000000E+01 0. -1.
</event>
<event>
 6   1  0.1826851E-04  0.5034796E+03  0.7546771E-02  0.9392057E-01
        -11   -1    0    0    0    0  0.00000000000E+00  0.00000000000E+00  0.50000000000E+03  0.50000000000E+03  0.00000000000E+00 0. -1.
         11   -1    0    0    0    0 -0.00000000000E+00 -0.00000000000E+00 -0.50000000000E+03  0.50000000000E+03  0.00000000000E+00 0. -1.
        -11    1    1    2    0    0 -0.71101775075E+01  0.75778243898E+01  0.49641164317E+03  0.49652038984E+03  0.00000000000E+00 0. -1.
         11    1    1    2    0    0  0.43232000634E+01  0.86414701770E+01 -0.47734413324E+03  0.47744191961E+03  0.00000000000E+00 0. -1.
        -15    1    1    2    0    0  0.30633738245E+01 -0.14997033973E+02 -0.17704913951E+02  0.23471621039E+02  0.17770000000E+01 0.  1.
         15    1    1    2    0    0 -0.27639638038E+00 -0.12222605936E+01 -0.13625959832E+01  0.25660695102E+01  0.17770000000E+01 0.  1.
</event>
<event>
 6   1  0.1826851E-04  0.5106812E+03  0.7546771E-02  0.9376222E-01
        -11   -1    0    0    0    0  0.00000000000E+00  0.00000000000E+00  0.50000000000E+03  0.50000000000E+03  0.00000000000E+00 0. -1.
         11   -1    0    0    0    0 -0.00000000000E+00 -0.00000000000E+00 -0.50000000000E+03  0.50000000000E+03  0.00000000000E+00 0.  1.
        -11    1    1    2    0    0 -0.36495769345E+02 -0.80175710605E+01  0.45503297578E+03  0.45656459748E+03  0.00000000000E+00 0. -1.
         11    1    1    2    0    0  0.63267518640E+01 -0.29828050736E+01 -0.48926884725E+03  0.48931884269E+03  0.00000000000E+00 0.  1.
        -15    1    1    2    0    0  0.25530929578E+02  0.18410034746E+02  0.20059231696E+02  0.37366940599E+02  0.17770000000E+01 0. -1.
         15    1    1    2    0    0  0.46380879028E+01 -0.74096586120E+01  0.14176639775E+02  0.16749619233E+02  0.17770000000E+01 0.  1.
</event>
<event>
 6   1  0.1826851E-04  0.5004773E+03  0.7546771E-02  0.9398742E-01
        -11   -1    0    0    0    0  0.00000000000E+00  0.00000000000E+00  0.50000000000E+03  0.50000000000E+03  0.00000000000E+00 0.  1.
         11   -1    0    0    0    0 -0.00000000000E+00 -0.00000000000E+00 -0.50000000000E+03  0.50000000000E+03  0.00000000000E+00 0. -1.
        -11    1    1    2    0    0 -0.96457536372E+01 -0.32731972707E+02  0.49835578509E+03  0.49952268330E+03  0.00000000000E+00 0.  1.
         11    1    1    2    0    0 -0.23267623840E+01 -0.10350450926E+01 -0.15520054005E+03  0.15522143143E+03  0.00000000000E+00 0. -1.
        -15    1    1    2    0    0  0.83546456296E+00  0.90310483557E+01 -0.13770803953E+03  0.13801782390E+03  0.17770000000E+01 0. -1.
         15    1    1    2    0    0  0.11137051458E+02  0.24735969444E+02 -0.20544720551E+03  0.20723806137E+03  0.17770000000E+01 0. -1.
</event>
<event>
 6   1  0.1826851E-04  0.5017815E+03  0.7546771E-02  0.9395832E-01
        -11   -1    0    0    0    0  0.00000000000E+00  0.00000000000E+00  0.50000000000E+03  0.50000000000E+03  0.00000000000E+00 0. -1.
         11   -1    0    0    0    0 -0.00000000000E+00 -0.00000000000E+00 -0.50000000000E+03  0.50000000000E+03  0.00000000000E+00 0. -1.
        -11    1    1    2    0    0  0.13423016177E+01  0.16613873917E+02  0.49793962055E+03  0.49821851460E+03  0.00000000000E+00 0. -1.
         11    1    1    2    0    0 -0.65399653804E+01 -0.27238861454E+01 -0.46523377493E+03  0.46528771318E+03  0.00000000000E+00 0. -1.
        -15    1    1    2    0    0  0.53054805070E+01 -0.64428516463E+01 -0.17252379424E+02  0.19247357885E+02  0.17770000000E+01 0. -1.
         15    1    1    2    0    0 -0.10781674430E+00 -0.74471361257E+01 -0.15453466195E+02  0.17246414334E+02  0.17770000000E+01 0.  1.
</event>
<event>
 6   1  0.1826851E-04  0.5017590E+03  0.7546771E-02  0.9395882E-01
        -11   -1    0    0    0    0  0.00000000000E+00  0.00000000000E+00  0.50000000000E+03  0.50000000000E+03  0.00000000000E+00 0. -1.
         11   -1    0    0    0    0 -0.00000000000E+00 -0.00000000000E+00 -0.50000000000E+03  0.50000000000E+03  0.00000000000E+00 0.  1.
        -11    1    1    2    0    0  0.20136834190E+01 -0.86901511593E+01  0.49816115723E+03  0.49824101820E+03  0.00000000000E+00 0. -1.
         11    1    1    2    0    0 -0.74175332482E+01 -0.21282583398E+00 -0.46616673909E+03  0.46622579693E+03  0.00000000000E+00 0.  1.
        -15    1    1    2    0    0  0.70260018449E+01  0.44152930110E+01 -0.27367362324E+02  0.28652918942E+02  0.17770000000E+01 0. -1.
         15    1    1    2    0    0 -0.16221520156E+01  0.44876839823E+01 -0.46270558141E+01  0.68802659246E+01  0.17770000000E+01 0.  1.
</event>
<event>
 6   1  0.1826851E-04  0.4612554E+03  0.7546771E-02  0.9490938E-01
        -11   -1    0    0    0    0  0.00000000000E+00  0.00000000000E+00  0.50000000000E+03  0.50000000000E+03  0.00000000000E+00 0.  1.
         11   -1    0    0    0    0 -0.00000000000E+00 -0.00000000000E+00 -0.50000000000E+03  0.50000000000E+03  0.00000000000E+00 0.  1.
        -11    1    1    2    0    0  0.13863430917E+02 -0.31066417157E+02  0.45385145377E+03  0.45512466324E+03  0.00000000000E+00 0.  1.
         11    1    1    2    0    0  0.26214666170E+01 -0.28800069575E+02 -0.46870150984E+03  0.46959282514E+03  0.00000000000E+00 0.  1.
        -15    1    1    2    0    0  0.53105290538E+01  0.48291719836E+02  0.13721506369E+02  0.50514645298E+02  0.17770000000E+01 0. -1.
         15    1    1    2    0    0 -0.21795426588E+02  0.11574766897E+02  0.11285496992E+01  0.24767866325E+02  0.17770000000E+01 0.  1.
</event>
<event>
 6   1  0.1826851E-04  0.5017631E+03  0.7546771E-02  0.9395873E-01
        -11   -1    0    0    0    0  0.00000000000E+00  0.00000000000E+00  0.50000000000E+03  0.50000000000E+03  0.00000000000E+00 0.  1.
         11   -1    0    0    0    0 -0.00000000000E+00 -0.00000000000E+00 -0.50000000000E+03  0.50000000000E+03  0.00000000000E+00 0. -1.
        -11    1    1    2    0    0  0.12420503809E+02 -0.13936804589E+02  0.40215364880E+03  0.40258671201E+03  0.00000000000E+00 0.  1.
         11    1    1    2    0    0 -0.10124617370E+02 -0.10467777774E+02 -0.49802404879E+03  0.49823692699E+03  0.00000000000E+00 0. -1.
        -15    1    1    2    0    0  0.14580859282E+01  0.10206622763E+02  0.34717124614E+02  0.36259310987E+02  0.17770000000E+01 0.  1.
         15    1    1    2    0    0 -0.37539723666E+01  0.14197959600E+02  0.61153275368E+02  0.62917050015E+02  0.17770000000E+01 0. -1.
</event>
<event>
 6   1  0.1826851E-04  0.4888355E+03  0.7546771E-02  0.9425144E-01
        -11   -1    0    0    0    0  0.00000000000E+00  0.00000000000E+00  0.50000000000E+03  0.50000000000E+03  0.00000000000E+00 0.  1.
         11   -1    0    0    0    0 -0.00000000000E+00 -0.00000000000E+00 -0.50000000000E+03  0.50000000000E+03  0.00000000000E+00 0.  1.
        -11    1    1    2    0    0  0.13194126848E+02  0.77067768972E+01  0.48453766261E+03  0.48477853282E+03  0.00000000000E+00 0.  1.
         11    1    1    2    0    0 -0.48331821698E+01  0.92186936316E+01 -0.49300150853E+03  0.49311137827E+03  0.00000000000E+00 0.  1.
        -15    1    1    2    0    0 -0.21347872588E+01 -0.10802356233E+02  0.67441018862E+01  0.13034141939E+02  0.17770000000E+01 0.  1.
         15    1    1    2    0    0 -0.62261574198E+01 -0.61231142959E+01  0.17197440374E+01  0.90759469726E+01  0.17770000000E+01 0. -1.
</event>
<event>
 6   1  0.1826851E-04  0.4746783E+03  0.7546771E-02  0.9458322E-01
        -11   -1    0    0    0    0  0.00000000000E+00  0.00000000000E+00  0.50000000000E+03  0.50000000000E+03  0.00000000000E+00 0. -1.
         11   -1    0    0    0    0 -0.00000000000E+00 -0.00000000000E+00 -0.50000000000E+03  0.50000000000E+03  0.00000000000E+00 0.  1.
        -11    1    1    2    0    0  0.27630957205E+02  0.11891586611E+02  0.47530589920E+03  0.47625683978E+03  0.00000000000E+00 0. -1.
         11    1    1    2    0    0  0.11903388276E+02  0.13862027481E+01 -0.47386496400E+03  0.47401647262E+03  0.00000000000E+00 0.  1.
        -15    1    1    2    0    0 -0.27031065836E+02  0.59083724330E+00 -0.10293904216E+02  0.28985337705E+02  0.17770000000E+01 0.  1.
         15    1    1    2    0    0 -0.12503279644E+02 -0.13868626603E+02  0.88529690171E+01  0.20741349887E+02  0.17770000000E+01 0. -1.
</event>
<event>
 6   1  0.1826851E-04  0.5009468E+03  0.7546771E-02  0.9397694E-01
        -11   -1    0    0    0    0  0.00000000000E+00  0.00000000000E+00  0.50000000000E+03  0.50000000000E+03  0.00000000000E+00 0.  1.
         11   -1    0    0    0    0 -0.00000000000E+00 -0.00000000000E+00 -0.50000000000E+03  0.50000000000E+03  0.00000000000E+00 0.  1.
        -11    1    1    2    0    0 -0.36506306567E+01  0.14217594858E+02  0.47225032930E+03  0.47247840229E+03  0.00000000000E+00 0.  1.
         11    1    1    2    0    0  0.90758697457E+00 -0.15228756009E+02 -0.49881995216E+03  0.49905318694E+03  0.00000000000E+00 0.  1.
        -15    1    1    2    0    0  0.15114612050E+01 -0.39365338789E+01  0.15343298660E+02  0.16011101046E+02  0.17770000000E+01 0. -1.
         15    1    1    2    0    0  0.12315824772E+01  0.49476950302E+01  0.11226324201E+02  0.12457309724E+02  0.17770000000E+01 0.  1.
</event>
<event>
 6   1  0.1826851E-04  0.5017492E+03  0.7546771E-02  0.9395904E-01
        -11   -1    0    0    0    0  0.00000000000E+00  0.00000000000E+00  0.50000000000E+03  0.50000000000E+03  0.00000000000E+00 0.  1.
         11   -1    0    0    0    0 -0.00000000000E+00 -0.00000000000E+00 -0.50000000000E+03  0.50000000000E+03  0.00000000000E+00 0. -1.
        -11    1    1    2    0    0  0.64396389888E+01 -0.16749344429E+02  0.49792755822E+03  0.49825080303E+03  0.00000000000E+00 0.  1.
         11    1    1    2    0    0 -0.63944241925E+01 -0.20205096813E+01 -0.42006412590E+03  0.42011765137E+03  0.00000000000E+00 0. -1.
        -15    1    1    2    0    0 -0.30192034933E+00  0.11093326055E+02 -0.68387807790E+02  0.69305144270E+02  0.17770000000E+01 0. -1.
         15    1    1    2    0    0  0.25670555311E+00  0.76765280552E+01 -0.94756245227E+01  0.12326401333E+02  0.17770000000E+01 0.  1.
</event>
<event>
 6   1  0.1826851E-04  0.4894521E+03  0.7546771E-02  0.9423726E-01
        -11   -1    0    0    0    0  0.00000000000E+00  0.00000000000E+00  0.50000000000E+03  0.50000000000E+03  0.00000000000E+00 0.  1.
         11   -1    0    0    0    0 -0.00000000000E+00 -0.00000000000E+00 -0.50000000000E+03  0.50000000000E+03  0.00000000000E+00 0.  1.
        -11    1    1    2    0    0 -0.13378822678E+02  0.47307434695E+01  0.48639780588E+03  0.48660476610E+03  0.00000000000E+00 0.  1.
         11    1    1    2    0    0  0.63281199640E+01  0.53668005994E+01 -0.49232501124E+03  0.49239492721E+03  0.00000000000E+00 0.  1.
        -15    1    1    2    0    0  0.29550743402E+01 -0.30467741845E+01 -0.52951377378E+01  0.70150915853E+01  0.17770000000E+01 0. -1.
         15    1    1    2    0    0  0.40956283739E+01 -0.70507698844E+01  0.11222343097E+02  0.13985215098E+02  0.17770000000E+01 0.  1.
</event>
<event>
 6   1  0.1826851E-04  0.5014639E+03  0.7546771E-02  0.9396540E-01
        -11   -1    0    0    0    0  0.00000000000E+00  0.00000000000E+00  0.50000000000E+03  0.50000000000E+03  0.00000000000E+00 0.  1.
         11   -1    0    0    0    0 -0.00000000000E+00 -0.00000000000E+00 -0.50000000000E+03  0.50000000000E+03  0.00000000000E+00 0.  1.
        -11    1    1    2    0    0 -0.10851283449E+01 -0.16089501368E+02  0.49827521623E+03  0.49853609765E+03  0.00000000000E+00 0.  1.
         11    1    1    2    0    0 -0.37143712408E+01 -0.45974155619E+01 -0.40986417238E+03  0.40990678524E+03  0.00000000000E+00 0.  1.
        -15    1    1    2    0    0  0.32373342983E+01  0.87643977017E+00 -0.12118757915E+02  0.12699232356E+02  0.17770000000E+01 0. -1.
         15    1    1    2    0    0  0.15621652873E+01  0.19810477160E+02 -0.76292285928E+02  0.78857884748E+02  0.17770000000E+01 0.  1.
</event>
<event>
 6   1  0.1826851E-04  0.5002121E+03  0.7546771E-02  0.9399335E-01
        -11   -1    0    0    0    0  0.00000000000E+00  0.00000000000E+00  0.50000000000E+03  0.50000000000E+03  0.00000000000E+00 0.  1.
         11   -1    0    0    0    0 -0.00000000000E+00 -0.00000000000E+00 -0.50000000000E+03  0.50000000000E+03  0.00000000000E+00 0.  1.
        -11    1    1    2    0    0 -0.10102312132E+02  0.38261482469E+01  0.23288651621E+03  0.23313692447E+03  0.00000000000E+00 0.  1.
         11    1    1    2    0    0  0.52867074175E+01 -0.11412642605E+02 -0.49962960219E+03  0.49978789208E+03  0.00000000000E+00 0.  1.
        -15    1    1    2    0    0  0.38792693241E+00  0.52874671568E+01  0.21264126512E+03  0.21271476949E+03  0.17770000000E+01 0.  1.
         15    1    1    2    0    0  0.44276777821E+01  0.22990272018E+01  0.54101820860E+02  0.54360413961E+02  0.17770000000E+01 0. -1.
</event>
<event>
 6   1  0.1826851E-04  0.5000825E+03  0.7546771E-02  0.9399625E-01
        -11   -1    0    0    0    0  0.00000000000E+00  0.00000000000E+00  0.50000000000E+03  0.50000000000E+03  0.00000000000E+00 0. -1.
         11   -1    0    0    0    0 -0.00000000000E+00 -0.00000000000E+00 -0.50000000000E+03  0.50000000000E+03  0.00000000000E+00 0.  1.
        -11    1    1    2    0    0 -0.55140574959E+01 -0.12576199219E+02  0.49972884657E+03  0.49991747890E+03  0.00000000000E+00 0. -1.
         11    1    1    2    0    0 -0.18508682137E+01 -0.97612335855E-01 -0.66918822047E+02  0.66944484354E+02  0.00000000000E+00 0.  1.
        -15    1    1    2    0    0  0.64289330621E+01  0.53752282928E+01 -0.16625420845E+03  0.16647475429E+03  0.17770000000E+01 0.  1.
         15    1    1    2    0    0  0.93599264746E+00  0.72985832624E+01 -0.26655581607E+03  0.26666328245E+03  0.17770000000E+01 0. -1.
</event>
<event>
 6   1  0.1826851E-04  0.5096520E+03  0.7546771E-02  0.9378468E-01
        -11   -1    0    0    0    0  0.00000000000E+00  0.00000000000E+00  0.50000000000E+03  0.50000000000E+03  0.00000000000E+00 0.  1.
         11   -1    0    0    0    0 -0.00000000000E+00 -0.00000000000E+00 -0.50000000000E+03  0.50000000000E+03  0.00000000000E+00 0.  1.
        -11    1    1    2    0    0  0.50606657084E+02 -0.85020958652E+01  0.21306166445E+03  0.21915426584E+03  0.00000000000E+00 0.  1.
         11    1    1    2    0    0  0.29177546142E+02 -0.14192639292E+02 -0.48927335084E+03  0.49034801116E+03  0.00000000000E+00 0.  1.
        -15    1    1    2    0    0 -0.19625949179E+02  0.11076422050E+02  0.35358456236E+02  0.41967167679E+02  0.17770000000E+01 0. -1.
         15    1    1    2    0    0 -0.60158254047E+02  0.11618313107E+02  0.24085323015E+03  0.24853055533E+03  0.17770000000E+01 0.  1.
</event>
<event>
 6   1  0.1826851E-04  0.5001997E+03  0.7546771E-02  0.9399363E-01
        -11   -1    0    0    0    0  0.00000000000E+00  0.00000000000E+00  0.50000000000E+03  0.50000000000E+03  0.00000000000E+00 0. -1.
         11   -1    0    0    0    0 -0.00000000000E+00 -0.00000000000E+00 -0.50000000000E+03  0.50000000000E+03  0.00000000000E+00 0.  1.
        -11    1    1    2    0    0  0.72169634352E+01  0.59668927585E+01  0.49971253123E+03  0.49980026235E+03  0.00000000000E+00 0. -1.
         11    1    1    2    0    0 -0.51606024253E+01 -0.34901586505E+01 -0.45232039150E+03  0.45236329382E+03  0.00000000000E+00 0.  1.
        -15    1    1    2    0    0 -0.20821146561E+01 -0.67288169946E+00 -0.38140271852E+02  0.38244294178E+02  0.17770000000E+01 0.  1.
         15    1    1    2    0    0  0.25753646184E-01 -0.18038524085E+01 -0.92518678810E+01  0.95921496573E+01  0.17770000000E+01 0. -1.
</event>
<event>
 6   1  0.1826851E-04  0.5004603E+03  0.7546771E-02  0.9398780E-01
        -11   -1    0    0    0    0  0.00000000000E+00  0.00000000000E+00  0.50000000000E+03  0.50000000000E+03  0.00000000000E+00 0.  1.
         11   -1    0    0    0    0 -0.00000000000E+00 -0.00000000000E+00 -0.50000000000E+03  0.50000000000E+03  0.00000000000E+00 0.  1.
        -11    1    1    2    0    0  0.48103972378E+01  0.45357846655E+01  0.30059333965E+03  0.30066604249E+03  0.00000000000E+00 0.  1.
         11    1    1    2    0    0  0.87825104206E+00  0.92700984432E+01 -0.49945286996E+03  0.49953966345E+03  0.00000000000E+00 0.  1.
        -15    1    1    2    0    0  0.10953585168E+01  0.10604533013E+01  0.44614128413E+02  0.44675525229E+02  0.17770000000E+01 0. -1.
         15    1    1    2    0    0 -0.67840067966E+01 -0.14866336410E+02  0.15424540190E+03  0.15511876883E+03  0.17770000000E+01 0.  1.
</event>
<event>
 6   1  0.1826851E-04  0.5018983E+03  0.7546771E-02  0.9395572E-01
        -11   -1    0    0    0    0  0.00000000000E+00  0.00000000000E+00  0.50000000000E+03  0.50000000000E+03  0.00000000000E+00 0.  1.
         11   -1    0    0    0    0 -0.00000000000E+00 -0.00000000000E+00 -0.50000000000E+03  0.50000000000E+03  0.00000000000E+00 0.  1.
        -11    1    1    2    0    0  0.15953911106E+02  0.13260650060E+02  0.38919525950E+03  0.38974776733E+03  0.00000000000E+00 0.  1.
         11    1    1    2    0    0 -0.74076227830E+01  0.46281866664E+01 -0.49802507178E+03  0.49810166142E+03  0.00000000000E+00 0.  1.
        -15    1    1    2    0    0 -0.12286468252E+02 -0.10095214916E+02  0.89259700831E+02  0.90682537391E+02  0.17770000000E+01 0.  1.
         15    1    1    2    0    0  0.37401799292E+01 -0.77936218099E+01  0.19570111448E+02  0.21468033862E+02  0.17770000000E+01 0. -1.
</event>
<event>
 6   1  0.1826851E-04  0.5039047E+03  0.7546771E-02  0.9391115E-01
        -11   -1    0    0    0    0  0.00000000000E+00  0.00000000000E+00  0.50000000000E+03  0.50000000000E+03  0.00000000000E+00 0.  1.
         11   -1    0    0    0    0 -0.00000000000E+00 -0.00000000000E+00 -0.50000000000E+03  0.50000000000E+03  0.00000000000E+00 0.  1.
        -11    1    1    2    0    0 -0.42907820130E+01 -0.12043754050E+02  0.45725635361E+03  0.45743506177E+03  0.00000000000E+00 0.  1.
         11    1    1    2    0    0  0.99461573344E+01  0.42820581360E+01 -0.49597712992E+03  0.49609532902E+03  0.00000000000E+00 0.  1.
        -15    1    1    2    0    0  0.58127941896E+01  0.75005470353E+01  0.31148097336E+02  0.32609944477E+02  0.17770000000E+01 0. -1.
         15    1    1    2    0    0 -0.11468169511E+02  0.26114887856E+00  0.75726789801E+01  0.13859664736E+02  0.17770000000E+01 0.  1.
</event>
<event>
 6   1  0.1826851E-04  0.5014665E+03  0.7546771E-02  0.9396534E-01
        -11   -1    0    0    0    0  0.00000000000E+00  0.00000000000E+00  0.50000000000E+03  0.50000000000E+03  0.00000000000E+00 0.  1.
         11   -1    0    0    0    0 -0.00000000000E+00 -0.00000000000E+00 -0.50000000000E+03  0.50000000000E+03  0.00000000000E+00 0. -1.
        -11    1    1    2    0    0 -0.87571421466E+01 -0.54493830866E+01  0.33750088605E+03  0.33765845376E+03  0.00000000000E+00 0.  1.
         11    1    1    2    0    0 -0.34651811158E+01 -0.75614908159E+01 -0.49846411164E+03  0.49853350361E+03  0.00000000000E+00 0. -1.
        -15    1    1    2    0    0  0.13312511630E+02  0.10640579366E+02  0.15933966345E+03  0.16025832575E+03  0.17770000000E+01 0.  1.
         15    1    1    2    0    0 -0.10901883679E+01  0.23702945363E+01  0.16235621481E+01  0.35497168782E+01  0.17770000000E+01 0. -1.
</event>
<event>
 6   1  0.1826851E-04  0.5000844E+03  0.7546771E-02  0.9399621E-01
        -11   -1    0    0    0    0  0.00000000000E+00  0.00000000000E+00  0.50000000000E+03  0.50000000000E+03  0.00000000000E+00 0. -1.
         11   -1    0    0    0    0 -0.00000000000E+00 -0.00000000000E+00 -0.50000000000E+03  0.50000000000E+03  0.00000000000E+00 0. -1.
        -11    1    1    2    0    0  0.71625534682E+01 -0.11768044849E+02  0.49972577494E+03  0.49991563208E+03  0.00000000000E+00 0. -1.
         11    1    1    2    0    0 -0.27944728807E+01  0.21619022506E+01 -0.22260592479E+03  0.22263396114E+03  0.00000000000E+00 0. -1.
        -15    1    1    2    0    0 -0.38031581242E+01  0.58641271874E+00 -0.73131278041E+02  0.73254006365E+02  0.17770000000E+01 0.  1.
         15    1    1    2    0    0 -0.56492246337E+00  0.90197298796E+01 -0.20398857211E+03  0.20419640042E+03  0.17770000000E+01 0. -1.
</event>
<event>
 6   1  0.1826851E-04  0.5023893E+03  0.7546771E-02  0.9394479E-01
        -11   -1    0    0    0    0  0.00000000000E+00  0.00000000000E+00  0.50000000000E+03  0.50000000000E+03  0.00000000000E+00 0.  1.
         11   -1    0    0    0    0 -0.00000000000E+00 -0.00000000000E+00 -0.50000000000E+03  0.50000000000E+03  0.00000000000E+00 0.  1.
        -11    1    1    2    0    0 -0.42903348090E+02 -0.85293860248E+01  0.49568438407E+03  0.49761074778E+03  0.00000000000E+00 0.  1.
         11    1    1    2    0    0  0.25334442202E+01 -0.78428934917E+01 -0.20046246669E+03  0.20063182666E+03  0.00000000000E+00 0.  1.
        -15    1    1    2    0    0  0.47064141277E+02  0.68281599477E+01 -0.18968959848E+03  0.19556829667E+03  0.17770000000E+01 0.  1.
         15    1    1    2    0    0 -0.66942374069E+01  0.95441195687E+01 -0.10553231890E+03  0.10618912889E+03  0.17770000000E+01 0. -1.
</event>
<event>
 6   1  0.1826851E-04  0.5002215E+03  0.7546771E-02  0.9399314E-01
        -11   -1    0    0    0    0  0.00000000000E+00  0.00000000000E+00  0.50000000000E+03  0.50000000000E+03  0.00000000000E+00 0. -1.
         11   -1    0    0    0    0 -0.00000000000E+00 -0.00000000000E+00 -0.50000000000E+03  0.50000000000E+03  0.00000000000E+00 0. -1.
        -11    1    1    2    0    0  0.10390678633E+02  0.50271305012E+01  0.49964519844E+03  0.49977851351E+03  0.00000000000E+00 0. -1.
         11    1    1    2    0    0 -0.17633886088E+01 -0.77768582327E+01 -0.38671842428E+03  0.38680063177E+03  0.00000000000E+00 0. -1.
        -15    1    1    2    0    0 -0.48805017845E+01 -0.61606975110E+00 -0.54323630251E+02  0.54574841935E+02  0.17770000000E+01 0.  1.
         15    1    1    2    0    0 -0.37467882402E+01  0.33657974826E+01 -0.58603143911E+02  0.58846012780E+02  0.17770000000E+01 0. -1.
</event>
<event>
 6   1  0.1826851E-04  0.4665344E+03  0.7546771E-02  0.9477972E-01
        -11   -1    0    0    0    0  0.00000000000E+00  0.00000000000E+00  0.50000000000E+03  0.50000000000E+03  0.00000000000E+00 0.  1.
         11   -1    0    0    0    0 -0.00000000000E+00 -0.00000000000E+00 -0.50000000000E+03  0.50000000000E+03  0.00000000000E+00 0.  1.
        -11    1    1    2    0    0 -0.38123309110E+02  0.63429596499E+00  0.46261362986E+03  0.46418224822E+03  0.00000000000E+00 0.  1.
         11    1    1    2    0    0 -0.20930824856E+02  0.97614241185E+01 -0.47027585081E+03  0.47084260713E+03  0.00000000000E+00 0.  1.
        -15    1    1    2    0    0  0.46458946583E+02 -0.10562801872E+02  0.15378816238E+02  0.50096628817E+02  0.17770000000E+01 0.  1.
         15    1    1    2    0    0  0.12595187384E+02  0.16708178896E+00 -0.77165952924E+01  0.14878515835E+02  0.17770000000E+01 0. -1.
</event>
<event>
 6   1  0.1826851E-04  0.4946872E+03  0.7546771E-02  0.9411777E-01
        -11   -1    0    0    0    0  0.00000000000E+00  0.00000000000E+00  0.50000000000E+03  0.50000000000E+03  0.00000000000E+00 0. -1.
         11   -1    0    0    0    0 -0.00000000000E+00 -0.00000000000E+00 -0.50000000000E+03  0.50000000000E+03  0.00000000000E+00 0.  1.
        -11    1    1    2    0    0 -0.98220688812E+01  0.25321010987E+02  0.49619633825E+03  0.49693906339E+03  0.00000000000E+00 0. -1.
         11    1    1    2    0    0  0.11863892797E+02 -0.17016254566E+02 -0.49204399486E+03  0.49248106334E+03  0.00000000000E+00 0.  1.
        -15    1    1    2    0    0 -0.15917062183E+01 -0.60655507198E+01 -0.40712795428E+01  0.76848864881E+01  0.17770000000E+01 0. -1.
         15    1    1    2    0    0 -0.45011769784E+00 -0.22392057005E+01 -0.81063845095E-01  0.28949867803E+01  0.17770000000E+01 0. -1.
</event>
<event>
 6   1  0.1826851E-04  0.5027729E+03  0.7546771E-02  0.9393626E-01
        -11   -1    0    0    0    0  0.00000000000E+00  0.00000000000E+00  0.50000000000E+03  0.50000000000E+03  0.00000000000E+00 0.  1.
         11   -1    0    0    0    0 -0.00000000000E+00 -0.00000000000E+00 -0.50000000000E+03  0.50000000000E+03  0.00000000000E+00 0. -1.
        -11    1    1    2    0    0  0.72037896941E+01 -0.57719458446E+01  0.45943983736E+03  0.45953256044E+03  0.00000000000E+00 0.  1.
         11    1    1    2    0    0  0.72365849119E+01  0.88899494282E+01 -0.49709498045E+03  0.49722713014E+03  0.00000000000E+00 0. -1.
        -15    1    1    2    0    0 -0.67745329912E+01 -0.24853676908E+01  0.35547796949E+01  0.82380542294E+01  0.17770000000E+01 0. -1.
         15    1    1    2    0    0 -0.76658416148E+01 -0.63263589284E+00  0.34100363393E+02  0.35002255190E+02  0.17770000000E+01 0.  1.
</event>
<event>
 6   1  0.1826851E-04  0.5011412E+03  0.7546771E-02  0.9397260E-01
        -11   -1    0    0    0    0  0.00000000000E+00  0.00000000000E+00  0.50000000000E+03  0.50000000000E+03  0.00000000000E+00 0.  1.
         11   -1    0    0    0    0 -0.00000000000E+00 -0.00000000000E+00 -0.50000000000E+03  0.50000000000E+03  0.00000000000E+00 0. -1.
        -11    1    1    2    0    0  0.22916524065E+02 -0.14933645185E+01  0.16978440156E+03  0.17133049999E+03  0.00000000000E+00 0.  1.
         11    1    1    2    0    0 -0.49200260778E+01  0.12527132174E+02 -0.49867718184E+03  0.49885876496E+03  0.00000000000E+00 0. -1.
        -15    1    1    2    0    0 -0.12431639542E+02 -0.35849773393E+01  0.25188205079E+03  0.25222038570E+03  0.17770000000E+01 0.  1.
         15    1    1    2    0    0 -0.55648584451E+01 -0.74487903163E+01  0.77010729481E+02  0.77590349341E+02  0.17770000000E+01 0. -1.
</event>
<event>
 6   1  0.1826851E-04  0.5000254E+03  0.7546771E-02  0.9399753E-01
        -11   -1    0    0    0    0  0.00000000000E+00  0.00000000000E+00  0.50000000000E+03  0.50000000000E+03  0.00000000000E+00 0.  1.
         11   -1    0    0    0    0 -0.00000000000E+00 -0.00000000000E+00 -0.50000000000E+03  0.50000000000E+03  0.00000000000E+00 0.  1.
        -11    1    1    2    0    0 -0.16455834602E+01 -0.28917727794E+01  0.80526454439E+02  0.80595162133E+02  0.00000000000E+00 0.  1.
         11    1    1    2    0    0  0.13369118035E+01  0.95173039112E+01 -0.49988218400E+03  0.49997456364E+03  0.00000000000E+00 0.  1.
        -15    1    1    2    0    0 -0.96241422360E+00 -0.38379809129E+01  0.24829711659E+03  0.24833499990E+03  0.17770000000E+01 0. -1.
         15    1    1    2    0    0  0.12710858803E+01 -0.27875502189E+01  0.17105861297E+03  0.17109527433E+03  0.17770000000E+01 0.  1.
</event>
<event>
 6   1  0.1826851E-04  0.5000915E+03  0.7546771E-02  0.9399605E-01
        -11   -1    0    0    0    0  0.00000000000E+00  0.00000000000E+00  0.50000000000E+03  0.50000000000E+03  0.00000000000E+00 0. -1.
         11   -1    0    0    0    0 -0.00000000000E+00 -0.00000000000E+00 -0.50000000000E+03  0.50000000000E+03  0.00000000000E+00 0. -1.
        -11    1    1    2    0    0 -0.16762222683E+01 -0.28866789650E+01  0.17606077817E+03  0.17609241961E+03  0.00000000000E+00 0. -1.
         11    1    1    2    0    0 -0.82475121985E+01 -0.11366776524E-02 -0.49984044879E+03  0.49990848733E+03  0.00000000000E+00 0. -1.
        -15    1    1    2    0    0  0.18287511689E+01  0.24961041137E+01  0.11249348861E+03  0.11255006697E+03  0.17770000000E+01 0. -1.
         15    1    1    2    0    0  0.80949832980E+01  0.39171152888E+00  0.21128618202E+03  0.21144902609E+03  0.17770000000E+01 0.  1.
</event>
<event>
 6   1  0.1826851E-04  0.5015481E+03  0.7546771E-02  0.9396352E-01
        -11   -1    0    0    0    0  0.00000000000E+00  0.00000000000E+00  0.50000000000E+03  0.50000000000E+03  0.00000000000E+00 0. -1.
         11   -1    0    0    0    0 -0.00000000000E+00 -0.00000000000E+00 -0.50000000000E+03  0.50000000000E+03  0.00000000000E+00 0. -1.
        -11    1    1    2    0    0  0.24712530145E+01 -0.57736353165E+01  0.46291611642E+03  0.46295871608E+03  0.00000000000E+00 0. -1.
         11    1    1    2    0    0  0.60157457411E+01 -0.35556752302E+01 -0.49840293337E+03  0.49845191947E+03  0.00000000000E+00 0. -1.
        -15    1    1    2    0    0 -0.70797641952E+01  0.84263579035E+01  0.33882001239E+02  0.35668954366E+02  0.17770000000E+01 0. -1.
         15    1    1    2    0    0 -0.14072345604E+01  0.90295264316E+00  0.16048157180E+01  0.29204100864E+01  0.17770000000E+01 0.  1.
</event>
<event>
 6   1  0.1826851E-04  0.5036937E+03  0.7546771E-02  0.9391583E-01
        -11   -1    0    0    0    0  0.00000000000E+00  0.00000000000E+00  0.50000000000E+03  0.50000000000E+03  0.00000000000E+00 0. -1.
         11   -1    0    0    0    0 -0.00000000000E+00 -0.00000000000E+00 -0.50000000000E+03  0.50000000000E+03  0.00000000000E+00 0.  1.
        -11    1    1    2    0    0 -0.89521458521E+01  0.32003390727E+01  0.49621524459E+03  0.49630630869E+03  0.00000000000E+00 0. -1.
         11    1    1    2    0    0  0.10834287544E+02  0.60391210411E+01 -0.48925423905E+03  0.48941144572E+03  0.00000000000E+00 0.  1.
        -15    1    1    2    0    0  0.10546563939E+01  0.42803112875E+00 -0.19148735456E+01  0.28495579398E+01  0.17770000000E+01 0. -1.
         15    1    1    2    0    0 -0.29367980859E+01 -0.96674912425E+01 -0.50461319859E+01  0.11432687652E+02  0.17770000000E+01 0.  1.
</event>
<event>
 6   1  0.1826851E-04  0.5044984E+03  0.7546771E-02  0.9389800E-01
        -11   -1    0    0    0    0  0.00000000000E+00  0.00000000000E+00  0.50000000000E+03  0.50000000000E+03  0.00000000000E+00 0. -1.
         11   -1    0    0    0    0 -0.00000000000E+00 -0.00000000000E+00 -0.50000000000E+03  0.50000000000E+03  0.00000000000E+00 0.  1.
        -11    1    1    2    0    0 -0.12360484030E+02  0.33815289268E+01  0.49533587579E+03  0.49550161064E+03  0.00000000000E+00 0. -1.
         11    1    1    2    0    0  0.19460183729E+01  0.14781015636E+02 -0.46659568802E+03  0.46683380499E+03  0.00000000000E+00 0.  1.
        -15    1    1    2    0    0  0.66406373263E+01 -0.13477616728E+01 -0.88654111651E+01  0.11299016318E+02  0.17770000000E+01 0.  1.
         15    1    1    2    0    0  0.37738283306E+01 -0.16814782890E+02 -0.19874776612E+02  0.26365568044E+02  0.17770000000E+01 0. -1.
</event>
<event>
 6   1  0.1826851E-04  0.4725459E+03  0.7546771E-02  0.9463427E-01
        -11   -1    0    0    0    0  0.00000000000E+00  0.00000000000E+00  0.50000000000E+03  0.50000000000E+03  0.00000000000E+00 0.  1.
         11   -1    0    0    0    0 -0.00000000000E+00 -0.00000000000E+00 -0.50000000000E+03  0.50000000000E+03  0.00000000000E+00 0.  1.
        -11    1    1    2    0    0  0.11263981868E+02  0.28600388124E+02  0.46166493036E+03  0.46268711611E+03  0.00000000000E+00 0.  1.
         11    1    1    2    0    0  0.11737143125E+02 -0.15258171170E+01 -0.48317179240E+03  0.48331673840E+03  0.00000000000E+00 0.  1.
        -15    1    1    2    0    0 -0.11185138810E+02  0.70683570787E+01  0.61252038325E+01  0.14688255614E+02  0.17770000000E+01 0.  1.
         15    1    1    2    0    0 -0.11815986184E+02 -0.34142928086E+02  0.15381658207E+02  0.39307889869E+02  0.17770000000E+01 0. -1.
</event>
<event>
 6   1  0.1826851E-04  0.5052314E+03  0.7546771E-02  0.9388179E-01
        -11   -1    0    0    0    0  0.00000000000E+00  0.00000000000E+00  0.50000000000E+03  0.50000000000E+03  0.00000000000E+00 0. -1.
         11   -1    0    0    0    0 -0.00000000000E+00 -0.00000000000E+00 -0.50000000000E+03  0.50000000000E+03  0.00000000000E+00 0. -1.
        -11    1    1    2    0    0  0.58711111149E+01  0.77585998759E+02  0.31350318479E+03  0.32301440220E+03  0.00000000000E+00 0. -1.
         11    1    1    2    0    0 -0.20678119370E+02 -0.46604633982E+02 -0.49213449160E+03  0.49476856646E+03  0.00000000000E+00 0. -1.
        -15    1    1    2    0    0  0.73254090566E+00 -0.12528324582E+02  0.60094749022E+02  0.61416871640E+02  0.17770000000E+01 0. -1.
         15    1    1    2    0    0  0.14074467349E+02 -0.18453040196E+02  0.11853655779E+03  0.12080015970E+03  0.17770000000E+01 0.  1.
</event>
<event>
 6   1  0.1826851E-04  0.5042477E+03  0.7546771E-02  0.9390355E-01
        -11   -1    0    0    0    0  0.00000000000E+00  0.00000000000E+00  0.50000000000E+03  0.50000000000E+03  0.00000000000E+00 0. -1.
         11   -1    0    0    0    0 -0.00000000000E+00 -0.00000000000E+00 -0.50000000000E+03  0.50000000000E+03  0.00000000000E+00 0. -1.
        -11    1    1    2    0    0  0.33331339776E+02 -0.26247363992E+02  0.49393367501E+03  0.49575233498E+03  0.00000000000E+00 0. -1.
         11    1    1    2    0    0 -0.54962670070E+00  0.12145915977E+02 -0.26363656950E+03  0.26391677882E+03  0.00000000000E+00 0. -1.
        -15    1    1    2    0    0 -0.20353119756E+02  0.23055352573E+02 -0.45833211345E+02  0.55223543505E+02  0.17770000000E+01 0.  1.
         15    1    1    2    0    0 -0.12428593319E+02 -0.89539045580E+01 -0.18446389417E+03  0.18510734269E+03  0.17770000000E+01 0. -1.
</event>
<event>
 6   1  0.1826851E-04  0.5000540E+03  0.7546771E-02  0.9399689E-01
        -11   -1    0    0    0    0  0.00000000000E+00  0.00000000000E+00  0.50000000000E+03  0.50000000000E+03  0.00000000000E+00 0.  1.
         11   -1    0    0    0    0 -0.00000000000E+00 -0.00000000000E+00 -0.50000000000E+03  0.50000000000E+03  0.00000000000E+00 0.  1.
        -11    1    1    2    0    0 -0.17019743488E+01 -0.12175795939E+01  0.93672783272E+02  0.93696155432E+02  0.00000000000E+00 0.  1.
         11    1    1    2    0    0 -0.31152669508E+00 -0.77645436622E+01 -0.49988563499E+03  0.49994603035E+03  0.00000000000E+00 0.  1.
        -15    1    1    2    0    0 -0.90692156719E-01  0.50762306784E+01  0.14218704916E+03  0.14228875929E+03  0.17770000000E+01 0. -1.
         15    1    1    2    0    0  0.21041932006E+01  0.39058925778E+01  0.26402580256E+03  0.26406905493E+03  0.17770000000E+01 0.  1.
</event>
<event>
 6   1  0.1826851E-04  0.5004992E+03  0.7546771E-02  0.9398693E-01
        -11   -1    0    0    0    0  0.00000000000E+00  0.00000000000E+00  0.50000000000E+03  0.50000000000E+03  0.00000000000E+00 0. -1.
         11   -1    0    0    0    0 -0.00000000000E+00 -0.00000000000E+00 -0.50000000000E+03  0.50000000000E+03  0.00000000000E+00 0. -1.
        -11    1    1    2    0    0  0.42020994663E+01  0.10947656924E+02  0.49936316585E+03  0.49950083107E+03  0.00000000000E+00 0. -1.
         11    1    1    2    0    0 -0.85351595638E+01  0.58390300785E+01 -0.30847578415E+03  0.30864907683E+03  0.00000000000E+00 0. -1.
        -15    1    1    2    0    0  0.29628402337E+01 -0.45603287908E+01 -0.93128188610E+02  0.93303763395E+02  0.17770000000E+01 0.  1.
         15    1    1    2    0    0  0.13702198639E+01 -0.12226358212E+02 -0.97759193095E+02  0.98546328705E+02  0.17770000000E+01 0. -1.
</event>
<event>
 6   1  0.1826851E-04  0.4891620E+03  0.7546771E-02  0.9424393E-01
        -11   -1    0    0    0    0  0.00000000000E+00  0.00000000000E+00  0.50000000000E+03  0.50000000000E+03  0.00000000000E+00 0. -1.
         11   -1    0    0    0    0 -0.00000000000E+00 -0.00000000000E+00 -0.50000000000E+03  0.50000000000E+03  0.00000000000E+00 0. -1.
        -11    1    1    2    0    0 -0.14521142440E+01 -0.10506237301E+02  0.48694591973E+03  0.48706141132E+03  0.00000000000E+00 0. -1.
         11    1    1    2    0    0  0.64818802945E+01 -0.31591177630E+01 -0.49132779406E+03  0.49138070375E+03  0.00000000000E+00 0. -1.
        -15    1    1    2    0    0 -0.38197068610E+01  0.12862079914E+01 -0.44020956872E+01  0.62274125398E+01  0.17770000000E+01 0.  1.
         15    1    1    2    0    0 -0.12100591894E+01  0.12379147073E+02  0.87839700210E+01  0.15330472394E+02  0.17770000000E+01 0. -1.
</event>
<event>
 6   1  0.1826851E-04  0.5062267E+03  0.7546771E-02  0.9385984E-01
        -11   -1    0    0    0    0  0.00000000000E+00  0.00000000000E+00  0.50000000000E+03  0.50000000000E+03  0.00000000000E+00 0. -1.
         11   -1    0    0    0    0 -0.00000000000E+00 -0.00000000000E+00 -0.50000000000E+03  0.50000000000E+03  0.00000000000E+00 0.  1.
        -11    1    1    2    0    0  0.18891502249E+02  0.11109568826E+01  0.49341048681E+03  0.49377325928E+03  0.00000000000E+00 0. -1.
         11    1    1    2    0    0  0.14467544917E+01 -0.13338613007E+02 -0.47475774327E+03  0.47494728811E+03  0.00000000000E+00 0.  1.
        -15    1    1    2    0    0 -0.15496908530E+02  0.69039659123E+01 -0.95804005752E+01  0.19564271606E+02  0.17770000000E+01 0. -1.
         15    1    1    2    0    0 -0.48413482104E+01  0.53236902122E+01 -0.90723429687E+01  0.11715181002E+02  0.17770000000E+01 0.  1.
</event>
<event>
 6   1  0.1826851E-04  0.5072752E+03  0.7546771E-02  0.9383677E-01
        -11   -1    0    0    0    0  0.00000000000E+00  0.00000000000E+00  0.50000000000E+03  0.50000000000E+03  0.00000000000E+00 0.  1.
         11   -1    0    0    0    0 -0.00000000000E+00 -0.00000000000E+00 -0.50000000000E+03  0.50000000000E+03  0.00000000000E+00 0. -1.
        -11    1    1    2    0    0 -0.13517163094E+02 -0.25656626831E+02  0.49187071345E+03  0.49272484709E+03  0.00000000000E+00 0.  1.
         11    1    1    2    0    0 -0.11940117198E+02 -0.32321401215E+02 -0.33980525773E+03  0.34154773101E+03  0.00000000000E+00 0. -1.
        -15    1    1    2    0    0  0.27129154144E+02  0.45153534596E+02 -0.11753853336E+03  0.12881497291E+03  0.17770000000E+01 0.  1.
         15    1    1    2    0    0 -0.16718738510E+01  0.12824493450E+02 -0.34526922352E+02  0.36912448991E+02  0.17770000000E+01 0. -1.
</event>
<event>
 6   1  0.1826851E-04  0.5008378E+03  0.7546771E-02  0.9397937E-01
        -11   -1    0    0    0    0  0.00000000000E+00  0.00000000000E+00  0.50000000000E+03  0.50000000000E+03  0.00000000000E+00 0. -1.
         11   -1    0    0    0    0 -0.00000000000E+00 -0.00000000000E+00 -0.50000000000E+03  0.50000000000E+03  0.00000000000E+00 0. -1.
        -11    1    1    2    0    0 -0.13928599067E+02 -0.12991585299E+02  0.31162257276E+03  0.31220412396E+03  0.00000000000E+00 0. -1.
         11    1    1    2    0    0  0.70257644231E+01  0.36851548066E+00 -0.49911263815E+03  0.49916222086E+03  0.00000000000E+00 0. -1.
        -15    1    1    2    0    0 -0.57748255363E+00 -0.28411802460E+01  0.25546426452E+02  0.25771756338E+02  0.17770000000E+01 0.  1.
         15    1    1    2    0    0  0.74803171971E+01  0.15464250065E+02  0.16194363894E+03  0.16286189885E+03  0.17770000000E+01 0. -1.
</event>
<event>
 6   1  0.1826851E-04  0.5001450E+03  0.7546771E-02  0.9399485E-01
        -11   -1    0    0    0    0  0.00000000000E+00  0.00000000000E+00  0.50000000000E+03  0.50000000000E+03  0.00000000000E+00 0.  1.
         11   -1    0    0    0    0 -0.00000000000E+00 -0.00000000000E+00 -0.50000000000E+03  0.50000000000E+03  0.00000000000E+00 0.  1.
        -11    1    1    2    0    0  0.48572672806E+01 -0.19457545992E+01  0.36001513505E+03  0.36005315784E+03  0.00000000000E+00 0.  1.
         11    1    1    2    0    0 -0.84027199066E+01 -0.62125822214E+00 -0.49978396359E+03  0.49985498090E+03  0.00000000000E+00 0.  1.
        -15    1    1    2    0    0  0.18968228813E+01  0.47105812472E+01  0.11302684044E+03  0.11315481387E+03  0.17770000000E+01 0.  1.
         15    1    1    2    0    0  0.16486297447E+01 -0.21435684259E+01  0.26741988108E+02  0.26937047400E+02  0.17770000000E+01 0. -1.
</event>
<event>
 6   1  0.1826851E-04  0.5097449E+03  0.7546771E-02  0.9378265E-01
        -11   -1    0    0    0    0  0.00000000000E+00  0.00000000000E+00  0.50000000000E+03  0.50000000000E+03  0.00000000000E+00 0.  1.
         11   -1    0    0    0    0 -0.00000000000E+00 -0.00000000000E+00 -0.50000000000E+03  0.50000000000E+03  0.00000000000E+00 0. -1.
        -11    1    1    2    0    0 -0.23414179836E+02  0.12121106017E+02  0.48954563624E+03  0.49025511215E+03  0.00000000000E+00 0.  1.
         11    1    1    2    0    0  0.35016454412E+01 -0.80824277907E+01 -0.45822025820E+03  0.45830491181E+03  0.00000000000E+00 0. -1.
        -15    1    1    2    0    0 -0.86091165859E+01 -0.17404413907E+01 -0.17390509885E+02  0.19563578090E+02  0.17770000000E+01 0. -1.
         15    1    1    2    0    0  0.28521650981E+02 -0.22982368360E+01 -0.13934868148E+02  0.31876397954E+02  0.17770000000E+01 0.  1.
</event>
<event>
 6   1  0.1826851E-04  0.5035814E+03  0.7546771E-02  0.9391831E-01
        -11   -1    0    0    0    0  0.00000000000E+00  0.00000000000E+00  0.50000000000E+03  0.50000000000E+03  0.00000000000E+00 0. -1.
         11   -1    0    0    0    0 -0.00000000000E+00 -0.00000000000E+00 -0.50000000000E+03  0.50000000000E+03  0.00000000000E+00 0. -1.
        -11    1    1    2    0    0  0.22760492713E+01  0.21886628250E+02  0.49593064253E+03  0.49641858053E+03  0.00000000000E+00 0. -1.
         11    1    1    2    0    0  0.82121858125E+01 -0.24171223478E+01 -0.44272844654E+03  0.44281120114E+03  0.00000000000E+00 0. -1.
        -15    1    1    2    0    0 -0.80370805528E+01 -0.20475302498E+02 -0.53183259941E+02  0.57579940458E+02  0.17770000000E+01 0. -1.
         15    1    1    2    0    0 -0.24511545310E+01  0.10057965958E+01 -0.18936042709E-01  0.31902778720E+01  0.17770000000E+01 0.  1.
</event>
<event>
 6   1  0.1826851E-04  0.4239184E+03  0.7546771E-02  0.9588255E-01
        -11   -1    0    0    0    0  0.00000000000E+00  0.00000000000E+00  0.50000000000E+03  0.50000000000E+03  0.00000000000E+00 0. -1.
         11   -1    0    0    0    0 -0.00000000000E+00 -0.00000000000E+00 -0.50000000000E+03  0.50000000000E+03  0.00000000000E+00 0. -1.
        -11    1    1    2    0    0  0.11224718530E+03 -0.78392512214E+02  0.40255458227E+03  0.42519996270E+03  0.00000000000E+00 0. -1.
         11    1    1    2    0    0 -0.72764233814E+02 -0.46585866456E+02 -0.42427494917E+03  0.43298280470E+03  0.00000000000E+00 0. -1.
        -15    1    1    2    0    0 -0.48639525469E+02  0.11487163166E+03  0.25951242680E+02  0.12742809707E+03  0.17770000000E+01 0. -1.
         15    1    1    2    0    0  0.91565739788E+01  0.10106747008E+02 -0.42308757785E+01  0.14389135518E+02  0.17770000000E+01 0.  1.
</event>
<event>
 6   1  0.1826851E-04  0.5013624E+03  0.7546771E-02  0.9396766E-01
        -11   -1    0    0    0    0  0.00000000000E+00  0.00000000000E+00  0.50000000000E+03  0.50000000000E+03  0.00000000000E+00 0.  1.
         11   -1    0    0    0    0 -0.00000000000E+00 -0.00000000000E+00 -0.50000000000E+03  0.50000000000E+03  0.00000000000E+00 0. -1.
        -11    1    1    2    0    0 -0.11941681096E+02  0.65069972141E+01  0.49845213480E+03  0.49863761937E+03  0.00000000000E+00 0.  1.
         11    1    1    2    0    0 -0.12896766353E+02 -0.55180318606E+01 -0.35497813478E+03  0.35525519198E+03  0.00000000000E+00 0. -1.
        -15    1    1    2    0    0  0.17076668471E+02 -0.16741363424E+01 -0.12162797612E+03  0.12284517753E+03  0.17770000000E+01 0. -1.
         15    1    1    2    0    0  0.77617789774E+01  0.68517098892E+00 -0.21846023897E+02  0.23262011119E+02  0.17770000000E+01 0.  1.
</event>
<event>
 6   1  0.1826851E-04  0.5000404E+03  0.7546771E-02  0.9399719E-01
        -11   -1    0    0    0    0  0.00000000000E+00  0.00000000000E+00  0.50000000000E+03  0.50000000000E+03  0.00000000000E+00 0. -1.
         11   -1    0    0    0    0 -0.00000000000E+00 -0.00000000000E+00 -0.50000000000E+03  0.50000000000E+03  0.00000000000E+00 0.  1.
        -11    1    1    2    0    0  0.38821356592E+01 -0.59389507881E+01  0.35772661545E+03  0.35779697248E+03  0.00000000000E+00 0. -1.
         11    1    1    2    0    0 -0.83922326829E+01  0.94536620391E+01 -0.49979971252E+03  0.49995955229E+03  0.00000000000E+00 0.  1.
        -15    1    1    2    0    0  0.16112554539E+01 -0.59705845247E+00  0.53762120169E+02  0.53818917836E+02  0.17770000000E+01 0. -1.
         15    1    1    2    0    0  0.28988415698E+01 -0.29176527986E+01  0.88310976902E+02  0.88424557396E+02  0.17770000000E+01 0.  1.
</event>
<event>
 6   1  0.1826851E-04  0.4881321E+03  0.7546771E-02  0.9426764E-01
        -11   -1    0    0    0    0  0.00000000000E+00  0.00000000000E+00  0.50000000000E+03  0.50000000000E+03  0.00000000000E+00 0. -1.
         11   -1    0    0    0    0 -0.00000000000E+00 -0.00000000000E+00 -0.50000000000E+03  0.50000000000E+03  0.00000000000E+00 0.  1.
        -11    1    1    2    0    0 -0.77045043329E+01  0.74398795707E+00  0.48291471077E+03  0.48297673938E+03  0.00000000000E+00 0. -1.
         11    1    1    2    0    0 -0.10072710557E+02 -0.61783195142E+01 -0.49337891331E+03  0.49352039799E+03  0.00000000000E+00 0.  1.
        -15    1    1    2    0    0  0.17938276737E+02  0.42136299752E+01  0.10608385089E+02  0.21336166785E+02  0.17770000000E+01 0. -1.
         15    1    1    2    0    0 -0.16106184738E+00  0.12207015820E+01 -0.14418255203E+00  0.21666958437E+01  0.17770000000E+01 0.  1.
</event>
<event>
 6   1  0.1826851E-04  0.5004054E+03  0.7546771E-02  0.9398903E-01
        -11   -1    0    0    0    0  0.00000000000E+00  0.00000000000E+00  0.50000000000E+03  0.50000000000E+03  0.00000000000E+00 0. -1.
         11   -1    0    0    0    0 -0.00000000000E+00 -0.00000000000E+00 -0.50000000000E+03  0.50000000000E+03  0.00000000000E+00 0. -1.
        -11    1    1    2    0    0  0.50637193756E+01 -0.17326944155E+02  0.27089336587E+03  0.27149416186E+03  0.00000000000E+00 0. -1.
         11    1    1    2    0    0  0.49519027171E+01  0.11040579556E+02 -0.49944801718E+03  0.49959457323E+03  0.00000000000E+00 0. -1.
        -15    1    1    2    0    0 -0.68134054874E+01  0.48609601078E+01  0.17721031042E+03  0.17741675026E+03  0.17770000000E+01 0.  1.
         15    1    1    2    0    0 -0.32022166053E+01  0.14254044905E+01  0.51344340887E+02  0.51494514652E+02  0.17770000000E+01 0.  1.
</event>
<event>
 6   1  0.1826851E-04  0.4158523E+03  0.7546771E-02  0.9610688E-01
        -11   -1    0    0    0    0  0.00000000000E+00  0.00000000000E+00  0.50000000000E+03  0.50000000000E+03  0.00000000000E+00 0. -1.
         11   -1    0    0    0    0 -0.00000000000E+00 -0.00000000000E+00 -0.50000000000E+03  0.50000000000E+03  0.00000000000E+00 0. -1.
        -11    1    1    2    0    0  0.18123351243E+02  0.93697050376E+02  0.43045434877E+03  0.44090649744E+03  0.00000000000E+00 0. -1.
         11    1    1    2    0    0 -0.14674248445E+02  0.59699725101E+01 -0.39710340436E+03  0.39741928475E+03  0.00000000000E+00 0. -1.
        -15    1    1    2    0    0  0.19857343021E+02 -0.77230139600E+01  0.37569373896E+02  0.43227012393E+02  0.17770000000E+01 0. -1.
         15    1    1    2    0    0 -0.23306445819E+02 -0.91944008926E+02 -0.70920318301E+02  0.11844720542E+03  0.17770000000E+01 0.  1.
</event>
<event>
 6   1  0.1826851E-04  0.4914154E+03  0.7546771E-02  0.9419226E-01
        -11   -1    0    0    0    0  0.00000000000E+00  0.00000000000E+00  0.50000000000E+03  0.50000000000E+03  0.00000000000E+00 0. -1.
         11   -1    0    0    0    0 -0.00000000000E+00 -0.00000000000E+00 -0.50000000000E+03  0.50000000000E+03  0.00000000000E+00 0.  1.
        -11    1    1    2    0    0 -0.27858776465E+01 -0.13573854072E+02  0.48773421369E+03  0.48793101340E+03  0.00000000000E+00 0. -1.
         11    1    1    2    0    0 -0.68086211119E+01  0.51663952684E+01 -0.49493507171E+03  0.49500886271E+03  0.00000000000E+00 0.  1.
        -15    1    1    2    0    0  0.42628855478E+01  0.37262924037E+00 -0.40455675502E+00  0.46510687925E+01  0.17770000000E+01 0. -1.
         15    1    1    2    0    0  0.53316132107E+01  0.80348295636E+01  0.76054147679E+01  0.12409055094E+02  0.17770000000E+01 0.  1.
</event>
<event>
 6   1  0.1826851E-04  0.5018672E+03  0.7546771E-02  0.9395641E-01
        -11   -1    0    0    0    0  0.00000000000E+00  0.00000000000E+00  0.50000000000E+03  0.50000000000E+03  0.00000000000E+00 0.  1.
         11   -1    0    0    0    0 -0.00000000000E+00 -0.00000000000E+00 -0.50000000000E+03  0.50000000000E+03  0.00000000000E+00 0. -1.
        -11    1    1    2    0    0 -0.90585161097E+00 -0.72345984851E+01  0.49807946893E+03  0.49813283103E+03  0.00000000000E+00 0.  1.
         11    1    1    2    0    0  0.66910407758E+01 -0.28201747967E+01 -0.47500432826E+03  0.47505982284E+03  0.00000000000E+00 0. -1.
        -15    1    1    2    0    0 -0.12256799209E+01  0.15642671741E+01 -0.10672144803E+02  0.11000073943E+02  0.17770000000E+01 0. -1.
         15    1    1    2    0    0 -0.45595092440E+01  0.84905061078E+01 -0.12402995867E+02  0.15807272187E+02  0.17770000000E+01 0.  1.
</event>
<event>
 6   1  0.1826851E-04  0.5005567E+03  0.7546771E-02  0.9398565E-01
        -11   -1    0    0    0    0  0.00000000000E+00  0.00000000000E+00  0.50000000000E+03  0.50000000000E+03  0.00000000000E+00 0. -1.
         11   -1    0    0    0    0 -0.00000000000E+00 -0.00000000000E+00 -0.50000000000E+03  0.50000000000E+03  0.00000000000E+00 0.  1.
        -11    1    1    2    0    0 -0.78791383231E+01 -0.35202900845E+01  0.29134467943E+03  0.29147246095E+03  0.00000000000E+00 0. -1.
         11    1    1    2    0    0 -0.60807094863E+01  0.55833862804E+01 -0.49937502183E+03  0.49944325169E+03  0.00000000000E+00 0.  1.
        -15    1    1    2    0    0  0.81788675172E+01  0.93242919572E+00  0.18195106647E+03  0.18214585259E+03  0.17770000000E+01 0. -1.
         15    1    1    2    0    0  0.57809802922E+01 -0.29955253916E+01  0.26079275931E+02  0.26938434765E+02  0.17770000000E+01 0.  1.
</event>
<event>
 6   1  0.1826851E-04  0.4719595E+03  0.7546771E-02  0.9464835E-01
        -11   -1    0    0    0    0  0.00000000000E+00  0.00000000000E+00  0.50000000000E+03  0.50000000000E+03  0.00000000000E+00 0.  1.
         11   -1    0    0    0    0 -0.00000000000E+00 -0.00000000000E+00 -0.50000000000E+03  0.50000000000E+03  0.00000000000E+00 0.  1.
        -11    1    1    2    0    0 -0.73881224704E+01 -0.45559444169E+02  0.46484067043E+03  0.46712642421E+03  0.00000000000E+00 0.  1.
         11    1    1    2    0    0 -0.89941877388E+01  0.16979140535E+02 -0.47705947855E+03  0.47744626158E+03  0.00000000000E+00 0.  1.
        -15    1    1    2    0    0 -0.14081340832E+02  0.13293441303E+02  0.80373786473E+01  0.21041789986E+02  0.17770000000E+01 0.  1.
         15    1    1    2    0    0  0.30463651041E+02  0.15286862331E+02  0.41814294713E+01  0.34385524223E+02  0.17770000000E+01 0. -1.
</event>
<event>
 6   1  0.1826851E-04  0.5056533E+03  0.7546771E-02  0.9387248E-01
        -11   -1    0    0    0    0  0.00000000000E+00  0.00000000000E+00  0.50000000000E+03  0.50000000000E+03  0.00000000000E+00 0.  1.
         11   -1    0    0    0    0 -0.00000000000E+00 -0.00000000000E+00 -0.50000000000E+03  0.50000000000E+03  0.00000000000E+00 0.  1.
        -11    1    1    2    0    0  0.80651718037E+00  0.12118014042E+02  0.48714704124E+03  0.48729840603E+03  0.00000000000E+00 0.  1.
         11    1    1    2    0    0  0.38439629712E+01 -0.61462788714E+01 -0.49429359042E+03  0.49434674706E+03  0.00000000000E+00 0.  1.
        -15    1    1    2    0    0 -0.72090334330E+00 -0.61312762895E+01  0.10888816832E+02  0.12642638632E+02  0.17770000000E+01 0. -1.
         15    1    1    2    0    0 -0.39295768082E+01  0.15954111935E+00 -0.37422676456E+01  0.57122082763E+01  0.17770000000E+01 0.  1.
</event>
<event>
 6   1  0.1826851E-04  0.5049508E+03  0.7546771E-02  0.9388800E-01
        -11   -1    0    0    0    0  0.00000000000E+00  0.00000000000E+00  0.50000000000E+03  0.50000000000E+03  0.00000000000E+00 0. -1.
         11   -1    0    0    0    0 -0.00000000000E+00 -0.00000000000E+00 -0.50000000000E+03  0.50000000000E+03  0.00000000000E+00 0. -1.
        -11    1    1    2    0    0 -0.73127936361E+01  0.35397131093E+02  0.34740569628E+03  0.34928090650E+03  0.00000000000E+00 0. -1.
         11    1    1    2    0    0  0.82500600211E+01  0.80781893299E+01 -0.49491455806E+03  0.49504923029E+03  0.00000000000E+00 0. -1.
        -15    1    1    2    0    0  0.26851298162E+01 -0.13320201296E+02  0.17929659289E+02  0.22566969134E+02  0.17770000000E+01 0.  1.
         15    1    1    2    0    0 -0.36223962012E+01 -0.30155119126E+02  0.12957920249E+03  0.13310289408E+03  0.17770000000E+01 0. -1.
</event>
<event>
 6   1  0.1826851E-04  0.5007283E+03  0.7546771E-02  0.9398182E-01
        -11   -1    0    0    0    0  0.00000000000E+00  0.00000000000E+00  0.50000000000E+03  0.50000000000E+03  0.00000000000E+00 0. -1.
         11   -1    0    0    0    0 -0.00000000000E+00 -0.00000000000E+00 -0.50000000000E+03  0.50000000000E+03  0.00000000000E+00 0.  1.
        -11    1    1    2    0    0  0.13543726694E+02  0.10968669568E+01  0.96275724834E+02  0.97229886569E+02  0.00000000000E+00 0. -1.
         11    1    1    2    0    0  0.14937161599E+01  0.14559254471E+02 -0.49905713042E+03  0.49927169207E+03  0.00000000000E+00 0.  1.
        -15    1    1    2    0    0 -0.15215348352E+02 -0.11050116966E+02  0.29521621116E+03  0.29581984547E+03  0.17770000000E+01 0. -1.
         15    1    1    2    0    0  0.17790549803E+00 -0.46060044615E+01  0.10756519442E+03  0.10767857590E+03  0.17770000000E+01 0.  1.
</event>
<event>
 6   1  0.1826851E-04  0.5007362E+03  0.7546771E-02  0.9398164E-01
        -11   -1    0    0    0    0  0.00000000000E+00  0.00000000000E+00  0.50000000000E+03  0.50000000000E+03  0.00000000000E+00 0.  1.
         11   -1    0    0    0    0 -0.00000000000E+00 -0.00000000000E+00 -0.50000000000E+03  0.50000000000E+03  0.00000000000E+00 0.  1.
        -11    1    1    2    0    0  0.38917090172E+01  0.29383749994E+02  0.49838314017E+03  0.49926376252E+03  0.00000000000E+00 0.  1.
         11    1    1    2    0    0  0.26466405561E+01  0.25865566202E+01 -0.20961842553E+03  0.20965108944E+03  0.00000000000E+00 0.  1.
        -15    1    1    2    0    0 -0.46648329793E+01 -0.32695808740E+02 -0.24282016288E+03  0.24506237126E+03  0.17770000000E+01 0.  1.
         15    1    1    2    0    0 -0.18735165940E+01  0.72550212562E+00 -0.45944551753E+02  0.46022776780E+02  0.17770000000E+01 0. -1.
</event>
<event>
 6   1  0.1826851E-04  0.4547324E+03  0.7546771E-02  0.9507217E-01
        -11   -1    0    0    0    0  0.00000000000E+00  0.00000000000E+00  0.50000000000E+03  0.50000000000E+03  0.00000000000E+00 0.  1.
         11   -1    0    0    0    0 -0.00000000000E+00 -0.00000000000E+00 -0.50000000000E+03  0.50000000000E+03  0.00000000000E+00 0.  1.
        -11    1    1    2    0    0 -0.54405509429E+02  0.26000546346E+02  0.43670126464E+03  0.44084462388E+03  0.00000000000E+00 0.  1.
         11    1    1    2    0    0 -0.74170600325E+01 -0.59344605570E+01 -0.47150831407E+03  0.47160398730E+03  0.00000000000E+00 0.  1.
        -15    1    1    2    0    0  0.59473286391E+02 -0.12940933610E+02  0.44315561278E+02  0.75309801867E+02  0.17770000000E+01 0. -1.
         15    1    1    2    0    0  0.23492830714E+01 -0.71251521791E+01 -0.95085118447E+01  0.12241586949E+02  0.17770000000E+01 0.  1.
</event>
<event>
 6   1  0.1826851E-04  0.5029223E+03  0.7546771E-02  0.9393295E-01
        -11   -1    0    0    0    0  0.00000000000E+00  0.00000000000E+00  0.50000000000E+03  0.50000000000E+03  0.00000000000E+00 0.  1.
         11   -1    0    0    0    0 -0.00000000000E+00 -0.00000000000E+00 -0.50000000000E+03  0.50000000000E+03  0.00000000000E+00 0. -1.
        -11    1    1    2    0    0 -0.33239348005E+01 -0.29245626663E+02  0.49620549462E+03  0.49707770833E+03  0.00000000000E+00 0.  1.
         11    1    1    2    0    0 -0.50796121197E+00  0.12506136413E+02 -0.39321180007E+03  0.39341095713E+03  0.00000000000E+00 0. -1.
        -15    1    1    2    0    0 -0.48580309607E+01 -0.84902011830E+01 -0.36801143935E+02  0.38120413231E+02  0.17770000000E+01 0.  1.
         15    1    1    2    0    0  0.86899269732E+01  0.25229691433E+02 -0.66192550616E+02  0.71390921318E+02  0.17770000000E+01 0. -1.
</event>
<event>
 6   1  0.1826851E-04  0.5010299E+03  0.7546771E-02  0.9397508E-01
        -11   -1    0    0    0    0  0.00000000000E+00  0.00000000000E+00  0.50000000000E+03  0.50000000000E+03  0.00000000000E+00 0.  1.
         11   -1    0    0    0    0 -0.00000000000E+00 -0.00000000000E+00 -0.50000000000E+03  0.50000000000E+03  0.00000000000E+00 0.  1.
        -11    1    1    2    0    0 -0.13366030924E+00 -0.98142470265E+01  0.49887356408E+03  0.49897010957E+03  0.00000000000E+00 0.  1.
         11    1    1    2    0    0  0.75202625923E+01 -0.75748473960E+01 -0.39219285849E+03  0.39233808242E+03  0.00000000000E+00 0.  1.
        -15    1    1    2    0    0 -0.61131975047E+01  0.65983776842E+01 -0.35514348724E+02  0.36678828582E+02  0.17770000000E+01 0.  1.
         15    1    1    2    0    0 -0.12734047783E+01  0.10790716738E+02 -0.71166356862E+02  0.72012979424E+02  0.17770000000E+01 0. -1.
</event>
<event>
 6   1  0.1826851E-04  0.5005199E+03  0.7546771E-02  0.9398647E-01
        -11   -1    0    0    0    0  0.00000000000E+00  0.00000000000E+00  0.50000000000E+03  0.50000000000E+03  0.00000000000E+00 0. -1.
         11   -1    0    0    0    0 -0.00000000000E+00 -0.00000000000E+00 -0.50000000000E+03  0.50000000000E+03  0.00000000000E+00 0. -1.
        -11    1    1    2    0    0  0.41443364399E+01  0.68765048151E+01  0.49941556567E+03  0.49948009877E+03  0.00000000000E+00 0. -1.
         11    1    1    2    0    0 -0.59444172795E+01 -0.24169375555E+01 -0.47044886826E+03  0.47049263047E+03  0.00000000000E+00 0. -1.
        -15    1    1    2    0    0  0.60798162337E+00 -0.27657958067E+01 -0.57542726734E+01  0.66549719082E+01  0.17770000000E+01 0. -1.
         15    1    1    2    0    0  0.11920992162E+01 -0.16937714529E+01 -0.23212424733E+02  0.23372298844E+02  0.17770000000E+01 0.  1.
</event>
<event>
 6   1  0.1826851E-04  0.5000540E+03  0.7546771E-02  0.9399689E-01
        -11   -1    0    0    0    0  0.00000000000E+00  0.00000000000E+00  0.50000000000E+03  0.50000000000E+03  0.00000000000E+00 0.  1.
         11   -1    0    0    0    0 -0.00000000000E+00 -0.00000000000E+00 -0.50000000000E+03  0.50000000000E+03  0.00000000000E+00 0.  1.
        -11    1    1    2    0    0  0.44863882181E+01  0.35713302507E+01  0.85746388364E+02  0.85937914778E+02  0.00000000000E+00 0.  1.
         11    1    1    2    0    0 -0.98556809517E+01 -0.10543226615E+02 -0.49973764662E+03  0.49994600661E+03  0.00000000000E+00 0.  1.
        -15    1    1    2    0    0  0.16334107418E+01  0.20775156041E+01  0.80030045523E+02  0.80093383104E+02  0.17770000000E+01 0.  1.
         15    1    1    2    0    0  0.37358819918E+01  0.48943807600E+01  0.33396121273E+03  0.33402269551E+03  0.17770000000E+01 0.  1.
</event>
<event>
 6   1  0.1826851E-04  0.4668405E+03  0.7546771E-02  0.9477225E-01
        -11   -1    0    0    0    0  0.00000000000E+00  0.00000000000E+00  0.50000000000E+03  0.50000000000E+03  0.00000000000E+00 0.  1.
         11   -1    0    0    0    0 -0.00000000000E+00 -0.00000000000E+00 -0.50000000000E+03  0.50000000000E+03  0.00000000000E+00 0.  1.
        -11    1    1    2    0    0 -0.22171929944E+02  0.18178779090E+02  0.47560918435E+03  0.47647262117E+03  0.00000000000E+00 0.  1.
         11    1    1    2    0    0 -0.28116057687E+02  0.10390549297E+02 -0.45818081534E+03  0.45916025063E+03  0.00000000000E+00 0.  1.
        -15    1    1    2    0    0  0.90486586380E+01 -0.16392920361E+02 -0.71408392651E+01  0.20118533135E+02  0.17770000000E+01 0. -1.
         15    1    1    2    0    0  0.41239328992E+02 -0.12176408027E+02 -0.10287529742E+02  0.44248595066E+02  0.17770000000E+01 0.  1.
</event>
<event>
 6   1  0.1826851E-04  0.5086435E+03  0.7546771E-02  0.9380674E-01
        -11   -1    0    0    0    0  0.00000000000E+00  0.00000000000E+00  0.50000000000E+03  0.50000000000E+03  0.00000000000E+00 0. -1.
         11   -1    0    0    0    0 -0.00000000000E+00 -0.00000000000E+00 -0.50000000000E+03  0.50000000000E+03  0.00000000000E+00 0.  1.
        -11    1    1    2    0    0  0.35855662848E+02 -0.17465743027E+02  0.10426779668E+03  0.11163536251E+03  0.00000000000E+00 0. -1.
         11    1    1    2    0    0 -0.82432986642E+01  0.81365214775E+01 -0.49122001288E+03  0.49135654673E+03  0.00000000000E+00 0.  1.
        -15    1    1    2    0    0 -0.29879760246E+02  0.16662251628E+02  0.38759252537E+03  0.38910352627E+03  0.17770000000E+01 0. -1.
         15    1    1    2    0    0  0.22673960623E+01 -0.73330300782E+01 -0.64030916949E+00  0.79045644955E+01  0.17770000000E+01 0.  1.
</event>
<event>
 6   1  0.1826851E-04  0.5001161E+03  0.7546771E-02  0.9399550E-01
        -11   -1    0    0    0    0  0.00000000000E+00  0.00000000000E+00  0.50000000000E+03  0.50000000000E+03  0.00000000000E+00 0. -1.
         11   -1    0    0    0    0 -0.00000000000E+00 -0.00000000000E+00 -0.50000000000E+03  0.50000000000E+03  0.00000000000E+00 0.  1.
        -11    1    1    2    0    0 -0.17992809638E+01 -0.68543572243E+01  0.49983370518E+03  0.49988393899E+03  0.00000000000E+00 0. -1.
         11    1    1    2    0    0  0.24504862992E+01  0.50139834806E+01 -0.33278834936E+03  0.33283513994E+03  0.00000000000E+00 0.  1.
        -15    1    1    2    0    0 -0.25734013896E+01 -0.21000353166E+01 -0.98807171398E+02  0.98878953229E+02  0.17770000000E+01 0. -1.
         15    1    1    2    0    0  0.19221960542E+01  0.39404090603E+01 -0.68238184426E+02  0.68401967837E+02  0.17770000000E+01 0.  1.
</event>
<event>
 6   1  0.1826851E-04  0.5087578E+03  0.7546771E-02  0.9380424E-01
        -11   -1    0    0    0    0  0.00000000000E+00  0.00000000000E+00  0.50000000000E+03  0.50000000000E+03  0.00000000000E+00 0. -1.
         11   -1    0    0    0    0 -0.00000000000E+00 -0.00000000000E+00 -0.50000000000E+03  0.50000000000E+03  0.00000000000E+00 0.  1.
        -11    1    1    2    0    0  0.94478059123E+01  0.20748512708E+02  0.47280900271E+03  0.47335833663E+03  0.00000000000E+00 0. -1.
         11    1    1    2    0    0  0.13174488555E+02 -0.40940687596E+01 -0.49104846666E+03  0.49124222656E+03  0.00000000000E+00 0.  1.
        -15    1    1    2    0    0 -0.19493836547E+02 -0.17089103514E+02  0.18287927339E+02  0.31775039537E+02  0.17770000000E+01 0.  1.
         15    1    1    2    0    0 -0.31284579201E+01  0.43465956497E+00 -0.48463388400E-01  0.36243972733E+01  0.17770000000E+01 0. -1.
</event>
<event>
 6   1  0.1826851E-04  0.5002557E+03  0.7546771E-02  0.9399238E-01
        -11   -1    0    0    0    0  0.00000000000E+00  0.00000000000E+00  0.50000000000E+03  0.50000000000E+03  0.00000000000E+00 0.  1.
         11   -1    0    0    0    0 -0.00000000000E+00 -0.00000000000E+00 -0.50000000000E+03  0.50000000000E+03  0.00000000000E+00 0. -1.
        -11    1    1    2    0    0  0.15010538125E+02  0.51456438977E+01  0.49949232507E+03  0.49974431133E+03  0.00000000000E+00 0.  1.
         11    1    1    2    0    0 -0.88234262763E+01 -0.76584209643E+01 -0.12900198310E+03  0.12952998072E+03  0.00000000000E+00 0. -1.
        -15    1    1    2    0    0 -0.36416424622E+01 -0.24442916662E+01 -0.28324651955E+03  0.28328604747E+03  0.17770000000E+01 0. -1.
         15    1    1    2    0    0 -0.25454693870E+01  0.49570687328E+01 -0.87243822423E+02  0.87439660480E+02  0.17770000000E+01 0.  1.
</event>
<event>
 6   1  0.1826851E-04  0.5008692E+03  0.7546771E-02  0.9397867E-01
        -11   -1    0    0    0    0  0.00000000000E+00  0.00000000000E+00  0.50000000000E+03  0.50000000000E+03  0.00000000000E+00 0.  1.
         11   -1    0    0    0    0 -0.00000000000E+00 -0.00000000000E+00 -0.50000000000E+03  0.50000000000E+03  0.00000000000E+00 0. -1.
        -11    1    1    2    0    0  0.20734439717E+01 -0.31736648164E+02  0.19366391897E+03  0.19625806357E+03  0.00000000000E+00 0.  1.
         11    1    1    2    0    0 -0.15205824551E+01  0.30037951748E+02 -0.49822381723E+03  0.49913080728E+03  0.00000000000E+00 0. -1.
        -15    1    1    2    0    0  0.16806714371E+01  0.85112643873E+00  0.15437525896E+03  0.15439697983E+03  0.17770000000E+01 0. -1.
         15    1    1    2    0    0 -0.22335329537E+01  0.84756997783E+00  0.15018463931E+03  0.15021414932E+03  0.17770000000E+01 0.  1.
</event>
<event>
 6   1  0.1826851E-04  0.5063632E+03  0.7546771E-02  0.9385683E-01
        -11   -1    0    0    0    0  0.00000000000E+00  0.00000000000E+00  0.50000000000E+03  0.50000000000E+03  0.00000000000E+00 0.  1.
         11   -1    0    0    0    0 -0.00000000000E+00 -0.00000000000E+00 -0.50000000000E+03  0.50000000000E+03  0.00000000000E+00 0.  1.
        -11    1    1    2    0    0  0.54102206891E+01 -0.16148586905E+02  0.46455859782E+03  0.46487066820E+03  0.00000000000E+00 0.  1.
         11    1    1    2    0    0  0.28889925430E+01 -0.11302186571E+02 -0.49349895562E+03  0.49363681477E+03  0.00000000000E+00 0.  1.
        -15    1    1    2    0    0 -0.63008420462E+01  0.22084583356E+02  0.26242644839E+02  0.34917954832E+02  0.17770000000E+01 0. -1.
         15    1    1    2    0    0 -0.19983711860E+01  0.53661901192E+01  0.26977129647E+01  0.65745621932E+01  0.17770000000E+01 0.  1.
</event>
<event>
 6   1  0.1826851E-04  0.5001928E+03  0.7546771E-02  0.9399378E-01
        -11   -1    0    0    0    0  0.00000000000E+00  0.00000000000E+00  0.50000000000E+03  0.50000000000E+03  0.00000000000E+00 0.  1.
         11   -1    0    0    0    0 -0.00000000000E+00 -0.00000000000E+00 -0.50000000000E+03  0.50000000000E+03  0.00000000000E+00 0. -1.
        -11    1    1    2    0    0 -0.16706048525E+02 -0.28168844696E+01  0.49952001013E+03  0.49980723025E+03  0.00000000000E+00 0.  1.
         11    1    1    2    0    0  0.17533436460E+01 -0.29120786633E+01 -0.20996316327E+03  0.20999067681E+03  0.00000000000E+00 0. -1.
        -15    1    1    2    0    0  0.94771288517E+00 -0.89690968004E+00 -0.11570516702E+02  0.11778675326E+02  0.17770000000E+01 0. -1.
         15    1    1    2    0    0  0.14004991993E+02  0.66258728130E+01 -0.27798633015E+03  0.27842341761E+03  0.17770000000E+01 0. -1.
</event>
<event>
 6   1  0.1826851E-04  0.5024174E+03  0.7546771E-02  0.9394417E-01
        -11   -1    0    0    0    0  0.00000000000E+00  0.00000000000E+00  0.50000000000E+03  0.50000000000E+03  0.00000000000E+00 0. -1.
         11   -1    0    0    0    0 -0.00000000000E+00 -0.00000000000E+00 -0.50000000000E+03  0.50000000000E+03  0.00000000000E+00 0.  1.
        -11    1    1    2    0    0 -0.11450219448E+02 -0.47563414028E+01  0.49742809321E+03  0.49758259438E+03  0.00000000000E+00 0. -1.
         11    1    1    2    0    0 -0.95786631386E+01  0.46116984473E+01 -0.45035662592E+03  0.45048208517E+03  0.00000000000E+00 0.  1.
        -15    1    1    2    0    0  0.36156627667E+01  0.13983724813E+01 -0.11631557048E+02  0.12388676733E+02  0.17770000000E+01 0. -1.
         15    1    1    2    0    0  0.17413219820E+02 -0.12537295258E+01 -0.35439910247E+02  0.39546643720E+02  0.17770000000E+01 0.  1.
</event>
<event>
 6   1  0.1826851E-04  0.5156567E+03  0.7546771E-02  0.9365442E-01
        -11   -1    0    0    0    0  0.00000000000E+00  0.00000000000E+00  0.50000000000E+03  0.50000000000E+03  0.00000000000E+00 0. -1.
         11   -1    0    0    0    0 -0.00000000000E+00 -0.00000000000E+00 -0.50000000000E+03  0.50000000000E+03  0.00000000000E+00 0.  1.
        -11    1    1    2    0    0  0.30918059420E+02 -0.53863677119E+02  0.48034487176E+03  0.48434328522E+03  0.00000000000E+00 0. -1.
         11    1    1    2    0    0  0.95239102637E+01 -0.28587937966E+01 -0.42759947503E+03  0.42771507877E+03  0.00000000000E+00 0.  1.
        -15    1    1    2    0    0 -0.35197050336E+01  0.25380889459E+01 -0.46670230411E+01  0.66158183233E+01  0.17770000000E+01 0.  1.
         15    1    1    2    0    0 -0.36922264650E+02  0.54184381969E+02 -0.48078373691E+02  0.81325817685E+02  0.17770000000E+01 0. -1.
</event>
<event>
 6   1  0.1826851E-04  0.5182243E+03  0.7546771E-02  0.9359930E-01
        -11   -1    0    0    0    0  0.00000000000E+00  0.00000000000E+00  0.50000000000E+03  0.50000000000E+03  0.00000000000E+00 0. -1.
         11   -1    0    0    0    0 -0.00000000000E+00 -0.00000000000E+00 -0.50000000000E+03  0.50000000000E+03  0.00000000000E+00 0.  1.
        -11    1    1    2    0    0 -0.18921448417E+02 -0.31661617517E+02  0.38221035211E+03  0.38398597955E+03  0.00000000000E+00 0. -1.
         11    1    1    2    0    0 -0.21305076814E+02 -0.89519952953E+01 -0.48122116344E+03  0.48177572859E+03  0.00000000000E+00 0.  1.
        -15    1    1    2    0    0  0.40571682617E+02  0.35287024587E+02  0.10968702731E+03  0.12217052519E+03  0.17770000000E+01 0.  1.
         15    1    1    2    0    0 -0.34515738527E+00  0.53265882248E+01 -0.10676215978E+02  0.12067766668E+02  0.17770000000E+01 0. -1.
</event>
<event>
 6   1  0.1826851E-04  0.5060715E+03  0.7546771E-02  0.9386326E-01
        -11   -1    0    0    0    0  0.00000000000E+00  0.00000000000E+00  0.50000000000E+03  0.50000000000E+03  0.00000000000E+00 0.  1.
         11   -1    0    0    0    0 -0.00000000000E+00 -0.00000000000E+00 -0.50000000000E+03  0.50000000000E+03  0.00000000000E+00 0. -1.
        -11    1    1    2    0    0 -0.42948953992E+00 -0.20377722274E+02  0.46122071635E+03  0.46167086243E+03  0.00000000000E+00 0.  1.
         11    1    1    2    0    0 -0.91710229789E+01  0.57536659969E+00 -0.49384297759E+03  0.49392846165E+03  0.00000000000E+00 0. -1.
        -15    1    1    2    0    0  0.15968358174E+02  0.13889526997E+02  0.22433830240E+02  0.30892424496E+02  0.17770000000E+01 0.  1.
         15    1    1    2    0    0 -0.63678456556E+01  0.59128286767E+01  0.10188431001E+02  0.13508251423E+02  0.17770000000E+01 0. -1.
</event>
<event>
 6   1  0.1826851E-04  0.5017812E+03  0.7546771E-02  0.9395833E-01
        -11   -1    0    0    0    0  0.00000000000E+00  0.00000000000E+00  0.50000000000E+03  0.50000000000E+03  0.00000000000E+00 0. -1.
         11   -1    0    0    0    0 -0.00000000000E+00 -0.00000000000E+00 -0.50000000000E+03  0.50000000000E+03  0.00000000000E+00 0.  1.
        -11    1    1    2    0    0  0.58001629790E+01  0.11431031817E+02  0.45696979354E+03  0.45714954073E+03  0.00000000000E+00 0. -1.
         11    1    1    2    0    0 -0.47172998799E+01  0.48744031571E+01 -0.49817257827E+03  0.49821875764E+03  0.00000000000E+00 0.  1.
        -15    1    1    2    0    0 -0.19107930172E+01 -0.95099457491E+01  0.20378719911E+02  0.22639349644E+02  0.17770000000E+01 0. -1.
         15    1    1    2    0    0  0.82792991817E+00 -0.67954892247E+01  0.20824064810E+02  0.21992351988E+02  0.17770000000E+01 0.  1.
</event>
<event>
 6   1  0.1826851E-04  0.5002048E+03  0.7546771E-02  0.9399351E-01
        -11   -1    0    0    0    0  0.00000000000E+00  0.00000000000E+00  0.50000000000E+03  0.50000000000E+03  0.00000000000E+00 0.  1.
         11   -1    0    0    0    0 -0.00000000000E+00 -0.00000000000E+00 -0.50000000000E+03  0.50000000000E+03  0.00000000000E+00 0.  1.
        -11    1    1    2    0    0  0.16879779398E+02 -0.10152128474E+02  0.49940685436E+03  0.49979515689E+03  0.00000000000E+00 0.  1.
         11    1    1    2    0    0 -0.43186253781E+01  0.20917816235E+01 -0.28148042326E+03  0.28152132203E+03  0.00000000000E+00 0.  1.
        -15    1    1    2    0    0 -0.86393470571E+01  0.63828260091E+01 -0.87427507137E+02  0.88102812206E+02  0.17770000000E+01 0. -1.
         15    1    1    2    0    0 -0.39218069631E+01  0.16775208418E+01 -0.13049892396E+03  0.13058070888E+03  0.17770000000E+01 0.  1.
</event>
<event>
 6   1  0.1826851E-04  0.5017910E+03  0.7546771E-02  0.9395811E-01
        -11   -1    0    0    0    0  0.00000000000E+00  0.00000000000E+00  0.50000000000E+03  0.50000000000E+03  0.00000000000E+00 0. -1.
         11   -1    0    0    0    0 -0.00000000000E+00 -0.00000000000E+00 -0.50000000000E+03  0.50000000000E+03  0.00000000000E+00 0. -1.
        -11    1    1    2    0    0 -0.15196277992E+02  0.23745112773E+02  0.49741078272E+03  0.49820903646E+03  0.00000000000E+00 0. -1.
         11    1    1    2    0    0 -0.37004529331E+01  0.52327584267E+01 -0.32476960595E+03  0.32483283711E+03  0.00000000000E+00 0. -1.
        -15    1    1    2    0    0  0.15497639385E+01 -0.26679729137E+01 -0.56261958055E+02  0.56374511092E+02  0.17770000000E+01 0.  1.
         15    1    1    2    0    0  0.17346966986E+02 -0.26309898286E+02 -0.11637921871E+03  0.12058361534E+03  0.17770000000E+01 0.  1.
</event>
<event>
 6   1  0.1826851E-04  0.5040099E+03  0.7546771E-02  0.9390882E-01
        -11   -1    0    0    0    0  0.00000000000E+00  0.00000000000E+00  0.50000000000E+03  0.50000000000E+03  0.00000000000E+00 0.  1.
         11   -1    0    0    0    0 -0.00000000000E+00 -0.00000000000E+00 -0.50000000000E+03  0.50000000000E+03  0.00000000000E+00 0.  1.
        -11    1    1    2    0    0  0.76087333170E+00 -0.15063949236E+02  0.49576071672E+03  0.49599011053E+03  0.00000000000E+00 0.  1.
         11    1    1    2    0    0  0.12988282523E+01 -0.63736320867E+01 -0.43469486586E+03  0.43474352962E+03  0.00000000000E+00 0.  1.
        -15    1    1    2    0    0 -0.29054365195E+01  0.12514053854E+02 -0.76140859626E+01  0.15039120296E+02  0.17770000000E+01 0. -1.
         15    1    1    2    0    0  0.84573493548E+00  0.89235274680E+01 -0.53451764905E+02  0.54227239562E+02  0.17770000000E+01 0.  1.
</event>
<event>
 6   1  0.1826851E-04  0.5003639E+03  0.7546771E-02  0.9398996E-01
        -11   -1    0    0    0    0  0.00000000000E+00  0.00000000000E+00  0.50000000000E+03  0.50000000000E+03  0.00000000000E+00 0.  1.
         11   -1    0    0    0    0 -0.00000000000E+00 -0.00000000000E+00 -0.50000000000E+03  0.50000000000E+03  0.00000000000E+00 0.  1.
        -11    1    1    2    0    0  0.10978844853E+02  0.42825591130E+01  0.43634311846E+03  0.43650222494E+03  0.00000000000E+00 0.  1.
         11    1    1    2    0    0 -0.44331939805E+01 -0.86810372793E+01 -0.49954098112E+03  0.49963607299E+03  0.00000000000E+00 0.  1.
        -15    1    1    2    0    0 -0.15092227302E+01  0.26763986825E+01  0.26728720488E+02  0.26963365722E+02  0.17770000000E+01 0.  1.
         15    1    1    2    0    0 -0.50364281427E+01  0.17220794838E+01  0.36469142167E+02  0.36898336353E+02  0.17770000000E+01 0. -1.
</event>
<event>
 6   1  0.1826851E-04  0.5038673E+03  0.7546771E-02  0.9391198E-01
        -11   -1    0    0    0    0  0.00000000000E+00  0.00000000000E+00  0.50000000000E+03  0.50000000000E+03  0.00000000000E+00 0. -1.
         11   -1    0    0    0    0 -0.00000000000E+00 -0.00000000000E+00 -0.50000000000E+03  0.50000000000E+03  0.00000000000E+00 0. -1.
        -11    1    1    2    0    0  0.36393101966E+01  0.15494669184E+02  0.48674842059E+03  0.48700857723E+03  0.00000000000E+00 0. -1.
         11    1    1    2    0    0 -0.22036223598E+01 -0.78051813985E+01 -0.49606638561E+03  0.49613267957E+03  0.00000000000E+00 0. -1.
        -15    1    1    2    0    0  0.14937533119E+00 -0.54721346797E+01 -0.11739556805E+01  0.58738804791E+01  0.17770000000E+01 0.  1.
         15    1    1    2    0    0 -0.15850631680E+01 -0.22173531055E+01  0.10491920696E+02  0.10984862718E+02  0.17770000000E+01 0.  1.
</event>
<event>
 6   1  0.1826851E-04  0.5004885E+03  0.7546771E-02  0.9398717E-01
        -11   -1    0    0    0    0  0.00000000000E+00  0.00000000000E+00  0.50000000000E+03  0.50000000000E+03  0.00000000000E+00 0.  1.
         11   -1    0    0    0    0 -0.00000000000E+00 -0.00000000000E+00 -0.50000000000E+03  0.50000000000E+03  0.00000000000E+00 0. -1.
        -11    1    1    2    0    0 -0.37534547561E+01  0.17382670442E+02  0.29373047472E+03  0.29426830858E+03  0.00000000000E+00 0.  1.
         11    1    1    2    0    0  0.31024150958E+01 -0.60762721388E+01 -0.49946487787E+03  0.49951147163E+03  0.00000000000E+00 0. -1.
        -15    1    1    2    0    0 -0.32061501046E+01 -0.44886691097E+01  0.65457641177E+02  0.65713682489E+02  0.17770000000E+01 0. -1.
         15    1    1    2    0    0  0.38571897649E+01 -0.68177291935E+01  0.14027676197E+03  0.14050653730E+03  0.17770000000E+01 0.  1.
</event>
<event>
 6   1  0.1826851E-04  0.5006654E+03  0.7546771E-02  0.9398322E-01
        -11   -1    0    0    0    0  0.00000000000E+00  0.00000000000E+00  0.50000000000E+03  0.50000000000E+03  0.00000000000E+00 0. -1.
         11   -1    0    0    0    0 -0.00000000000E+00 -0.00000000000E+00 -0.50000000000E+03  0.50000000000E+03  0.00000000000E+00 0. -1.
        -11    1    1    2    0    0  0.87691148224E+01  0.48877172114E+01  0.49923371665E+03  0.49933464830E+03  0.00000000000E+00 0. -1.
         11    1    1    2    0    0 -0.95896304837E+00  0.88347699931E+01 -0.29536190306E+03  0.29549556097E+03  0.00000000000E+00 0. -1.
        -15    1    1    2    0    0 -0.45401176223E+01  0.27534859698E+01 -0.33730314489E+02  0.34191902514E+02  0.17770000000E+01 0.  1.
         15    1    1    2    0    0 -0.32700341518E+01 -0.16475973174E+02 -0.17014149910E+03  0.17097788822E+03  0.17770000000E+01 0. -1.
</event>
<event>
 6   1  0.1826851E-04  0.4954860E+03  0.7546771E-02  0.9409967E-01
        -11   -1    0    0    0    0  0.00000000000E+00  0.00000000000E+00  0.50000000000E+03  0.50000000000E+03  0.00000000000E+00 0. -1.
         11   -1    0    0    0    0 -0.00000000000E+00 -0.00000000000E+00 -0.50000000000E+03  0.50000000000E+03  0.00000000000E+00 0.  1.
        -11    1    1    2    0    0  0.18448302658E+01  0.97341267614E+01  0.49085122270E+01  0.11056677385E+02  0.00000000000E+00 0. -1.
         11    1    1    2    0    0 -0.13629402767E+02  0.98050237361E+01 -0.49546835828E+03  0.49575275406E+03  0.00000000000E+00 0.  1.
        -15    1    1    2    0    0  0.16622374822E+02  0.13122807520E+01  0.39009931839E+03  0.39045955151E+03  0.17770000000E+01 0. -1.
         15    1    1    2    0    0 -0.48378023207E+01 -0.20851431249E+02  0.10046052766E+03  0.10273101704E+03  0.17770000000E+01 0.  1.
</event>
<event>
 6   1  0.1826851E-04  0.3684194E+03  0.7546771E-02  0.9754608E-01
        -11   -1    0    0    0    0  0.00000000000E+00  0.00000000000E+00  0.50000000000E+03  0.50000000000E+03  0.00000000000E+00 0.  1.
         11   -1    0    0    0    0 -0.00000000000E+00 -0.00000000000E+00 -0.50000000000E+03  0.50000000000E+03  0.00000000000E+00 0.  1.
        -11    1    1    2    0    0  0.87753991902E+02  0.45384477860E+02  0.44738351528E+03  0.45816211506E+03  0.00000000000E+00 0.  1.
         11    1    1    2    0    0  0.50254821735E+02  0.46696130745E+02 -0.30311312711E+03  0.31077909126E+03  0.00000000000E+00 0.  1.
        -15    1    1    2    0    0 -0.26677305516E+02 -0.37192467911E+02 -0.76098442856E+01  0.46433024433E+02  0.17770000000E+01 0. -1.
         15    1    1    2    0    0 -0.11133150812E+03 -0.54888140694E+02 -0.13666054389E+03  0.18462576926E+03  0.17770000000E+01 0.  1.
</event>
<event>
 6   1  0.1826851E-04  0.5056602E+03  0.7546771E-02  0.9387233E-01
        -11   -1    0    0    0    0  0.00000000000E+00  0.00000000000E+00  0.50000000000E+03  0.50000000000E+03  0.00000000000E+00 0. -1.
         11   -1    0    0    0    0 -0.00000000000E+00 -0.00000000000E+00 -0.50000000000E+03  0.50000000000E+03  0.00000000000E+00 0.  1.
        -11    1    1    2    0    0 -0.71500970687E+01  0.75340920055E+01  0.48411414445E+03  0.48422555828E+03  0.00000000000E+00 0. -1.
         11    1    1    2    0    0  0.45274974497E+01  0.51076654972E+01 -0.49429264860E+03  0.49433977075E+03  0.00000000000E+00 0.  1.
        -15    1    1    2    0    0 -0.37417854940E+01 -0.43393171302E+01  0.89195011999E+01  0.10749226135E+02  0.17770000000E+01 0. -1.
         15    1    1    2    0    0  0.63643851131E+01 -0.83024403725E+01  0.12590029509E+01  0.10685444840E+02  0.17770000000E+01 0.  1.
</event>
<event>
 6   1  0.1826851E-04  0.5062208E+03  0.7546771E-02  0.9385997E-01
        -11   -1    0    0    0    0  0.00000000000E+00  0.00000000000E+00  0.50000000000E+03  0.50000000000E+03  0.00000000000E+00 0. -1.
         11   -1    0    0    0    0 -0.00000000000E+00 -0.00000000000E+00 -0.50000000000E+03  0.50000000000E+03  0.00000000000E+00 0. -1.
        -11    1    1    2    0    0  0.19435465954E+02 -0.71529380564E+01  0.47322240534E+03  0.47367536011E+03  0.00000000000E+00 0. -1.
         11    1    1    2    0    0 -0.77865928547E+01 -0.40310600344E+01 -0.49370139198E+03  0.49377924715E+03  0.00000000000E+00 0. -1.
        -15    1    1    2    0    0  0.14471370515E+01  0.97469584670E+01  0.15285595500E+02  0.18273055678E+02  0.17770000000E+01 0. -1.
         15    1    1    2    0    0 -0.13096010151E+02  0.14370396238E+01  0.51933911340E+01  0.14272337062E+02  0.17770000000E+01 0.  1.
</event>
<event>
 6   1  0.1826851E-04  0.5001636E+03  0.7546771E-02  0.9399444E-01
        -11   -1    0    0    0    0  0.00000000000E+00  0.00000000000E+00  0.50000000000E+03  0.50000000000E+03  0.00000000000E+00 0.  1.
         11   -1    0    0    0    0 -0.00000000000E+00 -0.00000000000E+00 -0.50000000000E+03  0.50000000000E+03  0.00000000000E+00 0.  1.
        -11    1    1    2    0    0 -0.10342364829E+02  0.10156294544E+02  0.25882632196E+03  0.25923190345E+03  0.00000000000E+00 0.  1.
         11    1    1    2    0    0  0.63172791746E+01 -0.11164268201E+02 -0.49967180423E+03  0.49983643409E+03  0.00000000000E+00 0.  1.
        -15    1    1    2    0    0  0.13769527706E+01  0.11619206764E+01  0.54380931283E+02  0.54439778423E+02  0.17770000000E+01 0.  1.
         15    1    1    2    0    0  0.26481328840E+01 -0.15394701905E+00  0.18646455099E+03  0.18649188404E+03  0.17770000000E+01 0.  1.
</event>
<event>
 6   1  0.1826851E-04  0.5000350E+03  0.7546771E-02  0.9399731E-01
        -11   -1    0    0    0    0  0.00000000000E+00  0.00000000000E+00  0.50000000000E+03  0.50000000000E+03  0.00000000000E+00 0.  1.
         11   -1    0    0    0    0 -0.00000000000E+00 -0.00000000000E+00 -0.50000000000E+03  0.50000000000E+03  0.00000000000E+00 0.  1.
        -11    1    1    2    0    0  0.51812073156E+00  0.42058659121E+01  0.15681306111E+03  0.15687030914E+03  0.00000000000E+00 0.  1.
         11    1    1    2    0    0 -0.55577470630E+01 -0.46995770945E+01 -0.49991199576E+03  0.49996497686E+03  0.00000000000E+00 0.  1.
        -15    1    1    2    0    0  0.83333711363E+00  0.53581382432E+00  0.13766897810E+03  0.13768401072E+03  0.17770000000E+01 0. -1.
         15    1    1    2    0    0  0.42062892178E+01 -0.42102641951E-01  0.20542995656E+03  0.20548070328E+03  0.17770000000E+01 0.  1.
</event>
<event>
 6   1  0.1826851E-04  0.5003704E+03  0.7546771E-02  0.9398981E-01
        -11   -1    0    0    0    0  0.00000000000E+00  0.00000000000E+00  0.50000000000E+03  0.50000000000E+03  0.00000000000E+00 0.  1.
         11   -1    0    0    0    0 -0.00000000000E+00 -0.00000000000E+00 -0.50000000000E+03  0.50000000000E+03  0.00000000000E+00 0. -1.
        -11    1    1    2    0    0 -0.54092334674E+01  0.66838390602E+00  0.25919009164E+03  0.25924739179E+03  0.00000000000E+00 0.  1.
         11    1    1    2    0    0 -0.23254566525E+01  0.11014614665E+02 -0.49950276650E+03  0.49962960604E+03  0.00000000000E+00 0. -1.
        -15    1    1    2    0    0  0.73207860118E+01 -0.82750927044E+01  0.22659263939E+03  0.22686880134E+03  0.17770000000E+01 0.  1.
         15    1    1    2    0    0  0.41390410813E+00 -0.34079058666E+01  0.13720035474E+02  0.14254200834E+02  0.17770000000E+01 0. -1.
</event>
<event>
 6   1  0.1826851E-04  0.4993963E+03  0.7546771E-02  0.9401161E-01
        -11   -1    0    0    0    0  0.00000000000E+00  0.00000000000E+00  0.50000000000E+03  0.50000000000E+03  0.00000000000E+00 0. -1.
         11   -1    0    0    0    0 -0.00000000000E+00 -0.00000000000E+00 -0.50000000000E+03  0.50000000000E+03  0.00000000000E+00 0. -1.
        -11    1    1    2    0    0 -0.10369955328E+01 -0.54195594450E+00  0.46860576081E+00  0.12604234764E+01  0.00000000000E+00 0. -1.
         11    1    1    2    0    0  0.11903081210E+02  0.12047128521E+00 -0.49944697759E+03  0.49958881221E+03  0.00000000000E+00 0. -1.
        -15    1    1    2    0    0 -0.88657548567E+01  0.27323672942E+01  0.39276142289E+03  0.39287499345E+03  0.17770000000E+01 0. -1.
         15    1    1    2    0    0 -0.20003308206E+01 -0.23108826349E+01  0.10621694894E+03  0.10627577087E+03  0.17770000000E+01 0. -1.
</event>
<event>
 6   1  0.1826851E-04  0.4904925E+03  0.7546771E-02  0.9421338E-01
        -11   -1    0    0    0    0  0.00000000000E+00  0.00000000000E+00  0.50000000000E+03  0.50000000000E+03  0.00000000000E+00 0.  1.
         11   -1    0    0    0    0 -0.00000000000E+00 -0.00000000000E+00 -0.50000000000E+03  0.50000000000E+03  0.00000000000E+00 0. -1.
        -11    1    1    2    0    0 -0.50367552942E+01  0.10029924054E+02  0.48958159023E+03  0.48971022224E+03  0.00000000000E+00 0.  1.
         11    1    1    2    0    0  0.60545994416E+01  0.47654708711E+01 -0.49132806943E+03  0.49138848144E+03  0.00000000000E+00 0. -1.
        -15    1    1    2    0    0 -0.19200280909E+01  0.91081641775E-01 -0.21469806931E+01  0.33855662498E+01  0.17770000000E+01 0. -1.
         15    1    1    2    0    0  0.90218394348E+00 -0.14886476567E+02  0.38934598941E+01  0.15515730063E+02  0.17770000000E+01 0.  1.
</event>
<event>
 6   1  0.1826851E-04  0.5033577E+03  0.7546771E-02  0.9392328E-01
        -11   -1    0    0    0    0  0.00000000000E+00  0.00000000000E+00  0.50000000000E+03  0.50000000000E+03  0.00000000000E+00 0.  1.
         11   -1    0    0    0    0 -0.00000000000E+00 -0.00000000000E+00 -0.50000000000E+03  0.50000000000E+03  0.00000000000E+00 0. -1.
        -11    1    1    2    0    0  0.14236232984E+02 -0.26881064796E+02  0.34316439706E+03  0.34450989156E+03  0.00000000000E+00 0.  1.
         11    1    1    2    0    0  0.53614810078E+01 -0.52176531651E+01 -0.49658590127E+03  0.49664225225E+03  0.00000000000E+00 0. -1.
        -15    1    1    2    0    0 -0.15373630096E+02  0.28567445663E+02  0.14522654217E+03  0.14881651028E+03  0.17770000000E+01 0.  1.
         15    1    1    2    0    0 -0.42240838951E+01  0.35312722977E+01  0.81949620410E+01  0.10031345904E+02  0.17770000000E+01 0. -1.
</event>
<event>
 6   1  0.1826851E-04  0.5028852E+03  0.7546771E-02  0.9393377E-01
        -11   -1    0    0    0    0  0.00000000000E+00  0.00000000000E+00  0.50000000000E+03  0.50000000000E+03  0.00000000000E+00 0. -1.
         11   -1    0    0    0    0 -0.00000000000E+00 -0.00000000000E+00 -0.50000000000E+03  0.50000000000E+03  0.00000000000E+00 0. -1.
        -11    1    1    2    0    0 -0.14750930350E+02  0.18860676622E+02  0.49653782913E+03  0.49711480649E+03  0.00000000000E+00 0. -1.
         11    1    1    2    0    0 -0.60770286405E+01 -0.10725570652E+02 -0.43720045799E+03  0.43737422033E+03  0.00000000000E+00 0. -1.
        -15    1    1    2    0    0  0.15204943444E+02 -0.59869794701E+01 -0.21024688126E+02  0.26687627623E+02  0.17770000000E+01 0. -1.
         15    1    1    2    0    0  0.56230155464E+01 -0.21481264999E+01 -0.38312683015E+02  0.38823345555E+02  0.17770000000E+01 0.  1.
</event>
<event>
 6   1  0.1826851E-04  0.5021329E+03  0.7546771E-02  0.9395050E-01
        -11   -1    0    0    0    0  0.00000000000E+00  0.00000000000E+00  0.50000000000E+03  0.50000000000E+03  0.00000000000E+00 0. -1.
         11   -1    0    0    0    0 -0.00000000000E+00 -0.00000000000E+00 -0.50000000000E+03  0.50000000000E+03  0.00000000000E+00 0. -1.
        -11    1    1    2    0    0 -0.15890397961E+02  0.14194187488E+01  0.49761143236E+03  0.49786710788E+03  0.00000000000E+00 0. -1.
         11    1    1    2    0    0  0.11512671614E+02 -0.91241369422E+01 -0.46582130528E+03  0.46605287247E+03  0.00000000000E+00 0. -1.
        -15    1    1    2    0    0  0.56712316244E+01  0.24825238189E+01 -0.29106728526E+02  0.29810822987E+02  0.17770000000E+01 0. -1.
         15    1    1    2    0    0 -0.12935052776E+01  0.52221943745E+01 -0.26833985515E+01  0.62691966610E+01  0.17770000000E+01 0.  1.
</event>
<event>
 6   1  0.1826851E-04  0.4916014E+03  0.7546771E-02  0.9418801E-01
        -11   -1    0    0    0    0  0.00000000000E+00  0.00000000000E+00  0.50000000000E+03  0.50000000000E+03  0.00000000000E+00 0.  1.
         11   -1    0    0    0    0 -0.00000000000E+00 -0.00000000000E+00 -0.50000000000E+03  0.50000000000E+03  0.00000000000E+00 0. -1.
        -11    1    1    2    0    0  0.13461889730E+01 -0.78072092503E+01  0.48864902751E+03  0.48871324601E+03  0.00000000000E+00 0.  1.
         11    1    1    2    0    0  0.89395976314E+01  0.37417207382E+01 -0.49447397759E+03  0.49456893493E+03  0.00000000000E+00 0. -1.
        -15    1    1    2    0    0 -0.44268805170E+01  0.72315505645E+01  0.42409351483E+01  0.96455095568E+01  0.17770000000E+01 0. -1.
         15    1    1    2    0    0 -0.58589060875E+01 -0.31660620524E+01  0.15840149373E+01  0.70723095084E+01  0.17770000000E+01 0.  1.
</event>
<event>
 6   1  0.1826851E-04  0.5019911E+03  0.7546771E-02  0.9395365E-01
        -11   -1    0    0    0    0  0.00000000000E+00  0.00000000000E+00  0.50000000000E+03  0.50000000000E+03  0.00000000000E+00 0.  1.
         11   -1    0    0    0    0 -0.00000000000E+00 -0.00000000000E+00 -0.50000000000E+03  0.50000000000E+03  0.00000000000E+00 0. -1.
        -11    1    1    2    0    0  0.17687889325E+02  0.98829934299E+01  0.40682385169E+03  0.40732810030E+03  0.00000000000E+00 0.  1.
         11    1    1    2    0    0  0.61140712501E+01 -0.35853667935E+01 -0.49795846194E+03  0.49800890207E+03  0.00000000000E+00 0. -1.
        -15    1    1    2    0    0 -0.25551541959E+01  0.63022392860E+00  0.10451495494E+02  0.10923254196E+02  0.17770000000E+01 0. -1.
         15    1    1    2    0    0 -0.21246806379E+02 -0.69278505650E+01  0.80683114758E+02  0.83739743437E+02  0.17770000000E+01 0.  1.
</event>
<event>
 6   1  0.1826851E-04  0.5043866E+03  0.7546771E-02  0.9390048E-01
        -11   -1    0    0    0    0  0.00000000000E+00  0.00000000000E+00  0.50000000000E+03  0.50000000000E+03  0.00000000000E+00 0.  1.
         11   -1    0    0    0    0 -0.00000000000E+00 -0.00000000000E+00 -0.50000000000E+03  0.50000000000E+03  0.00000000000E+00 0. -1.
        -11    1    1    2    0    0  0.17277277992E+01  0.40152948133E+02  0.49398120780E+03  0.49561343600E+03  0.00000000000E+00 0.  1.
         11    1    1    2    0    0 -0.23087926986E+02 -0.23953365336E+02 -0.44179799108E+03  0.44304884720E+03  0.00000000000E+00 0. -1.
        -15    1    1    2    0    0  0.18451042590E+02 -0.10479072656E+02 -0.22749360910E+02  0.31159959679E+02  0.17770000000E+01 0.  1.
         15    1    1    2    0    0  0.29091565973E+01 -0.57205101416E+01 -0.29433855805E+02  0.30177757122E+02  0.17770000000E+01 0. -1.
</event>
<event>
 6   1  0.1826851E-04  0.4674076E+03  0.7546771E-02  0.9475844E-01
        -11   -1    0    0    0    0  0.00000000000E+00  0.00000000000E+00  0.50000000000E+03  0.50000000000E+03  0.00000000000E+00 0. -1.
         11   -1    0    0    0    0 -0.00000000000E+00 -0.00000000000E+00 -0.50000000000E+03  0.50000000000E+03  0.00000000000E+00 0. -1.
        -11    1    1    2    0    0 -0.16680390264E+02  0.73517809169E+01  0.46697613863E+03  0.46733178594E+03  0.00000000000E+00 0. -1.
         11    1    1    2    0    0 -0.91771891528E+01 -0.71166370077E+00 -0.46777437222E+03  0.46786492770E+03  0.00000000000E+00 0. -1.
        -15    1    1    2    0    0  0.13894259991E+02 -0.47566521587E+01  0.29830020485E+02  0.33296607208E+02  0.17770000000E+01 0. -1.
         15    1    1    2    0    0  0.11963319426E+02 -0.18834650575E+01 -0.29031786887E+02  0.31506679152E+02  0.17770000000E+01 0.  1.
</event>
<event>
 6   1  0.1826851E-04  0.5027830E+03  0.7546771E-02  0.9393604E-01
        -11   -1    0    0    0    0  0.00000000000E+00  0.00000000000E+00  0.50000000000E+03  0.50000000000E+03  0.00000000000E+00 0. -1.
         11   -1    0    0    0    0 -0.00000000000E+00 -0.00000000000E+00 -0.50000000000E+03  0.50000000000E+03  0.00000000000E+00 0.  1.
        -11    1    1    2    0    0 -0.87143778664E+01  0.91982009277E+01  0.38865199041E+03  0.38885847931E+03  0.00000000000E+00 0. -1.
         11    1    1    2    0    0  0.90470213037E+01 -0.10700776584E+02 -0.49701948912E+03  0.49721698260E+03  0.00000000000E+00 0.  1.
        -15    1    1    2    0    0 -0.11046013538E+02 -0.63908656428E+01  0.91323847091E+02  0.92228305607E+02  0.17770000000E+01 0. -1.
         15    1    1    2    0    0  0.10713370101E+02  0.78934412992E+01  0.17043651624E+02  0.21696232487E+02  0.17770000000E+01 0.  1.
</event>
<event>
 6   1  0.1826851E-04  0.5043301E+03  0.7546771E-02  0.9390173E-01
        -11   -1    0    0    0    0  0.00000000000E+00  0.00000000000E+00  0.50000000000E+03  0.50000000000E+03  0.00000000000E+00 0. -1.
         11   -1    0    0    0    0 -0.00000000000E+00 -0.00000000000E+00 -0.50000000000E+03  0.50000000000E+03  0.00000000000E+00 0.  1.
        -11    1    1    2    0    0  0.86158204456E+01 -0.30949085593E+02  0.40310307481E+03  0.40438121517E+03  0.00000000000E+00 0. -1.
         11    1    1    2    0    0 -0.13321306525E+02 -0.55369713470E+00 -0.49549051708E+03  0.49566986625E+03  0.00000000000E+00 0.  1.
        -15    1    1    2    0    0 -0.20606500475E+00  0.48126568300E+00 -0.46688988498E+00  0.19104435633E+01  0.17770000000E+01 0.  1.
         15    1    1    2    0    0  0.49115510842E+01  0.31021517044E+02  0.92854332156E+02  0.98038475013E+02  0.17770000000E+01 0. -1.
</event>
<event>
 6   1  0.1826851E-04  0.4850098E+03  0.7546771E-02  0.9433991E-01
        -11   -1    0    0    0    0  0.00000000000E+00  0.00000000000E+00  0.50000000000E+03  0.50000000000E+03  0.00000000000E+00 0.  1.
         11   -1    0    0    0    0 -0.00000000000E+00 -0.00000000000E+00 -0.50000000000E+03  0.50000000000E+03  0.00000000000E+00 0. -1.
        -11    1    1    2    0    0  0.16538574381E+02 -0.68515717310E+01  0.48670806819E+03  0.48703717735E+03  0.00000000000E+00 0.  1.
         11    1    1    2    0    0  0.60633097521E+01 -0.10715319288E+02 -0.48325397688E+03  0.48341078594E+03  0.00000000000E+00 0. -1.
        -15    1    1    2    0    0 -0.18357521421E+02  0.11615590419E+02 -0.19772729313E+01  0.21885791526E+02  0.17770000000E+01 0. -1.
         15    1    1    2    0    0 -0.42443627124E+01  0.59513006008E+01 -0.14768183754E+01  0.76662451819E+01  0.17770000000E+01 0.  1.
</event>
<event>
 6   1  0.1826851E-04  0.5015311E+03  0.7546771E-02  0.9396390E-01
        -11   -1    0    0    0    0  0.00000000000E+00  0.00000000000E+00  0.50000000000E+03  0.50000000000E+03  0.00000000000E+00 0.  1.
         11   -1    0    0    0    0 -0.00000000000E+00 -0.00000000000E+00 -0.50000000000E+03  0.50000000000E+03  0.00000000000E+00 0.  1.
        -11    1    1    2    0    0 -0.21723527028E+01  0.11180321019E+02  0.49833879070E+03  0.49846892482E+03  0.00000000000E+00 0.  1.
         11    1    1    2    0    0  0.96689153801E+00  0.14709043492E+02 -0.34799393396E+03  0.34830599896E+03  0.00000000000E+00 0.  1.
        -15    1    1    2    0    0  0.36921449598E+01 -0.78540541706E+00 -0.26261311966E+02  0.26590656842E+02  0.17770000000E+01 0. -1.
         15    1    1    2    0    0 -0.24866837950E+01 -0.25103959094E+02 -0.12408354477E+03  0.12663441938E+03  0.17770000000E+01 0.  1.
</event>
<event>
 6   1  0.1826851E-04  0.5015070E+03  0.7546771E-02  0.9396444E-01
        -11   -1    0    0    0    0  0.00000000000E+00  0.00000000000E+00  0.50000000000E+03  0.50000000000E+03  0.00000000000E+00 0.  1.
         11   -1    0    0    0    0 -0.00000000000E+00 -0.00000000000E+00 -0.50000000000E+03  0.50000000000E+03  0.00000000000E+00 0. -1.
        -11    1    1    2    0    0  0.22148220685E+02  0.10996190338E+02  0.49787928667E+03  0.49849297285E+03  0.00000000000E+00 0.  1.
         11    1    1    2    0    0  0.18217025758E+01  0.75118460332E+01 -0.31888340448E+03  0.31897707141E+03  0.00000000000E+00 0. -1.
        -15    1    1    2    0    0 -0.12117683678E+02 -0.75889025089E+01 -0.13264746479E+03  0.13342764835E+03  0.17770000000E+01 0.  1.
         15    1    1    2    0    0 -0.11852239583E+02 -0.10919133862E+02 -0.46348417398E+02  0.49102307397E+02  0.17770000000E+01 0. -1.
</event>
<event>
 6   1  0.1826851E-04  0.5006755E+03  0.7546771E-02  0.9398299E-01
        -11   -1    0    0    0    0  0.00000000000E+00  0.00000000000E+00  0.50000000000E+03  0.50000000000E+03  0.00000000000E+00 0.  1.
         11   -1    0    0    0    0 -0.00000000000E+00 -0.00000000000E+00 -0.50000000000E+03  0.50000000000E+03  0.00000000000E+00 0.  1.
        -11    1    1    2    0    0 -0.38297648169E+02 -0.34824344655E+02  0.49663417630E+03  0.49932449359E+03  0.00000000000E+00 0.  1.
         11    1    1    2    0    0  0.10279368020E+02  0.15801075679E+02 -0.25374292733E+03  0.25444215958E+03  0.00000000000E+00 0.  1.
        -15    1    1    2    0    0  0.74235981721E+01 -0.21822219522E+01 -0.22461843705E+02  0.23823602878E+02  0.17770000000E+01 0.  1.
         15    1    1    2    0    0  0.20594681977E+02  0.21205490929E+02 -0.22042940526E+03  0.22240974395E+03  0.17770000000E+01 0. -1.
</event>
<event>
 6   1  0.1826851E-04  0.5004257E+03  0.7546771E-02  0.9398858E-01
        -11   -1    0    0    0    0  0.00000000000E+00  0.00000000000E+00  0.50000000000E+03  0.50000000000E+03  0.00000000000E+00 0.  1.
         11   -1    0    0    0    0 -0.00000000000E+00 -0.00000000000E+00 -0.50000000000E+03  0.50000000000E+03  0.00000000000E+00 0.  1.
        -11    1    1    2    0    0 -0.59996187451E+01  0.67191217531E+01  0.49949313178E+03  0.49957434954E+03  0.00000000000E+00 0.  1.
         11    1    1    2    0    0  0.80369122474E+01 -0.11703736619E+01 -0.30828090210E+03  0.30838786671E+03  0.00000000000E+00 0.  1.
        -15    1    1    2    0    0  0.55991551825E+01 -0.76704818099E+01 -0.10198754915E+03  0.10244415425E+03  0.17770000000E+01 0. -1.
         15    1    1    2    0    0 -0.76364486847E+01  0.21217337187E+01 -0.89224680526E+02  0.89593629497E+02  0.17770000000E+01 0.  1.
</event>
<event>
 6   1  0.1826851E-04  0.5016599E+03  0.7546771E-02  0.9396103E-01
        -11   -1    0    0    0    0  0.00000000000E+00  0.00000000000E+00  0.50000000000E+03  0.50000000000E+03  0.00000000000E+00 0.  1.
         11   -1    0    0    0    0 -0.00000000000E+00 -0.00000000000E+00 -0.50000000000E+03  0.50000000000E+03  0.00000000000E+00 0.  1.
        -11    1    1    2    0    0  0.73412376313E+01  0.83214908954E+01  0.49821651863E+03  0.49834008509E+03  0.00000000000E+00 0.  1.
         11    1    1    2    0    0 -0.62149895962E+01  0.39781473710E+01 -0.44372614616E+03  0.44378749930E+03  0.00000000000E+00 0.  1.
        -15    1    1    2    0    0  0.49129035652E+01 -0.54388470665E+01 -0.39590471057E+02  0.40302367255E+02  0.17770000000E+01 0.  1.
         15    1    1    2    0    0 -0.60391516004E+01 -0.68607911998E+01 -0.14899901407E+02  0.17570048346E+02  0.17770000000E+01 0. -1.
</event>
<event>
 6   1  0.1826851E-04  0.5001363E+03  0.7546771E-02  0.9399505E-01
        -11   -1    0    0    0    0  0.00000000000E+00  0.00000000000E+00  0.50000000000E+03  0.50000000000E+03  0.00000000000E+00 0.  1.
         11   -1    0    0    0    0 -0.00000000000E+00 -0.00000000000E+00 -0.50000000000E+03  0.50000000000E+03  0.00000000000E+00 0. -1.
        -11    1    1    2    0    0 -0.13259901664E+01  0.95391243196E+01  0.15843533408E+03  0.15872778026E+03  0.00000000000E+00 0.  1.
         11    1    1    2    0    0  0.14950189874E+01 -0.11577873217E+02 -0.49972731886E+03  0.49986365685E+03  0.00000000000E+00 0. -1.
        -15    1    1    2    0    0 -0.33357665279E+01 -0.72395760231E+00  0.21447966656E+03  0.21451418729E+03  0.17770000000E+01 0.  1.
         15    1    1    2    0    0  0.31667377069E+01  0.27627064995E+01  0.12681231822E+03  0.12689437559E+03  0.17770000000E+01 0. -1.
</event>
<event>
 6   1  0.1826851E-04  0.5025336E+03  0.7546771E-02  0.9394158E-01
        -11   -1    0    0    0    0  0.00000000000E+00  0.00000000000E+00  0.50000000000E+03  0.50000000000E+03  0.00000000000E+00 0.  1.
         11   -1    0    0    0    0 -0.00000000000E+00 -0.00000000000E+00 -0.50000000000E+03  0.50000000000E+03  0.00000000000E+00 0. -1.
        -11    1    1    2    0    0  0.82270360455E+01  0.14806043548E+02  0.38101549195E+03  0.38139180399E+03  0.00000000000E+00 0.  1.
         11    1    1    2    0    0 -0.43583514541E+01  0.61615644524E+01 -0.49740919391E+03  0.49746644740E+03  0.00000000000E+00 0. -1.
        -15    1    1    2    0    0  0.38017355825E+01  0.33138587489E+01  0.45104074307E+02  0.45419930662E+02  0.17770000000E+01 0.  1.
         15    1    1    2    0    0 -0.76704201738E+01 -0.24281466750E+02  0.71289627653E+02  0.75721817946E+02  0.17770000000E+01 0. -1.
</event>
<event>
 6   1  0.1826851E-04  0.5002783E+03  0.7546771E-02  0.9399187E-01
        -11   -1    0    0    0    0  0.00000000000E+00  0.00000000000E+00  0.50000000000E+03  0.50000000000E+03  0.00000000000E+00 0.  1.
         11   -1    0    0    0    0 -0.00000000000E+00 -0.00000000000E+00 -0.50000000000E+03  0.50000000000E+03  0.00000000000E+00 0. -1.
        -11    1    1    2    0    0  0.17306538600E+02 -0.56041259908E+01  0.49939047822E+03  0.49972169479E+03  0.00000000000E+00 0.  1.
         11    1    1    2    0    0  0.36464407238E+01 -0.15945209283E+01 -0.18669225415E+03  0.18673466948E+03  0.00000000000E+00 0. -1.
        -15    1    1    2    0    0 -0.67524426510E+01  0.13628911591E-01 -0.90103073190E+02  0.90373210603E+02  0.17770000000E+01 0.  1.
         15    1    1    2    0    0 -0.14200536673E+02  0.71850180075E+01 -0.22259515088E+03  0.22317042512E+03  0.17770000000E+01 0. -1.
</event>
<event>
 6   1  0.1826851E-04  0.4875829E+03  0.7546771E-02  0.9428031E-01
        -11   -1    0    0    0    0  0.00000000000E+00  0.00000000000E+00  0.50000000000E+03  0.50000000000E+03  0.00000000000E+00 0. -1.
         11   -1    0    0    0    0 -0.00000000000E+00 -0.00000000000E+00 -0.50000000000E+03  0.50000000000E+03  0.00000000000E+00 0.  1.
        -11    1    1    2    0    0  0.15749100349E+02 -0.52531179485E+01  0.48779517605E+03  0.48807762004E+03  0.00000000000E+00 0. -1.
         11    1    1    2    0    0 -0.22769309105E+01  0.69191576923E+01 -0.48712851793E+03  0.48718297604E+03  0.00000000000E+00 0.  1.
        -15    1    1    2    0    0  0.19665576385E+01 -0.40267625042E+01 -0.63956425278E+01  0.80090035307E+01  0.17770000000E+01 0. -1.
         15    1    1    2    0    0 -0.15438727077E+02  0.23607227603E+01  0.57289844131E+01  0.16730400387E+02  0.17770000000E+01 0.  1.
</event>
<event>
 6   1  0.1826851E-04  0.5026472E+03  0.7546771E-02  0.9393906E-01
        -11   -1    0    0    0    0  0.00000000000E+00  0.00000000000E+00  0.50000000000E+03  0.50000000000E+03  0.00000000000E+00 0. -1.
         11   -1    0    0    0    0 -0.00000000000E+00 -0.00000000000E+00 -0.50000000000E+03  0.50000000000E+03  0.00000000000E+00 0.  1.
        -11    1    1    2    0    0  0.99938052801E+01 -0.66517545350E+01  0.49720788454E+03  0.49735279474E+03  0.00000000000E+00 0. -1.
         11    1    1    2    0    0 -0.50774214118E+01  0.66446791838E+01 -0.48717355119E+03  0.48724531906E+03  0.00000000000E+00 0.  1.
        -15    1    1    2    0    0 -0.37419567492E+01 -0.13901420650E+01  0.65044305115E+00  0.44176396907E+01  0.17770000000E+01 0. -1.
         15    1    1    2    0    0 -0.11744271191E+01  0.13972174162E+01 -0.10684776408E+02  0.10984246513E+02  0.17770000000E+01 0.  1.
</event>
<event>
 6   1  0.1826851E-04  0.5032949E+03  0.7546771E-02  0.9392467E-01
        -11   -1    0    0    0    0  0.00000000000E+00  0.00000000000E+00  0.50000000000E+03  0.50000000000E+03  0.00000000000E+00 0. -1.
         11   -1    0    0    0    0 -0.00000000000E+00 -0.00000000000E+00 -0.50000000000E+03  0.50000000000E+03  0.00000000000E+00 0. -1.
        -11    1    1    2    0    0  0.66583416597E+01  0.13270855051E+02  0.47241889163E+03  0.47265215358E+03  0.00000000000E+00 0. -1.
         11    1    1    2    0    0  0.50632091064E+01 -0.45140291985E+01 -0.49665874529E+03  0.49670506522E+03  0.00000000000E+00 0. -1.
        -15    1    1    2    0    0 -0.51638148422E+01 -0.31004856648E+01  0.18128477766E+01  0.65362176480E+01  0.17770000000E+01 0.  1.
         15    1    1    2    0    0 -0.65577359239E+01 -0.56563401877E+01  0.22427005878E+02  0.24106563555E+02  0.17770000000E+01 0. -1.
</event>
<event>
 6   1  0.1826851E-04  0.5070609E+03  0.7546771E-02  0.9384148E-01
        -11   -1    0    0    0    0  0.00000000000E+00  0.00000000000E+00  0.50000000000E+03  0.50000000000E+03  0.00000000000E+00 0.  1.
         11   -1    0    0    0    0 -0.00000000000E+00 -0.00000000000E+00 -0.50000000000E+03  0.50000000000E+03  0.00000000000E+00 0.  1.
        -11    1    1    2    0    0 -0.69759489934E+01 -0.12134562001E+02  0.49274038892E+03  0.49293914668E+03  0.00000000000E+00 0.  1.
         11    1    1    2    0    0 -0.10060141061E+02  0.16168226395E+02 -0.45729241665E+03  0.45768872862E+03  0.00000000000E+00 0.  1.
        -15    1    1    2    0    0  0.21811893321E+02 -0.17624413622E+01 -0.37478048469E+02  0.43435316689E+02  0.17770000000E+01 0. -1.
         15    1    1    2    0    0 -0.47758032672E+01 -0.22712230321E+01  0.20300761978E+01  0.59368080041E+01  0.17770000000E+01 0.  1.
</event>
<event>
 6   1  0.1826851E-04  0.5008599E+03  0.7546771E-02  0.9397888E-01
        -11   -1    0    0    0    0  0.00000000000E+00  0.00000000000E+00  0.50000000000E+03  0.50000000000E+03  0.00000000000E+00 0. -1.
         11   -1    0    0    0    0 -0.00000000000E+00 -0.00000000000E+00 -0.50000000000E+03  0.50000000000E+03  0.00000000000E+00 0.  1.
        -11    1    1    2    0    0  0.77446456551E+01 -0.10086192503E+00  0.49908001154E+03  0.49914010822E+03  0.00000000000E+00 0. -1.
         11    1    1    2    0    0 -0.20740471881E+01 -0.12850687645E+02 -0.41937327929E+03  0.41957524859E+03  0.00000000000E+00 0.  1.
        -15    1    1    2    0    0 -0.39547879957E+01  0.21522386962E+01 -0.22419653740E+02  0.22936239499E+02  0.17770000000E+01 0.  1.
         15    1    1    2    0    0 -0.17158104713E+01  0.10799310874E+02 -0.57287078511E+02  0.58348403699E+02  0.17770000000E+01 0. -1.
</event>
<event>
 6   1  0.1826851E-04  0.5082252E+03  0.7546771E-02  0.9381591E-01
        -11   -1    0    0    0    0  0.00000000000E+00  0.00000000000E+00  0.50000000000E+03  0.50000000000E+03  0.00000000000E+00 0. -1.
         11   -1    0    0    0    0 -0.00000000000E+00 -0.00000000000E+00 -0.50000000000E+03  0.50000000000E+03  0.00000000000E+00 0.  1.
        -11    1    1    2    0    0  0.44920307593E+01  0.36568554035E+02  0.49039273793E+03  0.49177482133E+03  0.00000000000E+00 0. -1.
         11    1    1    2    0    0  0.44640655240E+01 -0.53239445954E+01 -0.44640711486E+03  0.44646117912E+03  0.00000000000E+00 0.  1.
        -15    1    1    2    0    0 -0.96944471921E+01 -0.32033469099E+02 -0.22936509913E+02  0.40612395458E+02  0.17770000000E+01 0.  1.
         15    1    1    2    0    0  0.73835090876E+00  0.78885965872E+00 -0.21049113159E+02  0.21151604086E+02  0.17770000000E+01 0. -1.
</event>
<event>
 6   1  0.1826851E-04  0.5006339E+03  0.7546771E-02  0.9398392E-01
        -11   -1    0    0    0    0  0.00000000000E+00  0.00000000000E+00  0.50000000000E+03  0.50000000000E+03  0.00000000000E+00 0.  1.
         11   -1    0    0    0    0 -0.00000000000E+00 -0.00000000000E+00 -0.50000000000E+03  0.50000000000E+03  0.00000000000E+00 0. -1.
        -11    1    1    2    0    0 -0.95256316351E+01  0.56324529020E+01  0.36466490037E+03  0.36483277230E+03  0.00000000000E+00 0.  1.
         11    1    1    2    0    0  0.90115889189E+01  0.11046170195E+02 -0.49916258463E+03  0.49936611069E+03  0.00000000000E+00 0. -1.
        -15    1    1    2    0    0 -0.11994060618E+01 -0.75617457826E+01  0.35806533274E+02  0.36659025195E+02  0.17770000000E+01 0. -1.
         15    1    1    2    0    0  0.17134487780E+01 -0.91168773147E+01  0.98691150979E+02  0.99142091814E+02  0.17770000000E+01 0.  1.
</event>
<event>
 6   1  0.1826851E-04  0.5001106E+03  0.7546771E-02  0.9399562E-01
        -11   -1    0    0    0    0  0.00000000000E+00  0.00000000000E+00  0.50000000000E+03  0.50000000000E+03  0.00000000000E+00 0.  1.
         11   -1    0    0    0    0 -0.00000000000E+00 -0.00000000000E+00 -0.50000000000E+03  0.50000000000E+03  0.00000000000E+00 0.  1.
        -11    1    1    2    0    0  0.17554281784E+02  0.84281188490E+01  0.49950997328E+03  0.49988938717E+03  0.00000000000E+00 0.  1.
         11    1    1    2    0    0 -0.83286020429E+01 -0.45483482191E+01 -0.14532720890E+03  0.14563670805E+03  0.00000000000E+00 0.  1.
        -15    1    1    2    0    0 -0.27030632351E+01  0.95381431350E+00 -0.30750505421E+02  0.30934893329E+02  0.17770000000E+01 0. -1.
         15    1    1    2    0    0 -0.65226165058E+01 -0.48335849434E+01 -0.32343225896E+03  0.32353901146E+03  0.17770000000E+01 0.  1.
</event>
<event>
 6   1  0.1826851E-04  0.5003510E+03  0.7546771E-02  0.9399025E-01
        -11   -1    0    0    0    0  0.00000000000E+00  0.00000000000E+00  0.50000000000E+03  0.50000000000E+03  0.00000000000E+00 0.  1.
         11   -1    0    0    0    0 -0.00000000000E+00 -0.00000000000E+00 -0.50000000000E+03  0.50000000000E+03  0.00000000000E+00 0.  1.
        -11    1    1    2    0    0  0.11713963612E+01 -0.15467539202E+02  0.49940817336E+03  0.49964901737E+03  0.00000000000E+00 0.  1.
         11    1    1    2    0    0  0.31152842849E+01 -0.24150347906E+01 -0.27425969331E+03  0.27428801790E+03  0.00000000000E+00 0.  1.
        -15    1    1    2    0    0 -0.32763675341E+01  0.12998299490E+02 -0.19374032302E+03  0.19421163937E+03  0.17770000000E+01 0.  1.
         15    1    1    2    0    0 -0.10103131120E+01  0.48842745032E+01 -0.31408157034E+02  0.31851325362E+02  0.17770000000E+01 0. -1.
</event>
<event>
 6   1  0.1826851E-04  0.5003794E+03  0.7546771E-02  0.9398961E-01
        -11   -1    0    0    0    0  0.00000000000E+00  0.00000000000E+00  0.50000000000E+03  0.50000000000E+03  0.00000000000E+00 0. -1.
         11   -1    0    0    0    0 -0.00000000000E+00 -0.00000000000E+00 -0.50000000000E+03  0.50000000000E+03  0.00000000000E+00 0. -1.
        -11    1    1    2    0    0 -0.22650663461E+01 -0.61722371079E+01  0.75147464873E+02  0.75434531305E+02  0.00000000000E+00 0. -1.
         11    1    1    2    0    0 -0.73852558557E+01 -0.25000147086E+01 -0.49955972007E+03  0.49962056202E+03  0.00000000000E+00 0. -1.
        -15    1    1    2    0    0  0.19494668088E+01  0.40839179347E+01  0.27432689864E+02  0.27860168856E+02  0.17770000000E+01 0. -1.
         15    1    1    2    0    0  0.77008553930E+01  0.45883338818E+01  0.39697956534E+03  0.39708473781E+03  0.17770000000E+01 0. -1.
</event>
<event>
 6   1  0.1826851E-04  0.4795047E+03  0.7546771E-02  0.9446875E-01
        -11   -1    0    0    0    0  0.00000000000E+00  0.00000000000E+00  0.50000000000E+03  0.50000000000E+03  0.00000000000E+00 0. -1.
         11   -1    0    0    0    0 -0.00000000000E+00 -0.00000000000E+00 -0.50000000000E+03  0.50000000000E+03  0.00000000000E+00 0.  1.
        -11    1    1    2    0    0  0.44216505352E+01  0.24437306621E+02  0.48015545486E+03  0.48079724810E+03  0.00000000000E+00 0. -1.
         11    1    1    2    0    0  0.93898255195E+01 -0.15969589001E+01 -0.47849015823E+03  0.47858494609E+03  0.00000000000E+00 0.  1.
        -15    1    1    2    0    0  0.89893077981E+01 -0.11714123048E+02  0.16760591726E+01  0.14966470420E+02  0.17770000000E+01 0. -1.
         15    1    1    2    0    0 -0.22800783853E+02 -0.11126224673E+02 -0.33413557954E+01  0.25651335391E+02  0.17770000000E+01 0.  1.
</event>
<event>
 6   1  0.1826851E-04  0.5066139E+03  0.7546771E-02  0.9385131E-01
        -11   -1    0    0    0    0  0.00000000000E+00  0.00000000000E+00  0.50000000000E+03  0.50000000000E+03  0.00000000000E+00 0.  1.
         11   -1    0    0    0    0 -0.00000000000E+00 -0.00000000000E+00 -0.50000000000E+03  0.50000000000E+03  0.00000000000E+00 0.  1.
        -11    1    1    2    0    0 -0.15311806461E+02  0.37149714795E+01  0.48131385724E+03  0.48157167857E+03  0.00000000000E+00 0.  1.
         11    1    1    2    0    0  0.64345946480E+00  0.70280938096E+01 -0.49333565528E+03  0.49338613368E+03  0.00000000000E+00 0.  1.
        -15    1    1    2    0    0  0.80881152763E+01  0.93701054375E+00  0.58176796028E+01  0.10163597908E+02  0.17770000000E+01 0.  1.
         15    1    1    2    0    0  0.65802317199E+01 -0.11680075833E+02  0.62041184361E+01  0.14878589836E+02  0.17770000000E+01 0. -1.
</event>
<event>
 6   1  0.1826851E-04  0.5010778E+03  0.7546771E-02  0.9397401E-01
        -11   -1    0    0    0    0  0.00000000000E+00  0.00000000000E+00  0.50000000000E+03  0.50000000000E+03  0.00000000000E+00 0. -1.
         11   -1    0    0    0    0 -0.00000000000E+00 -0.00000000000E+00 -0.50000000000E+03  0.50000000000E+03  0.00000000000E+00 0.  1.
        -11    1    1    2    0    0 -0.58408982302E+01 -0.13125839966E+02  0.21741693603E+03  0.21789109169E+03  0.00000000000E+00 0. -1.
         11    1    1    2    0    0 -0.18772314626E+02 -0.89880671655E+01 -0.49848786597E+03  0.49892217596E+03  0.00000000000E+00 0.  1.
        -15    1    1    2    0    0  0.17775253165E+02  0.10136922931E+02  0.17836921525E+03  0.17954790868E+03  0.17770000000E+01 0. -1.
         15    1    1    2    0    0  0.68379596909E+01  0.11976984201E+02  0.10270171469E+03  0.10363882367E+03  0.17770000000E+01 0. -1.
</event>
<event>
 6   1  0.1826851E-04  0.5010845E+03  0.7546771E-02  0.9397386E-01
        -11   -1    0    0    0    0  0.00000000000E+00  0.00000000000E+00  0.50000000000E+03  0.50000000000E+03  0.00000000000E+00 0.  1.
         11   -1    0    0    0    0 -0.00000000000E+00 -0.00000000000E+00 -0.50000000000E+03  0.50000000000E+03  0.00000000000E+00 0. -1.
        -11    1    1    2    0    0  0.17205085101E+02 -0.24349091237E+01  0.77754652662E+02  0.79672641141E+02  0.00000000000E+00 0.  1.
         11    1    1    2    0    0 -0.54332856438E+01  0.80392164713E+01 -0.49882112705E+03  0.49891549022E+03  0.00000000000E+00 0. -1.
        -15    1    1    2    0    0 -0.51470893573E+01 -0.28677202646E+01  0.70633962277E+02  0.70901556431E+02  0.17770000000E+01 0. -1.
         15    1    1    2    0    0 -0.66247100998E+01 -0.27365870830E+01  0.35043251211E+03  0.35051031221E+03  0.17770000000E+01 0.  1.
</event>
<event>
 6   1  0.1826851E-04  0.5059322E+03  0.7546771E-02  0.9386633E-01
        -11   -1    0    0    0    0  0.00000000000E+00  0.00000000000E+00  0.50000000000E+03  0.50000000000E+03  0.00000000000E+00 0.  1.
         11   -1    0    0    0    0 -0.00000000000E+00 -0.00000000000E+00 -0.50000000000E+03  0.50000000000E+03  0.00000000000E+00 0. -1.
        -11    1    1    2    0    0 -0.23686757929E+02  0.11365843453E+02  0.30987162231E+03  0.31098338736E+03  0.00000000000E+00 0.  1.
         11    1    1    2    0    0  0.76779598316E+01  0.20998298763E+02 -0.49356170375E+03  0.49406784456E+03  0.00000000000E+00 0. -1.
        -15    1    1    2    0    0  0.35275169640E+02 -0.28897425864E+02  0.12818796913E+03  0.13606877663E+03  0.17770000000E+01 0. -1.
         15    1    1    2    0    0 -0.19266371543E+02 -0.34667163517E+01  0.55502112306E+02  0.58879991459E+02  0.17770000000E+01 0.  1.
</event>
<event>
 6   1  0.1826851E-04  0.5083787E+03  0.7546771E-02  0.9381254E-01
        -11   -1    0    0    0    0  0.00000000000E+00  0.00000000000E+00  0.50000000000E+03  0.50000000000E+03  0.00000000000E+00 0. -1.
         11   -1    0    0    0    0 -0.00000000000E+00 -0.00000000000E+00 -0.50000000000E+03  0.50000000000E+03  0.00000000000E+00 0.  1.
        -11    1    1    2    0    0  0.22405205066E+01  0.22648644353E+02  0.49109417271E+03  0.49162126428E+03  0.00000000000E+00 0. -1.
         11    1    1    2    0    0  0.64180640722E+01  0.31028650952E+01 -0.47382302920E+03  0.47387665307E+03  0.00000000000E+00 0.  1.
        -15    1    1    2    0    0 -0.42228946926E+01 -0.58499285996E+01 -0.10659008503E+02  0.12993332732E+02  0.17770000000E+01 0.  1.
         15    1    1    2    0    0 -0.44356898861E+01 -0.19901580849E+02 -0.66121349992E+01  0.21508749924E+02  0.17770000000E+01 0. -1.
</event>
<event>
 6   1  0.1826851E-04  0.4893721E+03  0.7546771E-02  0.9423910E-01
        -11   -1    0    0    0    0  0.00000000000E+00  0.00000000000E+00  0.50000000000E+03  0.50000000000E+03  0.00000000000E+00 0. -1.
         11   -1    0    0    0    0 -0.00000000000E+00 -0.00000000000E+00 -0.50000000000E+03  0.50000000000E+03  0.00000000000E+00 0.  1.
        -11    1    1    2    0    0 -0.79857590579E+01  0.12894442034E+02  0.48637572670E+03  0.48661215204E+03  0.00000000000E+00 0. -1.
         11    1    1    2    0    0  0.60459366854E+01  0.32647534968E+01 -0.49223696223E+03  0.49228491643E+03  0.00000000000E+00 0.  1.
        -15    1    1    2    0    0 -0.24763934676E+01  0.15379959285E+00 -0.20629686066E+00  0.30588341433E+01  0.17770000000E+01 0. -1.
         15    1    1    2    0    0  0.44162158401E+01 -0.16312995124E+02  0.60675323846E+01  0.18044097387E+02  0.17770000000E+01 0.  1.
</event>
<event>
 6   1  0.1826851E-04  0.4669961E+03  0.7546771E-02  0.9476846E-01
        -11   -1    0    0    0    0  0.00000000000E+00  0.00000000000E+00  0.50000000000E+03  0.50000000000E+03  0.00000000000E+00 0. -1.
         11   -1    0    0    0    0 -0.00000000000E+00 -0.00000000000E+00 -0.50000000000E+03  0.50000000000E+03  0.00000000000E+00 0.  1.
        -11    1    1    2    0    0  0.31612611936E+02  0.27140076614E+02  0.45170435536E+03  0.45362183109E+03  0.00000000000E+00 0. -1.
         11    1    1    2    0    0  0.41866190688E+01  0.91881217045E+01 -0.48215151854E+03  0.48225723032E+03  0.00000000000E+00 0.  1.
        -15    1    1    2    0    0 -0.80626039760E+01  0.25215190053E+01  0.54311833416E+01  0.10198976540E+02  0.17770000000E+01 0. -1.
         15    1    1    2    0    0 -0.27736627029E+02 -0.38849717324E+02  0.25015979841E+02  0.53921962051E+02  0.17770000000E+01 0.  1.
</event>
<event>
 6   1  0.1826851E-04  0.5074855E+03  0.7546771E-02  0.9383214E-01
        -11   -1    0    0    0    0  0.00000000000E+00  0.00000000000E+00  0.50000000000E+03  0.50000000000E+03  0.00000000000E+00 0. -1.
         11   -1    0    0    0    0 -0.00000000000E+00 -0.00000000000E+00 -0.50000000000E+03  0.50000000000E+03  0.00000000000E+00 0. -1.
        -11    1    1    2    0    0  0.41529169566E+02 -0.84791073765E+01  0.49068721854E+03  0.49251448062E+03  0.00000000000E+00 0. -1.
         11    1    1    2    0    0 -0.19072256522E+02 -0.91184161057E+01 -0.46329082900E+03  0.46377288484E+03  0.00000000000E+00 0. -1.
        -15    1    1    2    0    0 -0.60615778105E+01 -0.17703518171E+00  0.97279492242E+00  0.63936003918E+01  0.17770000000E+01 0. -1.
         15    1    1    2    0    0 -0.16395335233E+02  0.17774558664E+02 -0.28369184464E+02  0.37319034141E+02  0.17770000000E+01 0.  1.
</event>
<event>
 6   1  0.1826851E-04  0.5054225E+03  0.7546771E-02  0.9387758E-01
        -11   -1    0    0    0    0  0.00000000000E+00  0.00000000000E+00  0.50000000000E+03  0.50000000000E+03  0.00000000000E+00 0. -1.
         11   -1    0    0    0    0 -0.00000000000E+00 -0.00000000000E+00 -0.50000000000E+03  0.50000000000E+03  0.00000000000E+00 0.  1.
        -11    1    1    2    0    0 -0.20425436532E+02 -0.13160703062E+02  0.49398026771E+03  0.49457750399E+03  0.00000000000E+00 0. -1.
         11    1    1    2    0    0 -0.31915774182E+01 -0.60776518153E+01 -0.45053290329E+03  0.45058519834E+03  0.00000000000E+00 0.  1.
        -15    1    1    2    0    0  0.23949292757E+02  0.16083070171E+02 -0.41861196890E+02  0.50869944995E+02  0.17770000000E+01 0.  1.
         15    1    1    2    0    0 -0.33227880684E+00  0.31552847067E+01 -0.15861675349E+01  0.39673526733E+01  0.17770000000E+01 0. -1.
</event>
<event>
 6   1  0.1826851E-04  0.5111369E+03  0.7546771E-02  0.9375229E-01
        -11   -1    0    0    0    0  0.00000000000E+00  0.00000000000E+00  0.50000000000E+03  0.50000000000E+03  0.00000000000E+00 0. -1.
         11   -1    0    0    0    0 -0.00000000000E+00 -0.00000000000E+00 -0.50000000000E+03  0.50000000000E+03  0.00000000000E+00 0. -1.
        -11    1    1    2    0    0 -0.11694478000E+02  0.13659877717E+02  0.43750590511E+02  0.47301873588E+02  0.00000000000E+00 0. -1.
         11    1    1    2    0    0  0.39420498257E+01  0.56138251133E+01 -0.48881495406E+03  0.48886308319E+03  0.00000000000E+00 0. -1.
        -15    1    1    2    0    0 -0.14947401057E+02  0.98098709809E+01  0.41715070635E+03  0.41753745689E+03  0.17770000000E+01 0. -1.
         15    1    1    2    0    0  0.22699829231E+02 -0.29083573811E+02  0.27913657201E+02  0.46297586331E+02  0.17770000000E+01 0.  1.
</event>
<event>
 6   1  0.1826851E-04  0.5009849E+03  0.7546771E-02  0.9397609E-01
        -11   -1    0    0    0    0  0.00000000000E+00  0.00000000000E+00  0.50000000000E+03  0.50000000000E+03  0.00000000000E+00 0.  1.
         11   -1    0    0    0    0 -0.00000000000E+00 -0.00000000000E+00 -0.50000000000E+03  0.50000000000E+03  0.00000000000E+00 0. -1.
        -11    1    1    2    0    0 -0.10072546100E+02 -0.71176561464E+01  0.35406713271E+03  0.35428188167E+03  0.00000000000E+00 0.  1.
         11    1    1    2    0    0 -0.62210315086E+01 -0.54123013388E+01 -0.49894694456E+03  0.49901507765E+03  0.00000000000E+00 0. -1.
        -15    1    1    2    0    0  0.91112883331E+01  0.11041785896E+02  0.71815508730E+02  0.73249994089E+02  0.17770000000E+01 0.  1.
         15    1    1    2    0    0  0.71822892756E+01  0.14881715892E+01  0.73064303122E+02  0.73453046592E+02  0.17770000000E+01 0. -1.
</event>
<event>
 6   1  0.1826851E-04  0.5008132E+03  0.7546771E-02  0.9397992E-01
        -11   -1    0    0    0    0  0.00000000000E+00  0.00000000000E+00  0.50000000000E+03  0.50000000000E+03  0.00000000000E+00 0.  1.
         11   -1    0    0    0    0 -0.00000000000E+00 -0.00000000000E+00 -0.50000000000E+03  0.50000000000E+03  0.00000000000E+00 0.  1.
        -11    1    1    2    0    0  0.49816337330E+01 -0.13740967198E+00  0.75496831229E+01  0.90461744027E+01  0.00000000000E+00 0.  1.
         11    1    1    2    0    0  0.11520557065E+01 -0.76163620747E+01 -0.49912740585E+03  0.49918684225E+03  0.00000000000E+00 0.  1.
        -15    1    1    2    0    0 -0.10506973315E+01 -0.10254870964E+01  0.36487109775E+02  0.36559848159E+02  0.17770000000E+01 0.  1.
         15    1    1    2    0    0 -0.50829921079E+01  0.87792588431E+01  0.45509061296E+03  0.45520713519E+03  0.17770000000E+01 0.  1.
</event>
<event>
 6   1  0.1826851E-04  0.5019061E+03  0.7546771E-02  0.9395555E-01
        -11   -1    0    0    0    0  0.00000000000E+00  0.00000000000E+00  0.50000000000E+03  0.50000000000E+03  0.00000000000E+00 0. -1.
         11   -1    0    0    0    0 -0.00000000000E+00 -0.00000000000E+00 -0.50000000000E+03  0.50000000000E+03  0.00000000000E+00 0.  1.
        -11    1    1    2    0    0 -0.15569487761E+02 -0.55836978916E+01  0.49781915618E+03  0.49809386554E+03  0.00000000000E+00 0. -1.
         11    1    1    2    0    0 -0.67150621153E+01 -0.10459185983E+02 -0.36399273079E+03  0.36420488012E+03  0.00000000000E+00 0.  1.
        -15    1    1    2    0    0  0.13497564843E+02  0.15392600280E+02 -0.11521256027E+03  0.11703080011E+03  0.17770000000E+01 0.  1.
         15    1    1    2    0    0  0.87869850332E+01  0.65028359377E+00 -0.18613865115E+02  0.20670454234E+02  0.17770000000E+01 0. -1.
</event>
<event>
 6   1  0.1826851E-04  0.5019117E+03  0.7546771E-02  0.9395542E-01
        -11   -1    0    0    0    0  0.00000000000E+00  0.00000000000E+00  0.50000000000E+03  0.50000000000E+03  0.00000000000E+00 0.  1.
         11   -1    0    0    0    0 -0.00000000000E+00 -0.00000000000E+00 -0.50000000000E+03  0.50000000000E+03  0.00000000000E+00 0. -1.
        -11    1    1    2    0    0 -0.37620824117E+01  0.10475929741E+02  0.49796389415E+03  0.49808828359E+03  0.00000000000E+00 0.  1.
         11    1    1    2    0    0  0.53145686082E+00  0.99500890797E+01 -0.43489690379E+03  0.43501103853E+03  0.00000000000E+00 0. -1.
        -15    1    1    2    0    0  0.12267626689E+01 -0.16558274867E+02 -0.55789805054E+02  0.58235225510E+02  0.17770000000E+01 0. -1.
         15    1    1    2    0    0  0.20038628820E+01 -0.38677439539E+01 -0.72771853129E+01  0.86654523725E+01  0.17770000000E+01 0.  1.
</event>
<event>
 6   1  0.1826851E-04  0.5009652E+03  0.7546771E-02  0.9397653E-01
        -11   -1    0    0    0    0  0.00000000000E+00  0.00000000000E+00  0.50000000000E+03  0.50000000000E+03  0.00000000000E+00 0.  1.
         11   -1    0    0    0    0 -0.00000000000E+00 -0.00000000000E+00 -0.50000000000E+03  0.50000000000E+03  0.00000000000E+00 0.  1.
        -11    1    1    2    0    0  0.14716316861E+02  0.91229858035E+01  0.32595246656E+03  0.32641202384E+03  0.00000000000E+00 0.  1.
         11    1    1    2    0    0 -0.77439239918E+01  0.12185163861E+02 -0.49882595326E+03  0.49903484671E+03  0.00000000000E+00 0.  1.
        -15    1    1    2    0    0  0.16938014065E+01 -0.39982824354E+01  0.30542560218E+02  0.30900824250E+02  0.17770000000E+01 0. -1.
         15    1    1    2    0    0 -0.86661942757E+01 -0.17309867229E+02  0.14233092648E+03  0.14365230520E+03  0.17770000000E+01 0.  1.
</event>
<event>
 6   1  0.1826851E-04  0.4868488E+03  0.7546771E-02  0.9429727E-01
        -11   -1    0    0    0    0  0.00000000000E+00  0.00000000000E+00  0.50000000000E+03  0.50000000000E+03  0.00000000000E+00 0. -1.
         11   -1    0    0    0    0 -0.00000000000E+00 -0.00000000000E+00 -0.50000000000E+03  0.50000000000E+03  0.00000000000E+00 0. -1.
        -11    1    1    2    0    0  0.30460198066E+01 -0.12793911368E+02  0.48514535590E+03  0.48532358149E+03  0.00000000000E+00 0. -1.
         11    1    1    2    0    0  0.70801975289E+01 -0.33108515735E+01 -0.48850311150E+03  0.48856563621E+03  0.00000000000E+00 0. -1.
        -15    1    1    2    0    0 -0.14833155296E+02  0.99730617075E+01  0.22939608690E+01  0.18108131912E+02  0.17770000000E+01 0. -1.
         15    1    1    2    0    0  0.47069379607E+01  0.61317012340E+01  0.10637947350E+01  0.80026503877E+01  0.17770000000E+01 0.  1.
</event>
<event>
 6   1  0.1826851E-04  0.5027082E+03  0.7546771E-02  0.9393770E-01
        -11   -1    0    0    0    0  0.00000000000E+00  0.00000000000E+00  0.50000000000E+03  0.50000000000E+03  0.00000000000E+00 0.  1.
         11   -1    0    0    0    0 -0.00000000000E+00 -0.00000000000E+00 -0.50000000000E+03  0.50000000000E+03  0.00000000000E+00 0. -1.
        -11    1    1    2    0    0  0.34548404161E+01 -0.14284960824E+02 -0.15302958345E+02  0.21217364637E+02  0.00000000000E+00 0.  1.
         11    1    1    2    0    0 -0.76813725809E+01  0.17428997241E+02 -0.48111394956E+03  0.48149081599E+03  0.00000000000E+00 0. -1.
        -15    1    1    2    0    0 -0.12371709401E+02 -0.74591528739E+00  0.19149864993E+03  0.19190754607E+03  0.17770000000E+01 0. -1.
         15    1    1    2    0    0  0.16598241566E+02 -0.23981211300E+01  0.30491825797E+03  0.30538427330E+03  0.17770000000E+01 0.  1.
</event>
<event>
 6   1  0.1826851E-04  0.5001893E+03  0.7546771E-02  0.9399386E-01
        -11   -1    0    0    0    0  0.00000000000E+00  0.00000000000E+00  0.50000000000E+03  0.50000000000E+03  0.00000000000E+00 0. -1.
         11   -1    0    0    0    0 -0.00000000000E+00 -0.00000000000E+00 -0.50000000000E+03  0.50000000000E+03  0.00000000000E+00 0.  1.
        -11    1    1    2    0    0 -0.16524714908E+02 -0.21580386534E+02  0.49907105832E+03  0.49981066469E+03  0.00000000000E+00 0. -1.
         11    1    1    2    0    0  0.21530999359E+01  0.94246500211E+01 -0.28091864091E+03  0.28108493855E+03  0.00000000000E+00 0.  1.
        -15    1    1    2    0    0  0.85343854408E+01  0.32135307698E+01 -0.82760518620E+02  0.83280391966E+02  0.17770000000E+01 0.  1.
         15    1    1    2    0    0  0.58372295309E+01  0.89422057430E+01 -0.13539189879E+03  0.13582400480E+03  0.17770000000E+01 0.  1.
</event>
<event>
 6   1  0.1826851E-04  0.4568933E+03  0.7546771E-02  0.9501792E-01
        -11   -1    0    0    0    0  0.00000000000E+00  0.00000000000E+00  0.50000000000E+03  0.50000000000E+03  0.00000000000E+00 0.  1.
         11   -1    0    0    0    0 -0.00000000000E+00 -0.00000000000E+00 -0.50000000000E+03  0.50000000000E+03  0.00000000000E+00 0. -1.
        -11    1    1    2    0    0  0.56637413063E+02 -0.62353320468E+01  0.46703672327E+03  0.47049970968E+03  0.00000000000E+00 0.  1.
         11    1    1    2    0    0 -0.24499861656E+00  0.71584898009E+01 -0.44522793290E+03  0.44528554461E+03  0.00000000000E+00 0. -1.
        -15    1    1    2    0    0 -0.32967012471E+02 -0.26041225343E+02 -0.26199603692E+02  0.49543377874E+02  0.17770000000E+01 0. -1.
         15    1    1    2    0    0 -0.23425401976E+02  0.25118067589E+02  0.43908133271E+01  0.34671367839E+02  0.17770000000E+01 0.  1.
</event>
<event>
 6   1  0.1826851E-04  0.5025380E+03  0.7546771E-02  0.9394149E-01
        -11   -1    0    0    0    0  0.00000000000E+00  0.00000000000E+00  0.50000000000E+03  0.50000000000E+03  0.00000000000E+00 0. -1.
         11   -1    0    0    0    0 -0.00000000000E+00 -0.00000000000E+00 -0.50000000000E+03  0.50000000000E+03  0.00000000000E+00 0. -1.
        -11    1    1    2    0    0  0.11817264047E+01 -0.14166029534E+02  0.46237957495E+03  0.46259803740E+03  0.00000000000E+00 0. -1.
         11    1    1    2    0    0 -0.65402290566E+00  0.75489550935E+01 -0.49740431945E+03  0.49746203018E+03  0.00000000000E+00 0. -1.
        -15    1    1    2    0    0 -0.12883098355E+01  0.11748149086E+02  0.30738993277E+02  0.32980633497E+02  0.17770000000E+01 0. -1.
         15    1    1    2    0    0  0.76060633648E+00 -0.51310746453E+01  0.42857512185E+01  0.69592989245E+01  0.17770000000E+01 0.  1.
</event>
<event>
 6   1  0.1826851E-04  0.5008248E+03  0.7546771E-02  0.9397966E-01
        -11   -1    0    0    0    0  0.00000000000E+00  0.00000000000E+00  0.50000000000E+03  0.50000000000E+03  0.00000000000E+00 0.  1.
         11   -1    0    0    0    0 -0.00000000000E+00 -0.00000000000E+00 -0.50000000000E+03  0.50000000000E+03  0.00000000000E+00 0.  1.
        -11    1    1    2    0    0 -0.46557444024E+01 -0.69980132308E+01  0.39017347976E+03  0.39026400353E+03  0.00000000000E+00 0.  1.
         11    1    1    2    0    0  0.18153279719E+01 -0.91842001798E+01 -0.49908736457E+03  0.49917516207E+03  0.00000000000E+00 0.  1.
        -15    1    1    2    0    0  0.25764677237E+01  0.91719095829E+01  0.85670651798E+02  0.86217054112E+02  0.17770000000E+01 0. -1.
         15    1    1    2    0    0  0.26394870674E+00  0.70103038277E+01  0.23243233018E+02  0.24343780290E+02  0.17770000000E+01 0.  1.
</event>
<event>
 6   1  0.1826851E-04  0.5000489E+03  0.7546771E-02  0.9399700E-01
        -11   -1    0    0    0    0  0.00000000000E+00  0.00000000000E+00  0.50000000000E+03  0.50000000000E+03  0.00000000000E+00 0. -1.
         11   -1    0    0    0    0 -0.00000000000E+00 -0.00000000000E+00 -0.50000000000E+03  0.50000000000E+03  0.00000000000E+00 0.  1.
        -11    1    1    2    0    0  0.53349346644E+01 -0.58681314964E+01  0.23418984913E+03  0.23432409592E+03  0.00000000000E+00 0. -1.
         11    1    1    2    0    0 -0.50663269231E+01  0.71929283524E+01 -0.49987370450E+03  0.49995112395E+03  0.00000000000E+00 0.  1.
        -15    1    1    2    0    0  0.11795045917E+01 -0.66436076242E+00  0.14675598843E+03  0.14677298959E+03  0.17770000000E+01 0.  1.
         15    1    1    2    0    0 -0.14481123329E+01 -0.66043609357E+00  0.11892786695E+03  0.11895179053E+03  0.17770000000E+01 0. -1.
</event>
<event>
 6   1  0.1826851E-04  0.5004952E+03  0.7546771E-02  0.9398702E-01
        -11   -1    0    0    0    0  0.00000000000E+00  0.00000000000E+00  0.50000000000E+03  0.50000000000E+03  0.00000000000E+00 0.  1.
         11   -1    0    0    0    0 -0.00000000000E+00 -0.00000000000E+00 -0.50000000000E+03  0.50000000000E+03  0.00000000000E+00 0.  1.
        -11    1    1    2    0    0  0.62016153272E+01  0.89086750977E+01  0.36590985767E+03  0.36607082438E+03  0.00000000000E+00 0.  1.
         11    1    1    2    0    0 -0.89551782026E+01  0.54769350575E+01 -0.49939450959E+03  0.49950482304E+03  0.00000000000E+00 0.  1.
        -15    1    1    2    0    0  0.29213226174E+00 -0.10883325462E+02  0.10305674070E+03  0.10364546129E+03  0.17770000000E+01 0. -1.
         15    1    1    2    0    0  0.24614306136E+01 -0.35022846934E+01  0.30427911218E+02  0.30778891286E+02  0.17770000000E+01 0.  1.
</event>
<event>
 6   1  0.1826851E-04  0.5358984E+03  0.7546771E-02  0.9322883E-01
        -11   -1    0    0    0    0  0.00000000000E+00  0.00000000000E+00  0.50000000000E+03  0.50000000000E+03  0.00000000000E+00 0.  1.
         11   -1    0    0    0    0 -0.00000000000E+00 -0.00000000000E+00 -0.50000000000E+03  0.50000000000E+03  0.00000000000E+00 0.  1.
        -11    1    1    2    0    0  0.84695889754E+00  0.74386540420E+02  0.45810062249E+03  0.46410155684E+03  0.00000000000E+00 0.  1.
         11    1    1    2    0    0  0.29158898383E+02 -0.53703767974E+01 -0.39985899905E+03  0.40095673261E+03  0.00000000000E+00 0.  1.
        -15    1    1    2    0    0 -0.51220599250E+02 -0.48733973255E+01 -0.11448859646E+02  0.52740249386E+02  0.17770000000E+01 0. -1.
         15    1    1    2    0    0  0.21214741970E+02 -0.64142766297E+02 -0.46792763798E+02  0.82201461166E+02  0.17770000000E+01 0.  1.
</event>
<event>
 6   1  0.1826851E-04  0.4902321E+03  0.7546771E-02  0.9421935E-01
        -11   -1    0    0    0    0  0.00000000000E+00  0.00000000000E+00  0.50000000000E+03  0.50000000000E+03  0.00000000000E+00 0.  1.
         11   -1    0    0    0    0 -0.00000000000E+00 -0.00000000000E+00 -0.50000000000E+03  0.50000000000E+03  0.00000000000E+00 0.  1.
        -11    1    1    2    0    0  0.98354680164E+01  0.10569311692E+02  0.49258749601E+03  0.49279903410E+03  0.00000000000E+00 0.  1.
         11    1    1    2    0    0 -0.10327233614E+02  0.27390286842E+01 -0.48765097777E+03  0.48776800854E+03  0.00000000000E+00 0.  1.
        -15    1    1    2    0    0 -0.31916237721E+01 -0.71078316566E+01 -0.80826534039E+01  0.11366386770E+02  0.17770000000E+01 0.  1.
         15    1    1    2    0    0  0.36833893696E+01 -0.62005087193E+01  0.31461351688E+01  0.80665705927E+01  0.17770000000E+01 0. -1.
</event>
<event>
 6   1  0.1826851E-04  0.5003009E+03  0.7546771E-02  0.9399137E-01
        -11   -1    0    0    0    0  0.00000000000E+00  0.00000000000E+00  0.50000000000E+03  0.50000000000E+03  0.00000000000E+00 0.  1.
         11   -1    0    0    0    0 -0.00000000000E+00 -0.00000000000E+00 -0.50000000000E+03  0.50000000000E+03  0.00000000000E+00 0.  1.
        -11    1    1    2    0    0  0.31799204721E+01  0.24902723377E+01  0.25298552463E+03  0.25301776424E+03  0.00000000000E+00 0.  1.
         11    1    1    2    0    0 -0.23010453541E+01 -0.76300669728E+01 -0.49963552042E+03  0.49969907544E+03  0.00000000000E+00 0.  1.
        -15    1    1    2    0    0  0.25045582828E+01  0.60080974561E+01  0.23257136677E+03  0.23266922533E+03  0.17770000000E+01 0. -1.
         15    1    1    2    0    0 -0.33834334008E+01 -0.86830282102E+00  0.14078629023E+02  0.14613934978E+02  0.17770000000E+01 0.  1.
</event>
<event>
 6   1  0.1826851E-04  0.5035709E+03  0.7546771E-02  0.9391855E-01
        -11   -1    0    0    0    0  0.00000000000E+00  0.00000000000E+00  0.50000000000E+03  0.50000000000E+03  0.00000000000E+00 0.  1.
         11   -1    0    0    0    0 -0.00000000000E+00 -0.00000000000E+00 -0.50000000000E+03  0.50000000000E+03  0.00000000000E+00 0. -1.
        -11    1    1    2    0    0 -0.11554221875E+03  0.99693816402E+01  0.24260147111E+03  0.26889564271E+03  0.00000000000E+00 0.  1.
         11    1    1    2    0    0  0.14892276368E+03  0.15216445171E+02 -0.47332051324E+03  0.49642908658E+03  0.00000000000E+00 0. -1.
        -15    1    1    2    0    0 -0.90461974202E+01 -0.10123122255E+02  0.93031650156E+02  0.94033807493E+02  0.17770000000E+01 0. -1.
         15    1    1    2    0    0 -0.24334347508E+02 -0.15062704556E+02  0.13768739198E+03  0.14064146322E+03  0.17770000000E+01 0.  1.
</event>
<event>
 6   1  0.1826851E-04  0.5071818E+03  0.7546771E-02  0.9383882E-01
        -11   -1    0    0    0    0  0.00000000000E+00  0.00000000000E+00  0.50000000000E+03  0.50000000000E+03  0.00000000000E+00 0. -1.
         11   -1    0    0    0    0 -0.00000000000E+00 -0.00000000000E+00 -0.50000000000E+03  0.50000000000E+03  0.00000000000E+00 0. -1.
        -11    1    1    2    0    0 -0.29244440593E+02 -0.11920686634E+02  0.49180529290E+03  0.49281820806E+03  0.00000000000E+00 0. -1.
         11    1    1    2    0    0 -0.75183011722E+01  0.17982024206E+01 -0.39147122279E+03  0.39154754074E+03  0.00000000000E+00 0. -1.
        -15    1    1    2    0    0  0.35462830298E+02 -0.81944878087E+01 -0.48850563945E+02  0.60945034990E+02  0.17770000000E+01 0.  1.
         15    1    1    2    0    0  0.12999114668E+01  0.18316972022E+02 -0.51483506165E+02  0.54689216212E+02  0.17770000000E+01 0. -1.
</event>
<event>
 6   1  0.1826851E-04  0.4875958E+03  0.7546771E-02  0.9428001E-01
        -11   -1    0    0    0    0  0.00000000000E+00  0.00000000000E+00  0.50000000000E+03  0.50000000000E+03  0.00000000000E+00 0.  1.
         11   -1    0    0    0    0 -0.00000000000E+00 -0.00000000000E+00 -0.50000000000E+03  0.50000000000E+03  0.00000000000E+00 0.  1.
        -11    1    1    2    0    0 -0.19150792230E+01 -0.14095073153E+02  0.48254472228E+03  0.48275433465E+03  0.00000000000E+00 0.  1.
         11    1    1    2    0    0  0.35157007126E+01 -0.58656611443E+01 -0.49264762475E+03  0.49269508654E+03  0.00000000000E+00 0.  1.
        -15    1    1    2    0    0 -0.17423402925E+01  0.18225488811E+02  0.11503707993E+02  0.21695557579E+02  0.17770000000E+01 0.  1.
         15    1    1    2    0    0  0.14171880289E+00  0.17352454862E+01 -0.14008055302E+01  0.28550212346E+01  0.17770000000E+01 0.  1.
</event>
<event>
 6   1  0.1826851E-04  0.5038282E+03  0.7546771E-02  0.9391284E-01
        -11   -1    0    0    0    0  0.00000000000E+00  0.00000000000E+00  0.50000000000E+03  0.50000000000E+03  0.00000000000E+00 0.  1.
         11   -1    0    0    0    0 -0.00000000000E+00 -0.00000000000E+00 -0.50000000000E+03  0.50000000000E+03  0.00000000000E+00 0. -1.
        -11    1    1    2    0    0 -0.26295155557E+02  0.74378181585E+01  0.49541867838E+03  0.49617176787E+03  0.00000000000E+00 0.  1.
         11    1    1    2    0    0  0.11590032545E+02  0.22194834617E+02 -0.38058856161E+03  0.38141131704E+03  0.00000000000E+00 0. -1.
        -15    1    1    2    0    0 -0.22384719137E+01 -0.21094263535E+02 -0.79199876619E+02  0.82010712081E+02  0.17770000000E+01 0. -1.
         15    1    1    2    0    0  0.16943594926E+02 -0.85383892403E+01 -0.35630240148E+02  0.40406203012E+02  0.17770000000E+01 0.  1.
</event>
<event>
 6   1  0.1826851E-04  0.4828834E+03  0.7546771E-02  0.9438946E-01
        -11   -1    0    0    0    0  0.00000000000E+00  0.00000000000E+00  0.50000000000E+03  0.50000000000E+03  0.00000000000E+00 0.  1.
         11   -1    0    0    0    0 -0.00000000000E+00 -0.00000000000E+00 -0.50000000000E+03  0.50000000000E+03  0.00000000000E+00 0.  1.
        -11    1    1    2    0    0  0.68898325625E+01 -0.18040568817E+02  0.48970308536E+03  0.49008371094E+03  0.00000000000E+00 0.  1.
         11    1    1    2    0    0 -0.41267784216E+01 -0.81650371748E+01 -0.47605103713E+03  0.47613893780E+03  0.00000000000E+00 0.  1.
        -15    1    1    2    0    0  0.31983085654E+00  0.67324609760E+01  0.33028738060E+01  0.77133019485E+01  0.17770000000E+01 0.  1.
         15    1    1    2    0    0 -0.30828849974E+01  0.19473145016E+02 -0.16954922035E+02  0.26064049319E+02  0.17770000000E+01 0. -1.
</event>
<event>
 6   1  0.1826851E-04  0.5000769E+03  0.7546771E-02  0.9399638E-01
        -11   -1    0    0    0    0  0.00000000000E+00  0.00000000000E+00  0.50000000000E+03  0.50000000000E+03  0.00000000000E+00 0. -1.
         11   -1    0    0    0    0 -0.00000000000E+00 -0.00000000000E+00 -0.50000000000E+03  0.50000000000E+03  0.00000000000E+00 0. -1.
        -11    1    1    2    0    0  0.49263037105E+00  0.14195331799E+01  0.24717825618E+02  0.24763454170E+02  0.00000000000E+00 0. -1.
         11    1    1    2    0    0  0.12261306129E+02 -0.52811103420E+00 -0.49977244338E+03  0.49992310778E+03  0.00000000000E+00 0. -1.
        -15    1    1    2    0    0 -0.83084537084E+01 -0.82678896463E+00  0.40748147087E+03  0.40757087827E+03  0.17770000000E+01 0. -1.
         15    1    1    2    0    0 -0.44454827919E+01 -0.64633181108E-01  0.67573146894E+02  0.67742559775E+02  0.17770000000E+01 0.  1.
</event>
<event>
 6   1  0.1826851E-04  0.5090590E+03  0.7546771E-02  0.9379765E-01
        -11   -1    0    0    0    0  0.00000000000E+00  0.00000000000E+00  0.50000000000E+03  0.50000000000E+03  0.00000000000E+00 0. -1.
         11   -1    0    0    0    0 -0.00000000000E+00 -0.00000000000E+00 -0.50000000000E+03  0.50000000000E+03  0.00000000000E+00 0.  1.
        -11    1    1    2    0    0  0.30818081759E+02  0.78815987367E+01  0.45556631430E+03  0.45667553086E+03  0.00000000000E+00 0. -1.
         11    1    1    2    0    0  0.58420241964E+01 -0.40819264994E+01 -0.49088924777E+03  0.49094097909E+03  0.00000000000E+00 0.  1.
        -15    1    1    2    0    0 -0.32536956892E+02 -0.10959848154E+01  0.33715659369E+02  0.46901579528E+02  0.17770000000E+01 0.  1.
         15    1    1    2    0    0 -0.41231490640E+01 -0.27036874219E+01  0.16072741026E+01  0.54819105174E+01  0.17770000000E+01 0. -1.
</event>
<event>
 6   1  0.1826851E-04  0.5009044E+03  0.7546771E-02  0.9397788E-01
        -11   -1    0    0    0    0  0.00000000000E+00  0.00000000000E+00  0.50000000000E+03  0.50000000000E+03  0.00000000000E+00 0. -1.
         11   -1    0    0    0    0 -0.00000000000E+00 -0.00000000000E+00 -0.50000000000E+03  0.50000000000E+03  0.00000000000E+00 0.  1.
        -11    1    1    2    0    0  0.10941629271E+02 -0.71402357560E+01  0.49892451500E+03  0.49909555587E+03  0.00000000000E+00 0. -1.
         11    1    1    2    0    0 -0.52933871464E+00  0.63233990212E+01 -0.45034300742E+03  0.45038771065E+03  0.00000000000E+00 0.  1.
        -15    1    1    2    0    0 -0.17566812873E+00 -0.19850243696E+01 -0.15522233867E+02  0.15750195372E+02  0.17770000000E+01 0.  1.
         15    1    1    2    0    0 -0.10236622427E+02  0.28018611043E+01 -0.33059273715E+02  0.34766538107E+02  0.17770000000E+01 0.  1.
</event>
<event>
 6   1  0.1826851E-04  0.5003088E+03  0.7546771E-02  0.9399119E-01
        -11   -1    0    0    0    0  0.00000000000E+00  0.00000000000E+00  0.50000000000E+03  0.50000000000E+03  0.00000000000E+00 0.  1.
         11   -1    0    0    0    0 -0.00000000000E+00 -0.00000000000E+00 -0.50000000000E+03  0.50000000000E+03  0.00000000000E+00 0.  1.
        -11    1    1    2    0    0  0.16371146562E+02 -0.12769456666E+02  0.49925964849E+03  0.49969117470E+03  0.00000000000E+00 0.  1.
         11    1    1    2    0    0 -0.25882416140E+01 -0.22799200951E+01 -0.12524253266E+03  0.12529001963E+03  0.00000000000E+00 0.  1.
        -15    1    1    2    0    0 -0.72312760933E+01  0.63888276650E+01 -0.59053680307E+02  0.59863205391E+02  0.17770000000E+01 0. -1.
         15    1    1    2    0    0 -0.65516288549E+01  0.86605490961E+01 -0.31496343551E+03  0.31515560029E+03  0.17770000000E+01 0.  1.
</event>
<event>
 6   1  0.1826851E-04  0.5011271E+03  0.7546771E-02  0.9397291E-01
        -11   -1    0    0    0    0  0.00000000000E+00  0.00000000000E+00  0.50000000000E+03  0.50000000000E+03  0.00000000000E+00 0. -1.
         11   -1    0    0    0    0 -0.00000000000E+00 -0.00000000000E+00 -0.50000000000E+03  0.50000000000E+03  0.00000000000E+00 0.  1.
        -11    1    1    2    0    0  0.94277617472E+01  0.24493962700E+01  0.49877777067E+03  0.49887287634E+03  0.00000000000E+00 0. -1.
         11    1    1    2    0    0 -0.49107881526E+01  0.57168660300E+01 -0.45181167834E+03  0.45187453025E+03  0.00000000000E+00 0.  1.
        -15    1    1    2    0    0  0.49489333833E+00 -0.90579547164E+01 -0.25639158084E+02  0.27254643995E+02  0.17770000000E+01 0.  1.
         15    1    1    2    0    0 -0.50118669329E+01  0.89169241638E+00 -0.21326934241E+02  0.21997949419E+02  0.17770000000E+01 0. -1.
</event>
<event>
 6   1  0.1826851E-04  0.5005870E+03  0.7546771E-02  0.9398497E-01
        -11   -1    0    0    0    0  0.00000000000E+00  0.00000000000E+00  0.50000000000E+03  0.50000000000E+03  0.00000000000E+00 0. -1.
         11   -1    0    0    0    0 -0.00000000000E+00 -0.00000000000E+00 -0.50000000000E+03  0.50000000000E+03  0.00000000000E+00 0. -1.
        -11    1    1    2    0    0 -0.74140063544E+01 -0.48789724908E+01  0.49933412569E+03  0.49941299637E+03  0.00000000000E+00 0. -1.
         11    1    1    2    0    0  0.19616502816E+00 -0.62325946567E+01 -0.38652331593E+03  0.38657361197E+03  0.00000000000E+00 0. -1.
        -15    1    1    2    0    0  0.43835078677E+01  0.74806773853E+00 -0.53274926530E+02  0.53489721184E+02  0.17770000000E+01 0.  1.
         15    1    1    2    0    0  0.28343334586E+01  0.10363499409E+02 -0.59535883232E+02  0.60523670472E+02  0.17770000000E+01 0. -1.
</event>
<event>
 6   1  0.1826851E-04  0.5031950E+03  0.7546771E-02  0.9392689E-01
        -11   -1    0    0    0    0  0.00000000000E+00  0.00000000000E+00  0.50000000000E+03  0.50000000000E+03  0.00000000000E+00 0. -1.
         11   -1    0    0    0    0 -0.00000000000E+00 -0.00000000000E+00 -0.50000000000E+03  0.50000000000E+03  0.00000000000E+00 0.  1.
        -11    1    1    2    0    0  0.12504469334E+02  0.15205524341E+01  0.44172361896E+03  0.44190319006E+03  0.00000000000E+00 0. -1.
         11    1    1    2    0    0  0.15977197119E+01  0.20121843108E+02 -0.49639475187E+03  0.49680498282E+03  0.00000000000E+00 0.  1.
        -15    1    1    2    0    0 -0.10452748932E+01 -0.56798105135E-01  0.20449036655E+01  0.29043391036E+01  0.17770000000E+01 0. -1.
         15    1    1    2    0    0 -0.13056914153E+02 -0.21585597437E+02  0.52626229239E+02  0.58387488016E+02  0.17770000000E+01 0.  1.
</event>
<event>
 6   1  0.1826851E-04  0.5009830E+03  0.7546771E-02  0.9397613E-01
        -11   -1    0    0    0    0  0.00000000000E+00  0.00000000000E+00  0.50000000000E+03  0.50000000000E+03  0.00000000000E+00 0.  1.
         11   -1    0    0    0    0 -0.00000000000E+00 -0.00000000000E+00 -0.50000000000E+03  0.50000000000E+03  0.00000000000E+00 0. -1.
        -11    1    1    2    0    0  0.32389350540E+02  0.10668154207E+02  0.49785044127E+03  0.49901697508E+03  0.00000000000E+00 0.  1.
         11    1    1    2    0    0  0.37619598588E+00  0.34633782735E+01 -0.25537375028E+03  0.25539751143E+03  0.00000000000E+00 0. -1.
        -15    1    1    2    0    0 -0.14444482734E+02 -0.12403785302E+01 -0.61078619229E+02  0.62800772896E+02  0.17770000000E+01 0. -1.
         15    1    1    2    0    0 -0.18321063793E+02 -0.12891153950E+02 -0.18139807176E+03  0.18278474060E+03  0.17770000000E+01 0.  1.
</event>
<event>
 6   1  0.1826851E-04  0.5130561E+03  0.7546771E-02  0.9371060E-01
        -11   -1    0    0    0    0  0.00000000000E+00  0.00000000000E+00  0.50000000000E+03  0.50000000000E+03  0.00000000000E+00 0. -1.
         11   -1    0    0    0    0 -0.00000000000E+00 -0.00000000000E+00 -0.50000000000E+03  0.50000000000E+03  0.00000000000E+00 0. -1.
        -11    1    1    2    0    0 -0.68130951740E+02 -0.12783964933E+03  0.46489737538E+03  0.48694391069E+03  0.00000000000E+00 0. -1.
         11    1    1    2    0    0 -0.33911308652E+01 -0.97135652865E+00 -0.14375886966E+03  0.14380214153E+03  0.00000000000E+00 0. -1.
        -15    1    1    2    0    0  0.41893477800E+02  0.14195141967E+03 -0.28130369649E+03  0.31786820605E+03  0.17770000000E+01 0. -1.
         15    1    1    2    0    0  0.29628604805E+02 -0.13140413818E+02 -0.39834809226E+02  0.51385741729E+02  0.17770000000E+01 0.  1.
</event>
<event>
 6   1  0.1826851E-04  0.5001486E+03  0.7546771E-02  0.9399477E-01
        -11   -1    0    0    0    0  0.00000000000E+00  0.00000000000E+00  0.50000000000E+03  0.50000000000E+03  0.00000000000E+00 0.  1.
         11   -1    0    0    0    0 -0.00000000000E+00 -0.00000000000E+00 -0.50000000000E+03  0.50000000000E+03  0.00000000000E+00 0. -1.
        -11    1    1    2    0    0  0.12871505616E+02  0.46434791603E+01  0.49966410527E+03  0.49985143357E+03  0.00000000000E+00 0.  1.
         11    1    1    2    0    0 -0.15396158747E+02 -0.66160624974E+01 -0.37418876696E+03  0.37456380940E+03  0.00000000000E+00 0. -1.
        -15    1    1    2    0    0  0.10263902863E+01  0.44794947356E+00 -0.77875513417E+02  0.77903834659E+02  0.17770000000E+01 0. -1.
         15    1    1    2    0    0  0.14982628453E+01  0.15246338636E+01 -0.47599824885E+02  0.47680922370E+02  0.17770000000E+01 0.  1.
</event>
<event>
 6   1  0.1826851E-04  0.5053567E+03  0.7546771E-02  0.9387903E-01
        -11   -1    0    0    0    0  0.00000000000E+00  0.00000000000E+00  0.50000000000E+03  0.50000000000E+03  0.00000000000E+00 0.  1.
         11   -1    0    0    0    0 -0.00000000000E+00 -0.00000000000E+00 -0.50000000000E+03  0.50000000000E+03  0.00000000000E+00 0.  1.
        -11    1    1    2    0    0 -0.77045855529E+01 -0.48909973315E+02  0.49215899796E+03  0.49464333150E+03  0.00000000000E+00 0.  1.
         11    1    1    2    0    0 -0.55953484543E+01  0.16668915703E+00 -0.31774700945E+03  0.31779631483E+03  0.00000000000E+00 0.  1.
        -15    1    1    2    0    0  0.19377230898E+02  0.33451727662E+02 -0.16281515262E+03  0.16735120798E+03  0.17770000000E+01 0.  1.
         15    1    1    2    0    0 -0.60772968907E+01  0.15291556496E+02 -0.11596835898E+02  0.20209145688E+02  0.17770000000E+01 0. -1.
</event>
<event>
 6   1  0.1826851E-04  0.5052182E+03  0.7546771E-02  0.9388209E-01
        -11   -1    0    0    0    0  0.00000000000E+00  0.00000000000E+00  0.50000000000E+03  0.50000000000E+03  0.00000000000E+00 0.  1.
         11   -1    0    0    0    0 -0.00000000000E+00 -0.00000000000E+00 -0.50000000000E+03  0.50000000000E+03  0.00000000000E+00 0.  1.
        -11    1    1    2    0    0  0.45629504939E+02 -0.49063016708E+02  0.49022422370E+03  0.49478179112E+03  0.00000000000E+00 0.  1.
         11    1    1    2    0    0 -0.13323367975E+01 -0.98232105421E+01 -0.15058402121E+03  0.15090996664E+03  0.00000000000E+00 0.  1.
        -15    1    1    2    0    0 -0.47433629499E+02  0.48124235016E+02 -0.15232129680E+03  0.16664581120E+03  0.17770000000E+01 0.  1.
         15    1    1    2    0    0  0.31364613575E+01  0.10761992234E+02 -0.18731890568E+03  0.18766243103E+03  0.17770000000E+01 0. -1.
</event>
<event>
 6   1  0.1826851E-04  0.5020054E+03  0.7546771E-02  0.9395334E-01
        -11   -1    0    0    0    0  0.00000000000E+00  0.00000000000E+00  0.50000000000E+03  0.50000000000E+03  0.00000000000E+00 0.  1.
         11   -1    0    0    0    0 -0.00000000000E+00 -0.00000000000E+00 -0.50000000000E+03  0.50000000000E+03  0.00000000000E+00 0.  1.
        -11    1    1    2    0    0 -0.25316135370E+02 -0.18085079944E+02  0.49702177999E+03  0.49799460500E+03  0.00000000000E+00 0.  1.
         11    1    1    2    0    0 -0.36334292067E+01  0.51517009048E+01 -0.37749490941E+03  0.37754754464E+03  0.00000000000E+00 0.  1.
        -15    1    1    2    0    0  0.13673791365E+02  0.70344338358E+01 -0.33980100051E+02  0.37339801260E+02  0.17770000000E+01 0.  1.
         15    1    1    2    0    0  0.15275773212E+02  0.58989452032E+01 -0.85546770529E+02  0.87118049098E+02  0.17770000000E+01 0. -1.
</event>
<event>
 6   1  0.1826851E-04  0.5016581E+03  0.7546771E-02  0.9396107E-01
        -11   -1    0    0    0    0  0.00000000000E+00  0.00000000000E+00  0.50000000000E+03  0.50000000000E+03  0.00000000000E+00 0.  1.
         11   -1    0    0    0    0 -0.00000000000E+00 -0.00000000000E+00 -0.50000000000E+03  0.50000000000E+03  0.00000000000E+00 0. -1.
        -11    1    1    2    0    0 -0.25897841075E+01  0.57696762828E+01  0.46738222954E+03  0.46742501499E+03  0.00000000000E+00 0.  1.
         11    1    1    2    0    0  0.45628942757E+01  0.77765162927E+01 -0.49826033406E+03  0.49834190543E+03  0.00000000000E+00 0. -1.
        -15    1    1    2    0    0  0.97710197591E+00 -0.25622256397E+01  0.66599925845E+01  0.74184202312E+01  0.17770000000E+01 0.  1.
         15    1    1    2    0    0 -0.29502121441E+01 -0.10983966936E+02  0.24218111937E+02  0.26814659351E+02  0.17770000000E+01 0.  1.
</event>
<event>
 6   1  0.1826851E-04  0.4857460E+03  0.7546771E-02  0.9432281E-01
        -11   -1    0    0    0    0  0.00000000000E+00  0.00000000000E+00  0.50000000000E+03  0.50000000000E+03  0.00000000000E+00 0.  1.
         11   -1    0    0    0    0 -0.00000000000E+00 -0.00000000000E+00 -0.50000000000E+03  0.50000000000E+03  0.00000000000E+00 0.  1.
        -11    1    1    2    0    0  0.14458507039E+02 -0.18125547117E+02  0.48307482120E+03  0.48363091998E+03  0.00000000000E+00 0.  1.
         11    1    1    2    0    0 -0.10650905098E+02 -0.25233899369E+01 -0.48797754266E+03  0.48810028828E+03  0.00000000000E+00 0.  1.
        -15    1    1    2    0    0  0.58226764670E+01  0.13615372815E+02  0.61804743560E+01  0.16144284760E+02  0.17770000000E+01 0.  1.
         15    1    1    2    0    0 -0.96302784082E+01  0.70335642388E+01 -0.12777528926E+01  0.12124506983E+02  0.17770000000E+01 0. -1.
</event>
<event>
 6   1  0.1826851E-04  0.5014941E+03  0.7546771E-02  0.9396473E-01
        -11   -1    0    0    0    0  0.00000000000E+00  0.00000000000E+00  0.50000000000E+03  0.50000000000E+03  0.00000000000E+00 0.  1.
         11   -1    0    0    0    0 -0.00000000000E+00 -0.00000000000E+00 -0.50000000000E+03  0.50000000000E+03  0.00000000000E+00 0.  1.
        -11    1    1    2    0    0  0.12626540105E+02 -0.30760697912E+02  0.49739570515E+03  0.49850590523E+03  0.00000000000E+00 0.  1.
         11    1    1    2    0    0  0.94106347272E+01 -0.86916774940E+00 -0.27162839696E+03  0.27179275474E+03  0.00000000000E+00 0.  1.
        -15    1    1    2    0    0 -0.10346143724E+02  0.57211197694E+01 -0.10207076852E+03  0.10276854293E+03  0.17770000000E+01 0.  1.
         15    1    1    2    0    0 -0.11691031108E+02  0.25908745892E+02 -0.12369653967E+03  0.12693279709E+03  0.17770000000E+01 0. -1.
</event>
<event>
 6   1  0.1826851E-04  0.5014443E+03  0.7546771E-02  0.9396584E-01
        -11   -1    0    0    0    0  0.00000000000E+00  0.00000000000E+00  0.50000000000E+03  0.50000000000E+03  0.00000000000E+00 0.  1.
         11   -1    0    0    0    0 -0.00000000000E+00 -0.00000000000E+00 -0.50000000000E+03  0.50000000000E+03  0.00000000000E+00 0.  1.
        -11    1    1    2    0    0 -0.13159643955E+02 -0.45968101338E+01  0.35666429003E+03  0.35693658075E+03  0.00000000000E+00 0.  1.
         11    1    1    2    0    0  0.58048521559E+01 -0.58237143986E+01 -0.49848786423E+03  0.49855567667E+03  0.00000000000E+00 0.  1.
        -15    1    1    2    0    0 -0.46066197220E+00  0.66152551394E+01  0.12732443458E+03  0.12750938468E+03  0.17770000000E+01 0.  1.
         15    1    1    2    0    0  0.78154537708E+01  0.38052693930E+01  0.14499139612E+02  0.16998357900E+02  0.17770000000E+01 0. -1.
</event>
<event>
 6   1  0.1826851E-04  0.5004742E+03  0.7546771E-02  0.9398749E-01
        -11   -1    0    0    0    0  0.00000000000E+00  0.00000000000E+00  0.50000000000E+03  0.50000000000E+03  0.00000000000E+00 0. -1.
         11   -1    0    0    0    0 -0.00000000000E+00 -0.00000000000E+00 -0.50000000000E+03  0.50000000000E+03  0.00000000000E+00 0. -1.
        -11    1    1    2    0    0  0.18749278075E+01  0.94891132330E+01  0.49943211893E+03  0.49952577516E+03  0.00000000000E+00 0. -1.
         11    1    1    2    0    0  0.57906928271E+01  0.16824281891E+00 -0.39013880018E+03  0.39018180870E+03  0.00000000000E+00 0. -1.
        -15    1    1    2    0    0 -0.53500759527E+01 -0.51256192354E+01 -0.35806927558E+02  0.36608592917E+02  0.17770000000E+01 0. -1.
         15    1    1    2    0    0 -0.23155446818E+01 -0.45317368165E+01 -0.73486391192E+02  0.73683823226E+02  0.17770000000E+01 0.  1.
</event>
<event>
 6   1  0.1826851E-04  0.5022444E+03  0.7546771E-02  0.9394802E-01
        -11   -1    0    0    0    0  0.00000000000E+00  0.00000000000E+00  0.50000000000E+03  0.50000000000E+03  0.00000000000E+00 0.  1.
         11   -1    0    0    0    0 -0.00000000000E+00 -0.00000000000E+00 -0.50000000000E+03  0.50000000000E+03  0.00000000000E+00 0. -1.
        -11    1    1    2    0    0  0.25231263998E+02 -0.20855871931E+02  0.15290190914E+03  0.15636680561E+03  0.00000000000E+00 0.  1.
         11    1    1    2    0    0 -0.95355172126E+01 -0.10056749205E+00 -0.49766424735E+03  0.49775560197E+03  0.00000000000E+00 0. -1.
        -15    1    1    2    0    0 -0.13576651719E+02  0.20721439450E+02  0.31927426016E+03  0.32023883970E+03  0.17770000000E+01 0.  1.
         15    1    1    2    0    0 -0.21190950658E+01  0.23499997291E+00  0.25488078054E+02  0.25638752714E+02  0.17770000000E+01 0.  1.
</event>
<event>
 6   1  0.1826851E-04  0.5086111E+03  0.7546771E-02  0.9380745E-01
        -11   -1    0    0    0    0  0.00000000000E+00  0.00000000000E+00  0.50000000000E+03  0.50000000000E+03  0.00000000000E+00 0.  1.
         11   -1    0    0    0    0 -0.00000000000E+00 -0.00000000000E+00 -0.50000000000E+03  0.50000000000E+03  0.00000000000E+00 0.  1.
        -11    1    1    2    0    0 -0.10615401796E+02  0.64972013539E+01  0.49123126892E+03  0.49138890906E+03  0.00000000000E+00 0.  1.
         11    1    1    2    0    0 -0.13440061846E+01 -0.67693132562E+01 -0.48420606056E+03  0.48425524162E+03  0.00000000000E+00 0.  1.
        -15    1    1    2    0    0  0.45888687085E+01  0.75427369418E+01 -0.99808774493E+01  0.13443445996E+02  0.17770000000E+01 0.  1.
         15    1    1    2    0    0  0.73705392717E+01 -0.72706250395E+01  0.29556690898E+01  0.10912403328E+02  0.17770000000E+01 0.  1.
</event>
<event>
 6   1  0.1826851E-04  0.4614022E+03  0.7546771E-02  0.9490575E-01
        -11   -1    0    0    0    0  0.00000000000E+00  0.00000000000E+00  0.50000000000E+03  0.50000000000E+03  0.00000000000E+00 0.  1.
         11   -1    0    0    0    0 -0.00000000000E+00 -0.00000000000E+00 -0.50000000000E+03  0.50000000000E+03  0.00000000000E+00 0.  1.
        -11    1    1    2    0    0 -0.44940575228E+02  0.53279577561E+00  0.45429081224E+03  0.45650857742E+03  0.00000000000E+00 0.  1.
         11    1    1    2    0    0 -0.54026094862E+01  0.18544378371E+02 -0.46756132207E+03  0.46796011802E+03  0.00000000000E+00 0.  1.
        -15    1    1    2    0    0  0.16991435649E+02 -0.22404119193E+02 -0.14755472811E+02  0.31804640371E+02  0.17770000000E+01 0. -1.
         15    1    1    2    0    0  0.33351749065E+02  0.33269450470E+01  0.28025982639E+02  0.43726664187E+02  0.17770000000E+01 0.  1.
</event>
<event>
 6   1  0.1826851E-04  0.4132012E+03  0.7546771E-02  0.9618180E-01
        -11   -1    0    0    0    0  0.00000000000E+00  0.00000000000E+00  0.50000000000E+03  0.50000000000E+03  0.00000000000E+00 0.  1.
         11   -1    0    0    0    0 -0.00000000000E+00 -0.00000000000E+00 -0.50000000000E+03  0.50000000000E+03  0.00000000000E+00 0.  1.
        -11    1    1    2    0    0  0.13768458821E+02  0.93159217768E+02  0.43947170891E+03  0.44944809850E+03  0.00000000000E+00 0.  1.
         11    1    1    2    0    0 -0.30291608393E+02  0.47262082411E+02 -0.38657474681E+03  0.39062939066E+03  0.00000000000E+00 0.  1.
        -15    1    1    2    0    0  0.10858668623E+02 -0.78847692840E+02 -0.17078306341E+01  0.79630043105E+02  0.17770000000E+01 0.  1.
         15    1    1    2    0    0  0.56644809481E+01 -0.61573607340E+02 -0.51189131470E+02  0.80292467734E+02  0.17770000000E+01 0. -1.
</event>
<event>
 6   1  0.1826851E-04  0.5033468E+03  0.7546771E-02  0.9392352E-01
        -11   -1    0    0    0    0  0.00000000000E+00  0.00000000000E+00  0.50000000000E+03  0.50000000000E+03  0.00000000000E+00 0. -1.
         11   -1    0    0    0    0 -0.00000000000E+00 -0.00000000000E+00 -0.50000000000E+03  0.50000000000E+03  0.00000000000E+00 0.  1.
        -11    1    1    2    0    0 -0.32616173802E+02 -0.17084594925E+00  0.49558103725E+03  0.49665320744E+03  0.00000000000E+00 0. -1.
         11    1    1    2    0    0 -0.26993574197E+01 -0.68891801186E+01 -0.41127433897E+03  0.41134089175E+03  0.00000000000E+00 0.  1.
        -15    1    1    2    0    0  0.65839583071E+01  0.30153564596E+01 -0.22524839110E+02  0.23726925370E+02  0.17770000000E+01 0. -1.
         15    1    1    2    0    0  0.28731572915E+02  0.40446696082E+01 -0.61781859175E+02  0.68278975435E+02  0.17770000000E+01 0.  1.
</event>
<event>
 6   1  0.1826851E-04  0.5008418E+03  0.7546771E-02  0.9397928E-01
        -11   -1    0    0    0    0  0.00000000000E+00  0.00000000000E+00  0.50000000000E+03  0.50000000000E+03  0.00000000000E+00 0. -1.
         11   -1    0    0    0    0 -0.00000000000E+00 -0.00000000000E+00 -0.50000000000E+03  0.50000000000E+03  0.00000000000E+00 0.  1.
        -11    1    1    2    0    0 -0.32887301065E+02  0.35617299951E+02  0.49679844815E+03  0.49915815601E+03  0.00000000000E+00 0. -1.
         11    1    1    2    0    0  0.39125196653E+02 -0.32696935083E+02 -0.35019299447E+03  0.35388558031E+03  0.00000000000E+00 0.  1.
        -15    1    1    2    0    0 -0.58751049828E+01 -0.43965692123E+01 -0.12415214832E+03  0.12438151125E+03  0.17770000000E+01 0.  1.
         15    1    1    2    0    0 -0.36279060545E+00  0.14762043449E+01 -0.22453305363E+02  0.22574752424E+02  0.17770000000E+01 0. -1.
</event>
<event>
 6   1  0.1826851E-04  0.5002923E+03  0.7546771E-02  0.9399156E-01
        -11   -1    0    0    0    0  0.00000000000E+00  0.00000000000E+00  0.50000000000E+03  0.50000000000E+03  0.00000000000E+00 0. -1.
         11   -1    0    0    0    0 -0.00000000000E+00 -0.00000000000E+00 -0.50000000000E+03  0.50000000000E+03  0.00000000000E+00 0. -1.
        -11    1    1    2    0    0 -0.36517299743E+00  0.80843600605E+01  0.21434905362E+03  0.21450176460E+03  0.00000000000E+00 0. -1.
         11    1    1    2    0    0 -0.47515031289E+01  0.67573142574E+01 -0.49963939429E+03  0.49970767695E+03  0.00000000000E+00 0. -1.
        -15    1    1    2    0    0  0.29108881752E+01 -0.25169987122E+01  0.66206555834E+02  0.66342100637E+02  0.17770000000E+01 0.  1.
         15    1    1    2    0    0  0.22057879511E+01 -0.12324675606E+02  0.21908378483E+03  0.21944845781E+03  0.17770000000E+01 0. -1.
</event>
<event>
 6   1  0.1826851E-04  0.5107015E+03  0.7546771E-02  0.9376178E-01
        -11   -1    0    0    0    0  0.00000000000E+00  0.00000000000E+00  0.50000000000E+03  0.50000000000E+03  0.00000000000E+00 0. -1.
         11   -1    0    0    0    0 -0.00000000000E+00 -0.00000000000E+00 -0.50000000000E+03  0.50000000000E+03  0.00000000000E+00 0. -1.
        -11    1    1    2    0    0 -0.15007843789E+02  0.22238367206E+02  0.48856244945E+03  0.48929852582E+03  0.00000000000E+00 0. -1.
         11    1    1    2    0    0 -0.20639698225E+01  0.98843252641E+01 -0.46334674304E+03  0.46345675542E+03  0.00000000000E+00 0. -1.
        -15    1    1    2    0    0  0.88574831424E+01 -0.20357714571E+02 -0.23989294772E+02  0.32734317509E+02  0.17770000000E+01 0.  1.
         15    1    1    2    0    0  0.82143304686E+01 -0.11764977899E+02 -0.12264116352E+01  0.14510401253E+02  0.17770000000E+01 0. -1.
</event>
<event>
 6   1  0.1826851E-04  0.5018751E+03  0.7546771E-02  0.9395624E-01
        -11   -1    0    0    0    0  0.00000000000E+00  0.00000000000E+00  0.50000000000E+03  0.50000000000E+03  0.00000000000E+00 0. -1.
         11   -1    0    0    0    0 -0.00000000000E+00 -0.00000000000E+00 -0.50000000000E+03  0.50000000000E+03  0.00000000000E+00 0. -1.
        -11    1    1    2    0    0 -0.23493735312E+02  0.51711783755E+01  0.25877964719E+03  0.25989536834E+03  0.00000000000E+00 0. -1.
         11    1    1    2    0    0  0.33230340234E+02 -0.37789329043E+02 -0.49557657197E+03  0.49812491163E+03  0.00000000000E+00 0. -1.
        -15    1    1    2    0    0 -0.20083351714E+02  0.66794681188E+01  0.12098129801E+03  0.12283154525E+03  0.17770000000E+01 0.  1.
         15    1    1    2    0    0  0.10346746792E+02  0.25938682548E+02  0.11581562677E+03  0.11914817478E+03  0.17770000000E+01 0. -1.
</event>
<event>
 6   1  0.1826851E-04  0.5014585E+03  0.7546771E-02  0.9396552E-01
        -11   -1    0    0    0    0  0.00000000000E+00  0.00000000000E+00  0.50000000000E+03  0.50000000000E+03  0.00000000000E+00 0.  1.
         11   -1    0    0    0    0 -0.00000000000E+00 -0.00000000000E+00 -0.50000000000E+03  0.50000000000E+03  0.00000000000E+00 0. -1.
        -11    1    1    2    0    0 -0.54763360479E+01  0.79640121892E+01  0.45566855254E+03  0.45577104507E+03  0.00000000000E+00 0.  1.
         11    1    1    2    0    0 -0.68696097597E+01 -0.82785876202E+00 -0.49849347298E+03  0.49854149225E+03  0.00000000000E+00 0. -1.
        -15    1    1    2    0    0  0.91880483783E+01 -0.66247348895E+01  0.25188143200E+02  0.27675036264E+02  0.17770000000E+01 0. -1.
         15    1    1    2    0    0  0.31578974294E+01 -0.51141853777E+00  0.17636777240E+02  0.18012426419E+02  0.17770000000E+01 0.  1.
</event>
<event>
 6   1  0.1826851E-04  0.5012947E+03  0.7546771E-02  0.9396917E-01
        -11   -1    0    0    0    0  0.00000000000E+00  0.00000000000E+00  0.50000000000E+03  0.50000000000E+03  0.00000000000E+00 0.  1.
         11   -1    0    0    0    0 -0.00000000000E+00 -0.00000000000E+00 -0.50000000000E+03  0.50000000000E+03  0.00000000000E+00 0. -1.
        -11    1    1    2    0    0  0.10640034278E+02 -0.78826732325E+00  0.66812573527E+02  0.67659084210E+02  0.00000000000E+00 0.  1.
         11    1    1    2    0    0 -0.90986460210E+01  0.54979675865E+01 -0.49859195918E+03  0.49870527846E+03  0.00000000000E+00 0. -1.
        -15    1    1    2    0    0 -0.38603906288E+01  0.99717615047E+01  0.36656663780E+03  0.36672686883E+03  0.17770000000E+01 0.  1.
         15    1    1    2    0    0  0.23190023716E+01 -0.14681461768E+02  0.65212747847E+02  0.66908768502E+02  0.17770000000E+01 0. -1.
</event>
<event>
 6   1  0.1826851E-04  0.5048832E+03  0.7546771E-02  0.9388949E-01
        -11   -1    0    0    0    0  0.00000000000E+00  0.00000000000E+00  0.50000000000E+03  0.50000000000E+03  0.00000000000E+00 0.  1.
         11   -1    0    0    0    0 -0.00000000000E+00 -0.00000000000E+00 -0.50000000000E+03  0.50000000000E+03  0.00000000000E+00 0. -1.
        -11    1    1    2    0    0 -0.11710941619E+02 -0.17003439711E+02 -0.15305687327E+02  0.25700723339E+02  0.00000000000E+00 0.  1.
         11    1    1    2    0    0  0.64383747681E+01  0.15655017670E+02 -0.47888336113E+03  0.47918243480E+03  0.00000000000E+00 0. -1.
        -15    1    1    2    0    0  0.13382414646E+01 -0.12884993152E+02  0.32893682446E+03  0.32919660714E+03  0.17770000000E+01 0.  1.
         15    1    1    2    0    0  0.39343253858E+01  0.14233415193E+02  0.16525222400E+03  0.16592023472E+03  0.17770000000E+01 0. -1.
</event>
<event>
 6   1  0.1826851E-04  0.5010015E+03  0.7546771E-02  0.9397572E-01
        -11   -1    0    0    0    0  0.00000000000E+00  0.00000000000E+00  0.50000000000E+03  0.50000000000E+03  0.00000000000E+00 0. -1.
         11   -1    0    0    0    0 -0.00000000000E+00 -0.00000000000E+00 -0.50000000000E+03  0.50000000000E+03  0.00000000000E+00 0. -1.
        -11    1    1    2    0    0 -0.62517819583E+01 -0.23270799430E+01  0.30179442898E+02  0.30907909220E+02  0.00000000000E+00 0. -1.
         11    1    1    2    0    0 -0.13921512219E+02  0.17214946673E+02 -0.49850712198E+03  0.49899851058E+03  0.00000000000E+00 0. -1.
        -15    1    1    2    0    0  0.19970659720E+02 -0.15829618318E+02  0.46694815155E+03  0.46764638139E+03  0.17770000000E+01 0. -1.
         15    1    1    2    0    0  0.20263445742E+00  0.94175158784E+00  0.13795275354E+01  0.24471988063E+01  0.17770000000E+01 0. -1.
</event>
<event>
 6   1  0.1826851E-04  0.5003187E+03  0.7546771E-02  0.9399097E-01
        -11   -1    0    0    0    0  0.00000000000E+00  0.00000000000E+00  0.50000000000E+03  0.50000000000E+03  0.00000000000E+00 0.  1.
         11   -1    0    0    0    0 -0.00000000000E+00 -0.00000000000E+00 -0.50000000000E+03  0.50000000000E+03  0.00000000000E+00 0. -1.
        -11    1    1    2    0    0  0.68246754239E+01  0.25491843701E+01  0.34349082484E+03  0.34356807372E+03  0.00000000000E+00 0.  1.
         11    1    1    2    0    0  0.49126337345E+01 -0.84450242774E+01 -0.49958579727E+03  0.49968131968E+03  0.00000000000E+00 0. -1.
        -15    1    1    2    0    0 -0.16100742263E+01  0.14080194041E+01  0.19739846463E+02  0.19934746676E+02  0.17770000000E+01 0. -1.
         15    1    1    2    0    0 -0.10127234932E+02  0.44878205032E+01  0.13635512597E+03  0.13681585992E+03  0.17770000000E+01 0.  1.
</event>
<event>
 6   1  0.1826851E-04  0.5002455E+03  0.7546771E-02  0.9399260E-01
        -11   -1    0    0    0    0  0.00000000000E+00  0.00000000000E+00  0.50000000000E+03  0.50000000000E+03  0.00000000000E+00 0. -1.
         11   -1    0    0    0    0 -0.00000000000E+00 -0.00000000000E+00 -0.50000000000E+03  0.50000000000E+03  0.00000000000E+00 0. -1.
        -11    1    1    2    0    0 -0.71179373653E+01 -0.15659419487E+02  0.49945833560E+03  0.49975445115E+03  0.00000000000E+00 0. -1.
         11    1    1    2    0    0 -0.66832399068E+00  0.81810249050E+00 -0.34085968210E+02  0.34102333900E+02  0.00000000000E+00 0. -1.
        -15    1    1    2    0    0  0.68411992967E+01  0.19749784403E+02 -0.32926576337E+03  0.32993326090E+03  0.17770000000E+01 0. -1.
         15    1    1    2    0    0  0.94506205933E+00 -0.49084674067E+01 -0.13610660402E+03  0.13620995405E+03  0.17770000000E+01 0.  1.
</event>
<event>
 6   1  0.1826851E-04  0.5002499E+03  0.7546771E-02  0.9399251E-01
        -11   -1    0    0    0    0  0.00000000000E+00  0.00000000000E+00  0.50000000000E+03  0.50000000000E+03  0.00000000000E+00 0. -1.
         11   -1    0    0    0    0 -0.00000000000E+00 -0.00000000000E+00 -0.50000000000E+03  0.50000000000E+03  0.00000000000E+00 0. -1.
        -11    1    1    2    0    0  0.26195527468E+01 -0.66093049325E+01  0.49083806279E+02  0.49596018057E+02  0.00000000000E+00 0. -1.
         11    1    1    2    0    0 -0.60466224997E+01  0.59619200990E+01 -0.49967799145E+03  0.49975013884E+03  0.00000000000E+00 0. -1.
        -15    1    1    2    0    0  0.37393206622E+01  0.23821575889E+01  0.32039164929E+03  0.32042725205E+03  0.17770000000E+01 0.  1.
         15    1    1    2    0    0 -0.31225090932E+00 -0.17347727554E+01  0.13020253588E+03  0.13022659105E+03  0.17770000000E+01 0. -1.
</event>
<event>
 6   1  0.1826851E-04  0.5013427E+03  0.7546771E-02  0.9396810E-01
        -11   -1    0    0    0    0  0.00000000000E+00  0.00000000000E+00  0.50000000000E+03  0.50000000000E+03  0.00000000000E+00 0. -1.
         11   -1    0    0    0    0 -0.00000000000E+00 -0.00000000000E+00 -0.50000000000E+03  0.50000000000E+03  0.00000000000E+00 0. -1.
        -11    1    1    2    0    0 -0.65758877787E+00 -0.17846876613E+02  0.60402785500E+02  0.62987617227E+02  0.00000000000E+00 0. -1.
         11    1    1    2    0    0  0.22946041556E+01  0.86559146450E+01 -0.49857685107E+03  0.49865726355E+03  0.00000000000E+00 0. -1.
        -15    1    1    2    0    0  0.15720837553E+01 -0.30810737274E-01  0.52811899605E+02  0.52865176302E+02  0.17770000000E+01 0. -1.
         15    1    1    2    0    0 -0.32090991330E+01  0.92217727049E+01  0.38536216596E+03  0.38548994292E+03  0.17770000000E+01 0. -1.
</event>
<event>
 6   1  0.1826851E-04  0.5109629E+03  0.7546771E-02  0.9375608E-01
        -11   -1    0    0    0    0  0.00000000000E+00  0.00000000000E+00  0.50000000000E+03  0.50000000000E+03  0.00000000000E+00 0. -1.
         11   -1    0    0    0    0 -0.00000000000E+00 -0.00000000000E+00 -0.50000000000E+03  0.50000000000E+03  0.00000000000E+00 0.  1.
        -11    1    1    2    0    0 -0.19656392866E+02 -0.27406103902E+02  0.48787277288E+03  0.48903712622E+03  0.00000000000E+00 0. -1.
         11    1    1    2    0    0 -0.90033076034E+01  0.48995173928E+01 -0.45343187707E+03  0.45354771740E+03  0.00000000000E+00 0.  1.
        -15    1    1    2    0    0  0.20906761794E+02  0.28504585195E+02 -0.30426308460E+02  0.46674640238E+02  0.17770000000E+01 0. -1.
         15    1    1    2    0    0  0.77529386756E+01 -0.59979986861E+01 -0.40145873515E+01  0.10740516140E+02  0.17770000000E+01 0.  1.
</event>
<event>
 6   1  0.1826851E-04  0.5030395E+03  0.7546771E-02  0.9393034E-01
        -11   -1    0    0    0    0  0.00000000000E+00  0.00000000000E+00  0.50000000000E+03  0.50000000000E+03  0.00000000000E+00 0.  1.
         11   -1    0    0    0    0 -0.00000000000E+00 -0.00000000000E+00 -0.50000000000E+03  0.50000000000E+03  0.00000000000E+00 0. -1.
        -11    1    1    2    0    0  0.48239494744E+01  0.24989437202E+02  0.43561938843E+03  0.43636222801E+03  0.00000000000E+00 0.  1.
         11    1    1    2    0    0  0.61764578078E+01 -0.73512757131E+01 -0.49686772402E+03  0.49696048641E+03  0.00000000000E+00 0. -1.
        -15    1    1    2    0    0 -0.89973661545E+01 -0.12386026629E+01  0.16129392554E+02  0.18595745950E+02  0.17770000000E+01 0.  1.
         15    1    1    2    0    0 -0.20030411276E+01 -0.16399558826E+02  0.45118943031E+02  0.48081539625E+02  0.17770000000E+01 0. -1.
</event>
<event>
 6   1  0.1826851E-04  0.5002298E+03  0.7546771E-02  0.9399296E-01
        -11   -1    0    0    0    0  0.00000000000E+00  0.00000000000E+00  0.50000000000E+03  0.50000000000E+03  0.00000000000E+00 0.  1.
         11   -1    0    0    0    0 -0.00000000000E+00 -0.00000000000E+00 -0.50000000000E+03  0.50000000000E+03  0.00000000000E+00 0. -1.
        -11    1    1    2    0    0  0.60351391029E+01 -0.45171664942E+00  0.13019603121E+03  0.13033661609E+03  0.00000000000E+00 0.  1.
         11    1    1    2    0    0 -0.50779324305E+01  0.80917863942E+01 -0.49967893444E+03  0.49977024714E+03  0.00000000000E+00 0. -1.
        -15    1    1    2    0    0 -0.35291596781E+01 -0.99772145203E+01  0.33784303901E+03  0.33801342653E+03  0.17770000000E+01 0.  1.
         15    1    1    2    0    0  0.25719530057E+01  0.23371447756E+01  0.31639864222E+02  0.31879710240E+02  0.17770000000E+01 0.  1.
</event>
<event>
 6   1  0.1826851E-04  0.5080076E+03  0.7546771E-02  0.9382068E-01
        -11   -1    0    0    0    0  0.00000000000E+00  0.00000000000E+00  0.50000000000E+03  0.50000000000E+03  0.00000000000E+00 0. -1.
         11   -1    0    0    0    0 -0.00000000000E+00 -0.00000000000E+00 -0.50000000000E+03  0.50000000000E+03  0.00000000000E+00 0.  1.
        -11    1    1    2    0    0 -0.42300736345E+02  0.74477356429E+01  0.49011398315E+03  0.49199241614E+03  0.00000000000E+00 0. -1.
         11    1    1    2    0    0 -0.10480144115E+01  0.71737663879E+01 -0.40779933112E+03  0.40786377103E+03  0.00000000000E+00 0.  1.
        -15    1    1    2    0    0  0.12953139484E+02  0.11089589322E+02 -0.26515577473E+02  0.31575249667E+02  0.17770000000E+01 0.  1.
         15    1    1    2    0    0  0.30395611272E+02 -0.25711091353E+02 -0.55799074560E+02  0.68568563161E+02  0.17770000000E+01 0. -1.
</event>
<event>
 6   1  0.1826851E-04  0.5126230E+03  0.7546771E-02  0.9371999E-01
        -11   -1    0    0    0    0  0.00000000000E+00  0.00000000000E+00  0.50000000000E+03  0.50000000000E+03  0.00000000000E+00 0.  1.
         11   -1    0    0    0    0 -0.00000000000E+00 -0.00000000000E+00 -0.50000000000E+03  0.50000000000E+03  0.00000000000E+00 0.  1.
        -11    1    1    2    0    0  0.44512285094E+02  0.48102950794E+02  0.48295041802E+03  0.48737700363E+03  0.00000000000E+00 0.  1.
         11    1    1    2    0    0  0.65836343845E+01 -0.51144332775E+00 -0.40123663404E+03  0.40129096964E+03  0.00000000000E+00 0.  1.
        -15    1    1    2    0    0 -0.12860954027E+01 -0.50693970109E+01 -0.22012158325E+02  0.22694617656E+02  0.17770000000E+01 0.  1.
         15    1    1    2    0    0 -0.49809824076E+02 -0.42522110455E+02 -0.59701625655E+02  0.88637409072E+02  0.17770000000E+01 0. -1.
</event>
<event>
 6   1  0.1826851E-04  0.5067887E+03  0.7546771E-02  0.9384746E-01
        -11   -1    0    0    0    0  0.00000000000E+00  0.00000000000E+00  0.50000000000E+03  0.50000000000E+03  0.00000000000E+00 0. -1.
         11   -1    0    0    0    0 -0.00000000000E+00 -0.00000000000E+00 -0.50000000000E+03  0.50000000000E+03  0.00000000000E+00 0. -1.
        -11    1    1    2    0    0 -0.44863094641E+03 -0.14648036902E+03  0.26733889216E+02  0.47269538333E+03  0.00000000000E+00 0. -1.
         11    1    1    2    0    0  0.46627785402E+03  0.15147347791E+03 -0.53833960529E+02  0.49321125998E+03  0.00000000000E+00 0. -1.
        -15    1    1    2    0    0 -0.60058876674E+01  0.24837378847E+01  0.87955494728E+01  0.11079668771E+02  0.17770000000E+01 0.  1.
         15    1    1    2    0    0 -0.11641019945E+02 -0.74768467742E+01  0.18304521840E+02  0.23013687924E+02  0.17770000000E+01 0. -1.
</event>
<event>
 6   1  0.1826851E-04  0.5018166E+03  0.7546771E-02  0.9395754E-01
        -11   -1    0    0    0    0  0.00000000000E+00  0.00000000000E+00  0.50000000000E+03  0.50000000000E+03  0.00000000000E+00 0. -1.
         11   -1    0    0    0    0 -0.00000000000E+00 -0.00000000000E+00 -0.50000000000E+03  0.50000000000E+03  0.00000000000E+00 0.  1.
        -11    1    1    2    0    0  0.89644591128E+01 -0.54942450315E+01  0.49807246899E+03  0.49818343270E+03  0.00000000000E+00 0. -1.
         11    1    1    2    0    0 -0.42126476270E+01 -0.78522622780E+01 -0.44771159377E+03  0.44780026308E+03  0.00000000000E+00 0.  1.
        -15    1    1    2    0    0 -0.12964196243E+01  0.70737039415E+01 -0.42856413749E+02  0.43491929363E+02  0.17770000000E+01 0.  1.
         15    1    1    2    0    0 -0.34553918616E+01  0.62728033680E+01 -0.75044614701E+01  0.10524374849E+02  0.17770000000E+01 0. -1.
</event>
<event>
 6   1  0.1826851E-04  0.5029368E+03  0.7546771E-02  0.9393262E-01
        -11   -1    0    0    0    0  0.00000000000E+00  0.00000000000E+00  0.50000000000E+03  0.50000000000E+03  0.00000000000E+00 0.  1.
         11   -1    0    0    0    0 -0.00000000000E+00 -0.00000000000E+00 -0.50000000000E+03  0.50000000000E+03  0.00000000000E+00 0. -1.
        -11    1    1    2    0    0 -0.28489953947E+02  0.62311477423E+01 -0.71826536581E+02  0.77521326325E+02  0.00000000000E+00 0.  1.
         11    1    1    2    0    0  0.40771214126E+02  0.12020980675E+01 -0.42345553728E+03  0.42541547809E+03  0.00000000000E+00 0. -1.
        -15    1    1    2    0    0 -0.25464482236E+02 -0.10525926158E+02  0.28358102448E+03  0.28492207733E+03  0.17770000000E+01 0.  1.
         15    1    1    2    0    0  0.13183222057E+02  0.30926803487E+01  0.21170104938E+03  0.21214111826E+03  0.17770000000E+01 0. -1.
</event>
<event>
 6   1  0.1826851E-04  0.5014484E+03  0.7546771E-02  0.9396575E-01
        -11   -1    0    0    0    0  0.00000000000E+00  0.00000000000E+00  0.50000000000E+03  0.50000000000E+03  0.00000000000E+00 0. -1.
         11   -1    0    0    0    0 -0.00000000000E+00 -0.00000000000E+00 -0.50000000000E+03  0.50000000000E+03  0.00000000000E+00 0. -1.
        -11    1    1    2    0    0  0.16793564530E+01 -0.34698468821E+02  0.18241561988E+03  0.18569400193E+03  0.00000000000E+00 0. -1.
         11    1    1    2    0    0 -0.35272579319E+01  0.24184173116E+02 -0.49795218885E+03  0.49855160030E+03  0.00000000000E+00 0. -1.
        -15    1    1    2    0    0  0.13822457253E+01  0.46973420647E+01  0.18783759750E+03  0.18790980919E+03  0.17770000000E+01 0. -1.
         15    1    1    2    0    0  0.46565575362E+00  0.58169536405E+01  0.12769897147E+03  0.12784458858E+03  0.17770000000E+01 0. -1.
</event>
<event>
 6   1  0.1826851E-04  0.5008474E+03  0.7546771E-02  0.9397916E-01
        -11   -1    0    0    0    0  0.00000000000E+00  0.00000000000E+00  0.50000000000E+03  0.50000000000E+03  0.00000000000E+00 0.  1.
         11   -1    0    0    0    0 -0.00000000000E+00 -0.00000000000E+00 -0.50000000000E+03  0.50000000000E+03  0.00000000000E+00 0.  1.
        -11    1    1    2    0    0 -0.10128707192E+02 -0.13072333867E+01  0.49904813076E+03  0.49915261832E+03  0.00000000000E+00 0.  1.
         11    1    1    2    0    0  0.73275057090E+01  0.10216196362E+02 -0.40309672025E+03  0.40329273349E+03  0.00000000000E+00 0.  1.
        -15    1    1    2    0    0  0.82450643971E+01 -0.82410336893E+01 -0.60685190274E+02  0.61820269902E+02  0.17770000000E+01 0. -1.
         15    1    1    2    0    0 -0.54438629136E+01 -0.66792928611E+00 -0.35266220236E+02  0.35734378288E+02  0.17770000000E+01 0.  1.
</event>
<event>
 6   1  0.1826851E-04  0.4557580E+03  0.7546771E-02  0.9504638E-01
        -11   -1    0    0    0    0  0.00000000000E+00  0.00000000000E+00  0.50000000000E+03  0.50000000000E+03  0.00000000000E+00 0.  1.
         11   -1    0    0    0    0 -0.00000000000E+00 -0.00000000000E+00 -0.50000000000E+03  0.50000000000E+03  0.00000000000E+00 0.  1.
        -11    1    1    2    0    0 -0.19312074893E+02 -0.16113325378E+02  0.46745677864E+03  0.46813292492E+03  0.00000000000E+00 0.  1.
         11    1    1    2    0    0 -0.14909822785E+02 -0.90468950110E+01 -0.44432333938E+03  0.44466546869E+03  0.00000000000E+00 0.  1.
        -15    1    1    2    0    0  0.42591555808E+02  0.47065601372E+01 -0.40538656161E+02  0.59014682130E+02  0.17770000000E+01 0. -1.
         15    1    1    2    0    0 -0.83696581304E+01  0.20453660252E+02  0.17405216904E+02  0.28186924263E+02  0.17770000000E+01 0.  1.
</event>
<event>
 6   1  0.1826851E-04  0.5007091E+03  0.7546771E-02  0.9398224E-01
        -11   -1    0    0    0    0  0.00000000000E+00  0.00000000000E+00  0.50000000000E+03  0.50000000000E+03  0.00000000000E+00 0.  1.
         11   -1    0    0    0    0 -0.00000000000E+00 -0.00000000000E+00 -0.50000000000E+03  0.50000000000E+03  0.00000000000E+00 0.  1.
        -11    1    1    2    0    0 -0.51802078343E+01  0.14992348491E+02  0.34716862128E+03  0.34753079960E+03  0.00000000000E+00 0.  1.
         11    1    1    2    0    0 -0.77269567940E+01 -0.41265574207E+01 -0.49921402242E+03  0.49929087165E+03  0.00000000000E+00 0.  1.
        -15    1    1    2    0    0  0.80312108408E+01 -0.79706749847E+01  0.12294373627E+03  0.12347611925E+03  0.17770000000E+01 0.  1.
         15    1    1    2    0    0  0.48759537875E+01 -0.28951160852E+01  0.29101664864E+02  0.29702209503E+02  0.17770000000E+01 0. -1.
</event>
<event>
 6   1  0.1826851E-04  0.5054919E+03  0.7546771E-02  0.9387604E-01
        -11   -1    0    0    0    0  0.00000000000E+00  0.00000000000E+00  0.50000000000E+03  0.50000000000E+03  0.00000000000E+00 0.  1.
         11   -1    0    0    0    0 -0.00000000000E+00 -0.00000000000E+00 -0.50000000000E+03  0.50000000000E+03  0.00000000000E+00 0. -1.
        -11    1    1    2    0    0 -0.20192540848E+02  0.34709066002E+01  0.49408342244E+03  0.49450805274E+03  0.00000000000E+00 0.  1.
         11    1    1    2    0    0  0.20120596136E+01  0.70446323031E+01 -0.44296569326E+03  0.44302627533E+03  0.00000000000E+00 0. -1.
        -15    1    1    2    0    0  0.11773591718E+02  0.12775083724E+01 -0.28151350561E+01  0.12301715489E+02  0.17770000000E+01 0.  1.
         15    1    1    2    0    0  0.64068895168E+01 -0.11793047276E+02 -0.48302594120E+02  0.50163956433E+02  0.17770000000E+01 0. -1.
</event>
<event>
 6   1  0.1826851E-04  0.5045402E+03  0.7546771E-02  0.9389708E-01
        -11   -1    0    0    0    0  0.00000000000E+00  0.00000000000E+00  0.50000000000E+03  0.50000000000E+03  0.00000000000E+00 0.  1.
         11   -1    0    0    0    0 -0.00000000000E+00 -0.00000000000E+00 -0.50000000000E+03  0.50000000000E+03  0.00000000000E+00 0. -1.
        -11    1    1    2    0    0 -0.21086206503E+02  0.50045959083E+01  0.44972679993E+03  0.45024867425E+03  0.00000000000E+00 0.  1.
         11    1    1    2    0    0 -0.72260759301E-01  0.70000344625E+01 -0.49541034918E+03  0.49545980642E+03  0.00000000000E+00 0. -1.
        -15    1    1    2    0    0  0.18401362783E+02 -0.77318080251E+01  0.20998623993E+02  0.29025694586E+02  0.17770000000E+01 0.  1.
         15    1    1    2    0    0  0.27571044790E+01 -0.42728223457E+01  0.24684925258E+02  0.25265824742E+02  0.17770000000E+01 0. -1.
</event>
<event>
 6   1  0.1826851E-04  0.5012596E+03  0.7546771E-02  0.9396996E-01
        -11   -1    0    0    0    0  0.00000000000E+00  0.00000000000E+00  0.50000000000E+03  0.50000000000E+03  0.00000000000E+00 0.  1.
         11   -1    0    0    0    0 -0.00000000000E+00 -0.00000000000E+00 -0.50000000000E+03  0.50000000000E+03  0.00000000000E+00 0. -1.
        -11    1    1    2    0    0  0.37898433014E+01  0.12252118484E+02  0.33480348346E+02  0.35852629541E+02  0.00000000000E+00 0.  1.
         11    1    1    2    0    0  0.49108331482E+01 -0.73295022474E+01 -0.49866233524E+03  0.49874037582E+03  0.00000000000E+00 0. -1.
        -15    1    1    2    0    0  0.14909005700E+01  0.88877175558E+00  0.10585558726E+03  0.10588472875E+03  0.17770000000E+01 0. -1.
         15    1    1    2    0    0 -0.10191577020E+02 -0.58113879921E+01  0.35932639963E+03  0.35952226589E+03  0.17770000000E+01 0.  1.
</event>
<event>
 6   1  0.1826851E-04  0.5062567E+03  0.7546771E-02  0.9385918E-01
        -11   -1    0    0    0    0  0.00000000000E+00  0.00000000000E+00  0.50000000000E+03  0.50000000000E+03  0.00000000000E+00 0.  1.
         11   -1    0    0    0    0 -0.00000000000E+00 -0.00000000000E+00 -0.50000000000E+03  0.50000000000E+03  0.00000000000E+00 0. -1.
        -11    1    1    2    0    0  0.14363922837E+02 -0.48648249210E+01  0.44925242108E+03  0.44950831655E+03  0.00000000000E+00 0.  1.
         11    1    1    2    0    0  0.10946828612E+02  0.59482638846E+01 -0.49358613756E+03  0.49374334435E+03  0.00000000000E+00 0. -1.
        -15    1    1    2    0    0 -0.17116629849E+02 -0.15261877179E+01  0.45120914931E+02  0.48315245623E+02  0.17770000000E+01 0. -1.
         15    1    1    2    0    0 -0.81941215998E+01  0.44274875431E+00 -0.78719844747E+00  0.84330934803E+01  0.17770000000E+01 0.  1.
</event>
<event>
 6   1  0.1826851E-04  0.5006451E+03  0.7546771E-02  0.9398367E-01
        -11   -1    0    0    0    0  0.00000000000E+00  0.00000000000E+00  0.50000000000E+03  0.50000000000E+03  0.00000000000E+00 0.  1.
         11   -1    0    0    0    0 -0.00000000000E+00 -0.00000000000E+00 -0.50000000000E+03  0.50000000000E+03  0.00000000000E+00 0.  1.
        -11    1    1    2    0    0 -0.22946237295E+02  0.20933424882E+02  0.30698037536E+03  0.30854770934E+03  0.00000000000E+00 0.  1.
         11    1    1    2    0    0  0.20983114024E+02 -0.11669535643E+02 -0.49877735103E+03  0.49935489888E+03  0.00000000000E+00 0.  1.
        -15    1    1    2    0    0  0.62359158002E+00 -0.19090081812E+01  0.30564070714E+02  0.30681481814E+02  0.17770000000E+01 0.  1.
         15    1    1    2    0    0  0.13395316903E+01 -0.73548810584E+01  0.16123290496E+03  0.16141590997E+03  0.17770000000E+01 0.  1.
</event>
<event>
 6   1  0.1826851E-04  0.5003958E+03  0.7546771E-02  0.9398924E-01
        -11   -1    0    0    0    0  0.00000000000E+00  0.00000000000E+00  0.50000000000E+03  0.50000000000E+03  0.00000000000E+00 0. -1.
         11   -1    0    0    0    0 -0.00000000000E+00 -0.00000000000E+00 -0.50000000000E+03  0.50000000000E+03  0.00000000000E+00 0. -1.
        -11    1    1    2    0    0  0.66498662724E+01 -0.38915846786E+01  0.49954475588E+03  0.49960417160E+03  0.00000000000E+00 0. -1.
         11    1    1    2    0    0  0.87670678629E+01  0.20802019367E+01 -0.25155643339E+03  0.25171775444E+03  0.00000000000E+00 0. -1.
        -15    1    1    2    0    0 -0.12536126291E+02 -0.21597728281E+01 -0.14911610442E+03  0.14966826453E+03  0.17770000000E+01 0. -1.
         15    1    1    2    0    0 -0.28808078442E+01  0.39711555699E+01 -0.98872218066E+02  0.99009809437E+02  0.17770000000E+01 0.  1.
</event>
<event>
 6   1  0.1826851E-04  0.5001451E+03  0.7546771E-02  0.9399485E-01
        -11   -1    0    0    0    0  0.00000000000E+00  0.00000000000E+00  0.50000000000E+03  0.50000000000E+03  0.00000000000E+00 0. -1.
         11   -1    0    0    0    0 -0.00000000000E+00 -0.00000000000E+00 -0.50000000000E+03  0.50000000000E+03  0.00000000000E+00 0. -1.
        -11    1    1    2    0    0 -0.83820784065E+01  0.50727164017E+01  0.49975889009E+03  0.49985491886E+03  0.00000000000E+00 0. -1.
         11    1    1    2    0    0  0.58614810325E+01  0.36682673010E+01 -0.31947052839E+03  0.31954535148E+03  0.00000000000E+00 0. -1.
        -15    1    1    2    0    0  0.22497671424E+01 -0.68345343605E+01 -0.15473125657E+03  0.15490865631E+03  0.17770000000E+01 0.  1.
         15    1    1    2    0    0  0.27083023166E+00 -0.19064493422E+01 -0.25557105128E+02  0.25691073345E+02  0.17770000000E+01 0. -1.
</event>
<event>
 6   1  0.1826851E-04  0.4780803E+03  0.7546771E-02  0.9450238E-01
        -11   -1    0    0    0    0  0.00000000000E+00  0.00000000000E+00  0.50000000000E+03  0.50000000000E+03  0.00000000000E+00 0. -1.
         11   -1    0    0    0    0 -0.00000000000E+00 -0.00000000000E+00 -0.50000000000E+03  0.50000000000E+03  0.00000000000E+00 0.  1.
        -11    1    1    2    0    0  0.40258312956E+02 -0.18898015953E+01 -0.16350674693E+02  0.43493076173E+02  0.00000000000E+00 0. -1.
         11    1    1    2    0    0 -0.34975372260E+02 -0.12186034544E+02 -0.46891531973E+03  0.47037575743E+03  0.00000000000E+00 0.  1.
        -15    1    1    2    0    0 -0.89992525797E+01 -0.41855399695E+01  0.14449216703E+03  0.14484353404E+03  0.17770000000E+01 0.  1.
         15    1    1    2    0    0  0.37163118845E+01  0.18261376109E+02  0.34077382740E+03  0.34128763236E+03  0.17770000000E+01 0. -1.
</event>
<event>
 6   1  0.1826851E-04  0.4907626E+03  0.7546771E-02  0.9420720E-01
        -11   -1    0    0    0    0  0.00000000000E+00  0.00000000000E+00  0.50000000000E+03  0.50000000000E+03  0.00000000000E+00 0. -1.
         11   -1    0    0    0    0 -0.00000000000E+00 -0.00000000000E+00 -0.50000000000E+03  0.50000000000E+03  0.00000000000E+00 0.  1.
        -11    1    1    2    0    0  0.26364822020E+02  0.35549155485E+01  0.49066984616E+03  0.49139051598E+03  0.00000000000E+00 0. -1.
         11    1    1    2    0    0 -0.11546390009E+02 -0.32854377025E+01 -0.49009974153E+03  0.49024674387E+03  0.00000000000E+00 0.  1.
        -15    1    1    2    0    0 -0.68686625870E+00 -0.29980870273E+01 -0.14442121667E+01  0.38345519769E+01  0.17770000000E+01 0. -1.
         15    1    1    2    0    0 -0.14131565752E+02  0.27286091814E+01  0.87410753421E+00  0.14528188175E+02  0.17770000000E+01 0. -1.
</event>
<event>
 6   1  0.1826851E-04  0.5000372E+03  0.7546771E-02  0.9399726E-01
        -11   -1    0    0    0    0  0.00000000000E+00  0.00000000000E+00  0.50000000000E+03  0.50000000000E+03  0.00000000000E+00 0.  1.
         11   -1    0    0    0    0 -0.00000000000E+00 -0.00000000000E+00 -0.50000000000E+03  0.50000000000E+03  0.00000000000E+00 0.  1.
        -11    1    1    2    0    0 -0.19035230161E+01  0.24607208144E+01  0.72540403298E+02  0.72607084072E+02  0.00000000000E+00 0.  1.
         11    1    1    2    0    0  0.76111919422E+01 -0.50508811388E+01 -0.49987934356E+03  0.49996279838E+03  0.00000000000E+00 0.  1.
        -15    1    1    2    0    0 -0.11606543767E+01  0.31924110732E+01  0.21532472200E+03  0.21535884528E+03  0.17770000000E+01 0.  1.
         15    1    1    2    0    0 -0.45470145495E+01 -0.60225074878E+00  0.21201421827E+03  0.21207127227E+03  0.17770000000E+01 0. -1.
</event>
<event>
 6   1  0.1826851E-04  0.5005811E+03  0.7546771E-02  0.9398510E-01
        -11   -1    0    0    0    0  0.00000000000E+00  0.00000000000E+00  0.50000000000E+03  0.50000000000E+03  0.00000000000E+00 0. -1.
         11   -1    0    0    0    0 -0.00000000000E+00 -0.00000000000E+00 -0.50000000000E+03  0.50000000000E+03  0.00000000000E+00 0. -1.
        -11    1    1    2    0    0  0.19521561776E+02  0.18538863869E+02  0.49869271139E+03  0.49941886352E+03  0.00000000000E+00 0. -1.
         11    1    1    2    0    0 -0.52253626239E+01  0.33248498679E+01 -0.29539914863E+03  0.29546406897E+03  0.00000000000E+00 0. -1.
        -15    1    1    2    0    0 -0.39760294045E+01 -0.11166026248E+02 -0.74752469337E+02  0.75707188252E+02  0.17770000000E+01 0. -1.
         15    1    1    2    0    0 -0.10320169748E+02 -0.10697687489E+02 -0.12854109342E+03  0.12940987925E+03  0.17770000000E+01 0.  1.
</event>
<event>
 6   1  0.1826851E-04  0.5002372E+03  0.7546771E-02  0.9399279E-01
        -11   -1    0    0    0    0  0.00000000000E+00  0.00000000000E+00  0.50000000000E+03  0.50000000000E+03  0.00000000000E+00 0.  1.
         11   -1    0    0    0    0 -0.00000000000E+00 -0.00000000000E+00 -0.50000000000E+03  0.50000000000E+03  0.00000000000E+00 0.  1.
        -11    1    1    2    0    0  0.16725303502E+02 -0.42754828580E+01  0.18383540219E+03  0.18464417301E+03  0.00000000000E+00 0.  1.
         11    1    1    2    0    0 -0.24341187084E+02 -0.50449592851E+01 -0.49914421934E+03  0.49976284046E+03  0.00000000000E+00 0.  1.
        -15    1    1    2    0    0  0.17165276033E+01  0.50034354777E+00  0.77359355452E+02  0.77400416121E+02  0.17770000000E+01 0.  1.
         15    1    1    2    0    0  0.58993559794E+01  0.88200985953E+01  0.23794946171E+03  0.23819257040E+03  0.17770000000E+01 0.  1.
</event>
<event>
 6   1  0.1826851E-04  0.5022931E+03  0.7546771E-02  0.9394693E-01
        -11   -1    0    0    0    0  0.00000000000E+00  0.00000000000E+00  0.50000000000E+03  0.50000000000E+03  0.00000000000E+00 0. -1.
         11   -1    0    0    0    0 -0.00000000000E+00 -0.00000000000E+00 -0.50000000000E+03  0.50000000000E+03  0.00000000000E+00 0. -1.
        -11    1    1    2    0    0 -0.17435536758E+01  0.24622008330E+02  0.11975160760E+03  0.12226909174E+03  0.00000000000E+00 0. -1.
         11    1    1    2    0    0 -0.29188810823E+02 -0.19526844073E+02 -0.49646642306E+03  0.49770693540E+03  0.00000000000E+00 0. -1.
        -15    1    1    2    0    0  0.22541111423E+02 -0.13022790895E+02  0.34865946314E+03  0.34963448593E+03  0.17770000000E+01 0. -1.
         15    1    1    2    0    0  0.83912530758E+01  0.79276266374E+01  0.28055352325E+02  0.30389486922E+02  0.17770000000E+01 0.  1.
</event>
<event>
 6   1  0.1826851E-04  0.5021741E+03  0.7546771E-02  0.9394958E-01
        -11   -1    0    0    0    0  0.00000000000E+00  0.00000000000E+00  0.50000000000E+03  0.50000000000E+03  0.00000000000E+00 0.  1.
         11   -1    0    0    0    0 -0.00000000000E+00 -0.00000000000E+00 -0.50000000000E+03  0.50000000000E+03  0.00000000000E+00 0.  1.
        -11    1    1    2    0    0  0.19970254908E+02  0.83076640462E+01  0.27263804618E+03  0.27349466648E+03  0.00000000000E+00 0.  1.
         11    1    1    2    0    0 -0.44203424881E+01 -0.52907399015E+01 -0.49777817352E+03  0.49782591474E+03  0.00000000000E+00 0.  1.
        -15    1    1    2    0    0 -0.23609279842E+01  0.22406789086E+01  0.68806388996E+00  0.37717083443E+01  0.17770000000E+01 0. -1.
         15    1    1    2    0    0 -0.13188984436E+02 -0.52576030533E+01  0.22445206345E+03  0.22490771044E+03  0.17770000000E+01 0.  1.
</event>
<event>
 6   1  0.1826851E-04  0.5004802E+03  0.7546771E-02  0.9398736E-01
        -11   -1    0    0    0    0  0.00000000000E+00  0.00000000000E+00  0.50000000000E+03  0.50000000000E+03  0.00000000000E+00 0.  1.
         11   -1    0    0    0    0 -0.00000000000E+00 -0.00000000000E+00 -0.50000000000E+03  0.50000000000E+03  0.00000000000E+00 0.  1.
        -11    1    1    2    0    0  0.10101548082E+02 -0.19597533574E+01  0.49941385348E+03  0.49951984841E+03  0.00000000000E+00 0.  1.
         11    1    1    2    0    0 -0.40402091499E+01  0.47779054049E+01 -0.36817674794E+03  0.36822991377E+03  0.00000000000E+00 0.  1.
        -15    1    1    2    0    0 -0.15806993535E+01 -0.33804868888E+01 -0.88571761434E+01  0.97741291319E+01  0.17770000000E+01 0. -1.
         15    1    1    2    0    0 -0.44806395790E+01  0.56233484130E+00 -0.12237992940E+03  0.12247610869E+03  0.17770000000E+01 0.  1.
</event>
<event>
 6   1  0.1826851E-04  0.5000285E+03  0.7546771E-02  0.9399746E-01
        -11   -1    0    0    0    0  0.00000000000E+00  0.00000000000E+00  0.50000000000E+03  0.50000000000E+03  0.00000000000E+00 0. -1.
         11   -1    0    0    0    0 -0.00000000000E+00 -0.00000000000E+00 -0.50000000000E+03  0.50000000000E+03  0.00000000000E+00 0.  1.
        -11    1    1    2    0    0 -0.22742976888E+01 -0.39689013911E+01  0.27508552640E+03  0.27512355669E+03  0.00000000000E+00 0. -1.
         11    1    1    2    0    0  0.79077390298E+00  0.77078397395E+01 -0.49991143529E+03  0.49997147844E+03  0.00000000000E+00 0.  1.
        -15    1    1    2    0    0  0.17064856406E+01 -0.32787884840E+01  0.16148343745E+03  0.16153550955E+03  0.17770000000E+01 0. -1.
         15    1    1    2    0    0 -0.22296185474E+00 -0.46014986429E+00  0.63342471442E+02  0.63369455317E+02  0.17770000000E+01 0. -1.
</event>
<event>
 6   1  0.1826851E-04  0.5006597E+03  0.7546771E-02  0.9398335E-01
        -11   -1    0    0    0    0  0.00000000000E+00  0.00000000000E+00  0.50000000000E+03  0.50000000000E+03  0.00000000000E+00 0. -1.
         11   -1    0    0    0    0 -0.00000000000E+00 -0.00000000000E+00 -0.50000000000E+03  0.50000000000E+03  0.00000000000E+00 0.  1.
        -11    1    1    2    0    0  0.23950054270E+02 -0.15155812342E+02  0.49853533127E+03  0.49934034513E+03  0.00000000000E+00 0. -1.
         11    1    1    2    0    0  0.18762767848E+01  0.31867721886E+01 -0.17782365318E+03  0.17786210266E+03  0.00000000000E+00 0.  1.
        -15    1    1    2    0    0 -0.11172997290E+02 -0.41889589041E+01 -0.62064083076E+02  0.63225717728E+02  0.17770000000E+01 0.  1.
         15    1    1    2    0    0 -0.14653333765E+02  0.16157999057E+02 -0.25864759501E+03  0.25957183449E+03  0.17770000000E+01 0. -1.
</event>
<event>
 6   1  0.1826851E-04  0.5000989E+03  0.7546771E-02  0.9399588E-01
        -11   -1    0    0    0    0  0.00000000000E+00  0.00000000000E+00  0.50000000000E+03  0.50000000000E+03  0.00000000000E+00 0.  1.
         11   -1    0    0    0    0 -0.00000000000E+00 -0.00000000000E+00 -0.50000000000E+03  0.50000000000E+03  0.00000000000E+00 0. -1.
        -11    1    1    2    0    0  0.15423966560E+02  0.60599542094E+01  0.29330154089E+03  0.29376932392E+03  0.00000000000E+00 0.  1.
         11    1    1    2    0    0 -0.26785326623E+02 -0.14881288759E+02 -0.49896107461E+03  0.49990105067E+03  0.00000000000E+00 0. -1.
        -15    1    1    2    0    0  0.98163206906E+00 -0.46468312434E+00  0.13708324223E+02  0.13865619854E+02  0.17770000000E+01 0.  1.
         15    1    1    2    0    0  0.10379727994E+02  0.92860176739E+01  0.19195120951E+03  0.19246400556E+03  0.17770000000E+01 0. -1.
</event>
<event>
 6   1  0.1826851E-04  0.5002664E+03  0.7546771E-02  0.9399214E-01
        -11   -1    0    0    0    0  0.00000000000E+00  0.00000000000E+00  0.50000000000E+03  0.50000000000E+03  0.00000000000E+00 0. -1.
         11   -1    0    0    0    0 -0.00000000000E+00 -0.00000000000E+00 -0.50000000000E+03  0.50000000000E+03  0.00000000000E+00 0.  1.
        -11    1    1    2    0    0  0.17304019845E+02  0.75367315969E+01  0.49937706463E+03  0.49973361315E+03  0.00000000000E+00 0. -1.
         11    1    1    2    0    0  0.29236543753E+00  0.12025697402E+01 -0.45260526023E+02  0.45277443252E+02  0.00000000000E+00 0.  1.
        -15    1    1    2    0    0 -0.15223284331E+01 -0.95915069409E+01 -0.26378545031E+03  0.26397014228E+03  0.17770000000E+01 0.  1.
         15    1    1    2    0    0 -0.16074056849E+02  0.85220560385E+00 -0.19033108830E+03  0.19101880132E+03  0.17770000000E+01 0.  1.
</event>
<event>
 6   1  0.1826851E-04  0.5147095E+03  0.7546771E-02  0.9367485E-01
        -11   -1    0    0    0    0  0.00000000000E+00  0.00000000000E+00  0.50000000000E+03  0.50000000000E+03  0.00000000000E+00 0. -1.
         11   -1    0    0    0    0 -0.00000000000E+00 -0.00000000000E+00 -0.50000000000E+03  0.50000000000E+03  0.00000000000E+00 0. -1.
        -11    1    1    2    0    0  0.30954873802E+02  0.42900107768E+02  0.40332066243E+03  0.40677534365E+03  0.00000000000E+00 0. -1.
         11    1    1    2    0    0 -0.77766184732E+01  0.15964710221E+02 -0.48496546742E+03  0.48529048245E+03  0.00000000000E+00 0. -1.
        -15    1    1    2    0    0  0.21822283075E+00 -0.76829751969E+01 -0.97974392279E+00  0.79494248996E+01  0.17770000000E+01 0. -1.
         15    1    1    2    0    0 -0.23396478159E+02 -0.51181842792E+02  0.82624548910E+02  0.99984749004E+02  0.17770000000E+01 0.  1.
</event>
<event>
 6   1  0.1826851E-04  0.5016864E+03  0.7546771E-02  0.9396044E-01
        -11   -1    0    0    0    0  0.00000000000E+00  0.00000000000E+00  0.50000000000E+03  0.50000000000E+03  0.00000000000E+00 0. -1.
         11   -1    0    0    0    0 -0.00000000000E+00 -0.00000000000E+00 -0.50000000000E+03  0.50000000000E+03  0.00000000000E+00 0. -1.
        -11    1    1    2    0    0  0.86651663153E+01 -0.13105616377E+02  0.47086857819E+03  0.47113061906E+03  0.00000000000E+00 0. -1.
         11    1    1    2    0    0 -0.33254844026E+01  0.90820423286E+01 -0.49821976214E+03  0.49831362988E+03  0.00000000000E+00 0. -1.
        -15    1    1    2    0    0 -0.53651121022E+01  0.72656302152E+01  0.23395686418E+02  0.25141393801E+02  0.17770000000E+01 0. -1.
         15    1    1    2    0    0  0.25430189461E-01 -0.32420561667E+01  0.39554975280E+01  0.54143572635E+01  0.17770000000E+01 0.  1.
</event>
<event>
 6   1  0.1826851E-04  0.4808918E+03  0.7546771E-02  0.9443611E-01
        -11   -1    0    0    0    0  0.00000000000E+00  0.00000000000E+00  0.50000000000E+03  0.50000000000E+03  0.00000000000E+00 0. -1.
         11   -1    0    0    0    0 -0.00000000000E+00 -0.00000000000E+00 -0.50000000000E+03  0.50000000000E+03  0.00000000000E+00 0.  1.
        -11    1    1    2    0    0 -0.16346871170E+02 -0.90707360766E+01  0.47411723869E+03  0.47448567362E+03  0.00000000000E+00 0. -1.
         11    1    1    2    0    0 -0.11008358705E+02 -0.23989509532E+01 -0.48772124979E+03  0.48785136715E+03  0.00000000000E+00 0.  1.
        -15    1    1    2    0    0 -0.10708576921E+01  0.55455056265E+01  0.34379584274E+01  0.68466529048E+01  0.17770000000E+01 0. -1.
         15    1    1    2    0    0  0.28426087567E+02  0.59241814033E+01  0.10166052679E+02  0.30816306329E+02  0.17770000000E+01 0.  1.
</event>
<event>
 6   1  0.1826851E-04  0.5002159E+03  0.7546771E-02  0.9399327E-01
        -11   -1    0    0    0    0  0.00000000000E+00  0.00000000000E+00  0.50000000000E+03  0.50000000000E+03  0.00000000000E+00 0. -1.
         11   -1    0    0    0    0 -0.00000000000E+00 -0.00000000000E+00 -0.50000000000E+03  0.50000000000E+03  0.00000000000E+00 0.  1.
        -11    1    1    2    0    0  0.13291996090E+02 -0.16820804055E+01  0.49960450096E+03  0.49978411733E+03  0.00000000000E+00 0. -1.
         11    1    1    2    0    0 -0.31987708715E+01 -0.46509302042E+01 -0.28843533112E+03  0.28849056055E+03  0.00000000000E+00 0.  1.
        -15    1    1    2    0    0 -0.89329826316E+01  0.50527710794E+01 -0.10248995567E+03  0.10301784999E+03  0.17770000000E+01 0. -1.
         15    1    1    2    0    0 -0.11602425865E+01  0.12802395302E+01 -0.10867921417E+03  0.10870747213E+03  0.17770000000E+01 0.  1.
</event>
<event>
 6   1  0.1826851E-04  0.5000607E+03  0.7546771E-02  0.9399674E-01
        -11   -1    0    0    0    0  0.00000000000E+00  0.00000000000E+00  0.50000000000E+03  0.50000000000E+03  0.00000000000E+00 0. -1.
         11   -1    0    0    0    0 -0.00000000000E+00 -0.00000000000E+00 -0.50000000000E+03  0.50000000000E+03  0.00000000000E+00 0. -1.
        -11    1    1    2    0    0 -0.46449009277E+01  0.25823710710E+01  0.14443905696E+03  0.14453679435E+03  0.00000000000E+00 0. -1.
         11    1    1    2    0    0  0.82289874335E+01  0.22379214592E+01 -0.49986653130E+03  0.49993926995E+03  0.00000000000E+00 0. -1.
        -15    1    1    2    0    0 -0.19560155653E+01 -0.51365684180E+01  0.27056716962E+03  0.27062882577E+03  0.17770000000E+01 0. -1.
         15    1    1    2    0    0 -0.16280709405E+01  0.31627588776E+00  0.84860304717E+02  0.84895109936E+02  0.17770000000E+01 0. -1.
</event>
<event>
 6   1  0.1826851E-04  0.5000438E+03  0.7546771E-02  0.9399712E-01
        -11   -1    0    0    0    0  0.00000000000E+00  0.00000000000E+00  0.50000000000E+03  0.50000000000E+03  0.00000000000E+00 0.  1.
         11   -1    0    0    0    0 -0.00000000000E+00 -0.00000000000E+00 -0.50000000000E+03  0.50000000000E+03  0.00000000000E+00 0.  1.
        -11    1    1    2    0    0  0.19167246060E+01 -0.37636059230E+01  0.21597306261E+03  0.21601435678E+03  0.00000000000E+00 0.  1.
         11    1    1    2    0    0  0.36599395133E+01  0.56700526460E+01 -0.49991065100E+03  0.49995620171E+03  0.00000000000E+00 0.  1.
        -15    1    1    2    0    0 -0.34118806620E+01 -0.16084156285E+01  0.20311325752E+03  0.20315605095E+03  0.17770000000E+01 0.  1.
         15    1    1    2    0    0 -0.21647834574E+01 -0.29803109451E+00  0.80824330872E+02  0.80873390555E+02  0.17770000000E+01 0.  1.
</event>
<event>
 6   1  0.1826851E-04  0.5057916E+03  0.7546771E-02  0.9386943E-01
        -11   -1    0    0    0    0  0.00000000000E+00  0.00000000000E+00  0.50000000000E+03  0.50000000000E+03  0.00000000000E+00 0. -1.
         11   -1    0    0    0    0 -0.00000000000E+00 -0.00000000000E+00 -0.50000000000E+03  0.50000000000E+03  0.00000000000E+00 0.  1.
        -11    1    1    2    0    0 -0.89545136661E+00 -0.10509713087E+02  0.48904551024E+03  0.48915924502E+03  0.00000000000E+00 0. -1.
         11    1    1    2    0    0 -0.63813205643E+01  0.66636042575E+01 -0.49412223103E+03  0.49420836099E+03  0.00000000000E+00 0.  1.
        -15    1    1    2    0    0  0.28023434128E+00 -0.44152898255E+01  0.69162072150E+00  0.48176118307E+01  0.17770000000E+01 0. -1.
         15    1    1    2    0    0  0.69965375896E+01  0.82613986551E+01  0.43851000672E+01  0.11814782164E+02  0.17770000000E+01 0.  1.
</event>
<event>
 6   1  0.1826851E-04  0.5020161E+03  0.7546771E-02  0.9395310E-01
        -11   -1    0    0    0    0  0.00000000000E+00  0.00000000000E+00  0.50000000000E+03  0.50000000000E+03  0.00000000000E+00 0.  1.
         11   -1    0    0    0    0 -0.00000000000E+00 -0.00000000000E+00 -0.50000000000E+03  0.50000000000E+03  0.00000000000E+00 0.  1.
        -11    1    1    2    0    0  0.22735917911E+01 -0.12456044651E+02  0.49782286404E+03  0.49798386142E+03  0.00000000000E+00 0.  1.
         11    1    1    2    0    0 -0.87046908305E+01 -0.31158402661E+01 -0.45747034849E+03  0.45756376588E+03  0.00000000000E+00 0.  1.
        -15    1    1    2    0    0  0.35852724814E+01  0.13449699733E+02 -0.35564000470E+02  0.38232243723E+02  0.17770000000E+01 0. -1.
         15    1    1    2    0    0  0.28458265580E+01  0.21221851843E+01 -0.47885150894E+01  0.62201289791E+01  0.17770000000E+01 0.  1.
</event>
<event>
 6   1  0.1826851E-04  0.5017155E+03  0.7546771E-02  0.9395979E-01
        -11   -1    0    0    0    0  0.00000000000E+00  0.00000000000E+00  0.50000000000E+03  0.50000000000E+03  0.00000000000E+00 0. -1.
         11   -1    0    0    0    0 -0.00000000000E+00 -0.00000000000E+00 -0.50000000000E+03  0.50000000000E+03  0.00000000000E+00 0. -1.
        -11    1    1    2    0    0 -0.30010053946E+01 -0.26284473865E+02  0.29612381522E+03  0.29730320136E+03  0.00000000000E+00 0. -1.
         11    1    1    2    0    0 -0.14597483887E+02  0.23506687732E+01 -0.49806513141E+03  0.49828454452E+03  0.00000000000E+00 0. -1.
        -15    1    1    2    0    0  0.45191672185E+01  0.66250313661E+00  0.28076025802E+02  0.28500574320E+02  0.17770000000E+01 0. -1.
         15    1    1    2    0    0  0.13079322063E+02  0.23271301955E+02  0.17386529038E+03  0.17591167980E+03  0.17770000000E+01 0.  1.
</event>
<event>
 6   1  0.1826851E-04  0.4798422E+03  0.7546771E-02  0.9446079E-01
        -11   -1    0    0    0    0  0.00000000000E+00  0.00000000000E+00  0.50000000000E+03  0.50000000000E+03  0.00000000000E+00 0.  1.
         11   -1    0    0    0    0 -0.00000000000E+00 -0.00000000000E+00 -0.50000000000E+03  0.50000000000E+03  0.00000000000E+00 0.  1.
        -11    1    1    2    0    0  0.10623274062E+02  0.11716395531E+02  0.47316579774E+03  0.47343003710E+03  0.00000000000E+00 0.  1.
         11    1    1    2    0    0  0.99936826250E+01 -0.75607506904E+00 -0.48652823086E+03  0.48663144655E+03  0.00000000000E+00 0.  1.
        -15    1    1    2    0    0 -0.22677838486E+01  0.60102287613E+01 -0.54466531726E+01  0.86075230543E+01  0.17770000000E+01 0. -1.
         15    1    1    2    0    0 -0.18349172839E+02 -0.16970549223E+02  0.18809086294E+02  0.31330993298E+02  0.17770000000E+01 0.  1.
</event>
<event>
 6   1  0.1826851E-04  0.4674874E+03  0.7546771E-02  0.9475650E-01
        -11   -1    0    0    0    0  0.00000000000E+00  0.00000000000E+00  0.50000000000E+03  0.50000000000E+03  0.00000000000E+00 0. -1.
         11   -1    0    0    0    0 -0.00000000000E+00 -0.00000000000E+00 -0.50000000000E+03  0.50000000000E+03  0.00000000000E+00 0.  1.
        -11    1    1    2    0    0 -0.22955916620E+02  0.19476443494E+02  0.47698313169E+03  0.47793222728E+03  0.00000000000E+00 0. -1.
         11    1    1    2    0    0 -0.25686878861E+02 -0.92686475149E+01 -0.45774646869E+03  0.45856030483E+03  0.00000000000E+00 0.  1.
        -15    1    1    2    0    0  0.11451584325E+02 -0.19009298134E+02 -0.72509352100E+01  0.23414226221E+02  0.17770000000E+01 0. -1.
         15    1    1    2    0    0  0.37191211156E+02  0.88015021554E+01 -0.11985727790E+02  0.40093241663E+02  0.17770000000E+01 0.  1.
</event>
<event>
 6   1  0.1826851E-04  0.5018675E+03  0.7546771E-02  0.9395641E-01
        -11   -1    0    0    0    0  0.00000000000E+00  0.00000000000E+00  0.50000000000E+03  0.50000000000E+03  0.00000000000E+00 0. -1.
         11   -1    0    0    0    0 -0.00000000000E+00 -0.00000000000E+00 -0.50000000000E+03  0.50000000000E+03  0.00000000000E+00 0.  1.
        -11    1    1    2    0    0  0.12658224098E+02  0.39147576727E+01  0.49795629058E+03  0.49813253587E+03  0.00000000000E+00 0. -1.
         11    1    1    2    0    0 -0.59156987175E+01  0.66176392008E+01 -0.47559249812E+03  0.47567532300E+03  0.00000000000E+00 0.  1.
        -15    1    1    2    0    0 -0.21684064286E+00 -0.29400727915E+01 -0.63517168608E+01  0.72244781101E+01  0.17770000000E+01 0.  1.
         15    1    1    2    0    0 -0.65256847378E+01 -0.75923240821E+01 -0.16012075603E+02  0.18967663018E+02  0.17770000000E+01 0. -1.
</event>
<event>
 6   1  0.1826851E-04  0.5006794E+03  0.7546771E-02  0.9398291E-01
        -11   -1    0    0    0    0  0.00000000000E+00  0.00000000000E+00  0.50000000000E+03  0.50000000000E+03  0.00000000000E+00 0.  1.
         11   -1    0    0    0    0 -0.00000000000E+00 -0.00000000000E+00 -0.50000000000E+03  0.50000000000E+03  0.00000000000E+00 0.  1.
        -11    1    1    2    0    0  0.10153316529E+02 -0.81065743497E+01  0.22317467898E+03  0.22355255248E+03  0.00000000000E+00 0.  1.
         11    1    1    2    0    0 -0.53085625876E+01 -0.15691158593E+02 -0.49904575087E+03  0.49932059316E+03  0.00000000000E+00 0.  1.
        -15    1    1    2    0    0 -0.36601488793E+01  0.20509327624E+02  0.25720022641E+03  0.25804872293E+03  0.17770000000E+01 0.  1.
         15    1    1    2    0    0 -0.11846050618E+01  0.32884053183E+01  0.18670845478E+02  0.19078131422E+02  0.17770000000E+01 0.  1.
</event>
<event>
 6   1  0.1826851E-04  0.5001797E+03  0.7546771E-02  0.9399408E-01
        -11   -1    0    0    0    0  0.00000000000E+00  0.00000000000E+00  0.50000000000E+03  0.50000000000E+03  0.00000000000E+00 0.  1.
         11   -1    0    0    0    0 -0.00000000000E+00 -0.00000000000E+00 -0.50000000000E+03  0.50000000000E+03  0.00000000000E+00 0.  1.
        -11    1    1    2    0    0  0.65003668454E+00  0.48547934082E+01  0.94722225222E+02  0.94848782374E+02  0.00000000000E+00 0.  1.
         11    1    1    2    0    0  0.36087760809E-01  0.81056057555E+01 -0.49975453298E+03  0.49982026308E+03  0.00000000000E+00 0.  1.
        -15    1    1    2    0    0  0.13665345689E+01 -0.44497938116E+00  0.10586586437E+03  0.10589053023E+03  0.17770000000E+01 0. -1.
         15    1    1    2    0    0 -0.20526590143E+01 -0.12515419783E+02  0.29916644339E+03  0.29944042432E+03  0.17770000000E+01 0.  1.
</event>
<event>
 6   1  0.1826851E-04  0.5005645E+03  0.7546771E-02  0.9398548E-01
        -11   -1    0    0    0    0  0.00000000000E+00  0.00000000000E+00  0.50000000000E+03  0.50000000000E+03  0.00000000000E+00 0.  1.
         11   -1    0    0    0    0 -0.00000000000E+00 -0.00000000000E+00 -0.50000000000E+03  0.50000000000E+03  0.00000000000E+00 0. -1.
        -11    1    1    2    0    0  0.29468789628E+01 -0.15373844417E+02  0.37370219196E+03  0.37402990183E+03  0.00000000000E+00 0.  1.
         11    1    1    2    0    0 -0.73024360710E+00  0.96865496773E+01 -0.49934103260E+03  0.49943551069E+03  0.00000000000E+00 0. -1.
        -15    1    1    2    0    0 -0.16324442253E+01 -0.98749433614E+00  0.98168970819E+02  0.98203587409E+02  0.17770000000E+01 0.  1.
         15    1    1    2    0    0 -0.58419113038E+00  0.66747890756E+01  0.27469869819E+02  0.28331000077E+02  0.17770000000E+01 0. -1.
</event>
<event>
 6   1  0.1826851E-04  0.5005199E+03  0.7546771E-02  0.9398647E-01
        -11   -1    0    0    0    0  0.00000000000E+00  0.00000000000E+00  0.50000000000E+03  0.50000000000E+03  0.00000000000E+00 0. -1.
         11   -1    0    0    0    0 -0.00000000000E+00 -0.00000000000E+00 -0.50000000000E+03  0.50000000000E+03  0.00000000000E+00 0.  1.
        -11    1    1    2    0    0  0.69027057280E+01 -0.91291425508E+01  0.30606982890E+03  0.30628373896E+03  0.00000000000E+00 0. -1.
         11    1    1    2    0    0  0.55402360261E+01  0.65566463171E+01 -0.49940631889E+03  0.49948008486E+03  0.00000000000E+00 0.  1.
        -15    1    1    2    0    0 -0.12817237816E+02  0.43095207727E+01  0.18562908080E+03  0.18612943594E+03  0.17770000000E+01 0. -1.
         15    1    1    2    0    0  0.37429606229E+00 -0.17370245390E+01  0.77074091915E+01  0.81067402349E+01  0.17770000000E+01 0.  1.
</event>
<event>
 6   1  0.1826851E-04  0.5009816E+03  0.7546771E-02  0.9397616E-01
        -11   -1    0    0    0    0  0.00000000000E+00  0.00000000000E+00  0.50000000000E+03  0.50000000000E+03  0.00000000000E+00 0. -1.
         11   -1    0    0    0    0 -0.00000000000E+00 -0.00000000000E+00 -0.50000000000E+03  0.50000000000E+03  0.00000000000E+00 0.  1.
        -11    1    1    2    0    0 -0.14081325684E+03  0.97612322531E+02  0.46868203429E+03  0.49901842458E+03  0.00000000000E+00 0. -1.
         11    1    1    2    0    0  0.13228833800E+03 -0.10040717842E+03 -0.42881850569E+03  0.45985553892E+03  0.00000000000E+00 0.  1.
        -15    1    1    2    0    0  0.68711934852E+01  0.26180096443E+01 -0.27287328621E+02  0.28316484717E+02  0.17770000000E+01 0. -1.
         15    1    1    2    0    0  0.16537253554E+01  0.17684624368E+00 -0.12576199973E+02  0.12809551784E+02  0.17770000000E+01 0. -1.
</event>
<event>
 6   1  0.1826851E-04  0.5004452E+03  0.7546771E-02  0.9398814E-01
        -11   -1    0    0    0    0  0.00000000000E+00  0.00000000000E+00  0.50000000000E+03  0.50000000000E+03  0.00000000000E+00 0. -1.
         11   -1    0    0    0    0 -0.00000000000E+00 -0.00000000000E+00 -0.50000000000E+03  0.50000000000E+03  0.00000000000E+00 0. -1.
        -11    1    1    2    0    0 -0.60951350021E+01 -0.22152932032E+02  0.33592692957E+03  0.33671175370E+03  0.00000000000E+00 0. -1.
         11    1    1    2    0    0  0.18313688170E+02  0.30084984742E+02 -0.49831167996E+03  0.49955482969E+03  0.00000000000E+00 0. -1.
        -15    1    1    2    0    0 -0.14097658057E+02 -0.74794787867E+01  0.98956785566E+02  0.10025113318E+03  0.17770000000E+01 0. -1.
         15    1    1    2    0    0  0.18791048891E+01 -0.45257392413E+00  0.63427964827E+02  0.63482283430E+02  0.17770000000E+01 0.  1.
</event>
<event>
 6   1  0.1826851E-04  0.5011071E+03  0.7546771E-02  0.9397336E-01
        -11   -1    0    0    0    0  0.00000000000E+00  0.00000000000E+00  0.50000000000E+03  0.50000000000E+03  0.00000000000E+00 0.  1.
         11   -1    0    0    0    0 -0.00000000000E+00 -0.00000000000E+00 -0.50000000000E+03  0.50000000000E+03  0.00000000000E+00 0.  1.
        -11    1    1    2    0    0  0.11182410619E+02 -0.54878247697E+00  0.27164499582E+03  0.27187561720E+03  0.00000000000E+00 0.  1.
         11    1    1    2    0    0  0.68874989945E+01 -0.76147024577E+01 -0.49878723837E+03  0.49889290484E+03  0.00000000000E+00 0.  1.
        -15    1    1    2    0    0 -0.10803455773E+02  0.84494694460E+01  0.21083425533E+03  0.21128736153E+03  0.17770000000E+01 0.  1.
         15    1    1    2    0    0 -0.72664538409E+01 -0.28598451135E+00  0.16307987218E+02  0.17944116436E+02  0.17770000000E+01 0. -1.
</event>
<event>
 6   1  0.1826851E-04  0.5010533E+03  0.7546771E-02  0.9397456E-01
        -11   -1    0    0    0    0  0.00000000000E+00  0.00000000000E+00  0.50000000000E+03  0.50000000000E+03  0.00000000000E+00 0. -1.
         11   -1    0    0    0    0 -0.00000000000E+00 -0.00000000000E+00 -0.50000000000E+03  0.50000000000E+03  0.00000000000E+00 0.  1.
        -11    1    1    2    0    0 -0.29975663662E+01 -0.15104411939E+02  0.44955229101E+03  0.44981595238E+03  0.00000000000E+00 0. -1.
         11    1    1    2    0    0 -0.42694068098E+01  0.53886697465E+01 -0.49889936023E+03  0.49894672785E+03  0.00000000000E+00 0.  1.
        -15    1    1    2    0    0  0.12964086240E+01  0.30097859140E+01  0.24010711011E+02  0.24298383872E+02  0.17770000000E+01 0.  1.
         15    1    1    2    0    0  0.59705645521E+01  0.67059562783E+01  0.25336358208E+02  0.26938935891E+02  0.17770000000E+01 0. -1.
</event>
<event>
 6   1  0.1826851E-04  0.4458360E+03  0.7546771E-02  0.9529894E-01
        -11   -1    0    0    0    0  0.00000000000E+00  0.00000000000E+00  0.50000000000E+03  0.50000000000E+03  0.00000000000E+00 0. -1.
         11   -1    0    0    0    0 -0.00000000000E+00 -0.00000000000E+00 -0.50000000000E+03  0.50000000000E+03  0.00000000000E+00 0. -1.
        -11    1    1    2    0    0  0.62577776377E+02 -0.54889464665E+02  0.41243850810E+03  0.42075450608E+03  0.00000000000E+00 0. -1.
         11    1    1    2    0    0  0.42444527771E+01  0.22714400282E+02 -0.47566684490E+03  0.47622778866E+03  0.00000000000E+00 0. -1.
        -15    1    1    2    0    0 -0.14367549461E+02  0.79021067010E+01  0.34953285117E+02  0.38649186761E+02  0.17770000000E+01 0. -1.
         15    1    1    2    0    0 -0.52454679694E+02  0.24272957681E+02  0.28275051681E+02  0.64368518493E+02  0.17770000000E+01 0.  1.
</event>
<event>
 6   1  0.1826851E-04  0.5003748E+03  0.7546771E-02  0.9398971E-01
        -11   -1    0    0    0    0  0.00000000000E+00  0.00000000000E+00  0.50000000000E+03  0.50000000000E+03  0.00000000000E+00 0. -1.
         11   -1    0    0    0    0 -0.00000000000E+00 -0.00000000000E+00 -0.50000000000E+03  0.50000000000E+03  0.00000000000E+00 0.  1.
        -11    1    1    2    0    0 -0.11542016283E+02  0.26336167079E+01  0.49948487560E+03  0.49962515452E+03  0.00000000000E+00 0. -1.
         11    1    1    2    0    0  0.37422703268E+00 -0.60782357987E+01 -0.38275284790E+03  0.38280128993E+03  0.00000000000E+00 0.  1.
        -15    1    1    2    0    0  0.90522818196E+01 -0.25069531667E+00 -0.86599766014E+02  0.87090090463E+02  0.17770000000E+01 0.  1.
         15    1    1    2    0    0  0.21155074303E+01  0.36953144075E+01 -0.30132261683E+02  0.30483465081E+02  0.17770000000E+01 0. -1.
</event>
<event>
 6   1  0.1826851E-04  0.4754618E+03  0.7546771E-02  0.9456454E-01
        -11   -1    0    0    0    0  0.00000000000E+00  0.00000000000E+00  0.50000000000E+03  0.50000000000E+03  0.00000000000E+00 0. -1.
         11   -1    0    0    0    0 -0.00000000000E+00 -0.00000000000E+00 -0.50000000000E+03  0.50000000000E+03  0.00000000000E+00 0.  1.
        -11    1    1    2    0    0  0.43380117258E+01  0.26845469657E+02  0.47868078583E+03  0.47945259652E+03  0.00000000000E+00 0. -1.
         11    1    1    2    0    0 -0.44627821413E+01  0.16145434391E+02 -0.47216748915E+03  0.47246452702E+03  0.00000000000E+00 0.  1.
        -15    1    1    2    0    0  0.87173910002E+01 -0.33055128321E+02 -0.29593182042E+01  0.34359128443E+02  0.17770000000E+01 0.  1.
         15    1    1    2    0    0 -0.85926205847E+01 -0.99357757275E+01 -0.35539784718E+01  0.13723748023E+02  0.17770000000E+01 0. -1.
</event>
<event>
 6   1  0.1826851E-04  0.4140417E+03  0.7546771E-02  0.9615798E-01
        -11   -1    0    0    0    0  0.00000000000E+00  0.00000000000E+00  0.50000000000E+03  0.50000000000E+03  0.00000000000E+00 0. -1.
         11   -1    0    0    0    0 -0.00000000000E+00 -0.00000000000E+00 -0.50000000000E+03  0.50000000000E+03  0.00000000000E+00 0.  1.
        -11    1    1    2    0    0  0.12252020628E+03  0.10912721701E+03  0.13894634512E+03  0.21500241222E+03  0.00000000000E+00 0. -1.
         11    1    1    2    0    0  0.24530007339E+02  0.87005628981E+02 -0.36570054454E+03  0.37670756431E+03  0.00000000000E+00 0.  1.
        -15    1    1    2    0    0 -0.84612501982E+02 -0.22465129000E+03  0.23876250418E+03  0.33858258774E+03  0.17770000000E+01 0. -1.
         15    1    1    2    0    0 -0.62437711635E+02  0.28518444011E+02 -0.12008304762E+02  0.69707435724E+02  0.17770000000E+01 0.  1.
</event>
<event>
 6   1  0.1826851E-04  0.5006245E+03  0.7546771E-02  0.9398414E-01
        -11   -1    0    0    0    0  0.00000000000E+00  0.00000000000E+00  0.50000000000E+03  0.50000000000E+03  0.00000000000E+00 0. -1.
         11   -1    0    0    0    0 -0.00000000000E+00 -0.00000000000E+00 -0.50000000000E+03  0.50000000000E+03  0.00000000000E+00 0. -1.
        -11    1    1    2    0    0  0.42957363650E+01 -0.11687397795E+02  0.14895037927E+03  0.14946994381E+03  0.00000000000E+00 0. -1.
         11    1    1    2    0    0 -0.15673054142E+02 -0.70698725899E+01 -0.49907946260E+03  0.49937554777E+03  0.00000000000E+00 0. -1.
        -15    1    1    2    0    0  0.26679020859E+01  0.15009601191E+01  0.15958557778E+03  0.15962482560E+03  0.17770000000E+01 0. -1.
         15    1    1    2    0    0  0.87094156913E+01  0.17256310266E+02  0.19054350555E+03  0.19152968282E+03  0.17770000000E+01 0.  1.
</event>
<event>
 6   1  0.1826851E-04  0.5002424E+03  0.7546771E-02  0.9399267E-01
        -11   -1    0    0    0    0  0.00000000000E+00  0.00000000000E+00  0.50000000000E+03  0.50000000000E+03  0.00000000000E+00 0. -1.
         11   -1    0    0    0    0 -0.00000000000E+00 -0.00000000000E+00 -0.50000000000E+03  0.50000000000E+03  0.00000000000E+00 0.  1.
        -11    1    1    2    0    0 -0.17303039073E-01  0.21252989212E+01  0.46267591303E+01  0.50915709707E+01  0.00000000000E+00 0. -1.
         11    1    1    2    0    0 -0.81483230698E+01 -0.18178485832E+01 -0.49968785538E+03  0.49975759379E+03  0.00000000000E+00 0.  1.
        -15    1    1    2    0    0  0.50423715228E+01  0.12293952226E+01  0.26856590583E+03  0.26862192842E+03  0.17770000000E+01 0. -1.
         15    1    1    2    0    0  0.31232545860E+01 -0.15368455606E+01  0.22649519041E+03  0.22652890682E+03  0.17770000000E+01 0. -1.
</event>
<event>
 6   1  0.1826851E-04  0.5006978E+03  0.7546771E-02  0.9398250E-01
        -11   -1    0    0    0    0  0.00000000000E+00  0.00000000000E+00  0.50000000000E+03  0.50000000000E+03  0.00000000000E+00 0.  1.
         11   -1    0    0    0    0 -0.00000000000E+00 -0.00000000000E+00 -0.50000000000E+03  0.50000000000E+03  0.00000000000E+00 0. -1.
        -11    1    1    2    0    0  0.74999267179E+01 -0.17602106687E+02  0.49893549126E+03  0.49930222060E+03  0.00000000000E+00 0.  1.
         11    1    1    2    0    0 -0.18365993467E-01 -0.44308516333E+01 -0.20906912157E+03  0.20911606915E+03  0.00000000000E+00 0. -1.
        -15    1    1    2    0    0 -0.40790161770E+01  0.13243844332E+02 -0.25606957415E+03  0.25645042858E+03  0.17770000000E+01 0. -1.
         15    1    1    2    0    0 -0.34025445474E+01  0.87891139878E+01 -0.33796795541E+02  0.35131281672E+02  0.17770000000E+01 0.  1.
</event>
<event>
 6   1  0.1826851E-04  0.5026260E+03  0.7546771E-02  0.9393953E-01
        -11   -1    0    0    0    0  0.00000000000E+00  0.00000000000E+00  0.50000000000E+03  0.50000000000E+03  0.00000000000E+00 0.  1.
         11   -1    0    0    0    0 -0.00000000000E+00 -0.00000000000E+00 -0.50000000000E+03  0.50000000000E+03  0.00000000000E+00 0.  1.
        -11    1    1    2    0    0 -0.14900533785E+02  0.28562247115E+01  0.49714257413E+03  0.49737402721E+03  0.00000000000E+00 0.  1.
         11    1    1    2    0    0 -0.23298717466E+01  0.88384754403E+01 -0.44954400534E+03  0.44963691984E+03  0.00000000000E+00 0.  1.
        -15    1    1    2    0    0 -0.16635188936E+00 -0.27305350557E+01 -0.10669558610E+02  0.11157092120E+02  0.17770000000E+01 0. -1.
         15    1    1    2    0    0  0.17396757421E+02 -0.89641650962E+01 -0.36929010183E+02  0.41831960829E+02  0.17770000000E+01 0.  1.
</event>
<event>
 6   1  0.1826851E-04  0.5003006E+03  0.7546771E-02  0.9399137E-01
        -11   -1    0    0    0    0  0.00000000000E+00  0.00000000000E+00  0.50000000000E+03  0.50000000000E+03  0.00000000000E+00 0. -1.
         11   -1    0    0    0    0 -0.00000000000E+00 -0.00000000000E+00 -0.50000000000E+03  0.50000000000E+03  0.00000000000E+00 0. -1.
        -11    1    1    2    0    0 -0.13261600417E+02  0.41287687440E+00  0.49952323912E+03  0.49969941659E+03  0.00000000000E+00 0. -1.
         11    1    1    2    0    0 -0.36758787170E+01 -0.21157280370E+01 -0.18022258858E+03  0.18027248770E+03  0.00000000000E+00 0. -1.
        -15    1    1    2    0    0  0.53674373986E+01  0.67602810884E+01 -0.12887485614E+03  0.12917583775E+03  0.17770000000E+01 0.  1.
         15    1    1    2    0    0  0.11570041736E+02 -0.50574299259E+01 -0.19042579441E+03  0.19085225796E+03  0.17770000000E+01 0. -1.
</event>
<event>
 6   1  0.1826851E-04  0.5064737E+03  0.7546771E-02  0.9385440E-01
        -11   -1    0    0    0    0  0.00000000000E+00  0.00000000000E+00  0.50000000000E+03  0.50000000000E+03  0.00000000000E+00 0.  1.
         11   -1    0    0    0    0 -0.00000000000E+00 -0.00000000000E+00 -0.50000000000E+03  0.50000000000E+03  0.00000000000E+00 0.  1.
        -11    1    1    2    0    0 -0.16615199562E+02 -0.19401883043E+02  0.46373556521E+03  0.46443855607E+03  0.00000000000E+00 0.  1.
         11    1    1    2    0    0  0.96986775748E+01 -0.70600681791E+01 -0.49338043390E+03  0.49352625205E+03  0.00000000000E+00 0.  1.
        -15    1    1    2    0    0  0.35375212024E+01  0.10527759484E+02  0.46993816485E+01  0.12189737195E+02  0.17770000000E+01 0. -1.
         15    1    1    2    0    0  0.33790007844E+01  0.15934191738E+02  0.24945487043E+02  0.29845454687E+02  0.17770000000E+01 0.  1.
</event>
<event>
 6   1  0.1826851E-04  0.5015210E+03  0.7546771E-02  0.9396413E-01
        -11   -1    0    0    0    0  0.00000000000E+00  0.00000000000E+00  0.50000000000E+03  0.50000000000E+03  0.00000000000E+00 0.  1.
         11   -1    0    0    0    0 -0.00000000000E+00 -0.00000000000E+00 -0.50000000000E+03  0.50000000000E+03  0.00000000000E+00 0. -1.
        -11    1    1    2    0    0 -0.14768405977E+02 -0.80337873280E+00  0.39344181789E+03  0.39371971667E+03  0.00000000000E+00 0.  1.
         11    1    1    2    0    0 -0.75848754970E+01  0.92321355854E+01 -0.49833576516E+03  0.49847898401E+03  0.00000000000E+00 0. -1.
        -15    1    1    2    0    0  0.85189086722E+01 -0.98035022283E+00  0.29771974225E+02  0.31033225256E+02  0.17770000000E+01 0.  1.
         15    1    1    2    0    0  0.13834372801E+02 -0.74484066298E+01  0.75121973042E+02  0.76768074060E+02  0.17770000000E+01 0. -1.
</event>
<event>
 6   1  0.1826851E-04  0.5008026E+03  0.7546771E-02  0.9398016E-01
        -11   -1    0    0    0    0  0.00000000000E+00  0.00000000000E+00  0.50000000000E+03  0.50000000000E+03  0.00000000000E+00 0.  1.
         11   -1    0    0    0    0 -0.00000000000E+00 -0.00000000000E+00 -0.50000000000E+03  0.50000000000E+03  0.00000000000E+00 0.  1.
        -11    1    1    2    0    0 -0.33025574695E+02  0.15919294026E+03  0.44942463492E+03  0.47792842904E+03  0.00000000000E+00 0.  1.
         11    1    1    2    0    0  0.28606532069E+02 -0.16471932248E+03 -0.47036928583E+03  0.49919740978E+03  0.00000000000E+00 0.  1.
        -15    1    1    2    0    0  0.12029019404E+01 -0.29793906017E+00  0.68985318041E+01  0.72307130226E+01  0.17770000000E+01 0. -1.
         15    1    1    2    0    0  0.32161406851E+01  0.58243212788E+01  0.14046119114E+02  0.15643448163E+02  0.17770000000E+01 0. -1.
</event>
<event>
 6   1  0.1826851E-04  0.5002181E+03  0.7546771E-02  0.9399322E-01
        -11   -1    0    0    0    0  0.00000000000E+00  0.00000000000E+00  0.50000000000E+03  0.50000000000E+03  0.00000000000E+00 0. -1.
         11   -1    0    0    0    0 -0.00000000000E+00 -0.00000000000E+00 -0.50000000000E+03  0.50000000000E+03  0.00000000000E+00 0.  1.
        -11    1    1    2    0    0  0.94759553979E+01 -0.20790269889E+01  0.37825376314E+03  0.37837815135E+03  0.00000000000E+00 0. -1.
         11    1    1    2    0    0 -0.12017296740E+02 -0.31460767707E+00 -0.49963733205E+03  0.49978193043E+03  0.00000000000E+00 0.  1.
        -15    1    1    2    0    0 -0.32821394641E+01 -0.52589900789E+00  0.46526172133E+02  0.46678597146E+02  0.17770000000E+01 0.  1.
         15    1    1    2    0    0  0.58234808058E+01  0.29195336739E+01  0.74857396775E+02  0.75161321081E+02  0.17770000000E+01 0. -1.
</event>
<event>
 6   1  0.1826851E-04  0.5009566E+03  0.7546771E-02  0.9397672E-01
        -11   -1    0    0    0    0  0.00000000000E+00  0.00000000000E+00  0.50000000000E+03  0.50000000000E+03  0.00000000000E+00 0.  1.
         11   -1    0    0    0    0 -0.00000000000E+00 -0.00000000000E+00 -0.50000000000E+03  0.50000000000E+03  0.00000000000E+00 0. -1.
        -11    1    1    2    0    0  0.18370363155E+02 -0.51420603166E+01  0.49867868339E+03  0.49904342526E+03  0.00000000000E+00 0.  1.
         11    1    1    2    0    0 -0.72114997648E+01  0.64107695209E+01 -0.43980572770E+03  0.43991156135E+03  0.00000000000E+00 0. -1.
        -15    1    1    2    0    0 -0.60136791868E+01  0.15981361216E+01 -0.48905599252E+02  0.49331873506E+02  0.17770000000E+01 0.  1.
         15    1    1    2    0    0 -0.51451842039E+01 -0.28668453259E+01 -0.99673564404E+01  0.11713139887E+02  0.17770000000E+01 0. -1.
</event>
<event>
 6   1  0.1826851E-04  0.4876764E+03  0.7546771E-02  0.9427815E-01
        -11   -1    0    0    0    0  0.00000000000E+00  0.00000000000E+00  0.50000000000E+03  0.50000000000E+03  0.00000000000E+00 0. -1.
         11   -1    0    0    0    0 -0.00000000000E+00 -0.00000000000E+00 -0.50000000000E+03  0.50000000000E+03  0.00000000000E+00 0.  1.
        -11    1    1    2    0    0 -0.66688903046E+01 -0.11921808982E+02  0.48448290492E+03  0.48467544686E+03  0.00000000000E+00 0. -1.
         11    1    1    2    0    0  0.10733764850E+02 -0.35350220269E+01 -0.49069793016E+03  0.49082804398E+03  0.00000000000E+00 0.  1.
        -15    1    1    2    0    0 -0.22023901410E+01  0.86100659099E+01 -0.55612667787E+01  0.10633399009E+02  0.17770000000E+01 0. -1.
         15    1    1    2    0    0 -0.18624844046E+01  0.68467650992E+01  0.11776292022E+02  0.13863110159E+02  0.17770000000E+01 0.  1.
</event>
<event>
 6   1  0.1826851E-04  0.5000952E+03  0.7546771E-02  0.9399597E-01
        -11   -1    0    0    0    0  0.00000000000E+00  0.00000000000E+00  0.50000000000E+03  0.50000000000E+03  0.00000000000E+00 0.  1.
         11   -1    0    0    0    0 -0.00000000000E+00 -0.00000000000E+00 -0.50000000000E+03  0.50000000000E+03  0.00000000000E+00 0. -1.
        -11    1    1    2    0    0  0.12835525437E+02 -0.25280521878E+01  0.49973363881E+03  0.49990484246E+03  0.00000000000E+00 0.  1.
         11    1    1    2    0    0  0.18132243168E+01 -0.13823232083E+01 -0.12281552489E+03  0.12283668733E+03  0.00000000000E+00 0. -1.
        -15    1    1    2    0    0 -0.58058064194E+01  0.19353191022E+01 -0.19767139389E+03  0.19777408966E+03  0.17770000000E+01 0. -1.
         15    1    1    2    0    0 -0.88429433347E+01  0.19750562940E+01 -0.17924672003E+03  0.17948438056E+03  0.17770000000E+01 0.  1.
</event>
<event>
 6   1  0.1826851E-04  0.5045861E+03  0.7546771E-02  0.9389606E-01
        -11   -1    0    0    0    0  0.00000000000E+00  0.00000000000E+00  0.50000000000E+03  0.50000000000E+03  0.00000000000E+00 0.  1.
         11   -1    0    0    0    0 -0.00000000000E+00 -0.00000000000E+00 -0.50000000000E+03  0.50000000000E+03  0.00000000000E+00 0. -1.
        -11    1    1    2    0    0 -0.34484495625E+01  0.98054726002E+01  0.46728723983E+03  0.46740282798E+03  0.00000000000E+00 0.  1.
         11    1    1    2    0    0  0.69834657228E+01  0.48467226674E+01 -0.49534100962E+03  0.49541394341E+03  0.00000000000E+00 0. -1.
        -15    1    1    2    0    0 -0.99840035354E+01 -0.30911729862E+01  0.15988055501E+02  0.19183621262E+02  0.17770000000E+01 0. -1.
         15    1    1    2    0    0  0.64489873751E+01 -0.11561022281E+02  0.12065714290E+02  0.17999607348E+02  0.17770000000E+01 0.  1.
</event>
<event>
 6   1  0.1826851E-04  0.5001573E+03  0.7546771E-02  0.9399458E-01
        -11   -1    0    0    0    0  0.00000000000E+00  0.00000000000E+00  0.50000000000E+03  0.50000000000E+03  0.00000000000E+00 0.  1.
         11   -1    0    0    0    0 -0.00000000000E+00 -0.00000000000E+00 -0.50000000000E+03  0.50000000000E+03  0.00000000000E+00 0. -1.
        -11    1    1    2    0    0  0.66994213902E+01 -0.29304601165E+01  0.98911766792E+02  0.99181689103E+02  0.00000000000E+00 0.  1.
         11    1    1    2    0    0 -0.69983244819E+01  0.99859444293E+00 -0.49979268973E+03  0.49984268170E+03  0.00000000000E+00 0. -1.
        -15    1    1    2    0    0 -0.78620382079E+00  0.47794180488E+01  0.25348932629E+03  0.25354182540E+03  0.17770000000E+01 0.  1.
         15    1    1    2    0    0  0.10851069125E+01 -0.28475523752E+01  0.14739159665E+03  0.14743380380E+03  0.17770000000E+01 0. -1.
</event>
<event>
 6   1  0.1826851E-04  0.4749481E+03  0.7546771E-02  0.9457679E-01
        -11   -1    0    0    0    0  0.00000000000E+00  0.00000000000E+00  0.50000000000E+03  0.50000000000E+03  0.00000000000E+00 0. -1.
         11   -1    0    0    0    0 -0.00000000000E+00 -0.00000000000E+00 -0.50000000000E+03  0.50000000000E+03  0.00000000000E+00 0.  1.
        -11    1    1    2    0    0 -0.30369923792E+02  0.65230845908E+01  0.47711016224E+03  0.47812026711E+03  0.00000000000E+00 0. -1.
         11    1    1    2    0    0  0.78794490740E+01  0.66568564373E+01 -0.47203433808E+03  0.47214702771E+03  0.00000000000E+00 0.  1.
        -15    1    1    2    0    0  0.27447573527E+02 -0.78616362506E+01  0.12051566372E+02  0.31041465785E+02  0.17770000000E+01 0.  1.
         15    1    1    2    0    0 -0.49570988084E+01 -0.53183047775E+01 -0.17127390539E+02  0.18691239391E+02  0.17770000000E+01 0. -1.
</event>
<event>
 6   1  0.1826851E-04  0.5098769E+03  0.7546771E-02  0.9377977E-01
        -11   -1    0    0    0    0  0.00000000000E+00  0.00000000000E+00  0.50000000000E+03  0.50000000000E+03  0.00000000000E+00 0.  1.
         11   -1    0    0    0    0 -0.00000000000E+00 -0.00000000000E+00 -0.50000000000E+03  0.50000000000E+03  0.00000000000E+00 0. -1.
        -11    1    1    2    0    0 -0.22077003313E+02 -0.29653583563E+01  0.46480164529E+03  0.46533510172E+03  0.00000000000E+00 0.  1.
         11    1    1    2    0    0 -0.25501958406E+01 -0.76186204932E+01 -0.49005728276E+03  0.49012313480E+03  0.00000000000E+00 0. -1.
        -15    1    1    2    0    0  0.20290814396E+02  0.18087589185E+02  0.15377032497E+02  0.31280807035E+02  0.17770000000E+01 0. -1.
         15    1    1    2    0    0  0.43363847574E+01 -0.75036103353E+01  0.98786049712E+01  0.13260956451E+02  0.17770000000E+01 0.  1.
</event>
<event>
 6   1  0.1826851E-04  0.5010922E+03  0.7546771E-02  0.9397369E-01
        -11   -1    0    0    0    0  0.00000000000E+00  0.00000000000E+00  0.50000000000E+03  0.50000000000E+03  0.00000000000E+00 0.  1.
         11   -1    0    0    0    0 -0.00000000000E+00 -0.00000000000E+00 -0.50000000000E+03  0.50000000000E+03  0.00000000000E+00 0.  1.
        -11    1    1    2    0    0 -0.48193622324E+01 -0.20202816129E+02  0.49847531288E+03  0.49890782473E+03  0.00000000000E+00 0.  1.
         11    1    1    2    0    0 -0.10354129822E+01 -0.91072479777E+01 -0.27487234754E+03  0.27502512883E+03  0.00000000000E+00 0.  1.
        -15    1    1    2    0    0 -0.29289084442E+01  0.20271017553E+02 -0.13804834852E+03  0.13957075953E+03  0.17770000000E+01 0.  1.
         15    1    1    2    0    0  0.87836836588E+01  0.90390465539E+01 -0.85554616819E+02  0.86496286910E+02  0.17770000000E+01 0. -1.
</event>
<event>
 6   1  0.1826851E-04  0.5054567E+03  0.7546771E-02  0.9387682E-01
        -11   -1    0    0    0    0  0.00000000000E+00  0.00000000000E+00  0.50000000000E+03  0.50000000000E+03  0.00000000000E+00 0. -1.
         11   -1    0    0    0    0 -0.00000000000E+00 -0.00000000000E+00 -0.50000000000E+03  0.50000000000E+03  0.00000000000E+00 0.  1.
        -11    1    1    2    0    0  0.13056183797E+02 -0.16453384577E+02  0.49409704101E+03  0.49454328803E+03  0.00000000000E+00 0. -1.
         11    1    1    2    0    0  0.13417196019E+02  0.16772921018E+02 -0.44892356358E+03  0.44943711236E+03  0.00000000000E+00 0.  1.
        -15    1    1    2    0    0 -0.12148054858E+02 -0.92556055601E+01 -0.15497188089E+02  0.21830300932E+02  0.17770000000E+01 0. -1.
         15    1    1    2    0    0 -0.14325324958E+02  0.89360691198E+01 -0.29676289337E+02  0.34189298681E+02  0.17770000000E+01 0.  1.
</event>
<event>
 6   1  0.1826851E-04  0.5011304E+03  0.7546771E-02  0.9397284E-01
        -11   -1    0    0    0    0  0.00000000000E+00  0.00000000000E+00  0.50000000000E+03  0.50000000000E+03  0.00000000000E+00 0. -1.
         11   -1    0    0    0    0 -0.00000000000E+00 -0.00000000000E+00 -0.50000000000E+03  0.50000000000E+03  0.00000000000E+00 0.  1.
        -11    1    1    2    0    0  0.26934464701E+02  0.51585360481E+01  0.49811527996E+03  0.49886963028E+03  0.00000000000E+00 0. -1.
         11    1    1    2    0    0  0.57008230186E+00  0.41482009530E+01 -0.25444886275E+03  0.25448331246E+03  0.00000000000E+00 0.  1.
        -15    1    1    2    0    0 -0.17525140661E+02  0.26528076478E+01 -0.68424567199E+02  0.70705353892E+02  0.17770000000E+01 0. -1.
         15    1    1    2    0    0 -0.99794063426E+01 -0.11959544649E+02 -0.17524185002E+03  0.17594170337E+03  0.17770000000E+01 0.  1.
</event>
<event>
 6   1  0.1826851E-04  0.4058412E+03  0.7546771E-02  0.9639298E-01
        -11   -1    0    0    0    0  0.00000000000E+00  0.00000000000E+00  0.50000000000E+03  0.50000000000E+03  0.00000000000E+00 0. -1.
         11   -1    0    0    0    0 -0.00000000000E+00 -0.00000000000E+00 -0.50000000000E+03  0.50000000000E+03  0.00000000000E+00 0. -1.
        -11    1    1    2    0    0 -0.29471126164E+02 -0.12198737389E+03 -0.11634464143E+03  0.17113019095E+03  0.00000000000E+00 0. -1.
         11    1    1    2    0    0  0.71636769312E+02  0.11202657538E+03 -0.34249332433E+03  0.36740094927E+03  0.00000000000E+00 0. -1.
        -15    1    1    2    0    0 -0.26943207843E+02  0.22887796848E+01  0.37011305334E+03  0.37110376574E+03  0.17770000000E+01 0. -1.
         15    1    1    2    0    0 -0.15222435306E+02  0.76720188192E+01  0.88724912419E+02  0.90365094047E+02  0.17770000000E+01 0.  1.
</event>
<event>
 6   1  0.1826851E-04  0.5009243E+03  0.7546771E-02  0.9397744E-01
        -11   -1    0    0    0    0  0.00000000000E+00  0.00000000000E+00  0.50000000000E+03  0.50000000000E+03  0.00000000000E+00 0.  1.
         11   -1    0    0    0    0 -0.00000000000E+00 -0.00000000000E+00 -0.50000000000E+03  0.50000000000E+03  0.00000000000E+00 0.  1.
        -11    1    1    2    0    0  0.97787668874E+01  0.24703824592E+00  0.49897982237E+03  0.49907569410E+03  0.00000000000E+00 0.  1.
         11    1    1    2    0    0  0.25593478368E+01  0.58743216180E+01 -0.38160654579E+03  0.38166033814E+03  0.00000000000E+00 0.  1.
        -15    1    1    2    0    0 -0.46253386432E+01 -0.99354278710E+01 -0.84910553549E+02  0.85633324808E+02  0.17770000000E+01 0.  1.
         15    1    1    2    0    0 -0.77127760810E+01  0.38140680071E+01 -0.32462723030E+02  0.33630642949E+02  0.17770000000E+01 0. -1.
</event>
<event>
 6   1  0.1826851E-04  0.5006607E+03  0.7546771E-02  0.9398332E-01
        -11   -1    0    0    0    0  0.00000000000E+00  0.00000000000E+00  0.50000000000E+03  0.50000000000E+03  0.00000000000E+00 0. -1.
         11   -1    0    0    0    0 -0.00000000000E+00 -0.00000000000E+00 -0.50000000000E+03  0.50000000000E+03  0.00000000000E+00 0. -1.
        -11    1    1    2    0    0  0.93337919249E+01 -0.13355908820E+02  0.24613877654E+03  0.24667751678E+03  0.00000000000E+00 0. -1.
         11    1    1    2    0    0 -0.84119999508E+01  0.19252405814E+00 -0.49926837424E+03  0.49933927176E+03  0.00000000000E+00 0. -1.
        -15    1    1    2    0    0 -0.43129466851E+01  0.57486995750E+01  0.20513662377E+03  0.20527016635E+03  0.17770000000E+01 0.  1.
         15    1    1    2    0    0  0.33911547110E+01  0.74146851865E+01  0.47992973936E+02  0.48713045100E+02  0.17770000000E+01 0. -1.
</event>
<event>
 6   1  0.1826851E-04  0.5023411E+03  0.7546771E-02  0.9394586E-01
        -11   -1    0    0    0    0  0.00000000000E+00  0.00000000000E+00  0.50000000000E+03  0.50000000000E+03  0.00000000000E+00 0.  1.
         11   -1    0    0    0    0 -0.00000000000E+00 -0.00000000000E+00 -0.50000000000E+03  0.50000000000E+03  0.00000000000E+00 0. -1.
        -11    1    1    2    0    0  0.81989955175E+01  0.10851441173E+02  0.49747299150E+03  0.49765887370E+03  0.00000000000E+00 0.  1.
         11    1    1    2    0    0  0.68701777950E+01 -0.18848970546E+01 -0.45571759190E+03  0.45577327231E+03  0.00000000000E+00 0. -1.
        -15    1    1    2    0    0 -0.56049397479E+00 -0.48933954000E+00 -0.50622086664E+00  0.19918823376E+01  0.17770000000E+01 0. -1.
         15    1    1    2    0    0 -0.14508679338E+02 -0.84772045788E+01 -0.41249178731E+02  0.44575971651E+02  0.17770000000E+01 0.  1.
</event>
<event>
 6   1  0.1826851E-04  0.5035050E+03  0.7546771E-02  0.9392001E-01
        -11   -1    0    0    0    0  0.00000000000E+00  0.00000000000E+00  0.50000000000E+03  0.50000000000E+03  0.00000000000E+00 0. -1.
         11   -1    0    0    0    0 -0.00000000000E+00 -0.00000000000E+00 -0.50000000000E+03  0.50000000000E+03  0.00000000000E+00 0.  1.
        -11    1    1    2    0    0 -0.40909341608E+02  0.51181900148E+01  0.20553077767E+03  0.20962507166E+03  0.00000000000E+00 0. -1.
         11    1    1    2    0    0  0.47143025199E+01 -0.78834095795E+01 -0.49640998502E+03  0.49649496072E+03  0.00000000000E+00 0.  1.
        -15    1    1    2    0    0  0.79667584031E+00  0.59756194571E+01  0.40799147877E+02  0.41280393854E+02  0.17770000000E+01 0.  1.
         15    1    1    2    0    0  0.35398363248E+02 -0.32103998923E+01  0.25008005947E+03  0.25259957376E+03  0.17770000000E+01 0. -1.
</event>
<event>
 6   1  0.1826851E-04  0.5063397E+03  0.7546771E-02  0.9385735E-01
        -11   -1    0    0    0    0  0.00000000000E+00  0.00000000000E+00  0.50000000000E+03  0.50000000000E+03  0.00000000000E+00 0. -1.
         11   -1    0    0    0    0 -0.00000000000E+00 -0.00000000000E+00 -0.50000000000E+03  0.50000000000E+03  0.00000000000E+00 0. -1.
        -11    1    1    2    0    0  0.62293220924E+01 -0.66501931340E+01  0.49357620738E+03  0.49366031035E+03  0.00000000000E+00 0. -1.
         11    1    1    2    0    0  0.99753066683E+01 -0.10849947914E+02 -0.44668380533E+03  0.44692689565E+03  0.00000000000E+00 0. -1.
        -15    1    1    2    0    0 -0.79175431789E+01  0.87306177345E+01 -0.10381448798E+01  0.11964390908E+02  0.17770000000E+01 0.  1.
         15    1    1    2    0    0 -0.82870855818E+01  0.87695233135E+01 -0.45854257173E+02  0.47448403097E+02  0.17770000000E+01 0. -1.
</event>
<event>
 6   1  0.1826851E-04  0.5006948E+03  0.7546771E-02  0.9398256E-01
        -11   -1    0    0    0    0  0.00000000000E+00  0.00000000000E+00  0.50000000000E+03  0.50000000000E+03  0.00000000000E+00 0.  1.
         11   -1    0    0    0    0 -0.00000000000E+00 -0.00000000000E+00 -0.50000000000E+03  0.50000000000E+03  0.00000000000E+00 0. -1.
        -11    1    1    2    0    0  0.29602862649E+01  0.55413839336E+01  0.42494192727E+03  0.42498836665E+03  0.00000000000E+00 0.  1.
         11    1    1    2    0    0 -0.50712980202E+01  0.47534105500E+01 -0.49925678404E+03  0.49930516659E+03  0.00000000000E+00 0. -1.
        -15    1    1    2    0    0 -0.28168712223E+01 -0.29445376981E+01  0.13195167211E+02  0.13923908664E+02  0.17770000000E+01 0. -1.
         15    1    1    2    0    0  0.49278829776E+01 -0.73502567855E+01  0.61119689552E+02  0.61782558100E+02  0.17770000000E+01 0.  1.
</event>
<event>
 6   1  0.1826851E-04  0.5045184E+03  0.7546771E-02  0.9389756E-01
        -11   -1    0    0    0    0  0.00000000000E+00  0.00000000000E+00  0.50000000000E+03  0.50000000000E+03  0.00000000000E+00 0. -1.
         11   -1    0    0    0    0 -0.00000000000E+00 -0.00000000000E+00 -0.50000000000E+03  0.50000000000E+03  0.00000000000E+00 0. -1.
        -11    1    1    2    0    0  0.17247414646E+01  0.90119188985E+01  0.47720101788E+03  0.47728922142E+03  0.00000000000E+00 0. -1.
         11    1    1    2    0    0  0.90898796314E-01  0.99258455161E+01 -0.49538216598E+03  0.49548160515E+03  0.00000000000E+00 0. -1.
        -15    1    1    2    0    0  0.44133949273E+00 -0.16109389858E+02  0.15093713573E+02  0.22151413963E+02  0.17770000000E+01 0.  1.
         15    1    1    2    0    0 -0.22569797537E+01 -0.28283745569E+01  0.30874345305E+01  0.50777594688E+01  0.17770000000E+01 0. -1.
</event>
<event>
 6   1  0.1826851E-04  0.5048916E+03  0.7546771E-02  0.9388930E-01
        -11   -1    0    0    0    0  0.00000000000E+00  0.00000000000E+00  0.50000000000E+03  0.50000000000E+03  0.00000000000E+00 0. -1.
         11   -1    0    0    0    0 -0.00000000000E+00 -0.00000000000E+00 -0.50000000000E+03  0.50000000000E+03  0.00000000000E+00 0.  1.
        -11    1    1    2    0    0  0.15940604669E+00 -0.10801224370E+02  0.47587486326E+03  0.47599745518E+03  0.00000000000E+00 0. -1.
         11    1    1    2    0    0 -0.88047175252E+01  0.43686157831E+01 -0.49501085421E+03  0.49510842615E+03  0.00000000000E+00 0.  1.
        -15    1    1    2    0    0  0.11316366037E+00 -0.23167324550E+01 -0.25893632564E+01  0.39041755027E+01  0.17770000000E+01 0.  1.
         15    1    1    2    0    0  0.85321478182E+01  0.87493410419E+01  0.21725354208E+02  0.24989943168E+02  0.17770000000E+01 0. -1.
</event>
<event>
 6   1  0.1826851E-04  0.5016939E+03  0.7546771E-02  0.9396027E-01
        -11   -1    0    0    0    0  0.00000000000E+00  0.00000000000E+00  0.50000000000E+03  0.50000000000E+03  0.00000000000E+00 0.  1.
         11   -1    0    0    0    0 -0.00000000000E+00 -0.00000000000E+00 -0.50000000000E+03  0.50000000000E+03  0.00000000000E+00 0. -1.
        -11    1    1    2    0    0  0.90153785691E+01  0.15547298878E+02  0.22484163950E+03  0.22555876929E+03  0.00000000000E+00 0.  1.
         11    1    1    2    0    0 -0.63232788431E+01 -0.10195755675E+02 -0.49816163805E+03  0.49830608557E+03  0.00000000000E+00 0. -1.
        -15    1    1    2    0    0 -0.37741924019E+01 -0.17121241155E+02  0.24153874404E+03  0.24218072596E+03  0.17770000000E+01 0.  1.
         15    1    1    2    0    0  0.10820926759E+01  0.11769697952E+02  0.31781254509E+02  0.33954419176E+02  0.17770000000E+01 0. -1.
</event>
<event>
 6   1  0.1826851E-04  0.5069612E+03  0.7546771E-02  0.9384367E-01
        -11   -1    0    0    0    0  0.00000000000E+00  0.00000000000E+00  0.50000000000E+03  0.50000000000E+03  0.00000000000E+00 0.  1.
         11   -1    0    0    0    0 -0.00000000000E+00 -0.00000000000E+00 -0.50000000000E+03  0.50000000000E+03  0.00000000000E+00 0.  1.
        -11    1    1    2    0    0 -0.25273411098E+02 -0.26695323607E+02  0.49166646955E+03  0.49303884522E+03  0.00000000000E+00 0.  1.
         11    1    1    2    0    0  0.49611685646E+01 -0.12819400512E+01 -0.37884603159E+03  0.37888068335E+03  0.00000000000E+00 0.  1.
        -15    1    1    2    0    0  0.24986598605E+02  0.27689140850E+02 -0.38646476980E+02  0.53737571054E+02  0.17770000000E+01 0.  1.
         15    1    1    2    0    0 -0.46743560710E+01  0.28812280737E+00 -0.74173960984E+02  0.74342900377E+02  0.17770000000E+01 0. -1.
</event>
<event>
 6   1  0.1826851E-04  0.5004070E+03  0.7546771E-02  0.9398899E-01
        -11   -1    0    0    0    0  0.00000000000E+00  0.00000000000E+00  0.50000000000E+03  0.50000000000E+03  0.00000000000E+00 0.  1.
         11   -1    0    0    0    0 -0.00000000000E+00 -0.00000000000E+00 -0.50000000000E+03  0.50000000000E+03  0.00000000000E+00 0.  1.
        -11    1    1    2    0    0  0.12904282234E+02  0.16685733194E+02  0.49914748759E+03  0.49959298290E+03  0.00000000000E+00 0.  1.
         11    1    1    2    0    0  0.26534213497E+01 -0.31489069191E+01 -0.29477698896E+03  0.29480574872E+03  0.00000000000E+00 0.  1.
        -15    1    1    2    0    0 -0.14764016742E+02 -0.96485789133E+01 -0.17727977131E+03  0.17816381875E+03  0.17770000000E+01 0.  1.
         15    1    1    2    0    0 -0.79368684176E+00 -0.38882473617E+01 -0.27090727316E+02  0.27437449624E+02  0.17770000000E+01 0. -1.
</event>
<event>
 6   1  0.1826851E-04  0.5005776E+03  0.7546771E-02  0.9398518E-01
        -11   -1    0    0    0    0  0.00000000000E+00  0.00000000000E+00  0.50000000000E+03  0.50000000000E+03  0.00000000000E+00 0.  1.
         11   -1    0    0    0    0 -0.00000000000E+00 -0.00000000000E+00 -0.50000000000E+03  0.50000000000E+03  0.00000000000E+00 0. -1.
        -11    1    1    2    0    0 -0.42115470286E+00  0.92485808014E+01  0.53124602192E+02  0.53925290691E+02  0.00000000000E+00 0.  1.
         11    1    1    2    0    0  0.11150012410E+02  0.86417509644E+01 -0.49922312431E+03  0.49942239686E+03  0.00000000000E+00 0. -1.
        -15    1    1    2    0    0 -0.98730252537E+01 -0.17576516946E+02  0.40636774381E+03  0.40687136974E+03  0.17770000000E+01 0.  1.
         15    1    1    2    0    0 -0.85583245315E+00 -0.31381482000E+00  0.39730778310E+02  0.39780942712E+02  0.17770000000E+01 0.  1.
</event>
<event>
 6   1  0.1826851E-04  0.5013708E+03  0.7546771E-02  0.9396748E-01
        -11   -1    0    0    0    0  0.00000000000E+00  0.00000000000E+00  0.50000000000E+03  0.50000000000E+03  0.00000000000E+00 0. -1.
         11   -1    0    0    0    0 -0.00000000000E+00 -0.00000000000E+00 -0.50000000000E+03  0.50000000000E+03  0.00000000000E+00 0.  1.
        -11    1    1    2    0    0 -0.22160208984E+01 -0.61975261471E+01  0.46477061860E+03  0.46481721998E+03  0.00000000000E+00 0. -1.
         11    1    1    2    0    0  0.14608550938E+02  0.72147656045E+01 -0.49836293353E+03  0.49862919702E+03  0.00000000000E+00 0.  1.
        -15    1    1    2    0    0 -0.88640386773E+01 -0.20927665424E+01  0.28759469565E+02  0.30219458502E+02  0.17770000000E+01 0. -1.
         15    1    1    2    0    0 -0.35284913619E+01  0.10755270849E+01  0.48328453667E+01  0.63341244967E+01  0.17770000000E+01 0.  1.
</event>
<event>
 6   1  0.1826851E-04  0.5008292E+03  0.7546771E-02  0.9397956E-01
        -11   -1    0    0    0    0  0.00000000000E+00  0.00000000000E+00  0.50000000000E+03  0.50000000000E+03  0.00000000000E+00 0. -1.
         11   -1    0    0    0    0 -0.00000000000E+00 -0.00000000000E+00 -0.50000000000E+03  0.50000000000E+03  0.00000000000E+00 0. -1.
        -11    1    1    2    0    0 -0.17092880243E+02  0.20450339369E+02  0.49845877764E+03  0.49917084845E+03  0.00000000000E+00 0. -1.
         11    1    1    2    0    0 -0.11723404151E+01  0.36414777819E+01 -0.24804872961E+03  0.24807822759E+03  0.00000000000E+00 0. -1.
        -15    1    1    2    0    0  0.14615331437E+02 -0.22809741579E+02 -0.23959436099E+03  0.24112757571E+03  0.17770000000E+01 0. -1.
         15    1    1    2    0    0  0.36498892212E+01 -0.12820755716E+01 -0.10815687043E+02  0.11623348240E+02  0.17770000000E+01 0.  1.
</event>
<event>
 6   1  0.1826851E-04  0.5014384E+03  0.7546771E-02  0.9396597E-01
        -11   -1    0    0    0    0  0.00000000000E+00  0.00000000000E+00  0.50000000000E+03  0.50000000000E+03  0.00000000000E+00 0. -1.
         11   -1    0    0    0    0 -0.00000000000E+00 -0.00000000000E+00 -0.50000000000E+03  0.50000000000E+03  0.00000000000E+00 0. -1.
        -11    1    1    2    0    0 -0.37831443036E+00  0.78794866714E+01  0.49849917558E+03  0.49856158846E+03  0.00000000000E+00 0. -1.
         11    1    1    2    0    0  0.56094012237E+01  0.33540339061E+01 -0.45157528883E+03  0.45162258182E+03  0.00000000000E+00 0. -1.
        -15    1    1    2    0    0 -0.27443873757E+01  0.47015592214E+00 -0.20377132842E+02  0.20643109759E+02  0.17770000000E+01 0.  1.
         15    1    1    2    0    0 -0.24866994177E+01 -0.11703676500E+02 -0.26546753914E+02  0.29172719962E+02  0.17770000000E+01 0. -1.
</event>
<event>
 6   1  0.1826851E-04  0.5040126E+03  0.7546771E-02  0.9390876E-01
        -11   -1    0    0    0    0  0.00000000000E+00  0.00000000000E+00  0.50000000000E+03  0.50000000000E+03  0.00000000000E+00 0. -1.
         11   -1    0    0    0    0 -0.00000000000E+00 -0.00000000000E+00 -0.50000000000E+03  0.50000000000E+03  0.00000000000E+00 0. -1.
        -11    1    1    2    0    0  0.94158338154E+01 -0.21031858516E+01  0.49589354565E+03  0.49598738889E+03  0.00000000000E+00 0. -1.
         11    1    1    2    0    0  0.12682462325E+01  0.74939669897E+01 -0.48801990464E+03  0.48807908715E+03  0.00000000000E+00 0. -1.
        -15    1    1    2    0    0 -0.78046992881E+01 -0.31911792179E+01 -0.20659369042E+01  0.88613080338E+01  0.17770000000E+01 0. -1.
         15    1    1    2    0    0 -0.28793807598E+01 -0.21996019202E+01 -0.58077041045E+01  0.70722159280E+01  0.17770000000E+01 0.  1.
</event>
<event>
 6   1  0.1826851E-04  0.5002585E+03  0.7546771E-02  0.9399231E-01
        -11   -1    0    0    0    0  0.00000000000E+00  0.00000000000E+00  0.50000000000E+03  0.50000000000E+03  0.00000000000E+00 0.  1.
         11   -1    0    0    0    0 -0.00000000000E+00 -0.00000000000E+00 -0.50000000000E+03  0.50000000000E+03  0.00000000000E+00 0. -1.
        -11    1    1    2    0    0  0.79963456737E+01  0.16185623702E+02  0.24584628087E+03  0.24650823470E+03  0.00000000000E+00 0.  1.
         11    1    1    2    0    0 -0.91942065220E+01 -0.11677636973E+02 -0.49952041696E+03  0.49974148077E+03  0.00000000000E+00 0. -1.
        -15    1    1    2    0    0  0.46648645721E+00 -0.10224042187E+01  0.11426377866E+03  0.11428312107E+03  0.17770000000E+01 0.  1.
         15    1    1    2    0    0  0.73137439108E+00 -0.34855825099E+01  0.13941035744E+03  0.13946716346E+03  0.17770000000E+01 0.  1.
</event>
<event>
 6   1  0.1826851E-04  0.5041200E+03  0.7546771E-02  0.9390638E-01
        -11   -1    0    0    0    0  0.00000000000E+00  0.00000000000E+00  0.50000000000E+03  0.50000000000E+03  0.00000000000E+00 0. -1.
         11   -1    0    0    0    0 -0.00000000000E+00 -0.00000000000E+00 -0.50000000000E+03  0.50000000000E+03  0.00000000000E+00 0.  1.
        -11    1    1    2    0    0  0.73882013518E+01 -0.54561131331E+01  0.48167810841E+03  0.48176566380E+03  0.00000000000E+00 0. -1.
         11    1    1    2    0    0 -0.19406629386E+01 -0.81476876144E+01 -0.49580930905E+03  0.49588004792E+03  0.00000000000E+00 0.  1.
        -15    1    1    2    0    0 -0.96464284702E+00  0.11913344988E+02  0.11128518272E+02  0.16427415273E+02  0.17770000000E+01 0. -1.
         15    1    1    2    0    0 -0.44828955662E+01  0.16904557592E+01  0.30026823634E+01  0.59268730125E+01  0.17770000000E+01 0. -1.
</event>
<event>
 6   1  0.1826851E-04  0.5221007E+03  0.7546771E-02  0.9351672E-01
        -11   -1    0    0    0    0  0.00000000000E+00  0.00000000000E+00  0.50000000000E+03  0.50000000000E+03  0.00000000000E+00 0. -1.
         11   -1    0    0    0    0 -0.00000000000E+00 -0.00000000000E+00 -0.50000000000E+03  0.50000000000E+03  0.00000000000E+00 0.  1.
        -11    1    1    2    0    0 -0.12193635022E+02  0.38076407831E+02  0.47622398682E+03  0.47789934420E+03  0.00000000000E+00 0. -1.
         11    1    1    2    0    0  0.26721210226E+02 -0.60221192638E+02 -0.42366800699E+03  0.42876006725E+03  0.00000000000E+00 0.  1.
        -15    1    1    2    0    0  0.14510751100E+02 -0.16892596465E+02 -0.35127094886E+02  0.41629223353E+02  0.17770000000E+01 0. -1.
         15    1    1    2    0    0 -0.29038326304E+02  0.39037381273E+02 -0.17428884945E+02  0.51711365198E+02  0.17770000000E+01 0.  1.
</event>
<event>
 6   1  0.1826851E-04  0.5071944E+03  0.7546771E-02  0.9383854E-01
        -11   -1    0    0    0    0  0.00000000000E+00  0.00000000000E+00  0.50000000000E+03  0.50000000000E+03  0.00000000000E+00 0.  1.
         11   -1    0    0    0    0 -0.00000000000E+00 -0.00000000000E+00 -0.50000000000E+03  0.50000000000E+03  0.00000000000E+00 0.  1.
        -11    1    1    2    0    0  0.29278090090E+02  0.33006390668E+01  0.49192404129E+03  0.49280560384E+03  0.00000000000E+00 0.  1.
         11    1    1    2    0    0 -0.82038383741E+01 -0.17492439955E+02 -0.47169652062E+03  0.47209204186E+03  0.00000000000E+00 0.  1.
        -15    1    1    2    0    0 -0.16603022149E+01  0.35256894010E+01  0.96988335095E+00  0.43915250098E+01  0.17770000000E+01 0.  1.
         15    1    1    2    0    0 -0.19413949501E+02  0.10666111487E+02 -0.21197404023E+02  0.30710829292E+02  0.17770000000E+01 0. -1.
</event>
<event>
 6   1  0.1826851E-04  0.5001157E+03  0.7546771E-02  0.9399551E-01
        -11   -1    0    0    0    0  0.00000000000E+00  0.00000000000E+00  0.50000000000E+03  0.50000000000E+03  0.00000000000E+00 0.  1.
         11   -1    0    0    0    0 -0.00000000000E+00 -0.00000000000E+00 -0.50000000000E+03  0.50000000000E+03  0.00000000000E+00 0. -1.
        -11    1    1    2    0    0 -0.30707596410E+00 -0.54482233279E+01  0.22020385038E+03  0.22027145334E+03  0.00000000000E+00 0.  1.
         11    1    1    2    0    0  0.61789131520E+01  0.64232555687E+01 -0.49980485513E+03  0.49988431701E+03  0.00000000000E+00 0. -1.
        -15    1    1    2    0    0 -0.47593849367E+01 -0.49762560041E+01  0.16003973294E+03  0.16019765516E+03  0.17770000000E+01 0.  1.
         15    1    1    2    0    0 -0.11124522512E+01  0.40012237634E+01  0.11956127181E+03  0.11964657449E+03  0.17770000000E+01 0. -1.
</event>
<event>
 6   1  0.1826851E-04  0.5008470E+03  0.7546771E-02  0.9397917E-01
        -11   -1    0    0    0    0  0.00000000000E+00  0.00000000000E+00  0.50000000000E+03  0.50000000000E+03  0.00000000000E+00 0.  1.
         11   -1    0    0    0    0 -0.00000000000E+00 -0.00000000000E+00 -0.50000000000E+03  0.50000000000E+03  0.00000000000E+00 0.  1.
        -11    1    1    2    0    0 -0.20338572831E+02  0.15643742255E+02  0.20299232605E+03  0.20460759676E+03  0.00000000000E+00 0.  1.
         11    1    1    2    0    0  0.11738892242E+02 -0.82632570595E+01 -0.49894655354E+03  0.49915302894E+03  0.00000000000E+00 0.  1.
        -15    1    1    2    0    0  0.42846693054E+01 -0.68763524423E+01  0.19341326874E+03  0.19359104542E+03  0.17770000000E+01 0. -1.
         15    1    1    2    0    0  0.43150112834E+01 -0.50413275320E+00  0.10254095875E+03  0.10264832889E+03  0.17770000000E+01 0.  1.
</event>
<event>
 6   1  0.1826851E-04  0.5063795E+03  0.7546771E-02  0.9385647E-01
        -11   -1    0    0    0    0  0.00000000000E+00  0.00000000000E+00  0.50000000000E+03  0.50000000000E+03  0.00000000000E+00 0. -1.
         11   -1    0    0    0    0 -0.00000000000E+00 -0.00000000000E+00 -0.50000000000E+03  0.50000000000E+03  0.00000000000E+00 0.  1.
        -11    1    1    2    0    0 -0.27699273274E+02 -0.51579580051E+01  0.40684264689E+03  0.40781710803E+03  0.00000000000E+00 0. -1.
         11    1    1    2    0    0 -0.40656755524E+01 -0.16549983849E+02 -0.49332618513E+03  0.49362045806E+03  0.00000000000E+00 0.  1.
        -15    1    1    2    0    0  0.31952953218E+02  0.15328250002E+02  0.84497900287E+02  0.91646054740E+02  0.17770000000E+01 0. -1.
         15    1    1    2    0    0 -0.18800439104E+00  0.63796918520E+01  0.19856379462E+01  0.69163791706E+01  0.17770000000E+01 0.  1.
</event>
<event>
 6   1  0.1826851E-04  0.5001257E+03  0.7546771E-02  0.9399529E-01
        -11   -1    0    0    0    0  0.00000000000E+00  0.00000000000E+00  0.50000000000E+03  0.50000000000E+03  0.00000000000E+00 0. -1.
         11   -1    0    0    0    0 -0.00000000000E+00 -0.00000000000E+00 -0.50000000000E+03  0.50000000000E+03  0.00000000000E+00 0.  1.
        -11    1    1    2    0    0 -0.14239697553E+02  0.10508505503E+02  0.49956093625E+03  0.49987431090E+03  0.00000000000E+00 0. -1.
         11    1    1    2    0    0  0.45986696746E+00  0.11125439280E+01 -0.67487615837E+02  0.67498352002E+02  0.00000000000E+00 0.  1.
        -15    1    1    2    0    0  0.42073424426E+01  0.17831387318E+01 -0.67523816978E+02  0.67701587149E+02  0.17770000000E+01 0.  1.
         15    1    1    2    0    0  0.95724881430E+01 -0.13404188163E+02 -0.36454950344E+03  0.36492574995E+03  0.17770000000E+01 0.  1.
</event>
<event>
 6   1  0.1826851E-04  0.5000462E+03  0.7546771E-02  0.9399706E-01
        -11   -1    0    0    0    0  0.00000000000E+00  0.00000000000E+00  0.50000000000E+03  0.50000000000E+03  0.00000000000E+00 0. -1.
         11   -1    0    0    0    0 -0.00000000000E+00 -0.00000000000E+00 -0.50000000000E+03  0.50000000000E+03  0.00000000000E+00 0. -1.
        -11    1    1    2    0    0 -0.15250678342E+01 -0.21543807098E+01  0.59703481822E+02  0.59761801595E+02  0.00000000000E+00 0. -1.
         11    1    1    2    0    0  0.62387552199E+01  0.59299737482E+01 -0.49987972196E+03  0.49995382095E+03  0.00000000000E+00 0. -1.
        -15    1    1    2    0    0 -0.46726067301E+00 -0.45992552686E+01  0.26184009152E+03  0.26188692739E+03  0.17770000000E+01 0. -1.
         15    1    1    2    0    0 -0.42464267127E+01  0.82366223016E+00  0.17833614861E+03  0.17839745007E+03  0.17770000000E+01 0.  1.
</event>
<event>
 6   1  0.1826851E-04  0.5000588E+03  0.7546771E-02  0.9399678E-01
        -11   -1    0    0    0    0  0.00000000000E+00  0.00000000000E+00  0.50000000000E+03  0.50000000000E+03  0.00000000000E+00 0. -1.
         11   -1    0    0    0    0 -0.00000000000E+00 -0.00000000000E+00 -0.50000000000E+03  0.50000000000E+03  0.00000000000E+00 0. -1.
        -11    1    1    2    0    0 -0.26399585367E+01 -0.77302694363E+00  0.30560043632E+02  0.30683598527E+02  0.00000000000E+00 0. -1.
         11    1    1    2    0    0  0.75986122532E+01 -0.35661088947E+01 -0.49987071448E+03  0.49994118377E+03  0.00000000000E+00 0. -1.
        -15    1    1    2    0    0 -0.21666527892E+01  0.80267519697E+00  0.15829996283E+03  0.15832679695E+03  0.17770000000E+01 0. -1.
         15    1    1    2    0    0 -0.27920009274E+01  0.35364606414E+01  0.31101070801E+03  0.31104842075E+03  0.17770000000E+01 0. -1.
</event>
<event>
 6   1  0.1826851E-04  0.5035919E+03  0.7546771E-02  0.9391808E-01
        -11   -1    0    0    0    0  0.00000000000E+00  0.00000000000E+00  0.50000000000E+03  0.50000000000E+03  0.00000000000E+00 0. -1.
         11   -1    0    0    0    0 -0.00000000000E+00 -0.00000000000E+00 -0.50000000000E+03  0.50000000000E+03  0.00000000000E+00 0. -1.
        -11    1    1    2    0    0 -0.25334701494E+01  0.11702987535E+02  0.49626364018E+03  0.49640807704E+03  0.00000000000E+00 0. -1.
         11    1    1    2    0    0  0.91211413493E+01  0.17096614493E+01 -0.46913947745E+03  0.46923125158E+03  0.00000000000E+00 0. -1.
        -15    1    1    2    0    0  0.65509245866E+00 -0.12600079663E+02 -0.12118245998E+02  0.17584105570E+02  0.17770000000E+01 0.  1.
         15    1    1    2    0    0 -0.72427636586E+01 -0.81256932180E+00 -0.15005916730E+02  0.16776565805E+02  0.17770000000E+01 0. -1.
</event>
<event>
 6   1  0.1826851E-04  0.5025377E+03  0.7546771E-02  0.9394149E-01
        -11   -1    0    0    0    0  0.00000000000E+00  0.00000000000E+00  0.50000000000E+03  0.50000000000E+03  0.00000000000E+00 0.  1.
         11   -1    0    0    0    0 -0.00000000000E+00 -0.00000000000E+00 -0.50000000000E+03  0.50000000000E+03  0.00000000000E+00 0.  1.
        -11    1    1    2    0    0  0.17303820139E+02 -0.17969276120E+02  0.45151144003E+03  0.45220006364E+03  0.00000000000E+00 0.  1.
         11    1    1    2    0    0 -0.10231559159E+02  0.33037701206E-01 -0.49735711480E+03  0.49746234585E+03  0.00000000000E+00 0.  1.
        -15    1    1    2    0    0  0.93196861998E+00  0.23365435400E+01  0.85504656971E+01  0.90882448174E+01  0.17770000000E+01 0. -1.
         15    1    1    2    0    0 -0.80042296005E+01  0.15599694879E+02  0.37295209069E+02  0.41249345696E+02  0.17770000000E+01 0.  1.
</event>
<event>
 6   1  0.1826851E-04  0.5086656E+03  0.7546771E-02  0.9380626E-01
        -11   -1    0    0    0    0  0.00000000000E+00  0.00000000000E+00  0.50000000000E+03  0.50000000000E+03  0.00000000000E+00 0. -1.
         11   -1    0    0    0    0 -0.00000000000E+00 -0.00000000000E+00 -0.50000000000E+03  0.50000000000E+03  0.00000000000E+00 0.  1.
        -11    1    1    2    0    0  0.23961353754E+02  0.24754142461E+02  0.40122717288E+03  0.40270356132E+03  0.00000000000E+00 0. -1.
         11    1    1    2    0    0 -0.23343831569E+02  0.21940915138E+02 -0.49028881197E+03  0.49133436413E+03  0.00000000000E+00 0.  1.
        -15    1    1    2    0    0  0.14485560205E+02 -0.24524526729E+02  0.59582877640E+02  0.66064823489E+02  0.17770000000E+01 0. -1.
         15    1    1    2    0    0 -0.15103082390E+02 -0.22170530870E+02  0.29478761453E+02  0.39897251065E+02  0.17770000000E+01 0.  1.
</event>
<event>
 6   1  0.1826851E-04  0.5012325E+03  0.7546771E-02  0.9397056E-01
        -11   -1    0    0    0    0  0.00000000000E+00  0.00000000000E+00  0.50000000000E+03  0.50000000000E+03  0.00000000000E+00 0. -1.
         11   -1    0    0    0    0 -0.00000000000E+00 -0.00000000000E+00 -0.50000000000E+03  0.50000000000E+03  0.00000000000E+00 0.  1.
        -11    1    1    2    0    0 -0.22528060787E+02  0.44839656256E-03  0.19161753140E+03  0.19293727443E+03  0.00000000000E+00 0. -1.
         11    1    1    2    0    0  0.13154878769E+01  0.10863299351E+02 -0.49864747264E+03  0.49876752476E+03  0.00000000000E+00 0.  1.
        -15    1    1    2    0    0  0.20105827782E+02 -0.67190488797E+01  0.28435889936E+03  0.28515352234E+03  0.17770000000E+01 0. -1.
         15    1    1    2    0    0  0.11067451277E+01 -0.41446988677E+01  0.22671041882E+02  0.23141678471E+02  0.17770000000E+01 0.  1.
</event>
<event>
 6   1  0.1826851E-04  0.4428779E+03  0.7546771E-02  0.9537560E-01
        -11   -1    0    0    0    0  0.00000000000E+00  0.00000000000E+00  0.50000000000E+03  0.50000000000E+03  0.00000000000E+00 0.  1.
         11   -1    0    0    0    0 -0.00000000000E+00 -0.00000000000E+00 -0.50000000000E+03  0.50000000000E+03  0.00000000000E+00 0. -1.
        -11    1    1    2    0    0 -0.43569767417E+02 -0.91580291340E+02  0.41988908197E+03  0.43196309513E+03  0.00000000000E+00 0.  1.
         11    1    1    2    0    0  0.21775638453E+02 -0.25693713061E+01 -0.45940168639E+03  0.45992465639E+03  0.00000000000E+00 0. -1.
        -15    1    1    2    0    0 -0.24311265922E+01  0.16316141049E+02  0.16480917496E+02  0.23386004484E+02  0.17770000000E+01 0.  1.
         15    1    1    2    0    0  0.24225255557E+02  0.77833521598E+02  0.23031686920E+02  0.84726244001E+02  0.17770000000E+01 0. -1.
</event>
<event>
 6   1  0.1826851E-04  0.5000410E+03  0.7546771E-02  0.9399718E-01
        -11   -1    0    0    0    0  0.00000000000E+00  0.00000000000E+00  0.50000000000E+03  0.50000000000E+03  0.00000000000E+00 0.  1.
         11   -1    0    0    0    0 -0.00000000000E+00 -0.00000000000E+00 -0.50000000000E+03  0.50000000000E+03  0.00000000000E+00 0. -1.
        -11    1    1    2    0    0  0.37922890667E+01 -0.89265451290E+00  0.11819743648E+03  0.11826162640E+03  0.00000000000E+00 0.  1.
         11    1    1    2    0    0 -0.34902293279E+01  0.77241211734E+01 -0.49988713294E+03  0.49995898775E+03  0.00000000000E+00 0. -1.
        -15    1    1    2    0    0  0.49738221186E-01 -0.39062199372E+01  0.27680553729E+03  0.27683880551E+03  0.17770000000E+01 0.  1.
         15    1    1    2    0    0 -0.35179795992E+00 -0.29252467234E+01  0.10488415917E+03  0.10494058035E+03  0.17770000000E+01 0.  1.
</event>
<event>
 6   1  0.1826851E-04  0.4932669E+03  0.7546771E-02  0.9415003E-01
        -11   -1    0    0    0    0  0.00000000000E+00  0.00000000000E+00  0.50000000000E+03  0.50000000000E+03  0.00000000000E+00 0. -1.
         11   -1    0    0    0    0 -0.00000000000E+00 -0.00000000000E+00 -0.50000000000E+03  0.50000000000E+03  0.00000000000E+00 0.  1.
        -11    1    1    2    0    0 -0.47886026730E+01  0.97930300421E+01  0.49154085338E+03  0.49166171775E+03  0.00000000000E+00 0. -1.
         11    1    1    2    0    0 -0.43290707176E+01 -0.54430135290E+01 -0.49488066161E+03  0.49492952679E+03  0.00000000000E+00 0.  1.
        -15    1    1    2    0    0  0.25173657084E+01 -0.42976220132E+01  0.38695917884E+01  0.65527211666E+01  0.17770000000E+01 0. -1.
         15    1    1    2    0    0  0.66003076822E+01 -0.52394499884E-01 -0.52978355755E+00  0.68560342984E+01  0.17770000000E+01 0.  1.
</event>
<event>
 6   1  0.1826851E-04  0.5004466E+03  0.7546771E-02  0.9398811E-01
        -11   -1    0    0    0    0  0.00000000000E+00  0.00000000000E+00  0.50000000000E+03  0.50000000000E+03  0.00000000000E+00 0. -1.
         11   -1    0    0    0    0 -0.00000000000E+00 -0.00000000000E+00 -0.50000000000E+03  0.50000000000E+03  0.00000000000E+00 0. -1.
        -11    1    1    2    0    0 -0.12996013244E+02  0.21761916172E+01  0.49937959377E+03  0.49955341140E+03  0.00000000000E+00 0. -1.
         11    1    1    2    0    0  0.72600855614E+01 -0.69884295920E+01 -0.45395432666E+03  0.45406616003E+03  0.00000000000E+00 0. -1.
        -15    1    1    2    0    0  0.47101286632E+01  0.35935508430E+01 -0.39680940211E+02  0.40160100407E+02  0.17770000000E+01 0. -1.
         15    1    1    2    0    0  0.10257990193E+01  0.12186871318E+01 -0.57443268955E+01  0.62203281615E+01  0.17770000000E+01 0.  1.
</event>
<event>
 6   1  0.1826851E-04  0.5001300E+03  0.7546771E-02  0.9399519E-01
        -11   -1    0    0    0    0  0.00000000000E+00  0.00000000000E+00  0.50000000000E+03  0.50000000000E+03  0.00000000000E+00 0.  1.
         11   -1    0    0    0    0 -0.00000000000E+00 -0.00000000000E+00 -0.50000000000E+03  0.50000000000E+03  0.00000000000E+00 0.  1.
        -11    1    1    2    0    0  0.32209400315E+01  0.37734335162E+01  0.18619460671E+03  0.18626069049E+03  0.00000000000E+00 0.  1.
         11    1    1    2    0    0 -0.49700422186E+01  0.50955964669E+01 -0.49981935383E+03  0.49987003600E+03  0.00000000000E+00 0.  1.
        -15    1    1    2    0    0  0.72898209057E+00 -0.13241651381E+01  0.19267973979E+02  0.19408693373E+02  0.17770000000E+01 0. -1.
         15    1    1    2    0    0  0.10201200965E+01 -0.75448648450E+01  0.29435677315E+03  0.29446058014E+03  0.17770000000E+01 0.  1.
</event>
<event>
 6   1  0.1826851E-04  0.5009439E+03  0.7546771E-02  0.9397700E-01
        -11   -1    0    0    0    0  0.00000000000E+00  0.00000000000E+00  0.50000000000E+03  0.50000000000E+03  0.00000000000E+00 0. -1.
         11   -1    0    0    0    0 -0.00000000000E+00 -0.00000000000E+00 -0.50000000000E+03  0.50000000000E+03  0.00000000000E+00 0. -1.
        -11    1    1    2    0    0  0.30293519408E+02 -0.27184351294E+02  0.49739350148E+03  0.49905609062E+03  0.00000000000E+00 0. -1.
         11    1    1    2    0    0 -0.26477320195E+00  0.62820444837E+00 -0.24587084194E+02  0.24596533391E+02  0.00000000000E+00 0. -1.
        -15    1    1    2    0    0 -0.23757604177E+02  0.48201710501E+01 -0.38112844598E+03  0.38190274661E+03  0.17770000000E+01 0. -1.
         15    1    1    2    0    0 -0.62711420294E+01  0.21735975795E+02 -0.91677971303E+02  0.94444629372E+02  0.17770000000E+01 0.  1.
</event>
<event>
 6   1  0.1826851E-04  0.4872295E+03  0.7546771E-02  0.9428847E-01
        -11   -1    0    0    0    0  0.00000000000E+00  0.00000000000E+00  0.50000000000E+03  0.50000000000E+03  0.00000000000E+00 0.  1.
         11   -1    0    0    0    0 -0.00000000000E+00 -0.00000000000E+00 -0.50000000000E+03  0.50000000000E+03  0.00000000000E+00 0. -1.
        -11    1    1    2    0    0 -0.24706387691E+01 -0.24252731492E+02 -0.70764331948E+01  0.25384541507E+02  0.00000000000E+00 0.  1.
         11    1    1    2    0    0  0.32817530645E+01 -0.89940096077E+01 -0.48307228626E+03  0.48316715106E+03  0.00000000000E+00 0. -1.
        -15    1    1    2    0    0  0.48441600782E+00  0.49127450063E+01  0.15764950196E+03  0.15773678366E+03  0.17770000000E+01 0. -1.
         15    1    1    2    0    0 -0.12955303033E+01  0.28333996093E+02  0.33249921750E+03  0.33371152377E+03  0.17770000000E+01 0.  1.
</event>
<event>
 6   1  0.1826851E-04  0.5033569E+03  0.7546771E-02  0.9392330E-01
        -11   -1    0    0    0    0  0.00000000000E+00  0.00000000000E+00  0.50000000000E+03  0.50000000000E+03  0.00000000000E+00 0. -1.
         11   -1    0    0    0    0 -0.00000000000E+00 -0.00000000000E+00 -0.50000000000E+03  0.50000000000E+03  0.00000000000E+00 0.  1.
        -11    1    1    2    0    0  0.86894938497E+01 -0.19989635768E+02 -0.15972097372E+02  0.27022226702E+02  0.00000000000E+00 0. -1.
         11    1    1    2    0    0  0.15589009325E+02 -0.76496701930E+01 -0.47601802461E+03  0.47633464541E+03  0.00000000000E+00 0.  1.
        -15    1    1    2    0    0 -0.87277454721E+01  0.30997219319E+02  0.11851042425E+03  0.12282051755E+03  0.17770000000E+01 0.  1.
         15    1    1    2    0    0 -0.15550757703E+02 -0.33579133582E+01  0.37347969774E+03  0.37382261034E+03  0.17770000000E+01 0. -1.
</event>
<event>
 6   1  0.1826851E-04  0.5003775E+03  0.7546771E-02  0.9398965E-01
        -11   -1    0    0    0    0  0.00000000000E+00  0.00000000000E+00  0.50000000000E+03  0.50000000000E+03  0.00000000000E+00 0.  1.
         11   -1    0    0    0    0 -0.00000000000E+00 -0.00000000000E+00 -0.50000000000E+03  0.50000000000E+03  0.00000000000E+00 0. -1.
        -11    1    1    2    0    0 -0.34659257264E+01  0.79161147487E+01  0.41627656419E+03  0.41636625152E+03  0.00000000000E+00 0.  1.
         11    1    1    2    0    0  0.70250078423E+01 -0.40354891398E+01 -0.49955677321E+03  0.49962246303E+03  0.00000000000E+00 0. -1.
        -15    1    1    2    0    0 -0.57985209526E+00 -0.60541301407E+01  0.35925412799E+02  0.36479881222E+02  0.17770000000E+01 0.  1.
         15    1    1    2    0    0 -0.29792300207E+01  0.21735045317E+01  0.47354796223E+02  0.47531404227E+02  0.17770000000E+01 0. -1.
</event>
<event>
 6   1  0.1826851E-04  0.5003163E+03  0.7546771E-02  0.9399102E-01
        -11   -1    0    0    0    0  0.00000000000E+00  0.00000000000E+00  0.50000000000E+03  0.50000000000E+03  0.00000000000E+00 0.  1.
         11   -1    0    0    0    0 -0.00000000000E+00 -0.00000000000E+00 -0.50000000000E+03  0.50000000000E+03  0.00000000000E+00 0. -1.
        -11    1    1    2    0    0 -0.15594363050E+02 -0.29618976044E+01  0.49943148832E+03  0.49968366845E+03  0.00000000000E+00 0.  1.
         11    1    1    2    0    0  0.52960392564E+01 -0.13660992447E+01 -0.33735183745E+03  0.33739617142E+03  0.00000000000E+00 0. -1.
        -15    1    1    2    0    0  0.11152679927E+02  0.31451264202E+00 -0.90760210398E+02  0.91460673014E+02  0.17770000000E+01 0.  1.
         15    1    1    2    0    0 -0.85435613268E+00  0.40134842071E+01 -0.71319440473E+02  0.71459487112E+02  0.17770000000E+01 0. -1.
</event>
<event>
 6   1  0.1826851E-04  0.4891219E+03  0.7546771E-02  0.9424485E-01
        -11   -1    0    0    0    0  0.00000000000E+00  0.00000000000E+00  0.50000000000E+03  0.50000000000E+03  0.00000000000E+00 0.  1.
         11   -1    0    0    0    0 -0.00000000000E+00 -0.00000000000E+00 -0.50000000000E+03  0.50000000000E+03  0.00000000000E+00 0. -1.
        -11    1    1    2    0    0  0.91073025125E+01  0.91434214187E+01  0.48550345976E+03  0.48567494742E+03  0.00000000000E+00 0.  1.
         11    1    1    2    0    0  0.80010281038E+01 -0.96816219866E+00 -0.49271326850E+03  0.49277917848E+03  0.00000000000E+00 0. -1.
        -15    1    1    2    0    0 -0.31781065144E+01  0.21378452346E+00 -0.53462695752E-01  0.36478284087E+01  0.17770000000E+01 0.  1.
         15    1    1    2    0    0 -0.13930224102E+02 -0.83890437435E+01  0.72632714374E+01  0.17898045688E+02  0.17770000000E+01 0. -1.
</event>
<event>
 6   1  0.1826851E-04  0.5005804E+03  0.7546771E-02  0.9398512E-01
        -11   -1    0    0    0    0  0.00000000000E+00  0.00000000000E+00  0.50000000000E+03  0.50000000000E+03  0.00000000000E+00 0. -1.
         11   -1    0    0    0    0 -0.00000000000E+00 -0.00000000000E+00 -0.50000000000E+03  0.50000000000E+03  0.00000000000E+00 0.  1.
        -11    1    1    2    0    0  0.11204982301E+02  0.20023157835E+01  0.49928990278E+03  0.49941963108E+03  0.00000000000E+00 0. -1.
         11    1    1    2    0    0  0.27448691046E+01  0.41462705612E+01 -0.36306587821E+03  0.36309992810E+03  0.00000000000E+00 0.  1.
        -15    1    1    2    0    0 -0.96869095826E+00  0.12129371362E+01 -0.41925663779E+02  0.41992006275E+02  0.17770000000E+01 0.  1.
         15    1    1    2    0    0 -0.12981160447E+02 -0.73615234808E+01 -0.94298360789E+02  0.95488434541E+02  0.17770000000E+01 0.  1.
</event>
<event>
 6   1  0.1826851E-04  0.5045395E+03  0.7546771E-02  0.9389709E-01
        -11   -1    0    0    0    0  0.00000000000E+00  0.00000000000E+00  0.50000000000E+03  0.50000000000E+03  0.00000000000E+00 0.  1.
         11   -1    0    0    0    0 -0.00000000000E+00 -0.00000000000E+00 -0.50000000000E+03  0.50000000000E+03  0.00000000000E+00 0.  1.
        -11    1    1    2    0    0  0.11653922773E+02 -0.81715751817E+01  0.46622005317E+03  0.46643726966E+03  0.00000000000E+00 0.  1.
         11    1    1    2    0    0  0.79655540818E+01 -0.35559121787E+01 -0.49538366707E+03  0.49546046479E+03  0.00000000000E+00 0.  1.
        -15    1    1    2    0    0 -0.30964933954E+01  0.46656029457E+01  0.39085422594E+01  0.70562421861E+01  0.17770000000E+01 0.  1.
         15    1    1    2    0    0 -0.16522983460E+02  0.70618844147E+01  0.25255071646E+02  0.31046023365E+02  0.17770000000E+01 0. -1.
</event>
<event>
 6   1  0.1826851E-04  0.5017957E+03  0.7546771E-02  0.9395801E-01
        -11   -1    0    0    0    0  0.00000000000E+00  0.00000000000E+00  0.50000000000E+03  0.50000000000E+03  0.00000000000E+00 0. -1.
         11   -1    0    0    0    0 -0.00000000000E+00 -0.00000000000E+00 -0.50000000000E+03  0.50000000000E+03  0.00000000000E+00 0.  1.
        -11    1    1    2    0    0  0.44543255931E+02  0.20549384590E+02  0.49578332637E+03  0.49820426088E+03  0.00000000000E+00 0. -1.
         11    1    1    2    0    0 -0.23174111128E+01  0.87230655402E+01 -0.25998971040E+03  0.26014632763E+03  0.00000000000E+00 0.  1.
        -15    1    1    2    0    0 -0.31004301391E+02 -0.23804897305E+02 -0.15419186644E+03  0.15907931747E+03  0.17770000000E+01 0.  1.
         15    1    1    2    0    0 -0.11221543427E+02 -0.54675528251E+01 -0.81601749524E+02  0.82570094012E+02  0.17770000000E+01 0. -1.
</event>
<event>
 6   1  0.1826851E-04  0.4913907E+03  0.7546771E-02  0.9419282E-01
        -11   -1    0    0    0    0  0.00000000000E+00  0.00000000000E+00  0.50000000000E+03  0.50000000000E+03  0.00000000000E+00 0. -1.
         11   -1    0    0    0    0 -0.00000000000E+00 -0.00000000000E+00 -0.50000000000E+03  0.50000000000E+03  0.00000000000E+00 0. -1.
        -11    1    1    2    0    0 -0.42972992868E+01  0.71498511755E+01  0.49192855010E+03  0.49199927394E+03  0.00000000000E+00 0. -1.
         11    1    1    2    0    0 -0.79896130191E+01 -0.59693183465E+01 -0.49075910520E+03  0.49086043436E+03  0.00000000000E+00 0. -1.
        -15    1    1    2    0    0  0.52861840647E+01 -0.52885350964E+01  0.24644804573E+01  0.80711671000E+01  0.17770000000E+01 0. -1.
         15    1    1    2    0    0  0.70007282412E+01  0.41080022674E+01 -0.36339253547E+01  0.90691246005E+01  0.17770000000E+01 0.  1.
</event>
<event>
 6   1  0.1826851E-04  0.5000439E+03  0.7546771E-02  0.9399712E-01
        -11   -1    0    0    0    0  0.00000000000E+00  0.00000000000E+00  0.50000000000E+03  0.50000000000E+03  0.00000000000E+00 0.  1.
         11   -1    0    0    0    0 -0.00000000000E+00 -0.00000000000E+00 -0.50000000000E+03  0.50000000000E+03  0.00000000000E+00 0. -1.
        -11    1    1    2    0    0 -0.96014351828E+01 -0.10394353728E+02  0.49975583816E+03  0.49995612600E+03  0.00000000000E+00 0.  1.
         11    1    1    2    0    0 -0.71627280666E+00  0.11384961713E+01 -0.29288863768E+02  0.29319733305E+02  0.00000000000E+00 0. -1.
        -15    1    1    2    0    0  0.25628588946E+01 -0.66068905531E-01 -0.69586690938E+02  0.69656571086E+02  0.17770000000E+01 0.  1.
         15    1    1    2    0    0  0.77548490948E+01  0.93219264622E+01 -0.40088028346E+03  0.40106756961E+03  0.17770000000E+01 0. -1.
</event>
<event>
 6   1  0.1826851E-04  0.5115824E+03  0.7546771E-02  0.9374260E-01
        -11   -1    0    0    0    0  0.00000000000E+00  0.00000000000E+00  0.50000000000E+03  0.50000000000E+03  0.00000000000E+00 0. -1.
         11   -1    0    0    0    0 -0.00000000000E+00 -0.00000000000E+00 -0.50000000000E+03  0.50000000000E+03  0.00000000000E+00 0.  1.
        -11    1    1    2    0    0 -0.30571247016E+02 -0.29740457675E+02  0.31405607401E+02  0.52966103717E+02  0.00000000000E+00 0. -1.
         11    1    1    2    0    0  0.66006751679E+01  0.33982323115E+00 -0.48837286153E+03  0.48841758391E+03  0.00000000000E+00 0.  1.
        -15    1    1    2    0    0  0.50556291544E+01  0.55774469900E+01  0.13093354417E+03  0.13116180091E+03  0.17770000000E+01 0.  1.
         15    1    1    2    0    0  0.18914942693E+02  0.23823187453E+02  0.32603370996E+03  0.32745451146E+03  0.17770000000E+01 0. -1.
</event>
<event>
 6   1  0.1826851E-04  0.5005153E+03  0.7546771E-02  0.9398657E-01
        -11   -1    0    0    0    0  0.00000000000E+00  0.00000000000E+00  0.50000000000E+03  0.50000000000E+03  0.00000000000E+00 0.  1.
         11   -1    0    0    0    0 -0.00000000000E+00 -0.00000000000E+00 -0.50000000000E+03  0.50000000000E+03  0.00000000000E+00 0. -1.
        -11    1    1    2    0    0  0.98888877413E+00 -0.21475208342E+02  0.49902180765E+03  0.49948466141E+03  0.00000000000E+00 0.  1.
         11    1    1    2    0    0 -0.10455490850E+01 -0.38867853085E+01 -0.24432544748E+03  0.24435859829E+03  0.00000000000E+00 0. -1.
        -15    1    1    2    0    0 -0.14866605664E+01  0.58600655877E+00 -0.18847407143E+02  0.18998316987E+02  0.17770000000E+01 0.  1.
         15    1    1    2    0    0  0.15433208773E+01  0.24775987092E+02 -0.23584895303E+03  0.23715842332E+03  0.17770000000E+01 0.  1.
</event>
<event>
 6   1  0.1826851E-04  0.5005137E+03  0.7546771E-02  0.9398661E-01
        -11   -1    0    0    0    0  0.00000000000E+00  0.00000000000E+00  0.50000000000E+03  0.50000000000E+03  0.00000000000E+00 0. -1.
         11   -1    0    0    0    0 -0.00000000000E+00 -0.00000000000E+00 -0.50000000000E+03  0.50000000000E+03  0.00000000000E+00 0. -1.
        -11    1    1    2    0    0 -0.49447879720E+01 -0.11597620654E+02  0.49932713773E+03  0.49948628230E+03  0.00000000000E+00 0. -1.
         11    1    1    2    0    0 -0.25612548748E+01  0.68553717072E+01 -0.40274067077E+03  0.40280715490E+03  0.00000000000E+00 0. -1.
        -15    1    1    2    0    0  0.45233045095E+01 -0.14011004624E+01 -0.15298656607E+02  0.16113037862E+02  0.17770000000E+01 0.  1.
         15    1    1    2    0    0  0.29827383373E+01  0.61433494095E+01 -0.81287810357E+02  0.81593524936E+02  0.17770000000E+01 0. -1.
</event>
<event>
 6   1  0.1826851E-04  0.4889608E+03  0.7546771E-02  0.9424855E-01
        -11   -1    0    0    0    0  0.00000000000E+00  0.00000000000E+00  0.50000000000E+03  0.50000000000E+03  0.00000000000E+00 0. -1.
         11   -1    0    0    0    0 -0.00000000000E+00 -0.00000000000E+00 -0.50000000000E+03  0.50000000000E+03  0.00000000000E+00 0.  1.
        -11    1    1    2    0    0 -0.10769477916E+02  0.65515857196E+01  0.48956863745E+03  0.48973090132E+03  0.00000000000E+00 0. -1.
         11    1    1    2    0    0  0.82941656697E+01  0.63582317193E+01 -0.48816811097E+03  0.48827996566E+03  0.00000000000E+00 0.  1.
        -15    1    1    2    0    0  0.52558665940E+01 -0.82777777995E+01  0.67604890362E+01  0.12041913468E+02  0.17770000000E+01 0.  1.
         15    1    1    2    0    0 -0.27805543475E+01 -0.46320396394E+01 -0.81610155125E+01  0.99472195560E+01  0.17770000000E+01 0. -1.
</event>
<event>
 6   1  0.1826851E-04  0.4948997E+03  0.7546771E-02  0.9411295E-01
        -11   -1    0    0    0    0  0.00000000000E+00  0.00000000000E+00  0.50000000000E+03  0.50000000000E+03  0.00000000000E+00 0. -1.
         11   -1    0    0    0    0 -0.00000000000E+00 -0.00000000000E+00 -0.50000000000E+03  0.50000000000E+03  0.00000000000E+00 0. -1.
        -11    1    1    2    0    0 -0.68019300921E+02  0.54514988319E+02  0.48357334430E+03  0.49136716268E+03  0.00000000000E+00 0. -1.
         11    1    1    2    0    0 -0.45523581972E+00 -0.52598510219E+00 -0.26211345629E+02  0.26220574740E+02  0.00000000000E+00 0. -1.
        -15    1    1    2    0    0  0.63703082525E+00  0.14724578566E+02 -0.28056943672E+03  0.28096189346E+03  0.17770000000E+01 0. -1.
         15    1    1    2    0    0  0.67837505916E+02 -0.68713581783E+02 -0.17679256195E+03  0.20145036912E+03  0.17770000000E+01 0.  1.
</event>
<event>
 6   1  0.1826851E-04  0.5038539E+03  0.7546771E-02  0.9391227E-01
        -11   -1    0    0    0    0  0.00000000000E+00  0.00000000000E+00  0.50000000000E+03  0.50000000000E+03  0.00000000000E+00 0. -1.
         11   -1    0    0    0    0 -0.00000000000E+00 -0.00000000000E+00 -0.50000000000E+03  0.50000000000E+03  0.00000000000E+00 0. -1.
        -11    1    1    2    0    0 -0.94378334180E+01  0.59198148510E+01  0.47359945458E+03  0.47373047219E+03  0.00000000000E+00 0. -1.
         11    1    1    2    0    0  0.55929485629E+01 -0.54139547174E+01 -0.49608507176E+03  0.49614613815E+03  0.00000000000E+00 0. -1.
        -15    1    1    2    0    0 -0.58871790655E+01  0.52109710380E+01  0.12889563373E+02  0.15202357365E+02  0.17770000000E+01 0.  1.
         15    1    1    2    0    0  0.97320639206E+01 -0.57168311717E+01  0.95960538127E+01  0.14921032289E+02  0.17770000000E+01 0. -1.
</event>
<event>
 6   1  0.1826851E-04  0.5007509E+03  0.7546771E-02  0.9398131E-01
        -11   -1    0    0    0    0  0.00000000000E+00  0.00000000000E+00  0.50000000000E+03  0.50000000000E+03  0.00000000000E+00 0.  1.
         11   -1    0    0    0    0 -0.00000000000E+00 -0.00000000000E+00 -0.50000000000E+03  0.50000000000E+03  0.00000000000E+00 0.  1.
        -11    1    1    2    0    0 -0.80245127535E+01 -0.21094987798E+01  0.49918019849E+03  0.49924914957E+03  0.00000000000E+00 0.  1.
         11    1    1    2    0    0 -0.12389327197E+01  0.67949749542E+01 -0.44590287825E+03  0.44595636947E+03  0.00000000000E+00 0.  1.
        -15    1    1    2    0    0  0.55180566056E+01  0.73479237917E+00 -0.28612288436E+02  0.29202904772E+02  0.17770000000E+01 0. -1.
         15    1    1    2    0    0  0.37453888675E+01 -0.54202685536E+01 -0.24665031798E+02  0.25591576184E+02  0.17770000000E+01 0.  1.
</event>
<event>
 6   1  0.1826851E-04  0.5009864E+03  0.7546771E-02  0.9397605E-01
        -11   -1    0    0    0    0  0.00000000000E+00  0.00000000000E+00  0.50000000000E+03  0.50000000000E+03  0.00000000000E+00 0.  1.
         11   -1    0    0    0    0 -0.00000000000E+00 -0.00000000000E+00 -0.50000000000E+03  0.50000000000E+03  0.00000000000E+00 0.  1.
        -11    1    1    2    0    0 -0.24622972035E+01 -0.17129062996E+02  0.49871340125E+03  0.49901355121E+03  0.00000000000E+00 0.  1.
         11    1    1    2    0    0 -0.41599036980E+01  0.85212052480E+01 -0.43834123498E+03  0.43844378661E+03  0.00000000000E+00 0.  1.
        -15    1    1    2    0    0  0.94802659640E+00 -0.78110927087E+00 -0.14980795259E+01  0.26288509631E+01  0.17770000000E+01 0. -1.
         15    1    1    2    0    0  0.56741743051E+01  0.93889670184E+01 -0.58874086742E+02  0.59913811216E+02  0.17770000000E+01 0.  1.
</event>
<event>
 6   1  0.1826851E-04  0.5016541E+03  0.7546771E-02  0.9396116E-01
        -11   -1    0    0    0    0  0.00000000000E+00  0.00000000000E+00  0.50000000000E+03  0.50000000000E+03  0.00000000000E+00 0.  1.
         11   -1    0    0    0    0 -0.00000000000E+00 -0.00000000000E+00 -0.50000000000E+03  0.50000000000E+03  0.00000000000E+00 0. -1.
        -11    1    1    2    0    0 -0.64921376846E+01  0.28399964833E+02  0.12024693265E+03  0.12372562656E+03  0.00000000000E+00 0.  1.
         11    1    1    2    0    0  0.23469170503E+02 -0.15880611646E+02 -0.49753959214E+03  0.49834590551E+03  0.00000000000E+00 0. -1.
        -15    1    1    2    0    0 -0.50496250871E+01 -0.58074579676E+01  0.11298204888E+03  0.11325778728E+03  0.17770000000E+01 0. -1.
         15    1    1    2    0    0 -0.11927407731E+02 -0.67118952197E+01  0.26431061060E+03  0.26467068066E+03  0.17770000000E+01 0. -1.
</event>
<event>
 6   1  0.1826851E-04  0.5131282E+03  0.7546771E-02  0.9370904E-01
        -11   -1    0    0    0    0  0.00000000000E+00  0.00000000000E+00  0.50000000000E+03  0.50000000000E+03  0.00000000000E+00 0.  1.
         11   -1    0    0    0    0 -0.00000000000E+00 -0.00000000000E+00 -0.50000000000E+03  0.50000000000E+03  0.00000000000E+00 0. -1.
        -11    1    1    2    0    0  0.71479737170E+01 -0.58733992202E+02  0.23007718486E+03  0.23756322603E+03  0.00000000000E+00 0.  1.
         11    1    1    2    0    0 -0.58371441056E+02 -0.34970849269E+02 -0.48209328039E+03  0.48687176590E+03  0.00000000000E+00 0. -1.
        -15    1    1    2    0    0 -0.37123294545E+01  0.41066859982E+01  0.81651955570E+01  0.10023692301E+02  0.17770000000E+01 0.  1.
         15    1    1    2    0    0  0.54935796794E+02  0.89598155473E+02  0.24385089998E+03  0.26554131577E+03  0.17770000000E+01 0. -1.
</event>
<event>
 6   1  0.1826851E-04  0.5028899E+03  0.7546771E-02  0.9393366E-01
        -11   -1    0    0    0    0  0.00000000000E+00  0.00000000000E+00  0.50000000000E+03  0.50000000000E+03  0.00000000000E+00 0.  1.
         11   -1    0    0    0    0 -0.00000000000E+00 -0.00000000000E+00 -0.50000000000E+03  0.50000000000E+03  0.00000000000E+00 0.  1.
        -11    1    1    2    0    0  0.68166710494E+01  0.14187106317E+01  0.49706131307E+03  0.49711007704E+03  0.00000000000E+00 0.  1.
         11    1    1    2    0    0  0.11021185035E+01 -0.12385090983E+02 -0.47226767915E+03  0.47243133460E+03  0.00000000000E+00 0.  1.
        -15    1    1    2    0    0 -0.23091757942E+01  0.88531428954E+01 -0.71711151820E+01  0.11759806713E+02  0.17770000000E+01 0. -1.
         15    1    1    2    0    0 -0.56096137588E+01  0.21132374560E+01 -0.17622518742E+02  0.18698781642E+02  0.17770000000E+01 0.  1.
</event>
<event>
 6   1  0.1826851E-04  0.5026419E+03  0.7546771E-02  0.9393917E-01
        -11   -1    0    0    0    0  0.00000000000E+00  0.00000000000E+00  0.50000000000E+03  0.50000000000E+03  0.00000000000E+00 0.  1.
         11   -1    0    0    0    0 -0.00000000000E+00 -0.00000000000E+00 -0.50000000000E+03  0.50000000000E+03  0.00000000000E+00 0. -1.
        -11    1    1    2    0    0 -0.44525309735E+01  0.52601142865E+01  0.49731030900E+03  0.49735805741E+03  0.00000000000E+00 0.  1.
         11    1    1    2    0    0  0.66645560535E+01 -0.39873937010E+01 -0.49435270837E+03  0.49441370924E+03  0.00000000000E+00 0. -1.
        -15    1    1    2    0    0 -0.32938292626E+01  0.54824268516E+00 -0.37761869423E+01  0.53448290970E+01  0.17770000000E+01 0. -1.
         15    1    1    2    0    0  0.10818041826E+01 -0.18209632707E+01  0.81858630820E+00  0.28834042496E+01  0.17770000000E+01 0.  1.
</event>
<event>
 6   1  0.1826851E-04  0.5007781E+03  0.7546771E-02  0.9398070E-01
        -11   -1    0    0    0    0  0.00000000000E+00  0.00000000000E+00  0.50000000000E+03  0.50000000000E+03  0.00000000000E+00 0.  1.
         11   -1    0    0    0    0 -0.00000000000E+00 -0.00000000000E+00 -0.50000000000E+03  0.50000000000E+03  0.00000000000E+00 0.  1.
        -11    1    1    2    0    0  0.21249319454E+02  0.68762560697E+01  0.49872207692E+03  0.49922192108E+03  0.00000000000E+00 0.  1.
         11    1    1    2    0    0  0.33008811219E+01 -0.75085521375E+01 -0.23668615410E+03  0.23682822828E+03  0.00000000000E+00 0.  1.
        -15    1    1    2    0    0 -0.24519135081E+01 -0.45209209242E+01 -0.11811563073E+03  0.11824090052E+03  0.17770000000E+01 0. -1.
         15    1    1    2    0    0 -0.22098287068E+02  0.51532169921E+01 -0.14392029210E+03  0.14570895012E+03  0.17770000000E+01 0.  1.
</event>
<event>
 6   1  0.1826851E-04  0.5060038E+03  0.7546771E-02  0.9386475E-01
        -11   -1    0    0    0    0  0.00000000000E+00  0.00000000000E+00  0.50000000000E+03  0.50000000000E+03  0.00000000000E+00 0. -1.
         11   -1    0    0    0    0 -0.00000000000E+00 -0.00000000000E+00 -0.50000000000E+03  0.50000000000E+03  0.00000000000E+00 0.  1.
        -11    1    1    2    0    0  0.18860422038E+01 -0.10219101319E+02  0.49388692993E+03  0.49399624163E+03  0.00000000000E+00 0. -1.
         11    1    1    2    0    0 -0.12433388805E+02 -0.67701202485E+01 -0.48157782136E+03  0.48178586707E+03  0.00000000000E+00 0.  1.
        -15    1    1    2    0    0  0.66651263853E+01  0.14110928902E+02 -0.93498474888E+01  0.18278938735E+02  0.17770000000E+01 0. -1.
         15    1    1    2    0    0  0.38822202158E+01  0.28782926651E+01 -0.29592610793E+01  0.59389525680E+01  0.17770000000E+01 0.  1.
</event>
<event>
 6   1  0.1826851E-04  0.5003608E+03  0.7546771E-02  0.9399003E-01
        -11   -1    0    0    0    0  0.00000000000E+00  0.00000000000E+00  0.50000000000E+03  0.50000000000E+03  0.00000000000E+00 0. -1.
         11   -1    0    0    0    0 -0.00000000000E+00 -0.00000000000E+00 -0.50000000000E+03  0.50000000000E+03  0.00000000000E+00 0. -1.
        -11    1    1    2    0    0  0.67995263072E+01 -0.96225911784E+01  0.49950030149E+03  0.49963924887E+03  0.00000000000E+00 0. -1.
         11    1    1    2    0    0  0.32865316305E+01 -0.37843730347E+01 -0.17303478884E+03  0.17310736818E+03  0.00000000000E+00 0. -1.
        -15    1    1    2    0    0  0.13689889894E+01  0.13698549868E-02 -0.83953278288E+01  0.86898441346E+01  0.17770000000E+01 0. -1.
         15    1    1    2    0    0 -0.11455046927E+02  0.13405594358E+02 -0.31807018483E+03  0.31856353882E+03  0.17770000000E+01 0. -1.
</event>
<event>
 6   1  0.1826851E-04  0.5008266E+03  0.7546771E-02  0.9397962E-01
        -11   -1    0    0    0    0  0.00000000000E+00  0.00000000000E+00  0.50000000000E+03  0.50000000000E+03  0.00000000000E+00 0.  1.
         11   -1    0    0    0    0 -0.00000000000E+00 -0.00000000000E+00 -0.50000000000E+03  0.50000000000E+03  0.00000000000E+00 0. -1.
        -11    1    1    2    0    0 -0.66671513526E+01  0.56395818971E+01  0.24615847866E+02  0.26118877413E+02  0.00000000000E+00 0.  1.
         11    1    1    2    0    0  0.14754103291E+02  0.10579106080E+02 -0.49884310166E+03  0.49917335779E+03  0.00000000000E+00 0. -1.
        -15    1    1    2    0    0 -0.66212581766E+00  0.10039401433E+01  0.82345883810E+02  0.82373834534E+02  0.17770000000E+01 0.  1.
         15    1    1    2    0    0 -0.74248261207E+01 -0.17222628121E+02  0.39188136999E+03  0.39233393026E+03  0.17770000000E+01 0.  1.
</event>
<event>
 6   1  0.1826851E-04  0.5002182E+03  0.7546771E-02  0.9399322E-01
        -11   -1    0    0    0    0  0.00000000000E+00  0.00000000000E+00  0.50000000000E+03  0.50000000000E+03  0.00000000000E+00 0.  1.
         11   -1    0    0    0    0 -0.00000000000E+00 -0.00000000000E+00 -0.50000000000E+03  0.50000000000E+03  0.00000000000E+00 0. -1.
        -11    1    1    2    0    0  0.23727482935E+01 -0.10633584337E+02  0.49966305290E+03  0.49978182188E+03  0.00000000000E+00 0.  1.
         11    1    1    2    0    0  0.54029402297E+01  0.92728138375E-01 -0.26751222745E+03  0.26756679951E+03  0.00000000000E+00 0. -1.
        -15    1    1    2    0    0 -0.21931889884E+01 -0.25820189545E+00 -0.56799096879E+02  0.56869780037E+02  0.17770000000E+01 0.  1.
         15    1    1    2    0    0 -0.55824995347E+01  0.10799058094E+02 -0.17535172857E+03  0.17578159857E+03  0.17770000000E+01 0. -1.
</event>
<event>
 6   1  0.1826851E-04  0.5031341E+03  0.7546771E-02  0.9392824E-01
        -11   -1    0    0    0    0  0.00000000000E+00  0.00000000000E+00  0.50000000000E+03  0.50000000000E+03  0.00000000000E+00 0. -1.
         11   -1    0    0    0    0 -0.00000000000E+00 -0.00000000000E+00 -0.50000000000E+03  0.50000000000E+03  0.00000000000E+00 0. -1.
        -11    1    1    2    0    0 -0.42058407378E+00 -0.14749828918E+02  0.45671816598E+03  0.45695647220E+03  0.00000000000E+00 0. -1.
         11    1    1    2    0    0  0.11536103931E+02 -0.40864286031E+01 -0.49671517722E+03  0.49686592545E+03  0.00000000000E+00 0. -1.
        -15    1    1    2    0    0 -0.78422465949E+01  0.14085039645E+02  0.33989576243E+02  0.37660831053E+02  0.17770000000E+01 0. -1.
         15    1    1    2    0    0 -0.32732732627E+01  0.47512178759E+01  0.60074349954E+01  0.85167713002E+01  0.17770000000E+01 0.  1.
</event>
<event>
 6   1  0.1826851E-04  0.5010676E+03  0.7546771E-02  0.9397424E-01
        -11   -1    0    0    0    0  0.00000000000E+00  0.00000000000E+00  0.50000000000E+03  0.50000000000E+03  0.00000000000E+00 0. -1.
         11   -1    0    0    0    0 -0.00000000000E+00 -0.00000000000E+00 -0.50000000000E+03  0.50000000000E+03  0.00000000000E+00 0.  1.
        -11    1    1    2    0    0  0.94944358048E+01 -0.93661976364E+01  0.32458419381E+03  0.32485807492E+03  0.00000000000E+00 0. -1.
         11    1    1    2    0    0 -0.58721400091E+01 -0.48671898531E+01 -0.49887414615E+03  0.49893244559E+03  0.00000000000E+00 0.  1.
        -15    1    1    2    0    0 -0.54357812978E+01  0.87021506829E+01  0.29362325411E+02  0.31154117342E+02  0.17770000000E+01 0.  1.
         15    1    1    2    0    0  0.18134855021E+01  0.55312368066E+01  0.14492762693E+03  0.14505536215E+03  0.17770000000E+01 0. -1.
</event>
<event>
 6   1  0.1826851E-04  0.5025507E+03  0.7546771E-02  0.9394120E-01
        -11   -1    0    0    0    0  0.00000000000E+00  0.00000000000E+00  0.50000000000E+03  0.50000000000E+03  0.00000000000E+00 0. -1.
         11   -1    0    0    0    0 -0.00000000000E+00 -0.00000000000E+00 -0.50000000000E+03  0.50000000000E+03  0.00000000000E+00 0.  1.
        -11    1    1    2    0    0  0.82775584938E+01  0.12411217113E+02  0.44120276797E+03  0.44145491135E+03  0.00000000000E+00 0. -1.
         11    1    1    2    0    0  0.10391556016E+02  0.16689710575E+01 -0.49733794419E+03  0.49744929454E+03  0.00000000000E+00 0.  1.
        -15    1    1    2    0    0 -0.14342932638E+02 -0.12272840982E+02  0.46892677665E+02  0.50580858930E+02  0.17770000000E+01 0. -1.
         15    1    1    2    0    0 -0.43261818723E+01 -0.18073471882E+01  0.92424985564E+01  0.10514935188E+02  0.17770000000E+01 0.  1.
</event>
<event>
 6   1  0.1826851E-04  0.5005619E+03  0.7546771E-02  0.9398553E-01
        -11   -1    0    0    0    0  0.00000000000E+00  0.00000000000E+00  0.50000000000E+03  0.50000000000E+03  0.00000000000E+00 0.  1.
         11   -1    0    0    0    0 -0.00000000000E+00 -0.00000000000E+00 -0.50000000000E+03  0.50000000000E+03  0.00000000000E+00 0. -1.
        -11    1    1    2    0    0  0.11953976888E+02 -0.19425910031E+02  0.49891695870E+03  0.49943807947E+03  0.00000000000E+00 0.  1.
         11    1    1    2    0    0 -0.42448282323E+00  0.47112748682E+01 -0.31178087610E+03  0.31181675869E+03  0.00000000000E+00 0. -1.
        -15    1    1    2    0    0 -0.67927903504E+01 -0.57864215926E+00 -0.31528922865E+02  0.32306462720E+02  0.17770000000E+01 0.  1.
         15    1    1    2    0    0 -0.47367037139E+01  0.15293277322E+02 -0.15560715974E+03  0.15643869912E+03  0.17770000000E+01 0. -1.
</event>
<event>
 6   1  0.1826851E-04  0.5012754E+03  0.7546771E-02  0.9396960E-01
        -11   -1    0    0    0    0  0.00000000000E+00  0.00000000000E+00  0.50000000000E+03  0.50000000000E+03  0.00000000000E+00 0.  1.
         11   -1    0    0    0    0 -0.00000000000E+00 -0.00000000000E+00 -0.50000000000E+03  0.50000000000E+03  0.00000000000E+00 0.  1.
        -11    1    1    2    0    0  0.24011561438E+01  0.11953752977E+02  0.49857553282E+03  0.49872459302E+03  0.00000000000E+00 0.  1.
         11    1    1    2    0    0 -0.61893326066E+01 -0.23304015400E+01 -0.45177955886E+03  0.45182796329E+03  0.00000000000E+00 0.  1.
        -15    1    1    2    0    0  0.47034904628E+01 -0.31946713434E+01 -0.37497159732E+02  0.37967400023E+02  0.17770000000E+01 0. -1.
         15    1    1    2    0    0 -0.91531400004E+00 -0.64286800938E+01 -0.92988142272E+01  0.11480043663E+02  0.17770000000E+01 0.  1.
</event>
<event>
 6   1  0.1826851E-04  0.5055200E+03  0.7546771E-02  0.9387542E-01
        -11   -1    0    0    0    0  0.00000000000E+00  0.00000000000E+00  0.50000000000E+03  0.50000000000E+03  0.00000000000E+00 0.  1.
         11   -1    0    0    0    0 -0.00000000000E+00 -0.00000000000E+00 -0.50000000000E+03  0.50000000000E+03  0.00000000000E+00 0.  1.
        -11    1    1    2    0    0 -0.89504469562E+01 -0.74214909378E+01  0.47467457706E+03  0.47481695751E+03  0.00000000000E+00 0.  1.
         11    1    1    2    0    0 -0.39813907339E+01 -0.97084520505E+01 -0.49436863476E+03  0.49447998195E+03  0.00000000000E+00 0.  1.
        -15    1    1    2    0    0  0.77049227713E+01  0.14989792153E+02  0.17572752722E+02  0.24413501816E+02  0.17770000000E+01 0.  1.
         15    1    1    2    0    0  0.52269149188E+01  0.21401508354E+01  0.21213049769E+01  0.62895587263E+01  0.17770000000E+01 0.  1.
</event>
<event>
 6   1  0.1826851E-04  0.5038668E+03  0.7546771E-02  0.9391199E-01
        -11   -1    0    0    0    0  0.00000000000E+00  0.00000000000E+00  0.50000000000E+03  0.50000000000E+03  0.00000000000E+00 0. -1.
         11   -1    0    0    0    0 -0.00000000000E+00 -0.00000000000E+00 -0.50000000000E+03  0.50000000000E+03  0.00000000000E+00 0.  1.
        -11    1    1    2    0    0 -0.13084936310E+02  0.74408888328E+02  0.18244928172E+03  0.19747313392E+03  0.00000000000E+00 0. -1.
         11    1    1    2    0    0  0.10303271721E+02 -0.86485609429E+02 -0.48842837421E+03  0.49613324297E+03  0.00000000000E+00 0.  1.
        -15    1    1    2    0    0  0.13769943798E+00  0.79953032509E+01  0.25910566837E+03  0.25923512290E+03  0.17770000000E+01 0. -1.
         15    1    1    2    0    0  0.26439651512E+01  0.40814178506E+01  0.46873424124E+02  0.47158500205E+02  0.17770000000E+01 0. -1.
</event>
<event>
 6   1  0.1826851E-04  0.5001329E+03  0.7546771E-02  0.9399512E-01
        -11   -1    0    0    0    0  0.00000000000E+00  0.00000000000E+00  0.50000000000E+03  0.50000000000E+03  0.00000000000E+00 0. -1.
         11   -1    0    0    0    0 -0.00000000000E+00 -0.00000000000E+00 -0.50000000000E+03  0.50000000000E+03  0.00000000000E+00 0. -1.
        -11    1    1    2    0    0 -0.10796451954E+02  0.44167710556E+01  0.27823257811E+03  0.27847699863E+03  0.00000000000E+00 0. -1.
         11    1    1    2    0    0  0.10319457001E+02 -0.39624836450E+00 -0.49976041538E+03  0.49986710332E+03  0.00000000000E+00 0. -1.
        -15    1    1    2    0    0 -0.18150076423E+01 -0.35314994786E+01  0.15820516775E+03  0.15826496319E+03  0.17770000000E+01 0. -1.
         15    1    1    2    0    0  0.22920025956E+01 -0.48902321250E+00  0.63322669515E+02  0.63390934866E+02  0.17770000000E+01 0.  1.
</event>
<event>
 6   1  0.1826851E-04  0.5006580E+03  0.7546771E-02  0.9398339E-01
        -11   -1    0    0    0    0  0.00000000000E+00  0.00000000000E+00  0.50000000000E+03  0.50000000000E+03  0.00000000000E+00 0.  1.
         11   -1    0    0    0    0 -0.00000000000E+00 -0.00000000000E+00 -0.50000000000E+03  0.50000000000E+03  0.00000000000E+00 0.  1.
        -11    1    1    2    0    0  0.10133615253E+01  0.18943750583E+02  0.25660871255E+03  0.25730900479E+03  0.00000000000E+00 0.  1.
         11    1    1    2    0    0 -0.99204041017E+01 -0.83802654790E+01 -0.49917311401E+03  0.49934200806E+03  0.00000000000E+00 0.  1.
        -15    1    1    2    0    0  0.21988989731E+01 -0.19871402098E+01  0.16154039927E+03  0.16157735673E+03  0.17770000000E+01 0. -1.
         15    1    1    2    0    0  0.67081436033E+01 -0.85763448947E+01  0.81024002187E+02  0.81771630421E+02  0.17770000000E+01 0.  1.
</event>
<event>
 6   1  0.1826851E-04  0.5003712E+03  0.7546771E-02  0.9398979E-01
        -11   -1    0    0    0    0  0.00000000000E+00  0.00000000000E+00  0.50000000000E+03  0.50000000000E+03  0.00000000000E+00 0. -1.
         11   -1    0    0    0    0 -0.00000000000E+00 -0.00000000000E+00 -0.50000000000E+03  0.50000000000E+03  0.00000000000E+00 0. -1.
        -11    1    1    2    0    0 -0.67314189235E+01 -0.79436695269E+00  0.49958278644E+03  0.49962876571E+03  0.00000000000E+00 0. -1.
         11    1    1    2    0    0  0.67319302611E+01  0.27961304651E+01 -0.46989904232E+03  0.46995558003E+03  0.00000000000E+00 0. -1.
        -15    1    1    2    0    0 -0.24989848865E+01 -0.15715113955E+01 -0.13110899958E+02  0.13556105644E+02  0.17770000000E+01 0.  1.
         15    1    1    2    0    0  0.24984735489E+01 -0.43025211688E+00 -0.16572844164E+02  0.16859548619E+02  0.17770000000E+01 0. -1.
</event>
<event>
 6   1  0.1826851E-04  0.5015630E+03  0.7546771E-02  0.9396319E-01
        -11   -1    0    0    0    0  0.00000000000E+00  0.00000000000E+00  0.50000000000E+03  0.50000000000E+03  0.00000000000E+00 0.  1.
         11   -1    0    0    0    0 -0.00000000000E+00 -0.00000000000E+00 -0.50000000000E+03  0.50000000000E+03  0.00000000000E+00 0.  1.
        -11    1    1    2    0    0  0.10978883586E+02  0.77976103525E+00  0.47075533794E+03  0.47088399008E+03  0.00000000000E+00 0.  1.
         11    1    1    2    0    0 -0.58370790051E+01  0.68287621787E+01 -0.49835606155E+03  0.49843702467E+03  0.00000000000E+00 0.  1.
        -15    1    1    2    0    0  0.24804296420E+01 -0.18871564030E+01  0.58026069927E+01  0.68221600253E+01  0.17770000000E+01 0.  1.
         15    1    1    2    0    0 -0.76222342228E+01 -0.57213668109E+01  0.21798116618E+02  0.23856825225E+02  0.17770000000E+01 0. -1.
</event>
<event>
 6   1  0.1826851E-04  0.5032780E+03  0.7546771E-02  0.9392505E-01
        -11   -1    0    0    0    0  0.00000000000E+00  0.00000000000E+00  0.50000000000E+03  0.50000000000E+03  0.00000000000E+00 0.  1.
         11   -1    0    0    0    0 -0.00000000000E+00 -0.00000000000E+00 -0.50000000000E+03  0.50000000000E+03  0.00000000000E+00 0. -1.
        -11    1    1    2    0    0 -0.13987937189E+02  0.14051489229E+02  0.49632616791E+03  0.49672202658E+03  0.00000000000E+00 0.  1.
         11    1    1    2    0    0 -0.65938391814E+01  0.98619988642E+01 -0.41971788100E+03  0.41988550507E+03  0.00000000000E+00 0. -1.
        -15    1    1    2    0    0  0.29763704258E+01 -0.64613727469E+01 -0.25949072091E+02  0.26965166235E+02  0.17770000000E+01 0. -1.
         15    1    1    2    0    0  0.17605405944E+02 -0.17452115346E+02 -0.50659214820E+02  0.56427302113E+02  0.17770000000E+01 0.  1.
</event>
<event>
 6   1  0.1826851E-04  0.5118335E+03  0.7546771E-02  0.9373714E-01
        -11   -1    0    0    0    0  0.00000000000E+00  0.00000000000E+00  0.50000000000E+03  0.50000000000E+03  0.00000000000E+00 0.  1.
         11   -1    0    0    0    0 -0.00000000000E+00 -0.00000000000E+00 -0.50000000000E+03  0.50000000000E+03  0.00000000000E+00 0.  1.
        -11    1    1    2    0    0  0.25552319595E+02  0.30119384430E+02  0.42865910278E+03  0.43047499898E+03  0.00000000000E+00 0.  1.
         11    1    1    2    0    0 -0.26784449837E+02 -0.86419847546E+01 -0.48735457566E+03  0.48816654235E+03  0.00000000000E+00 0.  1.
        -15    1    1    2    0    0  0.61124625430E+01  0.35604260339E+01 -0.74600061498E+01  0.10433036597E+02  0.17770000000E+01 0. -1.
         15    1    1    2    0    0 -0.48803323016E+01 -0.25037825709E+02  0.66155479037E+02  0.70925422066E+02  0.17770000000E+01 0.  1.
</event>
<event>
 6   1  0.1826851E-04  0.5068710E+03  0.7546771E-02  0.9384565E-01
        -11   -1    0    0    0    0  0.00000000000E+00  0.00000000000E+00  0.50000000000E+03  0.50000000000E+03  0.00000000000E+00 0. -1.
         11   -1    0    0    0    0 -0.00000000000E+00 -0.00000000000E+00 -0.50000000000E+03  0.50000000000E+03  0.00000000000E+00 0. -1.
        -11    1    1    2    0    0 -0.97586512653E+01 -0.34451433892E+01  0.49302039728E+03  0.49312900180E+03  0.00000000000E+00 0. -1.
         11    1    1    2    0    0 -0.82887265413E+01  0.17914623023E+01 -0.48038951202E+03  0.48046435412E+03  0.00000000000E+00 0. -1.
        -15    1    1    2    0    0  0.15911222628E+01  0.43990031161E+00 -0.91278572218E+01  0.94446116278E+01  0.17770000000E+01 0. -1.
         15    1    1    2    0    0  0.16456255544E+02  0.12137807753E+01 -0.35030280413E+01  0.16962032448E+02  0.17770000000E+01 0.  1.
</event>
<event>
 6   1  0.1826851E-04  0.5001715E+03  0.7546771E-02  0.9399426E-01
        -11   -1    0    0    0    0  0.00000000000E+00  0.00000000000E+00  0.50000000000E+03  0.50000000000E+03  0.00000000000E+00 0.  1.
         11   -1    0    0    0    0 -0.00000000000E+00 -0.00000000000E+00 -0.50000000000E+03  0.50000000000E+03  0.00000000000E+00 0.  1.
        -11    1    1    2    0    0 -0.10191014113E+02 -0.12341163519E+01  0.12275224629E+03  0.12318073624E+03  0.00000000000E+00 0.  1.
         11    1    1    2    0    0  0.18009576540E+02 -0.32266445331E+01 -0.49949355601E+03  0.49982853918E+03  0.00000000000E+00 0.  1.
        -15    1    1    2    0    0  0.44047312171E+00  0.43912400932E+01  0.90713211261E+02  0.90837885447E+02  0.17770000000E+01 0. -1.
         15    1    1    2    0    0 -0.82590355489E+01  0.69520791879E-01  0.28602809847E+03  0.28615283913E+03  0.17770000000E+01 0.  1.
</event>
<event>
 6   1  0.1826851E-04  0.5015022E+03  0.7546771E-02  0.9396455E-01
        -11   -1    0    0    0    0  0.00000000000E+00  0.00000000000E+00  0.50000000000E+03  0.50000000000E+03  0.00000000000E+00 0.  1.
         11   -1    0    0    0    0 -0.00000000000E+00 -0.00000000000E+00 -0.50000000000E+03  0.50000000000E+03  0.00000000000E+00 0. -1.
        -11    1    1    2    0    0  0.12687087577E+02 -0.74244051434E+01  0.58931836943E+02  0.60737512201E+02  0.00000000000E+00 0.  1.
         11    1    1    2    0    0 -0.17585071153E+01 -0.16455650383E+02 -0.49822299837E+03  0.49849778021E+03  0.00000000000E+00 0. -1.
        -15    1    1    2    0    0 -0.11889072416E+01  0.12314015890E+02  0.34709456034E+03  0.34731950714E+03  0.17770000000E+01 0.  1.
         15    1    1    2    0    0 -0.97396732201E+01  0.11566039637E+02  0.92196601081E+02  0.93445200450E+02  0.17770000000E+01 0. -1.
</event>
<event>
 6   1  0.1826851E-04  0.5025294E+03  0.7546771E-02  0.9394168E-01
        -11   -1    0    0    0    0  0.00000000000E+00  0.00000000000E+00  0.50000000000E+03  0.50000000000E+03  0.00000000000E+00 0. -1.
         11   -1    0    0    0    0 -0.00000000000E+00 -0.00000000000E+00 -0.50000000000E+03  0.50000000000E+03  0.00000000000E+00 0.  1.
        -11    1    1    2    0    0 -0.15797588979E+02  0.11475757823E+01  0.46034192424E+03  0.46061433756E+03  0.00000000000E+00 0. -1.
         11    1    1    2    0    0  0.13959950615E+02 -0.13647668529E+02 -0.49708741484E+03  0.49747063940E+03  0.00000000000E+00 0.  1.
        -15    1    1    2    0    0  0.83160296176E+01  0.71688316151E+01  0.25086408285E+02  0.27441466888E+02  0.17770000000E+01 0. -1.
         15    1    1    2    0    0 -0.64783912538E+01  0.53312611320E+01  0.11659082307E+02  0.14473556153E+02  0.17770000000E+01 0.  1.
</event>
<event>
 6   1  0.1826851E-04  0.5023427E+03  0.7546771E-02  0.9394583E-01
        -11   -1    0    0    0    0  0.00000000000E+00  0.00000000000E+00  0.50000000000E+03  0.50000000000E+03  0.00000000000E+00 0. -1.
         11   -1    0    0    0    0 -0.00000000000E+00 -0.00000000000E+00 -0.50000000000E+03  0.50000000000E+03  0.00000000000E+00 0. -1.
        -11    1    1    2    0    0  0.70192479024E+01 -0.48619658432E+01  0.49758404432E+03  0.49765730148E+03  0.00000000000E+00 0. -1.
         11    1    1    2    0    0 -0.45113678450E+01  0.80180047546E+01 -0.49355812812E+03  0.49364386623E+03  0.00000000000E+00 0. -1.
        -15    1    1    2    0    0 -0.38949289128E+00 -0.91248902474E+00 -0.46572875017E+01  0.50825580967E+01  0.17770000000E+01 0. -1.
         15    1    1    2    0    0 -0.21183871661E+01 -0.22435498866E+01  0.63137129494E+00  0.36162741864E+01  0.17770000000E+01 0.  1.
</event>
<event>
 6   1  0.1826851E-04  0.5002964E+03  0.7546771E-02  0.9399147E-01
        -11   -1    0    0    0    0  0.00000000000E+00  0.00000000000E+00  0.50000000000E+03  0.50000000000E+03  0.00000000000E+00 0.  1.
         11   -1    0    0    0    0 -0.00000000000E+00 -0.00000000000E+00 -0.50000000000E+03  0.50000000000E+03  0.00000000000E+00 0.  1.
        -11    1    1    2    0    0  0.17520711324E+02 -0.82503195429E+01  0.27269993902E+03  0.27338672213E+03  0.00000000000E+00 0.  1.
         11    1    1    2    0    0 -0.19407293727E+02 -0.46711609952E+00 -0.49932634883E+03  0.49970357601E+03  0.00000000000E+00 0.  1.
        -15    1    1    2    0    0  0.22083760999E+01  0.37284266449E+01  0.54294519806E+02  0.54496153077E+02  0.17770000000E+01 0.  1.
         15    1    1    2    0    0 -0.32179369741E+00  0.49890089975E+01  0.17233189000E+03  0.17241354878E+03  0.17770000000E+01 0.  1.
</event>
<event>
 6   1  0.1826851E-04  0.5050772E+03  0.7546771E-02  0.9388520E-01
        -11   -1    0    0    0    0  0.00000000000E+00  0.00000000000E+00  0.50000000000E+03  0.50000000000E+03  0.00000000000E+00 0. -1.
         11   -1    0    0    0    0 -0.00000000000E+00 -0.00000000000E+00 -0.50000000000E+03  0.50000000000E+03  0.00000000000E+00 0.  1.
        -11    1    1    2    0    0  0.13960981036E+02 -0.21616775791E+02  0.49425338687E+03  0.49492282673E+03  0.00000000000E+00 0. -1.
         11    1    1    2    0    0  0.83476604712E+01  0.76023257916E+01 -0.37201438581E+03  0.37218568221E+03  0.00000000000E+00 0.  1.
        -15    1    1    2    0    0  0.64620647939E+01 -0.11237420104E+02 -0.41613737626E+02  0.43622228051E+02  0.17770000000E+01 0.  1.
         15    1    1    2    0    0 -0.28770706302E+02  0.25251870104E+02 -0.80625263439E+02  0.89269263011E+02  0.17770000000E+01 0. -1.
</event>
<event>
 6   1  0.1826851E-04  0.5036805E+03  0.7546771E-02  0.9391612E-01
        -11   -1    0    0    0    0  0.00000000000E+00  0.00000000000E+00  0.50000000000E+03  0.50000000000E+03  0.00000000000E+00 0.  1.
         11   -1    0    0    0    0 -0.00000000000E+00 -0.00000000000E+00 -0.50000000000E+03  0.50000000000E+03  0.00000000000E+00 0. -1.
        -11    1    1    2    0    0  0.96154813534E+01  0.15386796317E+00  0.48036635593E+03  0.48046260736E+03  0.00000000000E+00 0.  1.
         11    1    1    2    0    0  0.23723299328E+01 -0.74656800659E+01 -0.49625769023E+03  0.49631951346E+03  0.00000000000E+00 0. -1.
        -15    1    1    2    0    0 -0.12583542719E+02  0.70084878413E+01  0.15583008083E+02  0.21294419905E+02  0.17770000000E+01 0.  1.
         15    1    1    2    0    0  0.59573143309E+00  0.30332426137E+00  0.30832620923E+00  0.19234592793E+01  0.17770000000E+01 0. -1.
</event>
<event>
 6   1  0.1826851E-04  0.5005954E+03  0.7546771E-02  0.9398478E-01
        -11   -1    0    0    0    0  0.00000000000E+00  0.00000000000E+00  0.50000000000E+03  0.50000000000E+03  0.00000000000E+00 0. -1.
         11   -1    0    0    0    0 -0.00000000000E+00 -0.00000000000E+00 -0.50000000000E+03  0.50000000000E+03  0.00000000000E+00 0. -1.
        -11    1    1    2    0    0  0.59214997490E+01  0.10406406558E+02  0.29171903988E+03  0.29196464801E+03  0.00000000000E+00 0. -1.
         11    1    1    2    0    0  0.23986579151E+01 -0.64006008721E+01 -0.49935781397E+03  0.49940459312E+03  0.00000000000E+00 0. -1.
        -15    1    1    2    0    0 -0.50483163030E+01  0.68220147866E+01  0.10421667628E+03  0.10457675998E+03  0.17770000000E+01 0. -1.
         15    1    1    2    0    0 -0.32718413611E+01 -0.10827820473E+02  0.10342209781E+03  0.10405399889E+03  0.17770000000E+01 0.  1.
</event>
<event>
 6   1  0.1826851E-04  0.4951985E+03  0.7546771E-02  0.9410618E-01
        -11   -1    0    0    0    0  0.00000000000E+00  0.00000000000E+00  0.50000000000E+03  0.50000000000E+03  0.00000000000E+00 0. -1.
         11   -1    0    0    0    0 -0.00000000000E+00 -0.00000000000E+00 -0.50000000000E+03  0.50000000000E+03  0.00000000000E+00 0.  1.
        -11    1    1    2    0    0  0.77361887862E+01  0.53537436377E+01 -0.20387485581E+01  0.96264055368E+01  0.00000000000E+00 0. -1.
         11    1    1    2    0    0 -0.88657025175E+01  0.61042195811E+01 -0.49400700191E+03  0.49412425574E+03  0.00000000000E+00 0.  1.
        -15    1    1    2    0    0  0.34922123131E+01 -0.22136428719E+01  0.14977514860E+03  0.14984274633E+03  0.17770000000E+01 0.  1.
         15    1    1    2    0    0 -0.23626985819E+01 -0.92443203469E+01  0.34627060187E+03  0.34640659239E+03  0.17770000000E+01 0. -1.
</event>
<event>
 6   1  0.1826851E-04  0.4885503E+03  0.7546771E-02  0.9425800E-01
        -11   -1    0    0    0    0  0.00000000000E+00  0.00000000000E+00  0.50000000000E+03  0.50000000000E+03  0.00000000000E+00 0. -1.
         11   -1    0    0    0    0 -0.00000000000E+00 -0.00000000000E+00 -0.50000000000E+03  0.50000000000E+03  0.00000000000E+00 0.  1.
        -11    1    1    2    0    0  0.72502618396E+01 -0.12385621095E+02  0.48402551769E+03  0.48423823856E+03  0.00000000000E+00 0. -1.
         11    1    1    2    0    0 -0.85935018351E+01 -0.23468529761E+01 -0.49293437825E+03  0.49301486514E+03  0.00000000000E+00 0.  1.
        -15    1    1    2    0    0  0.33197685348E+00  0.12062248746E+02  0.12747983316E+02  0.17643040017E+02  0.17770000000E+01 0. -1.
         15    1    1    2    0    0  0.10112631420E+01  0.26702253259E+01 -0.38391227580E+01  0.51038562857E+01  0.17770000000E+01 0.  1.
</event>
<event>
 6   1  0.1826851E-04  0.5012730E+03  0.7546771E-02  0.9396966E-01
        -11   -1    0    0    0    0  0.00000000000E+00  0.00000000000E+00  0.50000000000E+03  0.50000000000E+03  0.00000000000E+00 0. -1.
         11   -1    0    0    0    0 -0.00000000000E+00 -0.00000000000E+00 -0.50000000000E+03  0.50000000000E+03  0.00000000000E+00 0.  1.
        -11    1    1    2    0    0 -0.79857807627E+01 -0.25920869895E+01  0.49865632582E+03  0.49872700237E+03  0.00000000000E+00 0. -1.
         11    1    1    2    0    0 -0.28226345181E+01  0.66539041307E+01 -0.43625558229E+03  0.43631545330E+03  0.00000000000E+00 0.  1.
        -15    1    1    2    0    0  0.13509843678E+02 -0.21429357439E+01 -0.41818425789E+02  0.44034605872E+02  0.17770000000E+01 0.  1.
         15    1    1    2    0    0 -0.27014283970E+01 -0.19188813973E+01 -0.20582317742E+02  0.20922938461E+02  0.17770000000E+01 0.  1.
</event>
<event>
 6   1  0.1826851E-04  0.5001840E+03  0.7546771E-02  0.9399398E-01
        -11   -1    0    0    0    0  0.00000000000E+00  0.00000000000E+00  0.50000000000E+03  0.50000000000E+03  0.00000000000E+00 0. -1.
         11   -1    0    0    0    0 -0.00000000000E+00 -0.00000000000E+00 -0.50000000000E+03  0.50000000000E+03  0.00000000000E+00 0.  1.
        -11    1    1    2    0    0  0.89395194255E+01 -0.30059663995E+01  0.49972696486E+03  0.49981595638E+03  0.00000000000E+00 0. -1.
         11    1    1    2    0    0 -0.37250051198E+01 -0.30298085946E+01 -0.35290612367E+03  0.35293878722E+03  0.00000000000E+00 0.  1.
        -15    1    1    2    0    0 -0.23898391453E+01  0.34301876590E+01 -0.12053964238E+03  0.12062520729E+03  0.17770000000E+01 0. -1.
         15    1    1    2    0    0 -0.28246751604E+01  0.26055873351E+01 -0.26281198810E+02  0.26620049117E+02  0.17770000000E+01 0.  1.
</event>
<event>
 6   1  0.1826851E-04  0.5017965E+03  0.7546771E-02  0.9395799E-01
        -11   -1    0    0    0    0  0.00000000000E+00  0.00000000000E+00  0.50000000000E+03  0.50000000000E+03  0.00000000000E+00 0. -1.
         11   -1    0    0    0    0 -0.00000000000E+00 -0.00000000000E+00 -0.50000000000E+03  0.50000000000E+03  0.00000000000E+00 0. -1.
        -11    1    1    2    0    0 -0.36817700748E+01  0.80160446609E+01  0.49812543670E+03  0.49820353581E+03  0.00000000000E+00 0. -1.
         11    1    1    2    0    0  0.98319575690E+01 -0.36364440965E+01 -0.48458230937E+03  0.48469568357E+03  0.00000000000E+00 0. -1.
        -15    1    1    2    0    0 -0.56686031690E+01 -0.37188788712E+01 -0.57487688305E+01  0.90647225006E+01  0.17770000000E+01 0.  1.
         15    1    1    2    0    0 -0.48158432532E+00 -0.66072169325E+00 -0.77943585005E+01  0.80360581165E+01  0.17770000000E+01 0. -1.
</event>
<event>
 6   1  0.1826851E-04  0.5061661E+03  0.7546771E-02  0.9386117E-01
        -11   -1    0    0    0    0  0.00000000000E+00  0.00000000000E+00  0.50000000000E+03  0.50000000000E+03  0.00000000000E+00 0. -1.
         11   -1    0    0    0    0 -0.00000000000E+00 -0.00000000000E+00 -0.50000000000E+03  0.50000000000E+03  0.00000000000E+00 0.  1.
        -11    1    1    2    0    0 -0.81815528789E+01  0.15228071350E+02  0.48072789638E+03  0.48103860794E+03  0.00000000000E+00 0. -1.
         11    1    1    2    0    0  0.63847488148E+01  0.49866027819E+01 -0.49376744300E+03  0.49383389818E+03  0.00000000000E+00 0.  1.
        -15    1    1    2    0    0  0.20457725520E+00 -0.11684215212E+02  0.40186794443E+01  0.12484800777E+02  0.17770000000E+01 0. -1.
         15    1    1    2    0    0  0.15922268089E+01 -0.85304589207E+01  0.90208671684E+01  0.12642693110E+02  0.17770000000E+01 0.  1.
</event>
<event>
 6   1  0.1826851E-04  0.5102921E+03  0.7546771E-02  0.9377070E-01
        -11   -1    0    0    0    0  0.00000000000E+00  0.00000000000E+00  0.50000000000E+03  0.50000000000E+03  0.00000000000E+00 0.  1.
         11   -1    0    0    0    0 -0.00000000000E+00 -0.00000000000E+00 -0.50000000000E+03  0.50000000000E+03  0.00000000000E+00 0. -1.
        -11    1    1    2    0    0  0.45548128748E+02  0.57831950184E+01  0.25898570806E+03  0.26302409463E+03  0.00000000000E+00 0.  1.
         11    1    1    2    0    0  0.72622249015E+01 -0.16015328977E+01 -0.48965141664E+03  0.48970788704E+03  0.00000000000E+00 0. -1.
        -15    1    1    2    0    0 -0.52228293682E+02 -0.30279267924E+00  0.23524639427E+03  0.24098114053E+03  0.17770000000E+01 0.  1.
         15    1    1    2    0    0 -0.58205996795E+00 -0.38788694415E+01 -0.45806856973E+01  0.62868777949E+01  0.17770000000E+01 0. -1.
</event>
<event>
 6   1  0.1826851E-04  0.5009662E+03  0.7546771E-02  0.9397650E-01
        -11   -1    0    0    0    0  0.00000000000E+00  0.00000000000E+00  0.50000000000E+03  0.50000000000E+03  0.00000000000E+00 0.  1.
         11   -1    0    0    0    0 -0.00000000000E+00 -0.00000000000E+00 -0.50000000000E+03  0.50000000000E+03  0.00000000000E+00 0.  1.
        -11    1    1    2    0    0  0.16443433440E+02 -0.56663247418E+01  0.14648811828E+03  0.14751699067E+03  0.00000000000E+00 0.  1.
         11    1    1    2    0    0  0.34855020572E+01 -0.66131619828E+01 -0.49897777391E+03  0.49903376789E+03  0.00000000000E+00 0.  1.
        -15    1    1    2    0    0 -0.10995291997E+02  0.86741280193E+01  0.27192171937E+03  0.27228792874E+03  0.17770000000E+01 0.  1.
         15    1    1    2    0    0 -0.89336435008E+01  0.36053587053E+01  0.80567936260E+02  0.81161312704E+02  0.17770000000E+01 0. -1.
</event>
<event>
 6   1  0.1826851E-04  0.5000448E+03  0.7546771E-02  0.9399710E-01
        -11   -1    0    0    0    0  0.00000000000E+00  0.00000000000E+00  0.50000000000E+03  0.50000000000E+03  0.00000000000E+00 0.  1.
         11   -1    0    0    0    0 -0.00000000000E+00 -0.00000000000E+00 -0.50000000000E+03  0.50000000000E+03  0.00000000000E+00 0. -1.
        -11    1    1    2    0    0 -0.27614101885E+00  0.87210777569E+01  0.26034366941E+03  0.26048984559E+03  0.00000000000E+00 0.  1.
         11    1    1    2    0    0  0.42073110289E+01 -0.10631901737E+02 -0.49982446313E+03  0.49995523074E+03  0.00000000000E+00 0. -1.
        -15    1    1    2    0    0 -0.28114986770E+01  0.14091404977E+01  0.17692332427E+03  0.17696019496E+03  0.17770000000E+01 0. -1.
         15    1    1    2    0    0 -0.11196713330E+01  0.50168348242E+00  0.62557469448E+02  0.62594728716E+02  0.17770000000E+01 0. -1.
</event>
<event>
 6   1  0.1826851E-04  0.5026844E+03  0.7546771E-02  0.9393823E-01
        -11   -1    0    0    0    0  0.00000000000E+00  0.00000000000E+00  0.50000000000E+03  0.50000000000E+03  0.00000000000E+00 0.  1.
         11   -1    0    0    0    0 -0.00000000000E+00 -0.00000000000E+00 -0.50000000000E+03  0.50000000000E+03  0.00000000000E+00 0. -1.
        -11    1    1    2    0    0 -0.11406579631E+02  0.13441973473E+02  0.49700304933E+03  0.49731562186E+03  0.00000000000E+00 0.  1.
         11    1    1    2    0    0 -0.10494393584E+02 -0.44640566759E+01 -0.41277785646E+03  0.41293536889E+03  0.00000000000E+00 0. -1.
        -15    1    1    2    0    0  0.13131933583E+02 -0.96766080570E+01 -0.25372542302E+02  0.30216023150E+02  0.17770000000E+01 0. -1.
         15    1    1    2    0    0  0.87690396317E+01  0.69869125947E+00 -0.58852650571E+02  0.59532986098E+02  0.17770000000E+01 0.  1.
</event>
<event>
 6   1  0.1826851E-04  0.4871084E+03  0.7546771E-02  0.9429127E-01
        -11   -1    0    0    0    0  0.00000000000E+00  0.00000000000E+00  0.50000000000E+03  0.50000000000E+03  0.00000000000E+00 0.  1.
         11   -1    0    0    0    0 -0.00000000000E+00 -0.00000000000E+00 -0.50000000000E+03  0.50000000000E+03  0.00000000000E+00 0.  1.
        -11    1    1    2    0    0  0.22892282681E+02 -0.27761353772E+01  0.49246622820E+03  0.49300583106E+03  0.00000000000E+00 0.  1.
         11    1    1    2    0    0 -0.36215866362E+01 -0.78282236504E+01 -0.48144441569E+03  0.48152167383E+03  0.00000000000E+00 0.  1.
        -15    1    1    2    0    0 -0.13542824239E+02  0.56283861935E+01 -0.94079945569E+01  0.17514420061E+02  0.17770000000E+01 0.  1.
         15    1    1    2    0    0 -0.57278718064E+01  0.49759728340E+01 -0.16138179626E+01  0.79580750494E+01  0.17770000000E+01 0. -1.
</event>
<event>
 6   1  0.1826851E-04  0.5048744E+03  0.7546771E-02  0.9388968E-01
        -11   -1    0    0    0    0  0.00000000000E+00  0.00000000000E+00  0.50000000000E+03  0.50000000000E+03  0.00000000000E+00 0.  1.
         11   -1    0    0    0    0 -0.00000000000E+00 -0.00000000000E+00 -0.50000000000E+03  0.50000000000E+03  0.00000000000E+00 0.  1.
        -11    1    1    2    0    0 -0.19038903297E+02  0.19563582464E+01  0.46273495451E+03  0.46313059206E+03  0.00000000000E+00 0.  1.
         11    1    1    2    0    0 -0.48447910328E+01  0.53411456974E+01 -0.49507306118E+03  0.49512557574E+03  0.00000000000E+00 0.  1.
        -15    1    1    2    0    0  0.51774542044E+01 -0.48028909837E+01  0.70087052135E+01  0.10107100059E+02  0.17770000000E+01 0. -1.
         15    1    1    2    0    0  0.18706240125E+02 -0.24946129601E+01  0.25329401462E+02  0.31636732146E+02  0.17770000000E+01 0.  1.
</event>
<event>
 6   1  0.1826851E-04  0.5019341E+03  0.7546771E-02  0.9395492E-01
        -11   -1    0    0    0    0  0.00000000000E+00  0.00000000000E+00  0.50000000000E+03  0.50000000000E+03  0.00000000000E+00 0. -1.
         11   -1    0    0    0    0 -0.00000000000E+00 -0.00000000000E+00 -0.50000000000E+03  0.50000000000E+03  0.00000000000E+00 0. -1.
        -11    1    1    2    0    0 -0.10701342145E+02  0.98050553502E+01  0.41006480211E+03  0.41032158091E+03  0.00000000000E+00 0. -1.
         11    1    1    2    0    0 -0.54887342088E+01  0.55506027332E+01 -0.49800474325E+03  0.49806591903E+03  0.00000000000E+00 0. -1.
        -15    1    1    2    0    0  0.15590411890E+02 -0.12218053581E+02  0.55276105476E+02  0.58744764378E+02  0.17770000000E+01 0.  1.
         15    1    1    2    0    0  0.59966446346E+00 -0.31376045024E+01  0.32663835669E+02  0.32867735686E+02  0.17770000000E+01 0. -1.
</event>
<event>
 6   1  0.1826851E-04  0.5011866E+03  0.7546771E-02  0.9397159E-01
        -11   -1    0    0    0    0  0.00000000000E+00  0.00000000000E+00  0.50000000000E+03  0.50000000000E+03  0.00000000000E+00 0.  1.
         11   -1    0    0    0    0 -0.00000000000E+00 -0.00000000000E+00 -0.50000000000E+03  0.50000000000E+03  0.00000000000E+00 0.  1.
        -11    1    1    2    0    0  0.15375590331E+01  0.15276884671E+02  0.37882132076E+03  0.37913235203E+03  0.00000000000E+00 0.  1.
         11    1    1    2    0    0  0.62978781519E+01  0.27866447831E+01 -0.49876587760E+03  0.49881342135E+03  0.00000000000E+00 0.  1.
        -15    1    1    2    0    0 -0.11576347178E+01  0.75633603348E+00  0.72960249097E+01  0.76355661753E+01  0.17770000000E+01 0.  1.
         15    1    1    2    0    0 -0.66778024672E+01 -0.18819865488E+02  0.11264853193E+03  0.11441866044E+03  0.17770000000E+01 0. -1.
</event>
<event>
 6   1  0.1826851E-04  0.5002345E+03  0.7546771E-02  0.9399285E-01
        -11   -1    0    0    0    0  0.00000000000E+00  0.00000000000E+00  0.50000000000E+03  0.50000000000E+03  0.00000000000E+00 0.  1.
         11   -1    0    0    0    0 -0.00000000000E+00 -0.00000000000E+00 -0.50000000000E+03  0.50000000000E+03  0.00000000000E+00 0.  1.
        -11    1    1    2    0    0 -0.91576875038E+01 -0.38322702764E+01  0.31151296431E+03  0.31167110304E+03  0.00000000000E+00 0.  1.
         11    1    1    2    0    0  0.39560181192E+01 -0.55499527998E+01 -0.49971898708E+03  0.49976546310E+03  0.00000000000E+00 0.  1.
        -15    1    1    2    0    0  0.13315461210E+01  0.37016162618E+01  0.88316857388E+02  0.88422282293E+02  0.17770000000E+01 0. -1.
         15    1    1    2    0    0  0.38701232635E+01  0.56806068145E+01  0.99889165383E+02  0.10014115157E+03  0.17770000000E+01 0. -1.
</event>
<event>
 6   1  0.1826851E-04  0.5039502E+03  0.7546771E-02  0.9391014E-01
        -11   -1    0    0    0    0  0.00000000000E+00  0.00000000000E+00  0.50000000000E+03  0.50000000000E+03  0.00000000000E+00 0. -1.
         11   -1    0    0    0    0 -0.00000000000E+00 -0.00000000000E+00 -0.50000000000E+03  0.50000000000E+03  0.00000000000E+00 0. -1.
        -11    1    1    2    0    0  0.28949904566E+01  0.22954616758E+02  0.38525398089E+02  0.44938866231E+02  0.00000000000E+00 0. -1.
         11    1    1    2    0    0  0.81492129714E+01  0.20000441467E+01 -0.49597878761E+03  0.49604976324E+03  0.00000000000E+00 0. -1.
        -15    1    1    2    0    0 -0.13210983234E+02 -0.16343848531E+02  0.41801671159E+03  0.41854842056E+03  0.17770000000E+01 0. -1.
         15    1    1    2    0    0  0.21667798061E+01 -0.86108123731E+01  0.39436677935E+02  0.40462949967E+02  0.17770000000E+01 0.  1.
</event>
<event>
 6   1  0.1826851E-04  0.5002701E+03  0.7546771E-02  0.9399206E-01
        -11   -1    0    0    0    0  0.00000000000E+00  0.00000000000E+00  0.50000000000E+03  0.50000000000E+03  0.00000000000E+00 0. -1.
         11   -1    0    0    0    0 -0.00000000000E+00 -0.00000000000E+00 -0.50000000000E+03  0.50000000000E+03  0.00000000000E+00 0.  1.
        -11    1    1    2    0    0 -0.50715648642E+01 -0.10438037729E+01  0.36345606724E+03  0.36349294782E+03  0.00000000000E+00 0. -1.
         11    1    1    2    0    0  0.12413351322E+02 -0.23486734099E+01 -0.49957020549E+03  0.49972992483E+03  0.00000000000E+00 0.  1.
        -15    1    1    2    0    0 -0.46164115366E+01  0.26607431523E+00  0.11818999684E+03  0.11829376625E+03  0.17770000000E+01 0.  1.
         15    1    1    2    0    0 -0.27253749211E+01  0.31264028675E+01  0.17924141410E+02  0.18483361103E+02  0.17770000000E+01 0. -1.
</event>
<event>
 6   1  0.1826851E-04  0.5004159E+03  0.7546771E-02  0.9398880E-01
        -11   -1    0    0    0    0  0.00000000000E+00  0.00000000000E+00  0.50000000000E+03  0.50000000000E+03  0.00000000000E+00 0.  1.
         11   -1    0    0    0    0 -0.00000000000E+00 -0.00000000000E+00 -0.50000000000E+03  0.50000000000E+03  0.00000000000E+00 0.  1.
        -11    1    1    2    0    0  0.73988976072E+01 -0.81230373802E+01  0.49946328119E+03  0.49958412372E+03  0.00000000000E+00 0.  1.
         11    1    1    2    0    0 -0.90273365767E+01 -0.10113311170E+01 -0.42615977891E+03  0.42625658090E+03  0.00000000000E+00 0.  1.
        -15    1    1    2    0    0 -0.15375269171E+01  0.46558825800E+01 -0.27077911352E+02  0.27575573318E+02  0.17770000000E+01 0. -1.
         15    1    1    2    0    0  0.31659658866E+01  0.44784859173E+01 -0.46225590919E+02  0.46583722060E+02  0.17770000000E+01 0.  1.
</event>
<event>
 6   1  0.1826851E-04  0.5018220E+03  0.7546771E-02  0.9395742E-01
        -11   -1    0    0    0    0  0.00000000000E+00  0.00000000000E+00  0.50000000000E+03  0.50000000000E+03  0.00000000000E+00 0.  1.
         11   -1    0    0    0    0 -0.00000000000E+00 -0.00000000000E+00 -0.50000000000E+03  0.50000000000E+03  0.00000000000E+00 0.  1.
        -11    1    1    2    0    0  0.10674504349E+02 -0.19033882047E+02  0.42808995353E+03  0.42864582352E+03  0.00000000000E+00 0.  1.
         11    1    1    2    0    0 -0.80810134879E+01  0.37219889058E+00 -0.49811232640E+03  0.49817801138E+03  0.00000000000E+00 0.  1.
        -15    1    1    2    0    0  0.32079235139E+01  0.46980419907E+01  0.17191205787E+02  0.18194989893E+02  0.17770000000E+01 0. -1.
         15    1    1    2    0    0 -0.58014143750E+01  0.13963641166E+02  0.52831167079E+02  0.54981175208E+02  0.17770000000E+01 0.  1.
</event>
<event>
 6   1  0.1826851E-04  0.5010326E+03  0.7546771E-02  0.9397502E-01
        -11   -1    0    0    0    0  0.00000000000E+00  0.00000000000E+00  0.50000000000E+03  0.50000000000E+03  0.00000000000E+00 0. -1.
         11   -1    0    0    0    0 -0.00000000000E+00 -0.00000000000E+00 -0.50000000000E+03  0.50000000000E+03  0.00000000000E+00 0. -1.
        -11    1    1    2    0    0  0.10201216488E+02 -0.19751132396E+02  0.40855620478E+03  0.40916053635E+03  0.00000000000E+00 0. -1.
         11    1    1    2    0    0 -0.45991480342E+01  0.11410747535E+02 -0.49881568539E+03  0.49896737901E+03  0.00000000000E+00 0. -1.
        -15    1    1    2    0    0 -0.28685285595E+01 -0.75969508556E+00  0.60141182522E+02  0.60240560728E+02  0.17770000000E+01 0. -1.
         15    1    1    2    0    0 -0.27335398943E+01  0.91000799470E+01  0.30118298097E+02  0.31631523907E+02  0.17770000000E+01 0.  1.
</event>
<event>
 6   1  0.1826851E-04  0.5073010E+03  0.7546771E-02  0.9383620E-01
        -11   -1    0    0    0    0  0.00000000000E+00  0.00000000000E+00  0.50000000000E+03  0.50000000000E+03  0.00000000000E+00 0. -1.
         11   -1    0    0    0    0 -0.00000000000E+00 -0.00000000000E+00 -0.50000000000E+03  0.50000000000E+03  0.00000000000E+00 0.  1.
        -11    1    1    2    0    0 -0.20024927750E+02 -0.88241201053E+01  0.44746370976E+03  0.44799847587E+03  0.00000000000E+00 0. -1.
         11    1    1    2    0    0 -0.61915418644E+01 -0.30756131411E+01 -0.49265045381E+03  0.49269895902E+03  0.00000000000E+00 0.  1.
        -15    1    1    2    0    0 -0.24731080584E+01  0.26625905384E+01 -0.95897663397E+00  0.41572848144E+01  0.17770000000E+01 0.  1.
         15    1    1    2    0    0  0.28689577673E+02  0.92371427081E+01  0.46145720676E+02  0.55145280289E+02  0.17770000000E+01 0. -1.
</event>
<event>
 6   1  0.1826851E-04  0.5010272E+03  0.7546771E-02  0.9397514E-01
        -11   -1    0    0    0    0  0.00000000000E+00  0.00000000000E+00  0.50000000000E+03  0.50000000000E+03  0.00000000000E+00 0.  1.
         11   -1    0    0    0    0 -0.00000000000E+00 -0.00000000000E+00 -0.50000000000E+03  0.50000000000E+03  0.00000000000E+00 0. -1.
        -11    1    1    2    0    0  0.71129890806E+01 -0.23861868170E+02  0.49835115891E+03  0.49897280583E+03  0.00000000000E+00 0.  1.
         11    1    1    2    0    0  0.13945833998E+01  0.93796260552E+01 -0.29260595144E+03  0.29275956870E+03  0.00000000000E+00 0. -1.
        -15    1    1    2    0    0 -0.44963042039E-01 -0.79990666717E+01 -0.56532948677E+02  0.57123717529E+02  0.17770000000E+01 0. -1.
         15    1    1    2    0    0 -0.84626094384E+01  0.22481308787E+02 -0.14921225880E+03  0.15114390794E+03  0.17770000000E+01 0.  1.
</event>
<event>
 6   1  0.1826851E-04  0.5002764E+03  0.7546771E-02  0.9399191E-01
        -11   -1    0    0    0    0  0.00000000000E+00  0.00000000000E+00  0.50000000000E+03  0.50000000000E+03  0.00000000000E+00 0. -1.
         11   -1    0    0    0    0 -0.00000000000E+00 -0.00000000000E+00 -0.50000000000E+03  0.50000000000E+03  0.00000000000E+00 0. -1.
        -11    1    1    2    0    0 -0.63990225936E+01  0.15883726854E+01  0.26289018394E+03  0.26297284885E+03  0.00000000000E+00 0. -1.
         11    1    1    2    0    0 -0.40732424827E+01 -0.12399484396E+02 -0.49955311308E+03  0.49972357489E+03  0.00000000000E+00 0. -1.
        -15    1    1    2    0    0  0.64932142111E+01  0.13883922648E+01  0.78541231527E+02  0.78841437345E+02  0.17770000000E+01 0. -1.
         15    1    1    2    0    0  0.39790508652E+01  0.94227194454E+01  0.15812169761E+03  0.15846213892E+03  0.17770000000E+01 0.  1.
</event>
<event>
 6   1  0.1826851E-04  0.5029660E+03  0.7546771E-02  0.9393197E-01
        -11   -1    0    0    0    0  0.00000000000E+00  0.00000000000E+00  0.50000000000E+03  0.50000000000E+03  0.00000000000E+00 0.  1.
         11   -1    0    0    0    0 -0.00000000000E+00 -0.00000000000E+00 -0.50000000000E+03  0.50000000000E+03  0.00000000000E+00 0. -1.
        -11    1    1    2    0    0  0.34838476063E+02 -0.14457355943E+03  0.47426528991E+03  0.49703400157E+03  0.00000000000E+00 0.  1.
         11    1    1    2    0    0 -0.31690360078E+02  0.14147245375E+03 -0.35679444551E+03  0.38512466870E+03  0.00000000000E+00 0. -1.
        -15    1    1    2    0    0 -0.24374146985E+01  0.39603758159E+01 -0.35901688438E+02  0.36245200078E+02  0.17770000000E+01 0.  1.
         15    1    1    2    0    0 -0.71070128653E+00 -0.85927013623E+00 -0.81569155964E+02  0.81596129658E+02  0.17770000000E+01 0. -1.
</event>
<event>
 6   1  0.1826851E-04  0.5012179E+03  0.7546771E-02  0.9397089E-01
        -11   -1    0    0    0    0  0.00000000000E+00  0.00000000000E+00  0.50000000000E+03  0.50000000000E+03  0.00000000000E+00 0. -1.
         11   -1    0    0    0    0 -0.00000000000E+00 -0.00000000000E+00 -0.50000000000E+03  0.50000000000E+03  0.00000000000E+00 0. -1.
        -11    1    1    2    0    0  0.20693206585E+01 -0.42519630536E+01 -0.28834526815E+01  0.55385537069E+01  0.00000000000E+00 0. -1.
         11    1    1    2    0    0 -0.81166932590E+01 -0.76548733372E+01 -0.49555377250E+03  0.49567935123E+03  0.00000000000E+00 0. -1.
        -15    1    1    2    0    0 -0.35705100978E+01  0.15477200306E+01  0.12514351073E+03  0.12521661227E+03  0.17770000000E+01 0.  1.
         15    1    1    2    0    0  0.96178826982E+01  0.10359116360E+02  0.37329371445E+03  0.37356548280E+03  0.17770000000E+01 0. -1.
</event>
<event>
 6   1  0.1826851E-04  0.5024299E+03  0.7546771E-02  0.9394389E-01
        -11   -1    0    0    0    0  0.00000000000E+00  0.00000000000E+00  0.50000000000E+03  0.50000000000E+03  0.00000000000E+00 0.  1.
         11   -1    0    0    0    0 -0.00000000000E+00 -0.00000000000E+00 -0.50000000000E+03  0.50000000000E+03  0.00000000000E+00 0.  1.
        -11    1    1    2    0    0 -0.33490432346E+02 -0.31652979199E+01  0.49643168263E+03  0.49757013946E+03  0.00000000000E+00 0.  1.
         11    1    1    2    0    0 -0.33669163089E+01  0.49273703711E+01 -0.21937687376E+03  0.21945803208E+03  0.00000000000E+00 0.  1.
        -15    1    1    2    0    0 -0.37845658683E-02  0.35455791617E+01 -0.16155083693E+03  0.16159951048E+03  0.17770000000E+01 0. -1.
         15    1    1    2    0    0  0.36861133221E+02 -0.53076516130E+01 -0.11550397195E+03  0.12137231798E+03  0.17770000000E+01 0.  1.
</event>
<event>
 6   1  0.1826851E-04  0.4826642E+03  0.7546771E-02  0.9439458E-01
        -11   -1    0    0    0    0  0.00000000000E+00  0.00000000000E+00  0.50000000000E+03  0.50000000000E+03  0.00000000000E+00 0. -1.
         11   -1    0    0    0    0 -0.00000000000E+00 -0.00000000000E+00 -0.50000000000E+03  0.50000000000E+03  0.00000000000E+00 0.  1.
        -11    1    1    2    0    0  0.14696688670E+02 -0.10939681708E+02  0.48890336313E+03  0.48924653067E+03  0.00000000000E+00 0. -1.
         11    1    1    2    0    0  0.46206063158E+01 -0.64321129945E+01 -0.47644598240E+03  0.47651180072E+03  0.00000000000E+00 0.  1.
        -15    1    1    2    0    0 -0.63689937071E+01  0.11771514273E+02  0.23592171073E+01  0.13706066667E+02  0.17770000000E+01 0. -1.
         15    1    1    2    0    0 -0.12948301279E+02  0.56002804294E+01 -0.14816597832E+02  0.20535601945E+02  0.17770000000E+01 0.  1.
</event>
<event>
 6   1  0.1826851E-04  0.5044297E+03  0.7546771E-02  0.9389952E-01
        -11   -1    0    0    0    0  0.00000000000E+00  0.00000000000E+00  0.50000000000E+03  0.50000000000E+03  0.00000000000E+00 0.  1.
         11   -1    0    0    0    0 -0.00000000000E+00 -0.00000000000E+00 -0.50000000000E+03  0.50000000000E+03  0.00000000000E+00 0. -1.
        -11    1    1    2    0    0 -0.71600035706E+01 -0.35895243378E+02  0.11925333693E+03  0.12474410814E+03  0.00000000000E+00 0.  1.
         11    1    1    2    0    0  0.28445505543E+01  0.12109095729E+02 -0.49541418803E+03  0.49557031728E+03  0.00000000000E+00 0. -1.
        -15    1    1    2    0    0 -0.42590779477E+01 -0.11641831161E+02  0.15779913885E+03  0.15829528713E+03  0.17770000000E+01 0. -1.
         15    1    1    2    0    0  0.85745309640E+01  0.35427978811E+02  0.21836171226E+03  0.22139028744E+03  0.17770000000E+01 0.  1.
</event>
<event>
 6   1  0.1826851E-04  0.5038656E+03  0.7546771E-02  0.9391201E-01
        -11   -1    0    0    0    0  0.00000000000E+00  0.00000000000E+00  0.50000000000E+03  0.50000000000E+03  0.00000000000E+00 0. -1.
         11   -1    0    0    0    0 -0.00000000000E+00 -0.00000000000E+00 -0.50000000000E+03  0.50000000000E+03  0.00000000000E+00 0.  1.
        -11    1    1    2    0    0  0.39073426151E+02 -0.46575497152E+01  0.71238839017E+02  0.81384258828E+02  0.00000000000E+00 0. -1.
         11    1    1    2    0    0 -0.53392911753E+02  0.12206085487E+02 -0.49310197310E+03  0.49613440460E+03  0.00000000000E+00 0.  1.
        -15    1    1    2    0    0  0.11929573915E+02 -0.14154849482E+01  0.13715382007E+03  0.13769040061E+03  0.17770000000E+01 0.  1.
         15    1    1    2    0    0  0.23899116881E+01 -0.61330508237E+01  0.28470931401E+03  0.28479093596E+03  0.17770000000E+01 0. -1.
</event>
<event>
 6   1  0.1826851E-04  0.5027928E+03  0.7546771E-02  0.9393582E-01
        -11   -1    0    0    0    0  0.00000000000E+00  0.00000000000E+00  0.50000000000E+03  0.50000000000E+03  0.00000000000E+00 0.  1.
         11   -1    0    0    0    0 -0.00000000000E+00 -0.00000000000E+00 -0.50000000000E+03  0.50000000000E+03  0.00000000000E+00 0. -1.
        -11    1    1    2    0    0  0.21741060571E+02 -0.12124490537E+02  0.34600230619E+03  0.34689663140E+03  0.00000000000E+00 0.  1.
         11    1    1    2    0    0  0.54237279475E+01 -0.56081956454E+01 -0.49714594549E+03  0.49720715985E+03  0.00000000000E+00 0. -1.
        -15    1    1    2    0    0 -0.53468096967E+01  0.28217372229E+01  0.75254286639E+02  0.75517653310E+02  0.17770000000E+01 0. -1.
         15    1    1    2    0    0 -0.21817978822E+02  0.14910948960E+02  0.75889352662E+02  0.80378555444E+02  0.17770000000E+01 0.  1.
</event>
<event>
 6   1  0.1826851E-04  0.5001969E+03  0.7546771E-02  0.9399369E-01
        -11   -1    0    0    0    0  0.00000000000E+00  0.00000000000E+00  0.50000000000E+03  0.50000000000E+03  0.00000000000E+00 0.  1.
         11   -1    0    0    0    0 -0.00000000000E+00 -0.00000000000E+00 -0.50000000000E+03  0.50000000000E+03  0.00000000000E+00 0.  1.
        -11    1    1    2    0    0 -0.87154488136E+01  0.26696329780E+01  0.49971994724E+03  0.49980307287E+03  0.00000000000E+00 0.  1.
         11    1    1    2    0    0 -0.25522171535E+01  0.26452349716E+01 -0.19187839699E+03  0.19191360117E+03  0.00000000000E+00 0.  1.
        -15    1    1    2    0    0  0.16342049850E+00 -0.32815148435E+01 -0.14169336513E+03  0.14174259239E+03  0.17770000000E+01 0.  1.
         15    1    1    2    0    0  0.11104245469E+02 -0.20333531061E+01 -0.16614818512E+03  0.16654073357E+03  0.17770000000E+01 0. -1.
</event>
<event>
 6   1  0.1826851E-04  0.5042081E+03  0.7546771E-02  0.9390443E-01
        -11   -1    0    0    0    0  0.00000000000E+00  0.00000000000E+00  0.50000000000E+03  0.50000000000E+03  0.00000000000E+00 0.  1.
         11   -1    0    0    0    0 -0.00000000000E+00 -0.00000000000E+00 -0.50000000000E+03  0.50000000000E+03  0.00000000000E+00 0.  1.
        -11    1    1    2    0    0 -0.15619580969E+02 -0.36272403695E+02  0.39434919915E+03  0.39632177514E+03  0.00000000000E+00 0.  1.
         11    1    1    2    0    0  0.96469051641E+01  0.61889731865E+01 -0.49565942200E+03  0.49579192086E+03  0.00000000000E+00 0.  1.
        -15    1    1    2    0    0 -0.21098465111E+01  0.10568495499E+01  0.97697564683E+00  0.31113652447E+01  0.17770000000E+01 0.  1.
         15    1    1    2    0    0  0.80825223155E+01  0.29026580959E+02  0.10033324721E+03  0.10477493876E+03  0.17770000000E+01 0. -1.
</event>
<event>
 6   1  0.1826851E-04  0.4649203E+03  0.7546771E-02  0.9481917E-01
        -11   -1    0    0    0    0  0.00000000000E+00  0.00000000000E+00  0.50000000000E+03  0.50000000000E+03  0.00000000000E+00 0.  1.
         11   -1    0    0    0    0 -0.00000000000E+00 -0.00000000000E+00 -0.50000000000E+03  0.50000000000E+03  0.00000000000E+00 0.  1.
        -11    1    1    2    0    0  0.91878317637E+01  0.35916750264E+02  0.48233822772E+03  0.48376088631E+03  0.00000000000E+00 0.  1.
         11    1    1    2    0    0  0.92017834517E+01  0.18070227852E+02 -0.44800104311E+03  0.44845974243E+03  0.00000000000E+00 0.  1.
        -15    1    1    2    0    0 -0.23578942379E+01 -0.12295345816E+02 -0.13373099772E+02  0.18404692893E+02  0.17770000000E+01 0.  1.
         15    1    1    2    0    0 -0.16031720977E+02 -0.41691632301E+02 -0.20964084842E+02  0.49374678365E+02  0.17770000000E+01 0. -1.
</event>
<event>
 6   1  0.1826851E-04  0.5135848E+03  0.7546771E-02  0.9369915E-01
        -11   -1    0    0    0    0  0.00000000000E+00  0.00000000000E+00  0.50000000000E+03  0.50000000000E+03  0.00000000000E+00 0.  1.
         11   -1    0    0    0    0 -0.00000000000E+00 -0.00000000000E+00 -0.50000000000E+03  0.50000000000E+03  0.00000000000E+00 0. -1.
        -11    1    1    2    0    0 -0.88140723188E+02  0.40204182895E+02  0.47667032093E+03  0.48641521180E+03  0.00000000000E+00 0.  1.
         11    1    1    2    0    0  0.86003627734E+02  0.14066217269E+02 -0.10086774253E+03  0.13329960215E+03  0.00000000000E+00 0. -1.
        -15    1    1    2    0    0 -0.36345199762E+01 -0.34911093843E+02 -0.17731839674E+03  0.18076771216E+03  0.17770000000E+01 0.  1.
         15    1    1    2    0    0  0.57716154299E+01 -0.19359306321E+02 -0.19848418167E+03  0.19951747389E+03  0.17770000000E+01 0. -1.
</event>
<event>
 6   1  0.1826851E-04  0.5058911E+03  0.7546771E-02  0.9386724E-01
        -11   -1    0    0    0    0  0.00000000000E+00  0.00000000000E+00  0.50000000000E+03  0.50000000000E+03  0.00000000000E+00 0.  1.
         11   -1    0    0    0    0 -0.00000000000E+00 -0.00000000000E+00 -0.50000000000E+03  0.50000000000E+03  0.00000000000E+00 0.  1.
        -11    1    1    2    0    0 -0.25296420797E+01 -0.12976312599E+02  0.41601847302E+03  0.41622848734E+03  0.00000000000E+00 0.  1.
         11    1    1    2    0    0  0.84815596455E+00 -0.17790673570E+02 -0.49378781734E+03  0.49410893130E+03  0.00000000000E+00 0.  1.
        -15    1    1    2    0    0 -0.40290400113E+01  0.17660242708E+02  0.71795043209E+02  0.74066208856E+02  0.17770000000E+01 0. -1.
         15    1    1    2    0    0  0.57105261264E+01  0.13106743461E+02  0.59743011112E+01  0.15596372513E+02  0.17770000000E+01 0.  1.
</event>
<event>
 6   1  0.1826851E-04  0.5010269E+03  0.7546771E-02  0.9397515E-01
        -11   -1    0    0    0    0  0.00000000000E+00  0.00000000000E+00  0.50000000000E+03  0.50000000000E+03  0.00000000000E+00 0.  1.
         11   -1    0    0    0    0 -0.00000000000E+00 -0.00000000000E+00 -0.50000000000E+03  0.50000000000E+03  0.00000000000E+00 0. -1.
        -11    1    1    2    0    0 -0.13185922076E+01 -0.92199781661E+01  0.48165194803E+03  0.48174199082E+03  0.00000000000E+00 0.  1.
         11    1    1    2    0    0 -0.52062808057E+01  0.69684659614E+01 -0.49889724117E+03  0.49897306753E+03  0.00000000000E+00 0. -1.
        -15    1    1    2    0    0  0.18982548812E+01  0.12341565929E+01  0.10284446279E+02  0.10679610403E+02  0.17770000000E+01 0. -1.
         15    1    1    2    0    0  0.46266181321E+01  0.10173556119E+01  0.69608468611E+01  0.86053312431E+01  0.17770000000E+01 0.  1.
</event>
<event>
 6   1  0.1826851E-04  0.5059525E+03  0.7546771E-02  0.9386588E-01
        -11   -1    0    0    0    0  0.00000000000E+00  0.00000000000E+00  0.50000000000E+03  0.50000000000E+03  0.00000000000E+00 0.  1.
         11   -1    0    0    0    0 -0.00000000000E+00 -0.00000000000E+00 -0.50000000000E+03  0.50000000000E+03  0.00000000000E+00 0. -1.
        -11    1    1    2    0    0  0.38056590320E+01 -0.18137636742E+02  0.49369973669E+03  0.49404745412E+03  0.00000000000E+00 0.  1.
         11    1    1    2    0    0  0.42189560219E+01  0.71578714594E+01 -0.47596157220E+03  0.47603408798E+03  0.00000000000E+00 0. -1.
        -15    1    1    2    0    0 -0.26467780614E+01 -0.51732408284E+01 -0.13580482048E+01  0.62265462900E+01  0.17770000000E+01 0. -1.
         15    1    1    2    0    0 -0.53778369925E+01  0.16153006111E+02 -0.16380116292E+02  0.23691911613E+02  0.17770000000E+01 0.  1.
</event>
<event>
 6   1  0.1826851E-04  0.5008418E+03  0.7546771E-02  0.9397928E-01
        -11   -1    0    0    0    0  0.00000000000E+00  0.00000000000E+00  0.50000000000E+03  0.50000000000E+03  0.00000000000E+00 0.  1.
         11   -1    0    0    0    0 -0.00000000000E+00 -0.00000000000E+00 -0.50000000000E+03  0.50000000000E+03  0.00000000000E+00 0. -1.
        -11    1    1    2    0    0  0.20645682324E+02  0.15998926315E+02  0.49847435471E+03  0.49915818349E+03  0.00000000000E+00 0.  1.
         11    1    1    2    0    0 -0.13780715556E+01 -0.15225855304E+01 -0.13251503582E+03  0.13253094758E+03  0.00000000000E+00 0. -1.
        -15    1    1    2    0    0 -0.28769453792E+02 -0.13269434605E+02 -0.28929952204E+03  0.29103458652E+03  0.17770000000E+01 0. -1.
         15    1    1    2    0    0  0.95018430230E+01 -0.12069061803E+01 -0.76659796839E+02  0.77276282414E+02  0.17770000000E+01 0.  1.
</event>
<event>
 6   1  0.1826851E-04  0.5055172E+03  0.7546771E-02  0.9387548E-01
        -11   -1    0    0    0    0  0.00000000000E+00  0.00000000000E+00  0.50000000000E+03  0.50000000000E+03  0.00000000000E+00 0.  1.
         11   -1    0    0    0    0 -0.00000000000E+00 -0.00000000000E+00 -0.50000000000E+03  0.50000000000E+03  0.00000000000E+00 0.  1.
        -11    1    1    2    0    0  0.58706033207E+01 -0.10082802305E+02  0.48137776018E+03  0.48151913241E+03  0.00000000000E+00 0.  1.
         11    1    1    2    0    0 -0.19078385252E+01  0.81108630332E+01 -0.49441257304E+03  0.49448277859E+03  0.00000000000E+00 0.  1.
        -15    1    1    2    0    0  0.36174148246E+01 -0.51259298809E+01 -0.84230018159E+00  0.65748038566E+01  0.17770000000E+01 0. -1.
         15    1    1    2    0    0 -0.75801796202E+01  0.70978691526E+01  0.13877113042E+02  0.17423285137E+02  0.17770000000E+01 0.  1.
</event>
<event>
 6   1  0.1826851E-04  0.5010492E+03  0.7546771E-02  0.9397465E-01
        -11   -1    0    0    0    0  0.00000000000E+00  0.00000000000E+00  0.50000000000E+03  0.50000000000E+03  0.00000000000E+00 0.  1.
         11   -1    0    0    0    0 -0.00000000000E+00 -0.00000000000E+00 -0.50000000000E+03  0.50000000000E+03  0.00000000000E+00 0.  1.
        -11    1    1    2    0    0  0.61705039443E+01  0.11248295715E+01 -0.39207971180E+01  0.73968243546E+01  0.00000000000E+00 0.  1.
         11    1    1    2    0    0 -0.10447813731E+02 -0.41458769156E+01 -0.49352442486E+03  0.49365241116E+03  0.00000000000E+00 0.  1.
        -15    1    1    2    0    0  0.11392374124E+02 -0.13323224065E+02  0.14773257321E+03  0.14877958665E+03  0.17770000000E+01 0. -1.
         15    1    1    2    0    0 -0.71150643372E+01  0.16344271409E+02  0.34971264877E+03  0.35017117784E+03  0.17770000000E+01 0.  1.
</event>
<event>
 6   1  0.1826851E-04  0.5003519E+03  0.7546771E-02  0.9399023E-01
        -11   -1    0    0    0    0  0.00000000000E+00  0.00000000000E+00  0.50000000000E+03  0.50000000000E+03  0.00000000000E+00 0.  1.
         11   -1    0    0    0    0 -0.00000000000E+00 -0.00000000000E+00 -0.50000000000E+03  0.50000000000E+03  0.00000000000E+00 0.  1.
        -11    1    1    2    0    0 -0.10617722790E+02 -0.19401082989E+01  0.20844551025E+03  0.20872477285E+03  0.00000000000E+00 0.  1.
         11    1    1    2    0    0  0.91915236051E+01  0.61550897282E+01 -0.49952566814E+03  0.49964813856E+03  0.00000000000E+00 0.  1.
        -15    1    1    2    0    0 -0.24134927492E+01 -0.60611863896E+01  0.26823483072E+03  0.26832004224E+03  0.17770000000E+01 0.  1.
         15    1    1    2    0    0  0.38396919342E+01  0.18462049603E+01  0.22845327177E+02  0.23307046354E+02  0.17770000000E+01 0. -1.
</event>
<event>
 6   1  0.1826851E-04  0.5183921E+03  0.7546771E-02  0.9359571E-01
        -11   -1    0    0    0    0  0.00000000000E+00  0.00000000000E+00  0.50000000000E+03  0.50000000000E+03  0.00000000000E+00 0. -1.
         11   -1    0    0    0    0 -0.00000000000E+00 -0.00000000000E+00 -0.50000000000E+03  0.50000000000E+03  0.00000000000E+00 0.  1.
        -11    1    1    2    0    0 -0.11114287253E+02  0.14911648949E+02  0.46706494015E+03  0.46743506819E+03  0.00000000000E+00 0. -1.
         11    1    1    2    0    0  0.27597091101E+02 -0.29713576475E+02 -0.47989759150E+03  0.48160792601E+03  0.00000000000E+00 0.  1.
        -15    1    1    2    0    0 -0.86477016881E+01 -0.82281545089E+01 -0.11380780044E+02  0.16588102800E+02  0.17770000000E+01 0. -1.
         15    1    1    2    0    0 -0.78351021600E+01  0.23030082035E+02  0.24213431394E+02  0.34368902998E+02  0.17770000000E+01 0.  1.
</event>
<event>
 6   1  0.1826851E-04  0.5002352E+03  0.7546771E-02  0.9399284E-01
        -11   -1    0    0    0    0  0.00000000000E+00  0.00000000000E+00  0.50000000000E+03  0.50000000000E+03  0.00000000000E+00 0.  1.
         11   -1    0    0    0    0 -0.00000000000E+00 -0.00000000000E+00 -0.50000000000E+03  0.50000000000E+03  0.00000000000E+00 0.  1.
        -11    1    1    2    0    0  0.61482323104E+01  0.69285278942E+01  0.66255397681E+02  0.66899798065E+02  0.00000000000E+00 0.  1.
         11    1    1    2    0    0 -0.42373898847E+01 -0.21351201950E+02 -0.49929056081E+03  0.49976483811E+03  0.00000000000E+00 0.  1.
        -15    1    1    2    0    0 -0.82203131177E-01  0.64189546007E+00  0.32396071884E+02  0.32451224779E+02  0.17770000000E+01 0.  1.
         15    1    1    2    0    0 -0.18286392945E+01  0.13780778595E+02  0.40063909124E+03  0.40088413905E+03  0.17770000000E+01 0.  1.
</event>
<event>
 6   1  0.1826851E-04  0.5022305E+03  0.7546771E-02  0.9394832E-01
        -11   -1    0    0    0    0  0.00000000000E+00  0.00000000000E+00  0.50000000000E+03  0.50000000000E+03  0.00000000000E+00 0. -1.
         11   -1    0    0    0    0 -0.00000000000E+00 -0.00000000000E+00 -0.50000000000E+03  0.50000000000E+03  0.00000000000E+00 0.  1.
        -11    1    1    2    0    0  0.14294771626E+02  0.12332390467E+02  0.49741129782E+03  0.49776945221E+03  0.00000000000E+00 0. -1.
         11    1    1    2    0    0  0.10630780664E+02 -0.51716214080E+01 -0.40751629166E+03  0.40768773238E+03  0.00000000000E+00 0.  1.
        -15    1    1    2    0    0 -0.91867686996E+01 -0.90975087524E+01 -0.34140819040E+02  0.36550166051E+02  0.17770000000E+01 0. -1.
         15    1    1    2    0    0 -0.15738783591E+02  0.19367396937E+01 -0.55754187120E+02  0.57992649361E+02  0.17770000000E+01 0.  1.
</event>
<event>
 6   1  0.1826851E-04  0.5053753E+03  0.7546771E-02  0.9387862E-01
        -11   -1    0    0    0    0  0.00000000000E+00  0.00000000000E+00  0.50000000000E+03  0.50000000000E+03  0.00000000000E+00 0.  1.
         11   -1    0    0    0    0 -0.00000000000E+00 -0.00000000000E+00 -0.50000000000E+03  0.50000000000E+03  0.00000000000E+00 0. -1.
        -11    1    1    2    0    0  0.30867374193E+01 -0.20267132760E+02  0.46838814029E+03  0.46883657556E+03  0.00000000000E+00 0.  1.
         11    1    1    2    0    0 -0.75593438180E+01 -0.88696864191E+00 -0.49456611014E+03  0.49462467356E+03  0.00000000000E+00 0. -1.
        -15    1    1    2    0    0  0.16770112654E+01  0.59475728373E+01  0.41930957580E+00  0.64435657023E+01  0.17770000000E+01 0.  1.
         15    1    1    2    0    0  0.27955951332E+01  0.15206528565E+02  0.25758660269E+02  0.30095185180E+02  0.17770000000E+01 0. -1.
</event>
<event>
 6   1  0.1826851E-04  0.4869517E+03  0.7546771E-02  0.9429489E-01
        -11   -1    0    0    0    0  0.00000000000E+00  0.00000000000E+00  0.50000000000E+03  0.50000000000E+03  0.00000000000E+00 0. -1.
         11   -1    0    0    0    0 -0.00000000000E+00 -0.00000000000E+00 -0.50000000000E+03  0.50000000000E+03  0.00000000000E+00 0.  1.
        -11    1    1    2    0    0 -0.16946440064E+02  0.51942036344E+01  0.49156325020E+03  0.49188269997E+03  0.00000000000E+00 0. -1.
         11    1    1    2    0    0 -0.68638545674E+00  0.83245066881E+01 -0.48224635462E+03  0.48231868623E+03  0.00000000000E+00 0.  1.
        -15    1    1    2    0    0  0.62383919092E+00 -0.18563126977E+01  0.79476490675E+00  0.27612411022E+01  0.17770000000E+01 0. -1.
         15    1    1    2    0    0  0.17008986330E+02 -0.11662397625E+02 -0.10111660483E+02  0.23037372702E+02  0.17770000000E+01 0.  1.
</event>
<event>
 6   1  0.1826851E-04  0.5003810E+03  0.7546771E-02  0.9398958E-01
        -11   -1    0    0    0    0  0.00000000000E+00  0.00000000000E+00  0.50000000000E+03  0.50000000000E+03  0.00000000000E+00 0.  1.
         11   -1    0    0    0    0 -0.00000000000E+00 -0.00000000000E+00 -0.50000000000E+03  0.50000000000E+03  0.00000000000E+00 0.  1.
        -11    1    1    2    0    0  0.84370926388E+01  0.12817278013E+02  0.13583432901E+03  0.13669832510E+03  0.00000000000E+00 0.  1.
         11    1    1    2    0    0  0.16516102702E+00 -0.17467481121E+02 -0.49931350846E+03  0.49961897473E+03  0.00000000000E+00 0.  1.
        -15    1    1    2    0    0 -0.61076484597E+01  0.73845832025E+00  0.26593052405E+03  0.26600761275E+03  0.17770000000E+01 0.  1.
         15    1    1    2    0    0 -0.24946052061E+01  0.39117447883E+01  0.97548655405E+02  0.97675087421E+02  0.17770000000E+01 0. -1.
</event>
<event>
 6   1  0.1826851E-04  0.5002028E+03  0.7546771E-02  0.9399356E-01
        -11   -1    0    0    0    0  0.00000000000E+00  0.00000000000E+00  0.50000000000E+03  0.50000000000E+03  0.00000000000E+00 0.  1.
         11   -1    0    0    0    0 -0.00000000000E+00 -0.00000000000E+00 -0.50000000000E+03  0.50000000000E+03  0.00000000000E+00 0.  1.
        -11    1    1    2    0    0 -0.67728955305E+01 -0.49188800620E-01  0.12067115592E+03  0.12086108722E+03  0.00000000000E+00 0.  1.
         11    1    1    2    0    0  0.15336187367E+02  0.53080695398E+01 -0.49953361667E+03  0.49979716728E+03  0.00000000000E+00 0.  1.
        -15    1    1    2    0    0 -0.44154995837E+01 -0.70421142247E+01  0.34769516302E+03  0.34779903986E+03  0.17770000000E+01 0.  1.
         15    1    1    2    0    0 -0.41477922527E+01  0.17832334855E+01  0.31167297723E+02  0.31542705632E+02  0.17770000000E+01 0. -1.
</event>
<event>
 6   1  0.1826851E-04  0.5001234E+03  0.7546771E-02  0.9399534E-01
        -11   -1    0    0    0    0  0.00000000000E+00  0.00000000000E+00  0.50000000000E+03  0.50000000000E+03  0.00000000000E+00 0.  1.
         11   -1    0    0    0    0 -0.00000000000E+00 -0.00000000000E+00 -0.50000000000E+03  0.50000000000E+03  0.00000000000E+00 0. -1.
        -11    1    1    2    0    0 -0.96077591577E+01  0.14944990832E+01  0.49978197976E+03  0.49987655462E+03  0.00000000000E+00 0.  1.
         11    1    1    2    0    0  0.34976908034E+01  0.29914630725E+01 -0.16885057558E+03  0.16891329008E+03  0.00000000000E+00 0. -1.
        -15    1    1    2    0    0  0.45877669602E+00 -0.28158796638E+01 -0.25965088721E+02  0.26181734389E+02  0.17770000000E+01 0. -1.
         15    1    1    2    0    0  0.56512916583E+01 -0.16700824919E+01 -0.30496631546E+03  0.30502842091E+03  0.17770000000E+01 0. -1.
</event>
<event>
 6   1  0.1826851E-04  0.5004311E+03  0.7546771E-02  0.9398846E-01
        -11   -1    0    0    0    0  0.00000000000E+00  0.00000000000E+00  0.50000000000E+03  0.50000000000E+03  0.00000000000E+00 0. -1.
         11   -1    0    0    0    0 -0.00000000000E+00 -0.00000000000E+00 -0.50000000000E+03  0.50000000000E+03  0.00000000000E+00 0.  1.
        -11    1    1    2    0    0  0.87593634513E+01  0.14162630640E+02  0.17990211232E+03  0.18067118357E+03  0.00000000000E+00 0. -1.
         11    1    1    2    0    0 -0.12264187026E+02 -0.47958455019E+01 -0.49939528248E+03  0.49956887271E+03  0.00000000000E+00 0.  1.
        -15    1    1    2    0    0  0.14259516059E+01 -0.35863354654E+01  0.22972608719E+03  0.22976537599E+03  0.17770000000E+01 0. -1.
         15    1    1    2    0    0  0.20788719684E+01 -0.57804496723E+01  0.89767082969E+02  0.89994567729E+02  0.17770000000E+01 0.  1.
</event>
<event>
 6   1  0.1826851E-04  0.4883190E+03  0.7546771E-02  0.9426333E-01
        -11   -1    0    0    0    0  0.00000000000E+00  0.00000000000E+00  0.50000000000E+03  0.50000000000E+03  0.00000000000E+00 0. -1.
         11   -1    0    0    0    0 -0.00000000000E+00 -0.00000000000E+00 -0.50000000000E+03  0.50000000000E+03  0.00000000000E+00 0. -1.
        -11    1    1    2    0    0 -0.52739871402E+01  0.11367230396E+02  0.48599027409E+03  0.48615180281E+03  0.00000000000E+00 0. -1.
         11    1    1    2    0    0  0.29362572505E+01  0.97661289082E+01 -0.49062267881E+03  0.49072865399E+03  0.00000000000E+00 0. -1.
        -15    1    1    2    0    0  0.21832610632E+01 -0.15992094359E+02  0.63161524068E+01  0.17423123173E+02  0.17770000000E+01 0. -1.
         15    1    1    2    0    0  0.15446882647E+00 -0.51412649447E+01 -0.16837476873E+01  0.56964200271E+01  0.17770000000E+01 0.  1.
</event>
<event>
 6   1  0.1826851E-04  0.5013395E+03  0.7546771E-02  0.9396817E-01
        -11   -1    0    0    0    0  0.00000000000E+00  0.00000000000E+00  0.50000000000E+03  0.50000000000E+03  0.00000000000E+00 0.  1.
         11   -1    0    0    0    0 -0.00000000000E+00 -0.00000000000E+00 -0.50000000000E+03  0.50000000000E+03  0.00000000000E+00 0.  1.
        -11    1    1    2    0    0 -0.23527069151E+02 -0.67391082892E+01  0.49805955376E+03  0.49866046330E+03  0.00000000000E+00 0.  1.
         11    1    1    2    0    0 -0.22633043010E+01  0.52051996857E+01 -0.36891081233E+03  0.36895447430E+03  0.00000000000E+00 0.  1.
        -15    1    1    2    0    0  0.20536541904E+02 -0.29295424873E+01 -0.11005884311E+03  0.11201088540E+03  0.17770000000E+01 0.  1.
         15    1    1    2    0    0  0.52538315483E+01  0.44634510907E+01 -0.19089898318E+02  0.20374176998E+02  0.17770000000E+01 0. -1.
</event>
<event>
 6   1  0.1826851E-04  0.5019685E+03  0.7546771E-02  0.9395416E-01
        -11   -1    0    0    0    0  0.00000000000E+00  0.00000000000E+00  0.50000000000E+03  0.50000000000E+03  0.00000000000E+00 0. -1.
         11   -1    0    0    0    0 -0.00000000000E+00 -0.00000000000E+00 -0.50000000000E+03  0.50000000000E+03  0.00000000000E+00 0. -1.
        -11    1    1    2    0    0  0.68912116976E+02 -0.28230676261E+02  0.30022533277E+03  0.30932361918E+03  0.00000000000E+00 0. -1.
         11    1    1    2    0    0 -0.64813885632E+02  0.32581519569E+02 -0.49271994313E+03  0.49803146241E+03  0.00000000000E+00 0. -1.
        -15    1    1    2    0    0 -0.29197747685E+01 -0.42737198606E+01  0.13627510044E+03  0.13638493500E+03  0.17770000000E+01 0.  1.
         15    1    1    2    0    0 -0.11784565754E+01 -0.77123446480E-01  0.56219509926E+02  0.56259983410E+02  0.17770000000E+01 0.  1.
</event>
<event>
 6   1  0.1826851E-04  0.5095530E+03  0.7546771E-02  0.9378684E-01
        -11   -1    0    0    0    0  0.00000000000E+00  0.00000000000E+00  0.50000000000E+03  0.50000000000E+03  0.00000000000E+00 0.  1.
         11   -1    0    0    0    0 -0.00000000000E+00 -0.00000000000E+00 -0.50000000000E+03  0.50000000000E+03  0.00000000000E+00 0.  1.
        -11    1    1    2    0    0  0.22952626037E+02 -0.87213191007E+01  0.40783008623E+03  0.40856855445E+03  0.00000000000E+00 0.  1.
         11    1    1    2    0    0  0.35424048121E+00  0.69597197744E+01 -0.49039751291E+03  0.49044702452E+03  0.00000000000E+00 0.  1.
        -15    1    1    2    0    0  0.30019665504E+01  0.35909725235E+01  0.72542472095E+02  0.72715025088E+02  0.17770000000E+01 0.  1.
         15    1    1    2    0    0 -0.26308833069E+02 -0.18293731971E+01  0.10024954585E+02  0.28269395946E+02  0.17770000000E+01 0. -1.
</event>
<event>
 6   1  0.1826851E-04  0.5020371E+03  0.7546771E-02  0.9395263E-01
        -11   -1    0    0    0    0  0.00000000000E+00  0.00000000000E+00  0.50000000000E+03  0.50000000000E+03  0.00000000000E+00 0.  1.
         11   -1    0    0    0    0 -0.00000000000E+00 -0.00000000000E+00 -0.50000000000E+03  0.50000000000E+03  0.00000000000E+00 0.  1.
        -11    1    1    2    0    0  0.95771371193E+01 -0.82348589607E+01  0.46794143848E+03  0.46811187157E+03  0.00000000000E+00 0.  1.
         11    1    1    2    0    0  0.19457890068E+01  0.69152653700E+01 -0.49791105564E+03  0.49796287644E+03  0.00000000000E+00 0.  1.
        -15    1    1    2    0    0 -0.36145353306E+01 -0.27018659301E+01  0.19468739432E+02  0.20063760595E+02  0.17770000000E+01 0. -1.
         15    1    1    2    0    0 -0.79083907956E+01  0.40214595207E+01  0.10500877719E+02  0.13861491388E+02  0.17770000000E+01 0.  1.
</event>
<event>
 6   1  0.1826851E-04  0.5012934E+03  0.7546771E-02  0.9396920E-01
        -11   -1    0    0    0    0  0.00000000000E+00  0.00000000000E+00  0.50000000000E+03  0.50000000000E+03  0.00000000000E+00 0.  1.
         11   -1    0    0    0    0 -0.00000000000E+00 -0.00000000000E+00 -0.50000000000E+03  0.50000000000E+03  0.00000000000E+00 0. -1.
        -11    1    1    2    0    0  0.34901956578E+01  0.12455351364E+02  0.38052504969E+03  0.38074483671E+03  0.00000000000E+00 0.  1.
         11    1    1    2    0    0  0.47937075265E+01  0.47568694999E+01 -0.49866087515E+03  0.49870660297E+03  0.00000000000E+00 0. -1.
        -15    1    1    2    0    0 -0.10161684467E+02 -0.16918760892E+02  0.83662455143E+02  0.85977139001E+02  0.17770000000E+01 0. -1.
         15    1    1    2    0    0  0.18777812830E+01 -0.29345997191E+00  0.34473370321E+02  0.34571421312E+02  0.17770000000E+01 0.  1.
</event>
<event>
 6   1  0.1826851E-04  0.5050368E+03  0.7546771E-02  0.9388609E-01
        -11   -1    0    0    0    0  0.00000000000E+00  0.00000000000E+00  0.50000000000E+03  0.50000000000E+03  0.00000000000E+00 0. -1.
         11   -1    0    0    0    0 -0.00000000000E+00 -0.00000000000E+00 -0.50000000000E+03  0.50000000000E+03  0.00000000000E+00 0.  1.
        -11    1    1    2    0    0  0.14111794133E+02  0.10148557949E+02  0.49465787560E+03  0.49496318031E+03  0.00000000000E+00 0. -1.
         11    1    1    2    0    0 -0.11019082413E+02  0.78270410835E+01 -0.48074758123E+03  0.48093754232E+03  0.00000000000E+00 0.  1.
        -15    1    1    2    0    0 -0.21340429876E+01 -0.14710735700E+02 -0.77934795457E+01  0.16877675691E+02  0.17770000000E+01 0.  1.
         15    1    1    2    0    0 -0.95866873290E+00 -0.32648633328E+01 -0.61168148258E+01  0.72216016876E+01  0.17770000000E+01 0. -1.
</event>
<event>
 6   1  0.1826851E-04  0.5023374E+03  0.7546771E-02  0.9394595E-01
        -11   -1    0    0    0    0  0.00000000000E+00  0.00000000000E+00  0.50000000000E+03  0.50000000000E+03  0.00000000000E+00 0.  1.
         11   -1    0    0    0    0 -0.00000000000E+00 -0.00000000000E+00 -0.50000000000E+03  0.50000000000E+03  0.00000000000E+00 0. -1.
        -11    1    1    2    0    0 -0.20000273164E+02  0.37077969829E+02  0.19113330515E+03  0.19572104412E+03  0.00000000000E+00 0.  1.
         11    1    1    2    0    0  0.37336157594E+02 -0.12409694846E+02 -0.49610492615E+03  0.49766262361E+03  0.00000000000E+00 0. -1.
        -15    1    1    2    0    0 -0.23865253396E+01 -0.44000849078E+00  0.40289201646E+02  0.40401319396E+02  0.17770000000E+01 0. -1.
         15    1    1    2    0    0 -0.14949359090E+02 -0.24228266492E+02  0.26468241935E+03  0.26621501287E+03  0.17770000000E+01 0.  1.
</event>
<event>
 6   1  0.1826851E-04  0.5020694E+03  0.7546771E-02  0.9395191E-01
        -11   -1    0    0    0    0  0.00000000000E+00  0.00000000000E+00  0.50000000000E+03  0.50000000000E+03  0.00000000000E+00 0. -1.
         11   -1    0    0    0    0 -0.00000000000E+00 -0.00000000000E+00 -0.50000000000E+03  0.50000000000E+03  0.00000000000E+00 0. -1.
        -11    1    1    2    0    0 -0.81635809002E+01  0.60311520714E+01  0.48189375532E+03  0.48200063305E+03  0.00000000000E+00 0. -1.
         11    1    1    2    0    0  0.78473365565E+01  0.23867588357E+01 -0.49786299733E+03  0.49793055883E+03  0.00000000000E+00 0. -1.
        -15    1    1    2    0    0 -0.67189959552E+00 -0.49518959590E+01  0.15035243392E+02  0.15943305665E+02  0.17770000000E+01 0.  1.
         15    1    1    2    0    0  0.98814393918E+00 -0.34660149481E+01  0.93399861475E+00  0.41255024515E+01  0.17770000000E+01 0. -1.
</event>
<event>
 6   1  0.1826851E-04  0.5216445E+03  0.7546771E-02  0.9352640E-01
        -11   -1    0    0    0    0  0.00000000000E+00  0.00000000000E+00  0.50000000000E+03  0.50000000000E+03  0.00000000000E+00 0. -1.
         11   -1    0    0    0    0 -0.00000000000E+00 -0.00000000000E+00 -0.50000000000E+03  0.50000000000E+03  0.00000000000E+00 0.  1.
        -11    1    1    2    0    0 -0.93989412690E+02 -0.37328953202E+02  0.73359579746E+02  0.12493633733E+03  0.00000000000E+00 0. -1.
         11    1    1    2    0    0  0.56757719566E+02  0.12452842385E+03 -0.45836148676E+03  0.47835553684E+03  0.00000000000E+00 0.  1.
        -15    1    1    2    0    0  0.23303023466E+01 -0.57997808841E+01  0.39490589804E+02  0.40021646385E+02  0.17770000000E+01 0.  1.
         15    1    1    2    0    0  0.34901390777E+02 -0.81399689767E+02  0.34551131721E+03  0.35668647945E+03  0.17770000000E+01 0. -1.
</event>
<event>
 6   1  0.1826851E-04  0.5025266E+03  0.7546771E-02  0.9394174E-01
        -11   -1    0    0    0    0  0.00000000000E+00  0.00000000000E+00  0.50000000000E+03  0.50000000000E+03  0.00000000000E+00 0. -1.
         11   -1    0    0    0    0 -0.00000000000E+00 -0.00000000000E+00 -0.50000000000E+03  0.50000000000E+03  0.00000000000E+00 0.  1.
        -11    1    1    2    0    0  0.15375174365E+01 -0.14235835565E+02  0.47925231090E+03  0.47946616197E+03  0.00000000000E+00 0. -1.
         11    1    1    2    0    0  0.59132227324E+01  0.66229177225E+01 -0.49739414485E+03  0.49747338077E+03  0.00000000000E+00 0.  1.
        -15    1    1    2    0    0 -0.86621290322E+01  0.72659515888E+01  0.12181308551E+02  0.16714321370E+02  0.17770000000E+01 0. -1.
         15    1    1    2    0    0  0.12113888633E+01  0.34696625368E+00  0.59605254071E+01  0.63461358864E+01  0.17770000000E+01 0.  1.
</event>
<event>
 6   1  0.1826851E-04  0.5005063E+03  0.7546771E-02  0.9398678E-01
        -11   -1    0    0    0    0  0.00000000000E+00  0.00000000000E+00  0.50000000000E+03  0.50000000000E+03  0.00000000000E+00 0.  1.
         11   -1    0    0    0    0 -0.00000000000E+00 -0.00000000000E+00 -0.50000000000E+03  0.50000000000E+03  0.00000000000E+00 0.  1.
        -11    1    1    2    0    0 -0.75567164631E+00 -0.51747510880E+01  0.15371106341E+02  0.16236378864E+02  0.00000000000E+00 0.  1.
         11    1    1    2    0    0 -0.66776260362E+01  0.66282881592E+01 -0.49940511093E+03  0.49949373341E+03  0.00000000000E+00 0.  1.
        -15    1    1    2    0    0  0.20501961186E+01 -0.64546818927E+01  0.16861962329E+03  0.16876492915E+03  0.17770000000E+01 0. -1.
         15    1    1    2    0    0  0.53831015639E+01  0.50011448214E+01  0.31541438130E+03  0.31550495858E+03  0.17770000000E+01 0.  1.
</event>
<event>
 6   1  0.1826851E-04  0.4906658E+03  0.7546771E-02  0.9420941E-01
        -11   -1    0    0    0    0  0.00000000000E+00  0.00000000000E+00  0.50000000000E+03  0.50000000000E+03  0.00000000000E+00 0.  1.
         11   -1    0    0    0    0 -0.00000000000E+00 -0.00000000000E+00 -0.50000000000E+03  0.50000000000E+03  0.00000000000E+00 0.  1.
        -11    1    1    2    0    0 -0.33978673016E+01 -0.14249648916E+02  0.49341156272E+03  0.49362897831E+03  0.00000000000E+00 0.  1.
         11    1    1    2    0    0 -0.86728234379E+01  0.37073711903E+01 -0.48775857827E+03  0.48784976493E+03  0.00000000000E+00 0.  1.
        -15    1    1    2    0    0  0.15564861536E+01 -0.34364277874E+00 -0.53533033530E+00  0.24464355854E+01  0.17770000000E+01 0. -1.
         15    1    1    2    0    0  0.10514204586E+02  0.10885920505E+02 -0.51176541203E+01  0.16074821181E+02  0.17770000000E+01 0.  1.
</event>
<event>
 6   1  0.1826851E-04  0.5106975E+03  0.7546771E-02  0.9376186E-01
        -11   -1    0    0    0    0  0.00000000000E+00  0.00000000000E+00  0.50000000000E+03  0.50000000000E+03  0.00000000000E+00 0.  1.
         11   -1    0    0    0    0 -0.00000000000E+00 -0.00000000000E+00 -0.50000000000E+03  0.50000000000E+03  0.00000000000E+00 0. -1.
        -11    1    1    2    0    0 -0.28273878768E+01 -0.47056135378E+02  0.38820979016E+03  0.39106152352E+03  0.00000000000E+00 0.  1.
         11    1    1    2    0    0  0.23854938799E+02 -0.74386180871E+01 -0.48866406771E+03  0.48930252627E+03  0.00000000000E+00 0. -1.
        -15    1    1    2    0    0 -0.19265594979E+02  0.16675497513E+02  0.28225858303E+02  0.38066943312E+02  0.17770000000E+01 0. -1.
         15    1    1    2    0    0 -0.17619559432E+01  0.37819255953E+02  0.72228419252E+02  0.81569006898E+02  0.17770000000E+01 0.  1.
</event>
<event>
 6   1  0.1826851E-04  0.4861437E+03  0.7546771E-02  0.9431359E-01
        -11   -1    0    0    0    0  0.00000000000E+00  0.00000000000E+00  0.50000000000E+03  0.50000000000E+03  0.00000000000E+00 0. -1.
         11   -1    0    0    0    0 -0.00000000000E+00 -0.00000000000E+00 -0.50000000000E+03  0.50000000000E+03  0.00000000000E+00 0. -1.
        -11    1    1    2    0    0  0.10463146753E+02  0.90922498150E+01  0.48445545503E+03  0.48465372624E+03  0.00000000000E+00 0. -1.
         11    1    1    2    0    0  0.92245568804E+01  0.45430764681E+00 -0.48779819772E+03  0.48788562240E+03  0.00000000000E+00 0. -1.
        -15    1    1    2    0    0 -0.68389923887E+01 -0.77793899634E+00 -0.59356946177E+01  0.92610585556E+01  0.17770000000E+01 0. -1.
         15    1    1    2    0    0 -0.12848711244E+02 -0.87686184654E+01  0.92784373114E+01  0.18199592808E+02  0.17770000000E+01 0.  1.
</event>
<event>
 6   1  0.1826851E-04  0.5011118E+03  0.7546771E-02  0.9397325E-01
        -11   -1    0    0    0    0  0.00000000000E+00  0.00000000000E+00  0.50000000000E+03  0.50000000000E+03  0.00000000000E+00 0. -1.
         11   -1    0    0    0    0 -0.00000000000E+00 -0.00000000000E+00 -0.50000000000E+03  0.50000000000E+03  0.00000000000E+00 0.  1.
        -11    1    1    2    0    0 -0.83014692777E+01 -0.15318272819E+02  0.36356668451E+03  0.36398392541E+03  0.00000000000E+00 0. -1.
         11    1    1    2    0    0  0.18182557313E+01  0.12661375238E+02 -0.49872418630E+03  0.49888819436E+03  0.00000000000E+00 0.  1.
        -15    1    1    2    0    0  0.37608796219E+01 -0.69151839928E+01  0.20585037331E+02  0.22110302488E+02  0.17770000000E+01 0.  1.
         15    1    1    2    0    0  0.27223339246E+01  0.95720815736E+01  0.11457246446E+03  0.11501757774E+03  0.17770000000E+01 0. -1.
</event>
<event>
 6   1  0.1826851E-04  0.5010643E+03  0.7546771E-02  0.9397431E-01
        -11   -1    0    0    0    0  0.00000000000E+00  0.00000000000E+00  0.50000000000E+03  0.50000000000E+03  0.00000000000E+00 0.  1.
         11   -1    0    0    0    0 -0.00000000000E+00 -0.00000000000E+00 -0.50000000000E+03  0.50000000000E+03  0.00000000000E+00 0. -1.
        -11    1    1    2    0    0 -0.79337307355E+01  0.12264746402E+02  0.49872179602E+03  0.49893566510E+03  0.00000000000E+00 0.  1.
         11    1    1    2    0    0  0.77829243437E+01  0.66938647260E+01 -0.38950941745E+03  0.38964466892E+03  0.00000000000E+00 0. -1.
        -15    1    1    2    0    0 -0.11153052175E+01 -0.39324295325E+01 -0.53180407188E+02  0.53366856244E+02  0.17770000000E+01 0. -1.
         15    1    1    2    0    0  0.12661116092E+01 -0.15026181596E+02 -0.56031971383E+02  0.58052809734E+02  0.17770000000E+01 0.  1.
</event>
<event>
 6   1  0.1826851E-04  0.5029526E+03  0.7546771E-02  0.9393227E-01
        -11   -1    0    0    0    0  0.00000000000E+00  0.00000000000E+00  0.50000000000E+03  0.50000000000E+03  0.00000000000E+00 0.  1.
         11   -1    0    0    0    0 -0.00000000000E+00 -0.00000000000E+00 -0.50000000000E+03  0.50000000000E+03  0.00000000000E+00 0. -1.
        -11    1    1    2    0    0  0.13364941945E+02  0.72106839816E+01  0.49681532909E+03  0.49704736883E+03  0.00000000000E+00 0.  1.
         11    1    1    2    0    0 -0.51247365504E+01 -0.11342860429E+02 -0.45234548461E+03  0.45251669677E+03  0.00000000000E+00 0. -1.
        -15    1    1    2    0    0  0.47490238579E+01  0.77398872885E+01 -0.25253697791E+02  0.26895465491E+02  0.17770000000E+01 0. -1.
         15    1    1    2    0    0 -0.12989229252E+02 -0.36077108415E+01 -0.19216146688E+02  0.23540468912E+02  0.17770000000E+01 0.  1.
</event>
<event>
 6   1  0.1826851E-04  0.5012317E+03  0.7546771E-02  0.9397058E-01
        -11   -1    0    0    0    0  0.00000000000E+00  0.00000000000E+00  0.50000000000E+03  0.50000000000E+03  0.00000000000E+00 0. -1.
         11   -1    0    0    0    0 -0.00000000000E+00 -0.00000000000E+00 -0.50000000000E+03  0.50000000000E+03  0.00000000000E+00 0. -1.
        -11    1    1    2    0    0  0.16413216126E+02  0.13324188551E+02  0.49832008762E+03  0.49876832036E+03  0.00000000000E+00 0. -1.
         11    1    1    2    0    0 -0.32764864689E+01  0.45463117886E+01 -0.40188992580E+03  0.40192899469E+03  0.00000000000E+00 0. -1.
        -15    1    1    2    0    0 -0.67739556610E+01 -0.40546629539E+01 -0.41286096187E+02  0.42071679719E+02  0.17770000000E+01 0.  1.
         15    1    1    2    0    0 -0.63627739963E+01 -0.13815837386E+02 -0.55144065635E+02  0.57231005228E+02  0.17770000000E+01 0. -1.
</event>
<event>
 6   1  0.1826851E-04  0.5035657E+03  0.7546771E-02  0.9391866E-01
        -11   -1    0    0    0    0  0.00000000000E+00  0.00000000000E+00  0.50000000000E+03  0.50000000000E+03  0.00000000000E+00 0. -1.
         11   -1    0    0    0    0 -0.00000000000E+00 -0.00000000000E+00 -0.50000000000E+03  0.50000000000E+03  0.00000000000E+00 0.  1.
        -11    1    1    2    0    0 -0.15930731854E+02 -0.47635104728E+02  0.49388671273E+03  0.49643426194E+03  0.00000000000E+00 0. -1.
         11    1    1    2    0    0 -0.54663635703E+01  0.48714964830E+01 -0.30891734842E+03  0.30900411125E+03  0.00000000000E+00 0.  1.
        -15    1    1    2    0    0  0.73113453200E+01  0.44309345632E+02 -0.15462958819E+03  0.16102869667E+03  0.17770000000E+01 0.  1.
         15    1    1    2    0    0  0.14085750104E+02 -0.15457373862E+01 -0.30339776117E+02  0.33532930142E+02  0.17770000000E+01 0. -1.
</event>
<event>
 6   1  0.1826851E-04  0.5068185E+03  0.7546771E-02  0.9384681E-01
        -11   -1    0    0    0    0  0.00000000000E+00  0.00000000000E+00  0.50000000000E+03  0.50000000000E+03  0.00000000000E+00 0. -1.
         11   -1    0    0    0    0 -0.00000000000E+00 -0.00000000000E+00 -0.50000000000E+03  0.50000000000E+03  0.00000000000E+00 0. -1.
        -11    1    1    2    0    0  0.70734384435E+02 -0.26267839778E+01  0.48807549689E+03  0.49318145119E+03  0.00000000000E+00 0. -1.
         11    1    1    2    0    0  0.10466065839E+02 -0.90054819750E+01 -0.23348348640E+03  0.23389137578E+03  0.00000000000E+00 0. -1.
        -15    1    1    2    0    0 -0.64715599527E+02 -0.13487880544E+02 -0.14671702796E+03  0.16093189791E+03  0.17770000000E+01 0. -1.
         15    1    1    2    0    0 -0.16484850746E+02  0.25120146496E+02 -0.10787498253E+03  0.11199527512E+03  0.17770000000E+01 0.  1.
</event>
<event>
 6   1  0.1826851E-04  0.5006365E+03  0.7546771E-02  0.9398387E-01
        -11   -1    0    0    0    0  0.00000000000E+00  0.00000000000E+00  0.50000000000E+03  0.50000000000E+03  0.00000000000E+00 0.  1.
         11   -1    0    0    0    0 -0.00000000000E+00 -0.00000000000E+00 -0.50000000000E+03  0.50000000000E+03  0.00000000000E+00 0. -1.
        -11    1    1    2    0    0 -0.50464240560E+01  0.12478190325E+02  0.49918201857E+03  0.49936345410E+03  0.00000000000E+00 0.  1.
         11    1    1    2    0    0 -0.52410100351E+01  0.47346239066E+01 -0.28529478792E+03  0.28538220138E+03  0.00000000000E+00 0. -1.
        -15    1    1    2    0    0  0.48080827825E+01 -0.15787490997E+01 -0.21970096663E+02  0.22615326332E+02  0.17770000000E+01 0. -1.
         15    1    1    2    0    0  0.54793513086E+01 -0.15634065132E+02 -0.19191713398E+03  0.19263901819E+03  0.17770000000E+01 0.  1.
</event>
<event>
 6   1  0.1826851E-04  0.5050535E+03  0.7546771E-02  0.9388573E-01
        -11   -1    0    0    0    0  0.00000000000E+00  0.00000000000E+00  0.50000000000E+03  0.50000000000E+03  0.00000000000E+00 0.  1.
         11   -1    0    0    0    0 -0.00000000000E+00 -0.00000000000E+00 -0.50000000000E+03  0.50000000000E+03  0.00000000000E+00 0.  1.
        -11    1    1    2    0    0  0.57085847862E+01  0.31790342460E+02  0.40171699153E+03  0.40301334357E+03  0.00000000000E+00 0.  1.
         11    1    1    2    0    0  0.17347979216E+02 -0.18682740377E+01 -0.49463884115E+03  0.49494648803E+03  0.00000000000E+00 0.  1.
        -15    1    1    2    0    0 -0.81402182939E+01 -0.11303989247E+02  0.58232780297E+02  0.59902068052E+02  0.17770000000E+01 0. -1.
         15    1    1    2    0    0 -0.14916345708E+02 -0.18618079175E+02  0.34689069330E+02  0.42138100354E+02  0.17770000000E+01 0.  1.
</event>
<event>
 6   1  0.1826851E-04  0.5048631E+03  0.7546771E-02  0.9388993E-01
        -11   -1    0    0    0    0  0.00000000000E+00  0.00000000000E+00  0.50000000000E+03  0.50000000000E+03  0.00000000000E+00 0.  1.
         11   -1    0    0    0    0 -0.00000000000E+00 -0.00000000000E+00 -0.50000000000E+03  0.50000000000E+03  0.00000000000E+00 0. -1.
        -11    1    1    2    0    0  0.86010974703E+01 -0.10895174140E+02  0.48319751424E+03  0.48339685711E+03  0.00000000000E+00 0.  1.
         11    1    1    2    0    0  0.60824567587E+01  0.30925177908E+01 -0.49508986204E+03  0.49513688152E+03  0.00000000000E+00 0. -1.
        -15    1    1    2    0    0 -0.87054177548E+01  0.56876224609E+01  0.10183348153E+02  0.14662593773E+02  0.17770000000E+01 0.  1.
         15    1    1    2    0    0 -0.59781364741E+01  0.21150338880E+01  0.17089996483E+01  0.68036676027E+01  0.17770000000E+01 0. -1.
</event>
<event>
 6   1  0.1826851E-04  0.5001202E+03  0.7546771E-02  0.9399541E-01
        -11   -1    0    0    0    0  0.00000000000E+00  0.00000000000E+00  0.50000000000E+03  0.50000000000E+03  0.00000000000E+00 0.  1.
         11   -1    0    0    0    0 -0.00000000000E+00 -0.00000000000E+00 -0.50000000000E+03  0.50000000000E+03  0.00000000000E+00 0.  1.
        -11    1    1    2    0    0  0.11639044438E+01 -0.12197134649E+02  0.29630205589E+03  0.29655527831E+03  0.00000000000E+00 0.  1.
         11    1    1    2    0    0 -0.26479365336E+01  0.12157798384E+02 -0.49972492970E+03  0.49987981455E+03  0.00000000000E+00 0.  1.
        -15    1    1    2    0    0 -0.40349879360E+00 -0.19455503790E+01  0.31967037491E+02  0.32077986104E+02  0.17770000000E+01 0.  1.
         15    1    1    2    0    0  0.18875308834E+01  0.19848866445E+01  0.17145583632E+03  0.17148692103E+03  0.17770000000E+01 0.  1.
</event>
<event>
 6   1  0.1826851E-04  0.5017478E+03  0.7546771E-02  0.9395907E-01
        -11   -1    0    0    0    0  0.00000000000E+00  0.00000000000E+00  0.50000000000E+03  0.50000000000E+03  0.00000000000E+00 0.  1.
         11   -1    0    0    0    0 -0.00000000000E+00 -0.00000000000E+00 -0.50000000000E+03  0.50000000000E+03  0.00000000000E+00 0.  1.
        -11    1    1    2    0    0 -0.16341875947E+02  0.12132841608E+02  0.35225915880E+03  0.35284667735E+03  0.00000000000E+00 0.  1.
         11    1    1    2    0    0 -0.96067464301E+00  0.10090395860E+02 -0.49814908727E+03  0.49825219732E+03  0.00000000000E+00 0.  1.
        -15    1    1    2    0    0  0.17311438226E+02 -0.18597382325E+02  0.11776101508E+03  0.12048386997E+03  0.17770000000E+01 0.  1.
         15    1    1    2    0    0 -0.88876355673E-02 -0.36258551426E+01  0.28128913393E+02  0.28417255360E+02  0.17770000000E+01 0. -1.
</event>
<event>
 6   1  0.1826851E-04  0.5023915E+03  0.7546771E-02  0.9394474E-01
        -11   -1    0    0    0    0  0.00000000000E+00  0.00000000000E+00  0.50000000000E+03  0.50000000000E+03  0.00000000000E+00 0. -1.
         11   -1    0    0    0    0 -0.00000000000E+00 -0.00000000000E+00 -0.50000000000E+03  0.50000000000E+03  0.00000000000E+00 0.  1.
        -11    1    1    2    0    0 -0.82940574434E+01  0.56487175096E+01  0.49750728822E+03  0.49760848187E+03  0.00000000000E+00 0. -1.
         11    1    1    2    0    0  0.35605563367E+01  0.78266181723E+01 -0.47124324504E+03  0.47132168368E+03  0.00000000000E+00 0.  1.
        -15    1    1    2    0    0  0.62148576923E+01 -0.95129294964E+01 -0.14959998380E+02  0.18870070595E+02  0.17770000000E+01 0.  1.
         15    1    1    2    0    0 -0.14813565856E+01 -0.39624061855E+01 -0.11304044802E+02  0.12199763850E+02  0.17770000000E+01 0. -1.
</event>
<event>
 6   1  0.1826851E-04  0.5035414E+03  0.7546771E-02  0.9391920E-01
        -11   -1    0    0    0    0  0.00000000000E+00  0.00000000000E+00  0.50000000000E+03  0.50000000000E+03  0.00000000000E+00 0. -1.
         11   -1    0    0    0    0 -0.00000000000E+00 -0.00000000000E+00 -0.50000000000E+03  0.50000000000E+03  0.00000000000E+00 0. -1.
        -11    1    1    2    0    0  0.89205945481E+01 -0.14811154464E+02  0.49615747486E+03  0.49645864597E+03  0.00000000000E+00 0. -1.
         11    1    1    2    0    0 -0.72194923596E+01  0.25555370669E+01 -0.48560511713E+03  0.48566550384E+03  0.00000000000E+00 0. -1.
        -15    1    1    2    0    0 -0.36422782138E+00  0.16073677321E+01  0.38037732214E+00  0.24533056962E+01  0.17770000000E+01 0.  1.
         15    1    1    2    0    0 -0.13368743671E+01  0.10648249665E+02 -0.10932735052E+02  0.15422544496E+02  0.17770000000E+01 0. -1.
</event>
<event>
 6   1  0.1826851E-04  0.5012273E+03  0.7546771E-02  0.9397068E-01
        -11   -1    0    0    0    0  0.00000000000E+00  0.00000000000E+00  0.50000000000E+03  0.50000000000E+03  0.00000000000E+00 0.  1.
         11   -1    0    0    0    0 -0.00000000000E+00 -0.00000000000E+00 -0.50000000000E+03  0.50000000000E+03  0.00000000000E+00 0.  1.
        -11    1    1    2    0    0 -0.70108671387E+01  0.83311662780E+01  0.19237070350E+03  0.19267861364E+03  0.00000000000E+00 0.  1.
         11    1    1    2    0    0 -0.41245653240E+01 -0.63378945558E+01 -0.49871532658E+03  0.49877265153E+03  0.00000000000E+00 0.  1.
        -15    1    1    2    0    0  0.82950356564E+01  0.15892187762E+01  0.30160312870E+03  0.30172659512E+03  0.17770000000E+01 0.  1.
         15    1    1    2    0    0  0.28403968063E+01 -0.35824904984E+01  0.47414943874E+01  0.68221397094E+01  0.17770000000E+01 0. -1.
</event>
<event>
 6   1  0.1826851E-04  0.5000806E+03  0.7546771E-02  0.9399629E-01
        -11   -1    0    0    0    0  0.00000000000E+00  0.00000000000E+00  0.50000000000E+03  0.50000000000E+03  0.00000000000E+00 0.  1.
         11   -1    0    0    0    0 -0.00000000000E+00 -0.00000000000E+00 -0.50000000000E+03  0.50000000000E+03  0.00000000000E+00 0.  1.
        -11    1    1    2    0    0  0.14446816056E+02  0.52851982605E+01  0.49968270671E+03  0.49991944471E+03  0.00000000000E+00 0.  1.
         11    1    1    2    0    0 -0.13363145580E+02 -0.58480099376E+01 -0.34390831503E+03  0.34421752138E+03  0.00000000000E+00 0.  1.
        -15    1    1    2    0    0  0.95704629172E+00 -0.82704422366E+00 -0.73764042281E+02  0.73796284475E+02  0.17770000000E+01 0. -1.
         15    1    1    2    0    0 -0.20407167685E+01  0.13898559008E+01 -0.82010349401E+02  0.82066749432E+02  0.17770000000E+01 0.  1.
</event>
<event>
 6   1  0.1826851E-04  0.5026544E+03  0.7546771E-02  0.9393890E-01
        -11   -1    0    0    0    0  0.00000000000E+00  0.00000000000E+00  0.50000000000E+03  0.50000000000E+03  0.00000000000E+00 0. -1.
         11   -1    0    0    0    0 -0.00000000000E+00 -0.00000000000E+00 -0.50000000000E+03  0.50000000000E+03  0.00000000000E+00 0.  1.
        -11    1    1    2    0    0 -0.56308209365E+01  0.53013345725E+01  0.47439175163E+03  0.47445478637E+03  0.00000000000E+00 0. -1.
         11    1    1    2    0    0 -0.36346184339E+00  0.72600710514E+01 -0.49729244401E+03  0.49734556961E+03  0.00000000000E+00 0.  1.
        -15    1    1    2    0    0  0.72609751839E+01 -0.75899207985E+01  0.17833415998E+02  0.20772989999E+02  0.17770000000E+01 0.  1.
         15    1    1    2    0    0 -0.12666924040E+01 -0.49714848254E+01  0.50672763817E+01  0.74266540207E+01  0.17770000000E+01 0. -1.
</event>
<event>
 6   1  0.1826851E-04  0.5035432E+03  0.7546771E-02  0.9391916E-01
        -11   -1    0    0    0    0  0.00000000000E+00  0.00000000000E+00  0.50000000000E+03  0.50000000000E+03  0.00000000000E+00 0. -1.
         11   -1    0    0    0    0 -0.00000000000E+00 -0.00000000000E+00 -0.50000000000E+03  0.50000000000E+03  0.00000000000E+00 0.  1.
        -11    1    1    2    0    0 -0.21614926681E+02  0.10696252578E+01  0.38822468847E+03  0.38882741401E+03  0.00000000000E+00 0. -1.
         11    1    1    2    0    0 -0.21418889018E+01 -0.78353346464E+01 -0.49639037206E+03  0.49645682756E+03  0.00000000000E+00 0.  1.
        -15    1    1    2    0    0  0.67741972720E+01 -0.93185255286E+00  0.26424042931E+01  0.75430847343E+01  0.17770000000E+01 0. -1.
         15    1    1    2    0    0  0.16982618311E+02  0.76975619414E+01  0.10552327930E+03  0.10717267370E+03  0.17770000000E+01 0.  1.
</event>
<event>
 6   1  0.1826851E-04  0.5097416E+03  0.7546771E-02  0.9378272E-01
        -11   -1    0    0    0    0  0.00000000000E+00  0.00000000000E+00  0.50000000000E+03  0.50000000000E+03  0.00000000000E+00 0. -1.
         11   -1    0    0    0    0 -0.00000000000E+00 -0.00000000000E+00 -0.50000000000E+03  0.50000000000E+03  0.00000000000E+00 0. -1.
        -11    1    1    2    0    0  0.22764188558E+02 -0.10876101655E+02  0.48960882849E+03  0.49025840412E+03  0.00000000000E+00 0. -1.
         11    1    1    2    0    0  0.16254012318E+02  0.46316606400E+01 -0.45113788186E+03  0.45145435389E+03  0.00000000000E+00 0. -1.
        -15    1    1    2    0    0 -0.11187772147E+02  0.29465057177E+01 -0.23987122688E+02  0.26690596198E+02  0.17770000000E+01 0. -1.
         15    1    1    2    0    0 -0.27830428729E+02  0.32979352975E+01 -0.14483823948E+02  0.31596645798E+02  0.17770000000E+01 0.  1.
</event>
<event>
 6   1  0.1826851E-04  0.5000737E+03  0.7546771E-02  0.9399645E-01
        -11   -1    0    0    0    0  0.00000000000E+00  0.00000000000E+00  0.50000000000E+03  0.50000000000E+03  0.00000000000E+00 0. -1.
         11   -1    0    0    0    0 -0.00000000000E+00 -0.00000000000E+00 -0.50000000000E+03  0.50000000000E+03  0.00000000000E+00 0. -1.
        -11    1    1    2    0    0  0.54635598688E+01  0.45363387891E+01  0.12623909036E+03  0.12643866810E+03  0.00000000000E+00 0. -1.
         11    1    1    2    0    0 -0.89170591258E+01 -0.89855984424E+01 -0.49976599779E+03  0.49992630203E+03  0.00000000000E+00 0. -1.
        -15    1    1    2    0    0  0.13407608190E+01  0.54655953979E+01  0.27879724708E+03  0.27885970143E+03  0.17770000000E+01 0. -1.
         15    1    1    2    0    0  0.21127384381E+01 -0.10163357447E+01  0.94729660348E+02  0.94775328439E+02  0.17770000000E+01 0.  1.
</event>
<event>
 6   1  0.1826851E-04  0.5020158E+03  0.7546771E-02  0.9395310E-01
        -11   -1    0    0    0    0  0.00000000000E+00  0.00000000000E+00  0.50000000000E+03  0.50000000000E+03  0.00000000000E+00 0.  1.
         11   -1    0    0    0    0 -0.00000000000E+00 -0.00000000000E+00 -0.50000000000E+03  0.50000000000E+03  0.00000000000E+00 0. -1.
        -11    1    1    2    0    0  0.82028003878E+01  0.19050472689E+02  0.49755204304E+03  0.49798417844E+03  0.00000000000E+00 0.  1.
         11    1    1    2    0    0  0.51842879063E+01 -0.21249151734E+01 -0.39065315519E+03  0.39069333212E+03  0.00000000000E+00 0. -1.
        -15    1    1    2    0    0 -0.49632006619E+01 -0.20651406446E+02 -0.65767871223E+02  0.69135262806E+02  0.17770000000E+01 0.  1.
         15    1    1    2    0    0 -0.84238876322E+01  0.37258489298E+01 -0.41131016627E+02  0.42187226632E+02  0.17770000000E+01 0. -1.
</event>
<event>
 6   1  0.1826851E-04  0.4645855E+03  0.7546771E-02  0.9482737E-01
        -11   -1    0    0    0    0  0.00000000000E+00  0.00000000000E+00  0.50000000000E+03  0.50000000000E+03  0.00000000000E+00 0. -1.
         11   -1    0    0    0    0 -0.00000000000E+00 -0.00000000000E+00 -0.50000000000E+03  0.50000000000E+03  0.00000000000E+00 0. -1.
        -11    1    1    2    0    0  0.69368893112E+02  0.15440566376E+02 -0.83135638934E+01  0.71551168867E+02  0.00000000000E+00 0. -1.
         11    1    1    2    0    0 -0.23563774011E+02 -0.16654439434E+02 -0.45676785661E+03  0.45767837685E+03  0.00000000000E+00 0. -1.
        -15    1    1    2    0    0  0.12795643425E+02 -0.95985772428E+00  0.12459139886E+03  0.12526302015E+03  0.17770000000E+01 0.  1.
         15    1    1    2    0    0 -0.58600762526E+02  0.21737307828E+01  0.34049002165E+03  0.34550743414E+03  0.17770000000E+01 0. -1.
</event>
<event>
 6   1  0.1826851E-04  0.5002853E+03  0.7546771E-02  0.9399172E-01
        -11   -1    0    0    0    0  0.00000000000E+00  0.00000000000E+00  0.50000000000E+03  0.50000000000E+03  0.00000000000E+00 0. -1.
         11   -1    0    0    0    0 -0.00000000000E+00 -0.00000000000E+00 -0.50000000000E+03  0.50000000000E+03  0.00000000000E+00 0.  1.
        -11    1    1    2    0    0  0.22089835782E+00 -0.95932258504E+01  0.49962256935E+03  0.49971470919E+03  0.00000000000E+00 0. -1.
         11    1    1    2    0    0 -0.51151419859E+01  0.39292498910E+01 -0.41291027420E+03  0.41296064973E+03  0.00000000000E+00 0.  1.
        -15    1    1    2    0    0  0.31562938718E+01  0.31692263648E+01 -0.22172846634E+02  0.22689183406E+02  0.17770000000E+01 0.  1.
         15    1    1    2    0    0  0.17379497562E+01  0.24947495946E+01 -0.64539448518E+02  0.64635457675E+02  0.17770000000E+01 0. -1.
</event>
<event>
 6   1  0.1826851E-04  0.5068443E+03  0.7546771E-02  0.9384624E-01
        -11   -1    0    0    0    0  0.00000000000E+00  0.00000000000E+00  0.50000000000E+03  0.50000000000E+03  0.00000000000E+00 0.  1.
         11   -1    0    0    0    0 -0.00000000000E+00 -0.00000000000E+00 -0.50000000000E+03  0.50000000000E+03  0.00000000000E+00 0. -1.
        -11    1    1    2    0    0  0.51961705179E+01 -0.17222348435E+02  0.49282750188E+03  0.49315571180E+03  0.00000000000E+00 0.  1.
         11    1    1    2    0    0 -0.15576208286E+01 -0.14134874454E+02 -0.44126883017E+03  0.44149790638E+03  0.00000000000E+00 0. -1.
        -15    1    1    2    0    0  0.76664373278E+00  0.92049487556E+01 -0.37548180618E+02  0.38708428293E+02  0.17770000000E+01 0.  1.
         15    1    1    2    0    0 -0.44051934220E+01  0.22152274134E+02 -0.14010491090E+02  0.26637953525E+02  0.17770000000E+01 0. -1.
</event>
<event>
 6   1  0.1826851E-04  0.5011105E+03  0.7546771E-02  0.9397328E-01
        -11   -1    0    0    0    0  0.00000000000E+00  0.00000000000E+00  0.50000000000E+03  0.50000000000E+03  0.00000000000E+00 0.  1.
         11   -1    0    0    0    0 -0.00000000000E+00 -0.00000000000E+00 -0.50000000000E+03  0.50000000000E+03  0.00000000000E+00 0.  1.
        -11    1    1    2    0    0 -0.99805757747E+01  0.71876251523E+01  0.10863278364E+03  0.10932682896E+03  0.00000000000E+00 0.  1.
         11    1    1    2    0    0  0.87073841312E+01  0.82265164514E+01 -0.49874566465E+03  0.49888949890E+03  0.00000000000E+00 0.  1.
        -15    1    1    2    0    0 -0.58897886921E+01 -0.56224964228E+00  0.13965290362E+02  0.15270651571E+02  0.17770000000E+01 0. -1.
         15    1    1    2    0    0  0.71629803357E+01 -0.14851891961E+02  0.37614759064E+03  0.37651302057E+03  0.17770000000E+01 0.  1.
</event>
<event>
 6   1  0.1826851E-04  0.5021569E+03  0.7546771E-02  0.9394996E-01
        -11   -1    0    0    0    0  0.00000000000E+00  0.00000000000E+00  0.50000000000E+03  0.50000000000E+03  0.00000000000E+00 0.  1.
         11   -1    0    0    0    0 -0.00000000000E+00 -0.00000000000E+00 -0.50000000000E+03  0.50000000000E+03  0.00000000000E+00 0.  1.
        -11    1    1    2    0    0 -0.50476417286E+01  0.13622490179E+02  0.42341826777E+03  0.42366741722E+03  0.00000000000E+00 0.  1.
         11    1    1    2    0    0  0.34492722630E+01  0.83299492881E+01 -0.49776143932E+03  0.49784308372E+03  0.00000000000E+00 0.  1.
        -15    1    1    2    0    0  0.49380199878E+01 -0.72648354388E+01  0.17548689129E+02  0.19704722645E+02  0.17770000000E+01 0. -1.
         15    1    1    2    0    0 -0.33396505222E+01 -0.14687604028E+02  0.56794482411E+02  0.58784776422E+02  0.17770000000E+01 0.  1.
</event>
<event>
 6   1  0.1826851E-04  0.5029966E+03  0.7546771E-02  0.9393130E-01
        -11   -1    0    0    0    0  0.00000000000E+00  0.00000000000E+00  0.50000000000E+03  0.50000000000E+03  0.00000000000E+00 0.  1.
         11   -1    0    0    0    0 -0.00000000000E+00 -0.00000000000E+00 -0.50000000000E+03  0.50000000000E+03  0.00000000000E+00 0. -1.
        -11    1    1    2    0    0  0.51054335110E+01  0.82021744046E+01  0.47656141804E+03  0.47665933986E+03  0.00000000000E+00 0.  1.
         11    1    1    2    0    0 -0.60279317029E+01 -0.43902804733E+01 -0.49694750066E+03  0.49700344962E+03  0.00000000000E+00 0. -1.
        -15    1    1    2    0    0  0.55185339644E+01 -0.24848725383E+01  0.20274276404E+02  0.21232824149E+02  0.17770000000E+01 0.  1.
         15    1    1    2    0    0 -0.45960357726E+01 -0.13270213929E+01  0.11180621347E+00  0.51043863715E+01  0.17770000000E+01 0. -1.
</event>
<event>
 6   1  0.1826851E-04  0.4768147E+03  0.7546771E-02  0.9453237E-01
        -11   -1    0    0    0    0  0.00000000000E+00  0.00000000000E+00  0.50000000000E+03  0.50000000000E+03  0.00000000000E+00 0.  1.
         11   -1    0    0    0    0 -0.00000000000E+00 -0.00000000000E+00 -0.50000000000E+03  0.50000000000E+03  0.00000000000E+00 0. -1.
        -11    1    1    2    0    0  0.27467694279E+01  0.29680657672E+02  0.48400581907E+03  0.48492279702E+03  0.00000000000E+00 0.  1.
         11    1    1    2    0    0  0.91745472581E+01  0.84154306231E+01 -0.46948704122E+03  0.46965207725E+03  0.00000000000E+00 0. -1.
        -15    1    1    2    0    0 -0.15632491907E+02 -0.32245960210E+02 -0.12480387294E+02  0.37988084304E+02  0.17770000000E+01 0.  1.
         15    1    1    2    0    0  0.37111752213E+01 -0.58501280850E+01 -0.20383905501E+01  0.74370414257E+01  0.17770000000E+01 0. -1.
</event>
<event>
 6   1  0.1826851E-04  0.5082435E+03  0.7546771E-02  0.9381551E-01
        -11   -1    0    0    0    0  0.00000000000E+00  0.00000000000E+00  0.50000000000E+03  0.50000000000E+03  0.00000000000E+00 0. -1.
         11   -1    0    0    0    0 -0.00000000000E+00 -0.00000000000E+00 -0.50000000000E+03  0.50000000000E+03  0.00000000000E+00 0. -1.
        -11    1    1    2    0    0 -0.38383467468E+02  0.17394797578E+02  0.48994757147E+03  0.49175653768E+03  0.00000000000E+00 0. -1.
         11    1    1    2    0    0 -0.44624236594E+01  0.85670868958E+01 -0.42753741115E+03  0.42764652008E+03  0.00000000000E+00 0. -1.
        -15    1    1    2    0    0  0.39834828646E+02 -0.25039660635E+02 -0.55372623487E+02  0.72684821928E+02  0.17770000000E+01 0.  1.
         15    1    1    2    0    0  0.30110624813E+01 -0.92222383950E+00 -0.70375368355E+01  0.79121203092E+01  0.17770000000E+01 0. -1.
</event>
<event>
 6   1  0.1826851E-04  0.5203345E+03  0.7546771E-02  0.9355425E-01
        -11   -1    0    0    0    0  0.00000000000E+00  0.00000000000E+00  0.50000000000E+03  0.50000000000E+03  0.00000000000E+00 0.  1.
         11   -1    0    0    0    0 -0.00000000000E+00 -0.00000000000E+00 -0.50000000000E+03  0.50000000000E+03  0.00000000000E+00 0.  1.
        -11    1    1    2    0    0  0.22574566731E+02  0.19470715713E+02  0.47873825194E+03  0.47966554359E+03  0.00000000000E+00 0.  1.
         11    1    1    2    0    0  0.21453110602E+01 -0.57986858836E+01 -0.44860392210E+03  0.44864652683E+03  0.00000000000E+00 0.  1.
        -15    1    1    2    0    0 -0.29166025566E+02  0.76654563679E+01 -0.37913948404E+02  0.48477226419E+02  0.17770000000E+01 0.  1.
         15    1    1    2    0    0  0.44461477749E+01 -0.21337486198E+02  0.77796185627E+01  0.23210703162E+02  0.17770000000E+01 0. -1.
</event>
<event>
 6   1  0.1826851E-04  0.5001306E+03  0.7546771E-02  0.9399518E-01
        -11   -1    0    0    0    0  0.00000000000E+00  0.00000000000E+00  0.50000000000E+03  0.50000000000E+03  0.00000000000E+00 0. -1.
         11   -1    0    0    0    0 -0.00000000000E+00 -0.00000000000E+00 -0.50000000000E+03  0.50000000000E+03  0.00000000000E+00 0.  1.
        -11    1    1    2    0    0 -0.36775026407E+01  0.23034434640E+01  0.51281294447E+02  0.51464560987E+02  0.00000000000E+00 0. -1.
         11    1    1    2    0    0  0.28008272031E+01  0.64022620608E+01 -0.49982057861E+03  0.49986942734E+03  0.00000000000E+00 0.  1.
        -15    1    1    2    0    0  0.19486174268E+01 -0.50483249392E+01  0.33585397936E+03  0.33590227131E+03  0.17770000000E+01 0. -1.
         15    1    1    2    0    0 -0.10719419891E+01 -0.36573805855E+01  0.11268530480E+03  0.11276374036E+03  0.17770000000E+01 0.  1.
</event>
<event>
 6   1  0.1826851E-04  0.4907084E+03  0.7546771E-02  0.9420844E-01
        -11   -1    0    0    0    0  0.00000000000E+00  0.00000000000E+00  0.50000000000E+03  0.50000000000E+03  0.00000000000E+00 0. -1.
         11   -1    0    0    0    0 -0.00000000000E+00 -0.00000000000E+00 -0.50000000000E+03  0.50000000000E+03  0.00000000000E+00 0.  1.
        -11    1    1    2    0    0 -0.15382977668E+02 -0.93900073254E+00  0.49157823059E+03  0.49181975816E+03  0.00000000000E+00 0. -1.
         11    1    1    2    0    0  0.57653955675E+01 -0.95271860434E+01 -0.48957536539E+03  0.48970199658E+03  0.00000000000E+00 0.  1.
        -15    1    1    2    0    0  0.73946543558E+01  0.74165986672E+01  0.38431646270E+01  0.11296658452E+02  0.17770000000E+01 0.  1.
         15    1    1    2    0    0  0.22229277446E+01  0.30495881088E+01 -0.58460298242E+01  0.71815868091E+01  0.17770000000E+01 0. -1.
</event>
<event>
 6   1  0.1826851E-04  0.5028432E+03  0.7546771E-02  0.9393470E-01
        -11   -1    0    0    0    0  0.00000000000E+00  0.00000000000E+00  0.50000000000E+03  0.50000000000E+03  0.00000000000E+00 0.  1.
         11   -1    0    0    0    0 -0.00000000000E+00 -0.00000000000E+00 -0.50000000000E+03  0.50000000000E+03  0.00000000000E+00 0.  1.
        -11    1    1    2    0    0  0.12345167681E+02  0.69326627435E+01  0.49695514433E+03  0.49715679665E+03  0.00000000000E+00 0.  1.
         11    1    1    2    0    0  0.15468242662E+01  0.77019641836E+01 -0.45816454657E+03  0.45823188960E+03  0.00000000000E+00 0.  1.
        -15    1    1    2    0    0 -0.11688125648E+02 -0.11827317225E+02 -0.23720275066E+02  0.29022523876E+02  0.17770000000E+01 0.  1.
         15    1    1    2    0    0 -0.22038662987E+01 -0.28073097016E+01 -0.15070322696E+02  0.15588789869E+02  0.17770000000E+01 0. -1.
</event>
<event>
 6   1  0.1826851E-04  0.5028679E+03  0.7546771E-02  0.9393415E-01
        -11   -1    0    0    0    0  0.00000000000E+00  0.00000000000E+00  0.50000000000E+03  0.50000000000E+03  0.00000000000E+00 0.  1.
         11   -1    0    0    0    0 -0.00000000000E+00 -0.00000000000E+00 -0.50000000000E+03  0.50000000000E+03  0.00000000000E+00 0.  1.
        -11    1    1    2    0    0  0.72904730797E+02  0.28417869847E+01  0.49174906826E+03  0.49713209679E+03  0.00000000000E+00 0.  1.
         11    1    1    2    0    0 -0.30586779330E+01  0.30958851443E+00 -0.19998083768E+03  0.20000446694E+03  0.00000000000E+00 0.  1.
        -15    1    1    2    0    0 -0.93483343118E+00 -0.17073975596E+01  0.40341794103E+00  0.26663823817E+01  0.17770000000E+01 0.  1.
         15    1    1    2    0    0 -0.68911219433E+02 -0.14439779396E+01 -0.29217164852E+03  0.30019705389E+03  0.17770000000E+01 0. -1.
</event>
<event>
 6   1  0.1826851E-04  0.5003316E+03  0.7546771E-02  0.9399068E-01
        -11   -1    0    0    0    0  0.00000000000E+00  0.00000000000E+00  0.50000000000E+03  0.50000000000E+03  0.00000000000E+00 0. -1.
         11   -1    0    0    0    0 -0.00000000000E+00 -0.00000000000E+00 -0.50000000000E+03  0.50000000000E+03  0.00000000000E+00 0. -1.
        -11    1    1    2    0    0  0.15130424968E+01  0.47203752756E+01  0.35166592636E+03  0.35170086011E+03  0.00000000000E+00 0. -1.
         11    1    1    2    0    0  0.80685176433E+01  0.21847230536E+01 -0.49959844874E+03  0.49966837400E+03  0.00000000000E+00 0. -1.
        -15    1    1    2    0    0 -0.20651835105E+01  0.12243797540E+01  0.42104303873E+02  0.42210119904E+02  0.17770000000E+01 0. -1.
         15    1    1    2    0    0 -0.75163766296E+01 -0.81294780833E+01  0.10582821851E+03  0.10642064599E+03  0.17770000000E+01 0.  1.
</event>
<event>
 6   1  0.1826851E-04  0.5004624E+03  0.7546771E-02  0.9398776E-01
        -11   -1    0    0    0    0  0.00000000000E+00  0.00000000000E+00  0.50000000000E+03  0.50000000000E+03  0.00000000000E+00 0.  1.
         11   -1    0    0    0    0 -0.00000000000E+00 -0.00000000000E+00 -0.50000000000E+03  0.50000000000E+03  0.00000000000E+00 0.  1.
        -11    1    1    2    0    0 -0.59932998112E+01  0.17308394638E+02  0.32949502678E+03  0.33000374671E+03  0.00000000000E+00 0.  1.
         11    1    1    2    0    0  0.78547509965E+01 -0.11007899802E+02 -0.49935455186E+03  0.49953762564E+03  0.00000000000E+00 0.  1.
        -15    1    1    2    0    0  0.29917941863E+00  0.31671701135E+01  0.74590721291E+02  0.74679675325E+02  0.17770000000E+01 0. -1.
         15    1    1    2    0    0 -0.21606306039E+01 -0.94676649495E+01  0.95268803785E+02  0.95778952321E+02  0.17770000000E+01 0.  1.
</event>
<event>
 6   1  0.1826851E-04  0.5077070E+03  0.7546771E-02  0.9382728E-01
        -11   -1    0    0    0    0  0.00000000000E+00  0.00000000000E+00  0.50000000000E+03  0.50000000000E+03  0.00000000000E+00 0. -1.
         11   -1    0    0    0    0 -0.00000000000E+00 -0.00000000000E+00 -0.50000000000E+03  0.50000000000E+03  0.00000000000E+00 0.  1.
        -11    1    1    2    0    0  0.18704689088E+02  0.51127515287E+01  0.49191096639E+03  0.49229300673E+03  0.00000000000E+00 0. -1.
         11    1    1    2    0    0  0.15656604179E+02 -0.56792354079E+01 -0.43559473552E+03  0.43591301493E+03  0.00000000000E+00 0.  1.
        -15    1    1    2    0    0 -0.32656158852E+02  0.80903709031E+01 -0.32956739959E+02  0.47129430827E+02  0.17770000000E+01 0.  1.
         15    1    1    2    0    0 -0.17051344148E+01 -0.75238870239E+01 -0.23359490911E+02  0.24664547511E+02  0.17770000000E+01 0. -1.
</event>
<event>
 6   1  0.1826851E-04  0.4904436E+03  0.7546771E-02  0.9421450E-01
        -11   -1    0    0    0    0  0.00000000000E+00  0.00000000000E+00  0.50000000000E+03  0.50000000000E+03  0.00000000000E+00 0.  1.
         11   -1    0    0    0    0 -0.00000000000E+00 -0.00000000000E+00 -0.50000000000E+03  0.50000000000E+03  0.00000000000E+00 0.  1.
        -11    1    1    2    0    0  0.99732460022E+01 -0.11288925790E+02  0.48765384971E+03  0.48788644438E+03  0.00000000000E+00 0.  1.
         11    1    1    2    0    0  0.56073639154E+01  0.51423432251E+01 -0.49310023310E+03  0.49315892582E+03  0.00000000000E+00 0.  1.
        -15    1    1    2    0    0 -0.11406068156E+02  0.53242510159E+01  0.64207998444E+01  0.14241855191E+02  0.17770000000E+01 0. -1.
         15    1    1    2    0    0 -0.41745417619E+01  0.82233154892E+00 -0.97441644509E+00  0.47127746081E+01  0.17770000000E+01 0.  1.
</event>
<event>
 6   1  0.1826851E-04  0.5006336E+03  0.7546771E-02  0.9398393E-01
        -11   -1    0    0    0    0  0.00000000000E+00  0.00000000000E+00  0.50000000000E+03  0.50000000000E+03  0.00000000000E+00 0. -1.
         11   -1    0    0    0    0 -0.00000000000E+00 -0.00000000000E+00 -0.50000000000E+03  0.50000000000E+03  0.00000000000E+00 0.  1.
        -11    1    1    2    0    0  0.10042639315E+02  0.47384956289E+01  0.49924290757E+03  0.49936638724E+03  0.00000000000E+00 0. -1.
         11    1    1    2    0    0 -0.27104713684E+01  0.56528057135E+01 -0.40855889694E+03  0.40860699105E+03  0.00000000000E+00 0.  1.
        -15    1    1    2    0    0  0.11985722150E+01 -0.22278127322E+01 -0.31418728716E+02  0.31570460372E+02  0.17770000000E+01 0.  1.
         15    1    1    2    0    0 -0.85307401620E+01 -0.81634886102E+01 -0.59265281913E+02  0.60456161334E+02  0.17770000000E+01 0.  1.
</event>
<event>
 6   1  0.1826851E-04  0.5047415E+03  0.7546771E-02  0.9389262E-01
        -11   -1    0    0    0    0  0.00000000000E+00  0.00000000000E+00  0.50000000000E+03  0.50000000000E+03  0.00000000000E+00 0.  1.
         11   -1    0    0    0    0 -0.00000000000E+00 -0.00000000000E+00 -0.50000000000E+03  0.50000000000E+03  0.00000000000E+00 0. -1.
        -11    1    1    2    0    0  0.33724243008E+02  0.72948423029E+01  0.30342467790E+03  0.30538021293E+03  0.00000000000E+00 0.  1.
         11    1    1    2    0    0  0.23906507512E+01  0.19964232520E+02 -0.49485019497E+03  0.49525851962E+03  0.00000000000E+00 0. -1.
        -15    1    1    2    0    0 -0.12454258293E+02  0.45800461025E+01  0.26092574566E+02  0.29326874167E+02  0.17770000000E+01 0. -1.
         15    1    1    2    0    0 -0.23660635467E+02 -0.31839120925E+02  0.16533294251E+03  0.17003439329E+03  0.17770000000E+01 0.  1.
</event>
<event>
 6   1  0.1826851E-04  0.5000462E+03  0.7546771E-02  0.9399706E-01
        -11   -1    0    0    0    0  0.00000000000E+00  0.00000000000E+00  0.50000000000E+03  0.50000000000E+03  0.00000000000E+00 0. -1.
         11   -1    0    0    0    0 -0.00000000000E+00 -0.00000000000E+00 -0.50000000000E+03  0.50000000000E+03  0.00000000000E+00 0.  1.
        -11    1    1    2    0    0  0.10053186883E+02 -0.84513050590E+01  0.49978131243E+03  0.49995384924E+03  0.00000000000E+00 0. -1.
         11    1    1    2    0    0 -0.51361554875E+01  0.45658029906E+00 -0.10364931385E+03  0.10377749669E+03  0.00000000000E+00 0.  1.
        -15    1    1    2    0    0 -0.35596029148E+01  0.36787184111E+01 -0.23931315831E+03  0.23937449574E+03  0.17770000000E+01 0.  1.
         15    1    1    2    0    0 -0.13574284811E+01  0.43160063489E+01 -0.15681884027E+03  0.15689415832E+03  0.17770000000E+01 0.  1.
</event>
<event>
 6   1  0.1826851E-04  0.5001284E+03  0.7546771E-02  0.9399522E-01
        -11   -1    0    0    0    0  0.00000000000E+00  0.00000000000E+00  0.50000000000E+03  0.50000000000E+03  0.00000000000E+00 0.  1.
         11   -1    0    0    0    0 -0.00000000000E+00 -0.00000000000E+00 -0.50000000000E+03  0.50000000000E+03  0.00000000000E+00 0. -1.
        -11    1    1    2    0    0  0.18956004215E+01 -0.12302463539E+02  0.23880414708E+03  0.23912834330E+03  0.00000000000E+00 0.  1.
         11    1    1    2    0    0  0.33461821012E+01  0.11822952106E+02 -0.49972051065E+03  0.49987155140E+03  0.00000000000E+00 0. -1.
        -15    1    1    2    0    0 -0.15467322970E+01 -0.22361728669E+00  0.11555107583E+03  0.11557530550E+03  0.17770000000E+01 0.  1.
         15    1    1    2    0    0 -0.36950502257E+01  0.70312871952E+00  0.14536528774E+03  0.14542479980E+03  0.17770000000E+01 0.  1.
</event>
<event>
 6   1  0.1826851E-04  0.4650348E+03  0.7546771E-02  0.9481636E-01
        -11   -1    0    0    0    0  0.00000000000E+00  0.00000000000E+00  0.50000000000E+03  0.50000000000E+03  0.00000000000E+00 0. -1.
         11   -1    0    0    0    0 -0.00000000000E+00 -0.00000000000E+00 -0.50000000000E+03  0.50000000000E+03  0.00000000000E+00 0. -1.
        -11    1    1    2    0    0  0.32778422888E+01  0.57753379815E+02  0.36500845282E+02  0.68399625996E+02  0.00000000000E+00 0. -1.
         11    1    1    2    0    0 -0.50222554102E+02 -0.24946099033E+02 -0.48006727804E+03  0.48333136070E+03  0.00000000000E+00 0. -1.
        -15    1    1    2    0    0  0.53094429498E+01 -0.12924000467E+02  0.19085217419E+03  0.19137118408E+03  0.17770000000E+01 0.  1.
         15    1    1    2    0    0  0.41635268863E+02 -0.19883280315E+02  0.25271425856E+03  0.25689782922E+03  0.17770000000E+01 0. -1.
</event>
<event>
 6   1  0.1826851E-04  0.4720666E+03  0.7546771E-02  0.9464578E-01
        -11   -1    0    0    0    0  0.00000000000E+00  0.00000000000E+00  0.50000000000E+03  0.50000000000E+03  0.00000000000E+00 0. -1.
         11   -1    0    0    0    0 -0.00000000000E+00 -0.00000000000E+00 -0.50000000000E+03  0.50000000000E+03  0.00000000000E+00 0.  1.
        -11    1    1    2    0    0 -0.25495840676E+02 -0.99130738057E+01  0.47542063609E+03  0.47620698037E+03  0.00000000000E+00 0. -1.
         11    1    1    2    0    0 -0.17247748708E+02 -0.12400366399E+02 -0.46869930834E+03  0.46918045096E+03  0.00000000000E+00 0.  1.
        -15    1    1    2    0    0  0.25674577994E+02  0.23928964603E+02  0.21867948462E+01  0.35209645026E+02  0.17770000000E+01 0.  1.
         15    1    1    2    0    0  0.17069011390E+02 -0.16155243979E+01 -0.89081226001E+01  0.19402923650E+02  0.17770000000E+01 0. -1.
</event>
<event>
 6   1  0.1826851E-04  0.5000442E+03  0.7546771E-02  0.9399711E-01
        -11   -1    0    0    0    0  0.00000000000E+00  0.00000000000E+00  0.50000000000E+03  0.50000000000E+03  0.00000000000E+00 0. -1.
         11   -1    0    0    0    0 -0.00000000000E+00 -0.00000000000E+00 -0.50000000000E+03  0.50000000000E+03  0.00000000000E+00 0.  1.
        -11    1    1    2    0    0 -0.58576721482E+00 -0.50201419434E+00  0.11701091579E+02  0.11726495027E+02  0.00000000000E+00 0. -1.
         11    1    1    2    0    0  0.48695396195E+01 -0.51783189733E+01 -0.49990531459E+03  0.49995584901E+03  0.00000000000E+00 0.  1.
        -15    1    1    2    0    0 -0.84015158908E-01  0.56727211147E+01  0.26149044416E+03  0.26155801830E+03  0.17770000000E+01 0.  1.
         15    1    1    2    0    0 -0.41997572457E+01  0.76120530005E-02  0.22671377886E+03  0.22675963766E+03  0.17770000000E+01 0. -1.
</event>
<event>
 6   1  0.1826851E-04  0.5013179E+03  0.7546771E-02  0.9396866E-01
        -11   -1    0    0    0    0  0.00000000000E+00  0.00000000000E+00  0.50000000000E+03  0.50000000000E+03  0.00000000000E+00 0. -1.
         11   -1    0    0    0    0 -0.00000000000E+00 -0.00000000000E+00 -0.50000000000E+03  0.50000000000E+03  0.00000000000E+00 0. -1.
        -11    1    1    2    0    0  0.11114759961E+02 -0.10267797726E+02  0.37723739970E+03  0.37754075447E+03  0.00000000000E+00 0. -1.
         11    1    1    2    0    0  0.35042548355E+01 -0.60758054202E+01 -0.49863273469E+03  0.49868206236E+03  0.00000000000E+00 0. -1.
        -15    1    1    2    0    0 -0.17838644978E+01  0.11891310376E+00  0.56876490961E+01  0.62212051978E+01  0.17770000000E+01 0.  1.
         15    1    1    2    0    0 -0.12835150298E+02  0.16224690042E+02  0.11570768590E+03  0.11755597797E+03  0.17770000000E+01 0. -1.
</event>
<event>
 6   1  0.1826851E-04  0.5001641E+03  0.7546771E-02  0.9399443E-01
        -11   -1    0    0    0    0  0.00000000000E+00  0.00000000000E+00  0.50000000000E+03  0.50000000000E+03  0.00000000000E+00 0. -1.
         11   -1    0    0    0    0 -0.00000000000E+00 -0.00000000000E+00 -0.50000000000E+03  0.50000000000E+03  0.00000000000E+00 0.  1.
        -11    1    1    2    0    0 -0.76715501097E+01  0.55896208999E+01  0.49974572772E+03  0.49983586198E+03  0.00000000000E+00 0. -1.
         11    1    1    2    0    0  0.45291627005E+01 -0.23261621872E+01 -0.36971743652E+03  0.36975249453E+03  0.00000000000E+00 0.  1.
        -15    1    1    2    0    0  0.14651822161E+01 -0.33804334709E+01 -0.23368245012E+02  0.23723547233E+02  0.17770000000E+01 0. -1.
         15    1    1    2    0    0  0.16772051930E+01  0.11697475826E+00 -0.10666004619E+03  0.10668809625E+03  0.17770000000E+01 0.  1.
</event>
<event>
 6   1  0.1826851E-04  0.5020030E+03  0.7546771E-02  0.9395339E-01
        -11   -1    0    0    0    0  0.00000000000E+00  0.00000000000E+00  0.50000000000E+03  0.50000000000E+03  0.00000000000E+00 0.  1.
         11   -1    0    0    0    0 -0.00000000000E+00 -0.00000000000E+00 -0.50000000000E+03  0.50000000000E+03  0.00000000000E+00 0. -1.
        -11    1    1    2    0    0  0.90050881840E+01  0.10273454933E+02  0.46855977215E+03  0.46875888852E+03  0.00000000000E+00 0.  1.
         11    1    1    2    0    0 -0.70169045856E+01 -0.25974997554E+01 -0.49794083027E+03  0.49799704257E+03  0.00000000000E+00 0. -1.
        -15    1    1    2    0    0  0.37252127137E+01  0.16620831707E+01  0.77888899500E+01  0.89701876169E+01  0.17770000000E+01 0.  1.
         15    1    1    2    0    0 -0.57133963121E+01 -0.93380383479E+01  0.21592168172E+02  0.24273881292E+02  0.17770000000E+01 0. -1.
</event>
<event>
 6   1  0.1826851E-04  0.5001197E+03  0.7546771E-02  0.9399542E-01
        -11   -1    0    0    0    0  0.00000000000E+00  0.00000000000E+00  0.50000000000E+03  0.50000000000E+03  0.00000000000E+00 0. -1.
         11   -1    0    0    0    0 -0.00000000000E+00 -0.00000000000E+00 -0.50000000000E+03  0.50000000000E+03  0.00000000000E+00 0. -1.
        -11    1    1    2    0    0 -0.51083368607E+01 -0.23395584771E+02  0.49930639333E+03  0.49988030859E+03  0.00000000000E+00 0. -1.
         11    1    1    2    0    0 -0.91849928983E+00  0.15075628975E+02 -0.35745436315E+03  0.35777330807E+03  0.00000000000E+00 0. -1.
        -15    1    1    2    0    0  0.43579850868E+01  0.29112141596E+01 -0.50605060409E+02  0.50906748766E+02  0.17770000000E+01 0. -1.
         15    1    1    2    0    0  0.16688510637E+01  0.54087416367E+01 -0.91246969769E+02  0.91439634574E+02  0.17770000000E+01 0.  1.
</event>
<event>
 6   1  0.1826851E-04  0.5006814E+03  0.7546771E-02  0.9398286E-01
        -11   -1    0    0    0    0  0.00000000000E+00  0.00000000000E+00  0.50000000000E+03  0.50000000000E+03  0.00000000000E+00 0. -1.
         11   -1    0    0    0    0 -0.00000000000E+00 -0.00000000000E+00 -0.50000000000E+03  0.50000000000E+03  0.00000000000E+00 0. -1.
        -11    1    1    2    0    0  0.81317573206E+01  0.10227603932E+00  0.49925233195E+03  0.49931856254E+03  0.00000000000E+00 0. -1.
         11    1    1    2    0    0 -0.44026594533E+01 -0.49493985353E+01 -0.39429019739E+03  0.39434583770E+03  0.00000000000E+00 0. -1.
        -15    1    1    2    0    0  0.45146497862E+01  0.68247484025E+01 -0.51764227554E+02  0.52437126511E+02  0.17770000000E+01 0.  1.
         15    1    1    2    0    0 -0.82437476535E+01 -0.19776259065E+01 -0.53197907010E+02  0.53898473252E+02  0.17770000000E+01 0.  1.
</event>
<event>
 6   1  0.1826851E-04  0.5001229E+03  0.7546771E-02  0.9399535E-01
        -11   -1    0    0    0    0  0.00000000000E+00  0.00000000000E+00  0.50000000000E+03  0.50000000000E+03  0.00000000000E+00 0. -1.
         11   -1    0    0    0    0 -0.00000000000E+00 -0.00000000000E+00 -0.50000000000E+03  0.50000000000E+03  0.00000000000E+00 0. -1.
        -11    1    1    2    0    0 -0.79330588089E+01  0.12107046748E+02  0.49966746434E+03  0.49987707381E+03  0.00000000000E+00 0. -1.
         11    1    1    2    0    0 -0.12118370486E+01 -0.22492775820E+01 -0.14345398715E+03  0.14347673759E+03  0.00000000000E+00 0. -1.
        -15    1    1    2    0    0  0.48346602184E+01 -0.11627629181E+01 -0.22514179469E+03  0.22520371090E+03  0.17770000000E+01 0. -1.
         15    1    1    2    0    0  0.43102356391E+01 -0.86950062475E+01 -0.13107168250E+03  0.13144247771E+03  0.17770000000E+01 0. -1.
</event>
<event>
 6   1  0.1826851E-04  0.5032501E+03  0.7546771E-02  0.9392567E-01
        -11   -1    0    0    0    0  0.00000000000E+00  0.00000000000E+00  0.50000000000E+03  0.50000000000E+03  0.00000000000E+00 0.  1.
         11   -1    0    0    0    0 -0.00000000000E+00 -0.00000000000E+00 -0.50000000000E+03  0.50000000000E+03  0.00000000000E+00 0. -1.
        -11    1    1    2    0    0 -0.91906860060E+00  0.12543916812E+02  0.49659067117E+03  0.49674992625E+03  0.00000000000E+00 0.  1.
         11    1    1    2    0    0 -0.77894957464E+01 -0.32907010561E+01 -0.47871420240E+03  0.47878888096E+03  0.00000000000E+00 0. -1.
        -15    1    1    2    0    0  0.27351877790E+01  0.19996078702E+01 -0.44117477970E+01  0.58396002813E+01  0.17770000000E+01 0. -1.
         15    1    1    2    0    0  0.59733765680E+01 -0.11252823626E+02 -0.13464720979E+02  0.18621592500E+02  0.17770000000E+01 0. -1.
</event>
<event>
 6   1  0.1826851E-04  0.5064660E+03  0.7546771E-02  0.9385457E-01
        -11   -1    0    0    0    0  0.00000000000E+00  0.00000000000E+00  0.50000000000E+03  0.50000000000E+03  0.00000000000E+00 0.  1.
         11   -1    0    0    0    0 -0.00000000000E+00 -0.00000000000E+00 -0.50000000000E+03  0.50000000000E+03  0.00000000000E+00 0. -1.
        -11    1    1    2    0    0 -0.18622593799E+02  0.65137039748E+01  0.45905220338E+03  0.45947595668E+03  0.00000000000E+00 0.  1.
         11    1    1    2    0    0 -0.97133228184E+01 -0.21547883187E+01 -0.49343365451E+03  0.49353395339E+03  0.00000000000E+00 0. -1.
        -15    1    1    2    0    0  0.29239784983E+02 -0.30390724401E+01  0.32991773956E+02  0.44224607007E+02  0.17770000000E+01 0.  1.
         15    1    1    2    0    0 -0.90386836602E+00 -0.13198432160E+01  0.13896771719E+01  0.27654829198E+01  0.17770000000E+01 0. -1.
</event>
<event>
 6   1  0.1826851E-04  0.5005957E+03  0.7546771E-02  0.9398478E-01
        -11   -1    0    0    0    0  0.00000000000E+00  0.00000000000E+00  0.50000000000E+03  0.50000000000E+03  0.00000000000E+00 0. -1.
         11   -1    0    0    0    0 -0.00000000000E+00 -0.00000000000E+00 -0.50000000000E+03  0.50000000000E+03  0.00000000000E+00 0. -1.
        -11    1    1    2    0    0 -0.83845255293E+01  0.10134866708E+02  0.49923104043E+03  0.49940429265E+03  0.00000000000E+00 0. -1.
         11    1    1    2    0    0 -0.27138029603E+01 -0.83511150024E+01 -0.42273577593E+03  0.42282696472E+03  0.00000000000E+00 0. -1.
        -15    1    1    2    0    0  0.66142128271E+01 -0.13966735830E+01 -0.63813528952E+02  0.64195192302E+02  0.17770000000E+01 0. -1.
         15    1    1    2    0    0  0.44841156624E+01 -0.38707812276E+00 -0.12681735549E+02  0.13573550320E+02  0.17770000000E+01 0.  1.
</event>
<event>
 6   1  0.1826851E-04  0.5000720E+03  0.7546771E-02  0.9399649E-01
        -11   -1    0    0    0    0  0.00000000000E+00  0.00000000000E+00  0.50000000000E+03  0.50000000000E+03  0.00000000000E+00 0.  1.
         11   -1    0    0    0    0 -0.00000000000E+00 -0.00000000000E+00 -0.50000000000E+03  0.50000000000E+03  0.00000000000E+00 0. -1.
        -11    1    1    2    0    0 -0.10088652808E+02  0.75893571997E+01  0.49976861160E+03  0.49992803922E+03  0.00000000000E+00 0.  1.
         11    1    1    2    0    0  0.18363552479E+00  0.16917780110E+01 -0.63533656312E+02  0.63556441996E+02  0.00000000000E+00 0. -1.
        -15    1    1    2    0    0  0.84017874618E+01 -0.46694951872E+01 -0.21746509476E+03  0.21768467881E+03  0.17770000000E+01 0.  1.
         15    1    1    2    0    0  0.15032298213E+01 -0.46116400235E+01 -0.21876986052E+03  0.21883083998E+03  0.17770000000E+01 0. -1.
</event>
<event>
 6   1  0.1826851E-04  0.5047900E+03  0.7546771E-02  0.9389155E-01
        -11   -1    0    0    0    0  0.00000000000E+00  0.00000000000E+00  0.50000000000E+03  0.50000000000E+03  0.00000000000E+00 0.  1.
         11   -1    0    0    0    0 -0.00000000000E+00 -0.00000000000E+00 -0.50000000000E+03  0.50000000000E+03  0.00000000000E+00 0. -1.
        -11    1    1    2    0    0  0.40145456589E+01  0.10289554440E+03  0.24313740575E+03  0.26404432906E+03  0.00000000000E+00 0.  1.
         11    1    1    2    0    0 -0.96264598911E+01 -0.10669028887E+03 -0.48348471123E+03  0.49521000845E+03  0.00000000000E+00 0. -1.
        -15    1    1    2    0    0 -0.24333921326E+01 -0.80388957361E+00  0.25303917876E+02  0.25495364767E+02  0.17770000000E+01 0.  1.
         15    1    1    2    0    0  0.80453063648E+01  0.45986340430E+01  0.21504338760E+03  0.21525029772E+03  0.17770000000E+01 0.  1.
</event>
<event>
 6   1  0.1826851E-04  0.5001296E+03  0.7546771E-02  0.9399520E-01
        -11   -1    0    0    0    0  0.00000000000E+00  0.00000000000E+00  0.50000000000E+03  0.50000000000E+03  0.00000000000E+00 0.  1.
         11   -1    0    0    0    0 -0.00000000000E+00 -0.00000000000E+00 -0.50000000000E+03  0.50000000000E+03  0.00000000000E+00 0. -1.
        -11    1    1    2    0    0  0.14292147154E+01  0.41310861611E+01  0.66933546478E+02  0.67076137125E+02  0.00000000000E+00 0.  1.
         11    1    1    2    0    0 -0.72807965812E+01  0.46069150350E+01 -0.49979615037E+03  0.49987040880E+03  0.00000000000E+00 0. -1.
        -15    1    1    2    0    0  0.17722965307E+00  0.50045619888E+00  0.70005931895E+02  0.70030494046E+02  0.17770000000E+01 0. -1.
         15    1    1    2    0    0  0.56743522128E+01 -0.92384573950E+01  0.36285667200E+03  0.36302296003E+03  0.17770000000E+01 0.  1.
</event>
<event>
 6   1  0.1826851E-04  0.5007054E+03  0.7546771E-02  0.9398233E-01
        -11   -1    0    0    0    0  0.00000000000E+00  0.00000000000E+00  0.50000000000E+03  0.50000000000E+03  0.00000000000E+00 0.  1.
         11   -1    0    0    0    0 -0.00000000000E+00 -0.00000000000E+00 -0.50000000000E+03  0.50000000000E+03  0.00000000000E+00 0. -1.
        -11    1    1    2    0    0 -0.27421067486E+02 -0.34743740799E+02  0.30546257682E+03  0.30865260133E+03  0.00000000000E+00 0.  1.
         11    1    1    2    0    0  0.34946773194E+02  0.38755761202E+02 -0.49656002047E+03  0.49929464238E+03  0.00000000000E+00 0. -1.
        -15    1    1    2    0    0 -0.92153532887E+01  0.27085669094E+01  0.62716352563E+02  0.63472495450E+02  0.17770000000E+01 0.  1.
         15    1    1    2    0    0  0.16896475810E+01 -0.67205873117E+01  0.12838109108E+03  0.12858026084E+03  0.17770000000E+01 0. -1.
</event>
<event>
 6   1  0.1826851E-04  0.5013386E+03  0.7546771E-02  0.9396819E-01
        -11   -1    0    0    0    0  0.00000000000E+00  0.00000000000E+00  0.50000000000E+03  0.50000000000E+03  0.00000000000E+00 0.  1.
         11   -1    0    0    0    0 -0.00000000000E+00 -0.00000000000E+00 -0.50000000000E+03  0.50000000000E+03  0.00000000000E+00 0.  1.
        -11    1    1    2    0    0 -0.15747279087E+02 -0.15939634992E+02  0.49815774878E+03  0.49866139958E+03  0.00000000000E+00 0.  1.
         11    1    1    2    0    0 -0.59558736900E+01  0.79507819070E+00 -0.29694106140E+03  0.29700184936E+03  0.00000000000E+00 0.  1.
        -15    1    1    2    0    0  0.14466952057E+02 -0.20072758818E+01 -0.12483984901E+03  0.12570388812E+03  0.17770000000E+01 0.  1.
         15    1    1    2    0    0  0.72362007196E+01  0.17151832683E+02 -0.76376838372E+02  0.78632862939E+02  0.17770000000E+01 0. -1.
</event>
<event>
 6   1  0.1826851E-04  0.5056651E+03  0.7546771E-02  0.9387222E-01
        -11   -1    0    0    0    0  0.00000000000E+00  0.00000000000E+00  0.50000000000E+03  0.50000000000E+03  0.00000000000E+00 0.  1.
         11   -1    0    0    0    0 -0.00000000000E+00 -0.00000000000E+00 -0.50000000000E+03  0.50000000000E+03  0.00000000000E+00 0. -1.
        -11    1    1    2    0    0  0.49978864781E+02 -0.20377525723E+02  0.49137956090E+03  0.49433491010E+03  0.00000000000E+00 0.  1.
         11    1    1    2    0    0  0.40978001038E+01  0.15569425045E+01 -0.28522468037E+03  0.28525836417E+03  0.00000000000E+00 0. -1.
        -15    1    1    2    0    0 -0.32662635174E+01 -0.88845802674E+01 -0.91066653691E+02  0.91574545521E+02  0.17770000000E+01 0. -1.
         15    1    1    2    0    0 -0.50810401368E+02  0.27705163486E+02 -0.11508822684E+03  0.12883218020E+03  0.17770000000E+01 0.  1.
</event>
<event>
 6   1  0.1826851E-04  0.5005639E+03  0.7546771E-02  0.9398549E-01
        -11   -1    0    0    0    0  0.00000000000E+00  0.00000000000E+00  0.50000000000E+03  0.50000000000E+03  0.00000000000E+00 0. -1.
         11   -1    0    0    0    0 -0.00000000000E+00 -0.00000000000E+00 -0.50000000000E+03  0.50000000000E+03  0.00000000000E+00 0. -1.
        -11    1    1    2    0    0 -0.67754602758E+01  0.45275405660E+01  0.49936957348E+03  0.49943605837E+03  0.00000000000E+00 0. -1.
         11    1    1    2    0    0  0.97342727830E+00  0.11121169317E+02 -0.33779231662E+03  0.33797674052E+03  0.00000000000E+00 0. -1.
        -15    1    1    2    0    0  0.58253623478E+01 -0.13157102013E+02 -0.11514291886E+03  0.11605211619E+03  0.17770000000E+01 0.  1.
         15    1    1    2    0    0 -0.23329350360E-01 -0.24916078703E+01 -0.46434337998E+02  0.46535084919E+02  0.17770000000E+01 0. -1.
</event>
<event>
 6   1  0.1826851E-04  0.4926940E+03  0.7546771E-02  0.9416307E-01
        -11   -1    0    0    0    0  0.00000000000E+00  0.00000000000E+00  0.50000000000E+03  0.50000000000E+03  0.00000000000E+00 0.  1.
         11   -1    0    0    0    0 -0.00000000000E+00 -0.00000000000E+00 -0.50000000000E+03  0.50000000000E+03  0.00000000000E+00 0. -1.
        -11    1    1    2    0    0  0.18243050454E+01 -0.10691828580E+02  0.49070203705E+03  0.49082189484E+03  0.00000000000E+00 0.  1.
         11    1    1    2    0    0 -0.10991601895E+02  0.37175797881E+01 -0.49450468292E+03  0.49464079608E+03  0.00000000000E+00 0. -1.
        -15    1    1    2    0    0  0.88234645707E+01  0.75793870159E+01  0.20458140446E+01  0.11943354582E+02  0.17770000000E+01 0.  1.
         15    1    1    2    0    0  0.34383227879E+00 -0.60513822363E+00  0.17568318288E+01  0.25939545062E+01  0.17770000000E+01 0. -1.
</event>
<event>
 6   1  0.1826851E-04  0.5070773E+03  0.7546771E-02  0.9384112E-01
        -11   -1    0    0    0    0  0.00000000000E+00  0.00000000000E+00  0.50000000000E+03  0.50000000000E+03  0.00000000000E+00 0. -1.
         11   -1    0    0    0    0 -0.00000000000E+00 -0.00000000000E+00 -0.50000000000E+03  0.50000000000E+03  0.00000000000E+00 0. -1.
        -11    1    1    2    0    0 -0.38245731294E+02  0.17733504944E+02  0.49111668815E+03  0.49292272674E+03  0.00000000000E+00 0. -1.
         11    1    1    2    0    0  0.27944965912E+01  0.77349353497E+01 -0.42995945312E+03  0.43003810269E+03  0.00000000000E+00 0. -1.
        -15    1    1    2    0    0  0.10258659965E+02 -0.16318170124E+02 -0.19528492140E+02  0.27496227282E+02  0.17770000000E+01 0.  1.
         15    1    1    2    0    0  0.25192574737E+02 -0.91502701695E+01 -0.41628742889E+02  0.49542943288E+02  0.17770000000E+01 0. -1.
</event>
<event>
 6   1  0.1826851E-04  0.4635181E+03  0.7546771E-02  0.9485358E-01
        -11   -1    0    0    0    0  0.00000000000E+00  0.00000000000E+00  0.50000000000E+03  0.50000000000E+03  0.00000000000E+00 0.  1.
         11   -1    0    0    0    0 -0.00000000000E+00 -0.00000000000E+00 -0.50000000000E+03  0.50000000000E+03  0.00000000000E+00 0.  1.
        -11    1    1    2    0    0  0.22480365509E+02 -0.48108456455E+02  0.46409939223E+03  0.46712743046E+03  0.00000000000E+00 0.  1.
         11    1    1    2    0    0  0.69044639911E+01 -0.47026237284E+01 -0.46180384224E+03  0.46187939443E+03  0.00000000000E+00 0.  1.
        -15    1    1    2    0    0  0.86120651710E+01  0.14570081911E+02 -0.61383102892E+00  0.17029077219E+02  0.17770000000E+01 0. -1.
         15    1    1    2    0    0 -0.37996894671E+02  0.38240998272E+02 -0.16817189626E+01  0.53964097891E+02  0.17770000000E+01 0.  1.
</event>
<event>
 6   1  0.1826851E-04  0.5006463E+03  0.7546771E-02  0.9398365E-01
        -11   -1    0    0    0    0  0.00000000000E+00  0.00000000000E+00  0.50000000000E+03  0.50000000000E+03  0.00000000000E+00 0. -1.
         11   -1    0    0    0    0 -0.00000000000E+00 -0.00000000000E+00 -0.50000000000E+03  0.50000000000E+03  0.00000000000E+00 0. -1.
        -11    1    1    2    0    0 -0.12184707465E+02  0.64455298387E+01  0.25354253127E+03  0.25391696894E+03  0.00000000000E+00 0. -1.
         11    1    1    2    0    0  0.40205712981E+01  0.74622897480E+01 -0.49928178015E+03  0.49935372909E+03  0.00000000000E+00 0. -1.
        -15    1    1    2    0    0  0.11655447960E+01 -0.11861510965E+01  0.13572382370E+03  0.13574564265E+03  0.17770000000E+01 0.  1.
         15    1    1    2    0    0  0.69985913712E+01 -0.12721668490E+02  0.11001542518E+03  0.11098365933E+03  0.17770000000E+01 0. -1.
</event>
<event>
 6   1  0.1826851E-04  0.5001363E+03  0.7546771E-02  0.9399505E-01
        -11   -1    0    0    0    0  0.00000000000E+00  0.00000000000E+00  0.50000000000E+03  0.50000000000E+03  0.00000000000E+00 0. -1.
         11   -1    0    0    0    0 -0.00000000000E+00 -0.00000000000E+00 -0.50000000000E+03  0.50000000000E+03  0.00000000000E+00 0.  1.
        -11    1    1    2    0    0  0.94558807335E+01 -0.10371673564E+01  0.35861310177E+03  0.35873924536E+03  0.00000000000E+00 0. -1.
         11    1    1    2    0    0 -0.91478339494E+01  0.51041322997E+01 -0.49975393888E+03  0.49986371589E+03  0.00000000000E+00 0.  1.
        -15    1    1    2    0    0  0.53464599552E+00 -0.30556054840E+01  0.12942160563E+03  0.12947097089E+03  0.17770000000E+01 0.  1.
         15    1    1    2    0    0 -0.84269277971E+00 -0.10113594594E+01  0.11719231484E+02  0.11926067862E+02  0.17770000000E+01 0. -1.
</event>
<event>
 6   1  0.1826851E-04  0.5001395E+03  0.7546771E-02  0.9399498E-01
        -11   -1    0    0    0    0  0.00000000000E+00  0.00000000000E+00  0.50000000000E+03  0.50000000000E+03  0.00000000000E+00 0. -1.
         11   -1    0    0    0    0 -0.00000000000E+00 -0.00000000000E+00 -0.50000000000E+03  0.50000000000E+03  0.00000000000E+00 0.  1.
        -11    1    1    2    0    0  0.84640429860E+01 -0.53646886013E+01  0.49976000991E+03  0.49986046795E+03  0.00000000000E+00 0. -1.
         11    1    1    2    0    0 -0.60403033466E+01 -0.38401818436E+01 -0.23716129223E+03  0.23726927907E+03  0.00000000000E+00 0.  1.
        -15    1    1    2    0    0 -0.39202661147E+01  0.63845715482E+01 -0.13515067911E+03  0.13536984536E+03  0.17770000000E+01 0. -1.
         15    1    1    2    0    0  0.14965264753E+01  0.28202988967E+01 -0.12744803858E+03  0.12750040762E+03  0.17770000000E+01 0.  1.
</event>
<event>
 6   1  0.1826851E-04  0.4970326E+03  0.7546771E-02  0.9406474E-01
        -11   -1    0    0    0    0  0.00000000000E+00  0.00000000000E+00  0.50000000000E+03  0.50000000000E+03  0.00000000000E+00 0.  1.
         11   -1    0    0    0    0 -0.00000000000E+00 -0.00000000000E+00 -0.50000000000E+03  0.50000000000E+03  0.00000000000E+00 0.  1.
        -11    1    1    2    0    0 -0.17890789952E+01  0.10806283579E+01  0.56331475715E+01  0.60084035201E+01  0.00000000000E+00 0.  1.
         11    1    1    2    0    0  0.43794393186E+01 -0.87602465562E+01 -0.49968495547E+03  0.49978092814E+03  0.00000000000E+00 0.  1.
        -15    1    1    2    0    0 -0.52836453835E+01  0.21958018579E+01  0.19858087606E+03  0.19867123727E+03  0.17770000000E+01 0. -1.
         15    1    1    2    0    0  0.26932850600E+01  0.54838163405E+01  0.29547093184E+03  0.29553943107E+03  0.17770000000E+01 0.  1.
</event>
<event>
 6   1  0.1826851E-04  0.5007286E+03  0.7546771E-02  0.9398181E-01
        -11   -1    0    0    0    0  0.00000000000E+00  0.00000000000E+00  0.50000000000E+03  0.50000000000E+03  0.00000000000E+00 0.  1.
         11   -1    0    0    0    0 -0.00000000000E+00 -0.00000000000E+00 -0.50000000000E+03  0.50000000000E+03  0.00000000000E+00 0. -1.
        -11    1    1    2    0    0  0.14106093294E+02 -0.36081222968E+01  0.63142421496E+02  0.64799427520E+02  0.00000000000E+00 0.  1.
         11    1    1    2    0    0 -0.31452116435E+02  0.20270884997E+02 -0.49786728073E+03  0.49927144284E+03  0.00000000000E+00 0. -1.
        -15    1    1    2    0    0  0.18594763361E+02 -0.39189465088E+01  0.29035575178E+03  0.29098237693E+03  0.17770000000E+01 0.  1.
         15    1    1    2    0    0 -0.12487402201E+01 -0.12743816191E+02  0.14436910746E+03  0.14494675271E+03  0.17770000000E+01 0. -1.
</event>
<event>
 6   1  0.1826851E-04  0.5001041E+03  0.7546771E-02  0.9399577E-01
        -11   -1    0    0    0    0  0.00000000000E+00  0.00000000000E+00  0.50000000000E+03  0.50000000000E+03  0.00000000000E+00 0. -1.
         11   -1    0    0    0    0 -0.00000000000E+00 -0.00000000000E+00 -0.50000000000E+03  0.50000000000E+03  0.00000000000E+00 0. -1.
        -11    1    1    2    0    0  0.15387321613E+02 -0.41671837972E+01  0.49964165625E+03  0.49989590891E+03  0.00000000000E+00 0. -1.
         11    1    1    2    0    0 -0.99111312983E+01  0.77008376207E+01 -0.22945969346E+03  0.22980270743E+03  0.00000000000E+00 0. -1.
        -15    1    1    2    0    0 -0.49949304257E+01 -0.21774755617E+01 -0.20060727855E+03  0.20068913440E+03  0.17770000000E+01 0. -1.
         15    1    1    2    0    0 -0.48125988930E+00 -0.13561782618E+01 -0.69574684238E+02  0.69612249255E+02  0.17770000000E+01 0. -1.
</event>
<event>
 6   1  0.1826851E-04  0.5148224E+03  0.7546771E-02  0.9367241E-01
        -11   -1    0    0    0    0  0.00000000000E+00  0.00000000000E+00  0.50000000000E+03  0.50000000000E+03  0.00000000000E+00 0. -1.
         11   -1    0    0    0    0 -0.00000000000E+00 -0.00000000000E+00 -0.50000000000E+03  0.50000000000E+03  0.00000000000E+00 0. -1.
        -11    1    1    2    0    0 -0.17551407532E+02  0.59892031430E+02  0.48114676018E+03  0.48517760889E+03  0.00000000000E+00 0. -1.
         11    1    1    2    0    0  0.80168304336E+01 -0.48996181838E+01 -0.41476294893E+03  0.41486935249E+03  0.00000000000E+00 0. -1.
        -15    1    1    2    0    0  0.27276136160E+02 -0.24731104636E+02 -0.47340481022E+02  0.59999116766E+02  0.17770000000E+01 0. -1.
         15    1    1    2    0    0 -0.17741559062E+02 -0.30261308611E+02 -0.19043330220E+02  0.39953921856E+02  0.17770000000E+01 0.  1.
</event>
<event>
 6   1  0.1826851E-04  0.5004367E+03  0.7546771E-02  0.9398833E-01
        -11   -1    0    0    0    0  0.00000000000E+00  0.00000000000E+00  0.50000000000E+03  0.50000000000E+03  0.00000000000E+00 0. -1.
         11   -1    0    0    0    0 -0.00000000000E+00 -0.00000000000E+00 -0.50000000000E+03  0.50000000000E+03  0.00000000000E+00 0.  1.
        -11    1    1    2    0    0  0.11862677692E+02  0.51411495798E+01  0.49939600576E+03  0.49956333443E+03  0.00000000000E+00 0. -1.
         11    1    1    2    0    0 -0.65906411869E+00  0.42673008791E+01 -0.24953337633E+03  0.24957073171E+03  0.00000000000E+00 0.  1.
        -15    1    1    2    0    0 -0.13994395541E+02 -0.30791734564E+01 -0.13205688405E+03  0.13284390378E+03  0.17770000000E+01 0.  1.
         15    1    1    2    0    0  0.27907819685E+01 -0.63292770025E+01 -0.11780574538E+03  0.11802203008E+03  0.17770000000E+01 0. -1.
</event>
<event>
 6   1  0.1826851E-04  0.5001616E+03  0.7546771E-02  0.9399448E-01
        -11   -1    0    0    0    0  0.00000000000E+00  0.00000000000E+00  0.50000000000E+03  0.50000000000E+03  0.00000000000E+00 0. -1.
         11   -1    0    0    0    0 -0.00000000000E+00 -0.00000000000E+00 -0.50000000000E+03  0.50000000000E+03  0.00000000000E+00 0.  1.
        -11    1    1    2    0    0  0.28184042115E+02 -0.56549874932E+02  0.43682883971E+03  0.44137474303E+03  0.00000000000E+00 0. -1.
         11    1    1    2    0    0 -0.29181396048E+02  0.62218371828E+02 -0.49509166684E+03  0.49983841213E+03  0.00000000000E+00 0.  1.
        -15    1    1    2    0    0 -0.92407303195E+00 -0.38824195546E+01  0.25536040624E+02  0.25907029786E+02  0.17770000000E+01 0. -1.
         15    1    1    2    0    0  0.19214269652E+01 -0.17860773414E+01  0.32726786505E+02  0.32879815051E+02  0.17770000000E+01 0. -1.
</event>
<event>
 6   1  0.1826851E-04  0.5001178E+03  0.7546771E-02  0.9399546E-01
        -11   -1    0    0    0    0  0.00000000000E+00  0.00000000000E+00  0.50000000000E+03  0.50000000000E+03  0.00000000000E+00 0. -1.
         11   -1    0    0    0    0 -0.00000000000E+00 -0.00000000000E+00 -0.50000000000E+03  0.50000000000E+03  0.00000000000E+00 0.  1.
        -11    1    1    2    0    0 -0.59430577351E+01 -0.41521279551E+01  0.49982965647E+03  0.49988223172E+03  0.00000000000E+00 0. -1.
         11    1    1    2    0    0 -0.29686697113E+01  0.24406711328E+01 -0.25005947145E+03  0.25008900244E+03  0.00000000000E+00 0.  1.
        -15    1    1    2    0    0  0.35544467336E+01  0.34729117760E+01 -0.14001461344E+03  0.14011404252E+03  0.17770000000E+01 0.  1.
         15    1    1    2    0    0  0.53572807129E+01 -0.17614549537E+01 -0.10975557158E+03  0.10991472332E+03  0.17770000000E+01 0. -1.
</event>
<event>
 6   1  0.1826851E-04  0.5066296E+03  0.7546771E-02  0.9385097E-01
        -11   -1    0    0    0    0  0.00000000000E+00  0.00000000000E+00  0.50000000000E+03  0.50000000000E+03  0.00000000000E+00 0. -1.
         11   -1    0    0    0    0 -0.00000000000E+00 -0.00000000000E+00 -0.50000000000E+03  0.50000000000E+03  0.00000000000E+00 0. -1.
        -11    1    1    2    0    0  0.11278869315E+02  0.17486837280E+01  0.48483489653E+03  0.48496922343E+03  0.00000000000E+00 0. -1.
         11    1    1    2    0    0 -0.68080070434E+00 -0.66640251615E+01 -0.49332496319E+03  0.49337044098E+03  0.00000000000E+00 0. -1.
        -15    1    1    2    0    0 -0.47574216987E+01  0.37618748716E+01  0.12679176631E+02  0.14167004369E+02  0.17770000000E+01 0. -1.
         15    1    1    2    0    0 -0.58406469120E+01  0.11534665619E+01 -0.41891099668E+01  0.74933312201E+01  0.17770000000E+01 0.  1.
</event>
<event>
 6   1  0.1826851E-04  0.4581992E+03  0.7546771E-02  0.9498529E-01
        -11   -1    0    0    0    0  0.00000000000E+00  0.00000000000E+00  0.50000000000E+03  0.50000000000E+03  0.00000000000E+00 0.  1.
         11   -1    0    0    0    0 -0.00000000000E+00 -0.00000000000E+00 -0.50000000000E+03  0.50000000000E+03  0.00000000000E+00 0.  1.
        -11    1    1    2    0    0  0.44823859516E+02 -0.59954944935E+01  0.46141003400E+03  0.46362090528E+03  0.00000000000E+00 0.  1.
         11    1    1    2    0    0 -0.68543863416E+01  0.15101208424E+01 -0.45355399863E+03  0.45360830322E+03  0.00000000000E+00 0.  1.
        -15    1    1    2    0    0 -0.45908496445E+02  0.13513111975E+01  0.22509400963E+02  0.51178579000E+02  0.17770000000E+01 0.  1.
         15    1    1    2    0    0  0.79390232701E+01  0.31340624536E+01 -0.30365436329E+02  0.31592212496E+02  0.17770000000E+01 0. -1.
</event>
<event>
 6   1  0.1826851E-04  0.5003683E+03  0.7546771E-02  0.9398986E-01
        -11   -1    0    0    0    0  0.00000000000E+00  0.00000000000E+00  0.50000000000E+03  0.50000000000E+03  0.00000000000E+00 0.  1.
         11   -1    0    0    0    0 -0.00000000000E+00 -0.00000000000E+00 -0.50000000000E+03  0.50000000000E+03  0.00000000000E+00 0.  1.
        -11    1    1    2    0    0  0.26332230909E+01  0.96464209871E+01  0.20879847214E+03  0.20903776996E+03  0.00000000000E+00 0.  1.
         11    1    1    2    0    0 -0.32279406808E+01  0.61269949911E+01 -0.49958370380E+03  0.49963170112E+03  0.00000000000E+00 0.  1.
        -15    1    1    2    0    0 -0.30385930461E+01 -0.54758753601E+01  0.85540585457E+02  0.85787923089E+02  0.17770000000E+01 0. -1.
         15    1    1    2    0    0  0.36333106361E+01 -0.10297540618E+02  0.20524464620E+03  0.20554260583E+03  0.17770000000E+01 0.  1.
</event>
<event>
 6   1  0.1826851E-04  0.5021177E+03  0.7546771E-02  0.9395084E-01
        -11   -1    0    0    0    0  0.00000000000E+00  0.00000000000E+00  0.50000000000E+03  0.50000000000E+03  0.00000000000E+00 0.  1.
         11   -1    0    0    0    0 -0.00000000000E+00 -0.00000000000E+00 -0.50000000000E+03  0.50000000000E+03  0.00000000000E+00 0. -1.
        -11    1    1    2    0    0 -0.41470622979E+02  0.41220257535E+02  0.49443687877E+03  0.49788226448E+03  0.00000000000E+00 0.  1.
         11    1    1    2    0    0 -0.18143855489E+00 -0.43903108602E+02 -0.24414276517E+03  0.24805887537E+03  0.00000000000E+00 0. -1.
        -15    1    1    2    0    0  0.11544600135E+02 -0.74338181644E+00 -0.10347623104E+03  0.10413605777E+03  0.17770000000E+01 0. -1.
         15    1    1    2    0    0  0.30107461398E+02  0.34262328834E+01 -0.14681788255E+03  0.14992280237E+03  0.17770000000E+01 0.  1.
</event>
<event>
 6   1  0.1826851E-04  0.5002118E+03  0.7546771E-02  0.9399336E-01
        -11   -1    0    0    0    0  0.00000000000E+00  0.00000000000E+00  0.50000000000E+03  0.50000000000E+03  0.00000000000E+00 0. -1.
         11   -1    0    0    0    0 -0.00000000000E+00 -0.00000000000E+00 -0.50000000000E+03  0.50000000000E+03  0.00000000000E+00 0.  1.
        -11    1    1    2    0    0 -0.50264210100E+01  0.15395552926E+02  0.36991105150E+03  0.37026541019E+03  0.00000000000E+00 0. -1.
         11    1    1    2    0    0  0.73927836479E+01 -0.94883902377E+01 -0.49964339615E+03  0.49978816124E+03  0.00000000000E+00 0.  1.
        -15    1    1    2    0    0 -0.35673318556E+00 -0.25452697051E+01  0.48883556230E+02  0.48983318131E+02  0.17770000000E+01 0. -1.
         15    1    1    2    0    0 -0.20096294524E+01 -0.33618929830E+01  0.80848788414E+02  0.80963110439E+02  0.17770000000E+01 0. -1.
</event>
<event>
 6   1  0.1826851E-04  0.5003019E+03  0.7546771E-02  0.9399134E-01
        -11   -1    0    0    0    0  0.00000000000E+00  0.00000000000E+00  0.50000000000E+03  0.50000000000E+03  0.00000000000E+00 0.  1.
         11   -1    0    0    0    0 -0.00000000000E+00 -0.00000000000E+00 -0.50000000000E+03  0.50000000000E+03  0.00000000000E+00 0.  1.
        -11    1    1    2    0    0 -0.69694880326E+01 -0.13251075176E+02  0.49947371169E+03  0.49969806226E+03  0.00000000000E+00 0.  1.
         11    1    1    2    0    0  0.36785975269E+01  0.11992851309E+02 -0.10200722081E+03  0.10277564721E+03  0.00000000000E+00 0.  1.
        -15    1    1    2    0    0  0.85222801083E+00  0.28275568494E+01 -0.17681339257E+03  0.17684698157E+03  0.17770000000E+01 0.  1.
         15    1    1    2    0    0  0.24386624949E+01 -0.15693329824E+01 -0.22065309831E+03  0.22067930896E+03  0.17770000000E+01 0. -1.
</event>
<event>
 6   1  0.1826851E-04  0.5002857E+03  0.7546771E-02  0.9399171E-01
        -11   -1    0    0    0    0  0.00000000000E+00  0.00000000000E+00  0.50000000000E+03  0.50000000000E+03  0.00000000000E+00 0. -1.
         11   -1    0    0    0    0 -0.00000000000E+00 -0.00000000000E+00 -0.50000000000E+03  0.50000000000E+03  0.00000000000E+00 0.  1.
        -11    1    1    2    0    0 -0.51267881400E+01 -0.26196979497E+01  0.31127039200E+02  0.31655005028E+02  0.00000000000E+00 0. -1.
         11    1    1    2    0    0  0.53548486924E+01 -0.69853215418E+01 -0.49963681287E+03  0.49971433229E+03  0.00000000000E+00 0.  1.
        -15    1    1    2    0    0 -0.60526795409E+00  0.24355220159E+01  0.17911406466E+03  0.17914045887E+03  0.17770000000E+01 0. -1.
         15    1    1    2    0    0  0.37720740166E+00  0.71694974756E+01  0.28939570901E+03  0.28949020381E+03  0.17770000000E+01 0. -1.
</event>
<event>
 6   1  0.1826851E-04  0.5001200E+03  0.7546771E-02  0.9399541E-01
        -11   -1    0    0    0    0  0.00000000000E+00  0.00000000000E+00  0.50000000000E+03  0.50000000000E+03  0.00000000000E+00 0. -1.
         11   -1    0    0    0    0 -0.00000000000E+00 -0.00000000000E+00 -0.50000000000E+03  0.50000000000E+03  0.00000000000E+00 0. -1.
        -11    1    1    2    0    0  0.11135679576E+02  0.43327661104E+01  0.12570255178E+03  0.12626918763E+03  0.00000000000E+00 0. -1.
         11    1    1    2    0    0 -0.22952637430E+02 -0.68072909126E+01 -0.49930632059E+03  0.49987995014E+03  0.00000000000E+00 0. -1.
        -15    1    1    2    0    0  0.79468778877E+00  0.10698431033E+01  0.45491121540E+02  0.45545317662E+02  0.17770000000E+01 0. -1.
         15    1    1    2    0    0  0.11022270066E+02  0.14046816989E+01  0.32811264727E+03  0.32830554457E+03  0.17770000000E+01 0. -1.
</event>
<event>
 6   1  0.1826851E-04  0.5134250E+03  0.7546771E-02  0.9370261E-01
        -11   -1    0    0    0    0  0.00000000000E+00  0.00000000000E+00  0.50000000000E+03  0.50000000000E+03  0.00000000000E+00 0. -1.
         11   -1    0    0    0    0 -0.00000000000E+00 -0.00000000000E+00 -0.50000000000E+03  0.50000000000E+03  0.00000000000E+00 0.  1.
        -11    1    1    2    0    0  0.14546946000E+02 -0.54917464638E+02  0.48324698502E+03  0.48657495834E+03  0.00000000000E+00 0. -1.
         11    1    1    2    0    0  0.19935285191E+02  0.10902440559E+02 -0.42278401569E+03  0.42339414583E+03  0.00000000000E+00 0.  1.
        -15    1    1    2    0    0 -0.12142660149E+02  0.29236451783E+02 -0.10655848968E+02  0.33450248946E+02  0.17770000000E+01 0. -1.
         15    1    1    2    0    0 -0.22339571042E+02  0.14778572297E+02 -0.49807120360E+02  0.56580646877E+02  0.17770000000E+01 0.  1.
</event>
<event>
 6   1  0.1826851E-04  0.5002716E+03  0.7546771E-02  0.9399202E-01
        -11   -1    0    0    0    0  0.00000000000E+00  0.00000000000E+00  0.50000000000E+03  0.50000000000E+03  0.00000000000E+00 0.  1.
         11   -1    0    0    0    0 -0.00000000000E+00 -0.00000000000E+00 -0.50000000000E+03  0.50000000000E+03  0.00000000000E+00 0. -1.
        -11    1    1    2    0    0  0.16738279775E+02  0.12740039138E+02  0.49928545420E+03  0.49972836960E+03  0.00000000000E+00 0.  1.
         11    1    1    2    0    0 -0.12935190616E+02 -0.10120339892E+02 -0.43726599393E+03  0.43757432498E+03  0.00000000000E+00 0. -1.
        -15    1    1    2    0    0 -0.53371239956E+01 -0.36276067136E-01 -0.42123057732E+02  0.42497010838E+02  0.17770000000E+01 0. -1.
         15    1    1    2    0    0  0.15340348362E+01 -0.25834231786E+01 -0.19896402535E+02  0.20200294578E+02  0.17770000000E+01 0. -1.
</event>
<event>
 6   1  0.1826851E-04  0.5019719E+03  0.7546771E-02  0.9395408E-01
        -11   -1    0    0    0    0  0.00000000000E+00  0.00000000000E+00  0.50000000000E+03  0.50000000000E+03  0.00000000000E+00 0.  1.
         11   -1    0    0    0    0 -0.00000000000E+00 -0.00000000000E+00 -0.50000000000E+03  0.50000000000E+03  0.00000000000E+00 0. -1.
        -11    1    1    2    0    0  0.13706828657E+02  0.68572835228E+00  0.49783894636E+03  0.49802807540E+03  0.00000000000E+00 0.  1.
         11    1    1    2    0    0 -0.58051619959E+01  0.46060143312E+01 -0.47744774170E+03  0.47750524743E+03  0.00000000000E+00 0. -1.
        -15    1    1    2    0    0  0.12294685797E+01 -0.16764113443E+01 -0.85701552806E+01  0.89959567872E+01  0.17770000000E+01 0. -1.
         15    1    1    2    0    0 -0.91311352411E+01 -0.36153313392E+01 -0.11821049385E+02  0.15470720379E+02  0.17770000000E+01 0.  1.
</event>
<event>
 6   1  0.1826851E-04  0.5016554E+03  0.7546771E-02  0.9396113E-01
        -11   -1    0    0    0    0  0.00000000000E+00  0.00000000000E+00  0.50000000000E+03  0.50000000000E+03  0.00000000000E+00 0.  1.
         11   -1    0    0    0    0 -0.00000000000E+00 -0.00000000000E+00 -0.50000000000E+03  0.50000000000E+03  0.00000000000E+00 0.  1.
        -11    1    1    2    0    0  0.46369511106E+01 -0.93316743276E+01  0.25749630545E+02  0.27778137709E+02  0.00000000000E+00 0.  1.
         11    1    1    2    0    0  0.14991773621E+02  0.11823050805E+02 -0.49797866997E+03  0.49834455305E+03  0.00000000000E+00 0.  1.
        -15    1    1    2    0    0  0.86689238872E-01 -0.90469334006E+01  0.32990057916E+03  0.33002939926E+03  0.17770000000E+01 0.  1.
         15    1    1    2    0    0 -0.19715413971E+02  0.65555569234E+01  0.14232846026E+03  0.14384790998E+03  0.17770000000E+01 0. -1.
</event>
<event>
 6   1  0.1826851E-04  0.5001240E+03  0.7546771E-02  0.9399532E-01
        -11   -1    0    0    0    0  0.00000000000E+00  0.00000000000E+00  0.50000000000E+03  0.50000000000E+03  0.00000000000E+00 0. -1.
         11   -1    0    0    0    0 -0.00000000000E+00 -0.00000000000E+00 -0.50000000000E+03  0.50000000000E+03  0.00000000000E+00 0. -1.
        -11    1    1    2    0    0  0.46222290133E+01 -0.13414709096E+02  0.49967458556E+03  0.49987599550E+03  0.00000000000E+00 0. -1.
         11    1    1    2    0    0 -0.97363467330E+01  0.79981978484E+01 -0.29738844695E+03  0.29765526368E+03  0.00000000000E+00 0. -1.
        -15    1    1    2    0    0  0.38172092609E+01  0.31600719041E+01 -0.14551861198E+03  0.14561380877E+03  0.17770000000E+01 0. -1.
         15    1    1    2    0    0  0.12969084588E+01  0.22564393438E+01 -0.56767526625E+02  0.56854932048E+02  0.17770000000E+01 0. -1.
</event>
<event>
 6   1  0.1826851E-04  0.4878865E+03  0.7546771E-02  0.9427330E-01
        -11   -1    0    0    0    0  0.00000000000E+00  0.00000000000E+00  0.50000000000E+03  0.50000000000E+03  0.00000000000E+00 0. -1.
         11   -1    0    0    0    0 -0.00000000000E+00 -0.00000000000E+00 -0.50000000000E+03  0.50000000000E+03  0.00000000000E+00 0. -1.
        -11    1    1    2    0    0 -0.14718488567E+02  0.10607415501E+02  0.48287813120E+03  0.48321883321E+03  0.00000000000E+00 0. -1.
         11    1    1    2    0    0  0.50299264160E+01  0.66104936531E+01 -0.49273384928E+03  0.49280386059E+03  0.00000000000E+00 0. -1.
        -15    1    1    2    0    0  0.10694653672E+02 -0.15594909818E+02  0.97907268279E+01  0.21368034308E+02  0.17770000000E+01 0. -1.
         15    1    1    2    0    0 -0.10060915209E+01 -0.16229993364E+01  0.64991243324E-01  0.26092719015E+01  0.17770000000E+01 0.  1.
</event>
<event>
 6   1  0.1826851E-04  0.5021970E+03  0.7546771E-02  0.9394907E-01
        -11   -1    0    0    0    0  0.00000000000E+00  0.00000000000E+00  0.50000000000E+03  0.50000000000E+03  0.00000000000E+00 0. -1.
         11   -1    0    0    0    0 -0.00000000000E+00 -0.00000000000E+00 -0.50000000000E+03  0.50000000000E+03  0.00000000000E+00 0. -1.
        -11    1    1    2    0    0 -0.22405030682E+02  0.91028789763E+01  0.37824922419E+03  0.37902153422E+03  0.00000000000E+00 0. -1.
         11    1    1    2    0    0 -0.50136191640E+01 -0.12430736141E+02 -0.49762248850E+03  0.49780297371E+03  0.00000000000E+00 0. -1.
        -15    1    1    2    0    0  0.23006468530E+02 -0.15871526484E+01  0.82885670761E+02  0.86052360771E+02  0.17770000000E+01 0. -1.
         15    1    1    2    0    0  0.44121813166E+01  0.49150098135E+01  0.36487593548E+02  0.37123131298E+02  0.17770000000E+01 0.  1.
</event>
<event>
 6   1  0.1826851E-04  0.5021149E+03  0.7546771E-02  0.9395090E-01
        -11   -1    0    0    0    0  0.00000000000E+00  0.00000000000E+00  0.50000000000E+03  0.50000000000E+03  0.00000000000E+00 0.  1.
         11   -1    0    0    0    0 -0.00000000000E+00 -0.00000000000E+00 -0.50000000000E+03  0.50000000000E+03  0.00000000000E+00 0.  1.
        -11    1    1    2    0    0 -0.73295008511E+01  0.45879016894E+01  0.49780998294E+03  0.49788507664E+03  0.00000000000E+00 0.  1.
         11    1    1    2    0    0  0.46841266918E+01  0.97484328472E+01 -0.46995172629E+03  0.47007616194E+03  0.00000000000E+00 0.  1.
        -15    1    1    2    0    0  0.25963702080E+00 -0.57645568107E+01 -0.16043341795E+02  0.17141880631E+02  0.17770000000E+01 0. -1.
         15    1    1    2    0    0  0.23857371386E+01 -0.85717777259E+01 -0.11814914860E+02  0.14896880788E+02  0.17770000000E+01 0.  1.
</event>
<event>
 6   1  0.1826851E-04  0.5074127E+03  0.7546771E-02  0.9383374E-01
        -11   -1    0    0    0    0  0.00000000000E+00  0.00000000000E+00  0.50000000000E+03  0.50000000000E+03  0.00000000000E+00 0.  1.
         11   -1    0    0    0    0 -0.00000000000E+00 -0.00000000000E+00 -0.50000000000E+03  0.50000000000E+03  0.00000000000E+00 0. -1.
        -11    1    1    2    0    0 -0.45292729952E+02  0.77848495624E+02  0.48428336849E+03  0.49258725182E+03  0.00000000000E+00 0.  1.
         11    1    1    2    0    0  0.29825189260E+01  0.57999584981E+01 -0.28119754143E+03  0.28127316303E+03  0.00000000000E+00 0. -1.
        -15    1    1    2    0    0  0.72484640714E+01 -0.34279165511E+02 -0.46541389189E+02  0.58282587933E+02  0.17770000000E+01 0.  1.
         15    1    1    2    0    0  0.35061746955E+02 -0.49369288611E+02 -0.15654443787E+03  0.16785699722E+03  0.17770000000E+01 0. -1.
</event>
<event>
 6   1  0.1826851E-04  0.5044582E+03  0.7546771E-02  0.9389889E-01
        -11   -1    0    0    0    0  0.00000000000E+00  0.00000000000E+00  0.50000000000E+03  0.50000000000E+03  0.00000000000E+00 0. -1.
         11   -1    0    0    0    0 -0.00000000000E+00 -0.00000000000E+00 -0.50000000000E+03  0.50000000000E+03  0.00000000000E+00 0.  1.
        -11    1    1    2    0    0 -0.14340443244E+02 -0.82149520706E+01  0.48231809264E+03  0.48260115648E+03  0.00000000000E+00 0. -1.
         11    1    1    2    0    0  0.49551817869E+01 -0.50277650438E+01 -0.49549153130E+03  0.49554181442E+03  0.00000000000E+00 0.  1.
        -15    1    1    2    0    0  0.52533698703E+01  0.64672455275E+01  0.34769644384E+01  0.92016395502E+01  0.17770000000E+01 0.  1.
         15    1    1    2    0    0  0.41318915870E+01  0.67754715869E+01  0.96964742216E+01  0.12655389549E+02  0.17770000000E+01 0. -1.
</event>
<event>
 6   1  0.1826851E-04  0.5001525E+03  0.7546771E-02  0.9399469E-01
        -11   -1    0    0    0    0  0.00000000000E+00  0.00000000000E+00  0.50000000000E+03  0.50000000000E+03  0.00000000000E+00 0. -1.
         11   -1    0    0    0    0 -0.00000000000E+00 -0.00000000000E+00 -0.50000000000E+03  0.50000000000E+03  0.00000000000E+00 0. -1.
        -11    1    1    2    0    0  0.12685719151E+02  0.24288565602E+02  0.49909583907E+03  0.49984749521E+03  0.00000000000E+00 0. -1.
         11    1    1    2    0    0  0.11359861179E-01  0.14955594557E+01 -0.69716607744E+01  0.71302791731E+01  0.00000000000E+00 0. -1.
        -15    1    1    2    0    0 -0.19559034463E+01 -0.10534177702E+02 -0.15769356441E+03  0.15806711374E+03  0.17770000000E+01 0. -1.
         15    1    1    2    0    0 -0.10741175566E+02 -0.15249947357E+02 -0.33443061388E+03  0.33495511188E+03  0.17770000000E+01 0.  1.
</event>
<event>
 6   1  0.1826851E-04  0.5001632E+03  0.7546771E-02  0.9399445E-01
        -11   -1    0    0    0    0  0.00000000000E+00  0.00000000000E+00  0.50000000000E+03  0.50000000000E+03  0.00000000000E+00 0. -1.
         11   -1    0    0    0    0 -0.00000000000E+00 -0.00000000000E+00 -0.50000000000E+03  0.50000000000E+03  0.00000000000E+00 0. -1.
        -11    1    1    2    0    0  0.66609008405E+01  0.55694389160E+01  0.49976133479E+03  0.49983675135E+03  0.00000000000E+00 0. -1.
         11    1    1    2    0    0  0.30421731297E+01  0.19796810434E+01 -0.21945065058E+03  0.21948066429E+03  0.00000000000E+00 0. -1.
        -15    1    1    2    0    0 -0.59039259847E+01 -0.74665265791E+01 -0.15533694199E+03  0.15563845488E+03  0.17770000000E+01 0. -1.
         15    1    1    2    0    0 -0.37991479855E+01 -0.82593380311E-01 -0.12497374221E+03  0.12504412948E+03  0.17770000000E+01 0.  1.
</event>
<event>
 6   1  0.1826851E-04  0.5010829E+03  0.7546771E-02  0.9397390E-01
        -11   -1    0    0    0    0  0.00000000000E+00  0.00000000000E+00  0.50000000000E+03  0.50000000000E+03  0.00000000000E+00 0.  1.
         11   -1    0    0    0    0 -0.00000000000E+00 -0.00000000000E+00 -0.50000000000E+03  0.50000000000E+03  0.00000000000E+00 0. -1.
        -11    1    1    2    0    0 -0.28631724183E+01 -0.99154074464E+01  0.40379738885E+03  0.40392925656E+03  0.00000000000E+00 0.  1.
         11    1    1    2    0    0  0.27767829444E+01 -0.76564557614E+01 -0.49885066170E+03  0.49891714193E+03  0.00000000000E+00 0. -1.
        -15    1    1    2    0    0  0.82993214300E+00  0.15166311473E+02  0.89548375005E+02  0.90844785135E+02  0.17770000000E+01 0.  1.
         15    1    1    2    0    0 -0.74354266912E+00  0.24055517352E+01  0.55048978410E+01  0.63088163780E+01  0.17770000000E+01 0. -1.
</event>
<event>
 6   1  0.1826851E-04  0.5001647E+03  0.7546771E-02  0.9399441E-01
        -11   -1    0    0    0    0  0.00000000000E+00  0.00000000000E+00  0.50000000000E+03  0.50000000000E+03  0.00000000000E+00 0. -1.
         11   -1    0    0    0    0 -0.00000000000E+00 -0.00000000000E+00 -0.50000000000E+03  0.50000000000E+03  0.00000000000E+00 0.  1.
        -11    1    1    2    0    0 -0.44004608570E+01  0.14839693953E+01  0.11103000295E+03  0.11112707940E+03  0.00000000000E+00 0. -1.
         11    1    1    2    0    0  0.20610366396E+01  0.90972997583E+01 -0.49974822377E+03  0.49983526876E+03  0.00000000000E+00 0.  1.
        -15    1    1    2    0    0 -0.30098779515E+01 -0.38301531335E+00  0.14309304641E+03  0.14313624183E+03  0.17770000000E+01 0. -1.
         15    1    1    2    0    0  0.53493021689E+01 -0.10198253840E+02  0.24562517441E+03  0.24590141001E+03  0.17770000000E+01 0.  1.
</event>
<event>
 6   1  0.1826851E-04  0.4741543E+03  0.7546771E-02  0.9459574E-01
        -11   -1    0    0    0    0  0.00000000000E+00  0.00000000000E+00  0.50000000000E+03  0.50000000000E+03  0.00000000000E+00 0. -1.
         11   -1    0    0    0    0 -0.00000000000E+00 -0.00000000000E+00 -0.50000000000E+03  0.50000000000E+03  0.00000000000E+00 0. -1.
        -11    1    1    2    0    0 -0.85506641966E+01  0.29011697514E+02  0.46645387321E+03  0.46743342658E+03  0.00000000000E+00 0. -1.
         11    1    1    2    0    0  0.72845812809E+01  0.11107218708E+02 -0.48166291297E+03  0.48184603056E+03  0.00000000000E+00 0. -1.
        -15    1    1    2    0    0 -0.55483202456E+01 -0.39359511805E+01  0.11754940887E+02  0.13697150561E+02  0.17770000000E+01 0.  1.
         15    1    1    2    0    0  0.68144031613E+01 -0.36182965041E+02  0.34540988747E+01  0.37023392304E+02  0.17770000000E+01 0. -1.
</event>
<event>
 6   1  0.1826851E-04  0.5011234E+03  0.7546771E-02  0.9397300E-01
        -11   -1    0    0    0    0  0.00000000000E+00  0.00000000000E+00  0.50000000000E+03  0.50000000000E+03  0.00000000000E+00 0.  1.
         11   -1    0    0    0    0 -0.00000000000E+00 -0.00000000000E+00 -0.50000000000E+03  0.50000000000E+03  0.00000000000E+00 0. -1.
        -11    1    1    2    0    0 -0.21472573439E+01  0.21000321038E+02  0.87429054845E+02  0.89941446669E+02  0.00000000000E+00 0.  1.
         11    1    1    2    0    0  0.87258422712E+01 -0.18520542227E+02 -0.49845634555E+03  0.49887661724E+03  0.00000000000E+00 0. -1.
        -15    1    1    2    0    0  0.15652389231E+01  0.32539950492E-01  0.60033969319E+02  0.60080664385E+02  0.17770000000E+01 0. -1.
         15    1    1    2    0    0 -0.81438238504E+01 -0.25123187606E+01  0.35099332138E+03  0.35110127171E+03  0.17770000000E+01 0.  1.
</event>
<event>
 6   1  0.1826851E-04  0.5018115E+03  0.7546771E-02  0.9395765E-01
        -11   -1    0    0    0    0  0.00000000000E+00  0.00000000000E+00  0.50000000000E+03  0.50000000000E+03  0.00000000000E+00 0. -1.
         11   -1    0    0    0    0 -0.00000000000E+00 -0.00000000000E+00 -0.50000000000E+03  0.50000000000E+03  0.00000000000E+00 0.  1.
        -11    1    1    2    0    0  0.12451146851E+02  0.31877882800E+01  0.43668401784E+03  0.43687312172E+03  0.00000000000E+00 0. -1.
         11    1    1    2    0    0  0.77165182762E+00  0.11084200414E+02 -0.49806458425E+03  0.49818850351E+03  0.00000000000E+00 0.  1.
        -15    1    1    2    0    0 -0.17751741842E+01 -0.61558578598E+01  0.14129991549E+02  0.15616024448E+02  0.17770000000E+01 0.  1.
         15    1    1    2    0    0 -0.11447624495E+02 -0.81161308337E+01  0.47250574869E+02  0.49322350316E+02  0.17770000000E+01 0. -1.
</event>
<event>
 6   1  0.1826851E-04  0.5016043E+03  0.7546771E-02  0.9396227E-01
        -11   -1    0    0    0    0  0.00000000000E+00  0.00000000000E+00  0.50000000000E+03  0.50000000000E+03  0.00000000000E+00 0.  1.
         11   -1    0    0    0    0 -0.00000000000E+00 -0.00000000000E+00 -0.50000000000E+03  0.50000000000E+03  0.00000000000E+00 0.  1.
        -11    1    1    2    0    0  0.46012411831E+01 -0.10699359155E+02  0.28087042457E+03  0.28111179823E+03  0.00000000000E+00 0.  1.
         11    1    1    2    0    0  0.30293482613E+01 -0.84446373912E+01 -0.49831491434E+03  0.49839566883E+03  0.00000000000E+00 0.  1.
        -15    1    1    2    0    0 -0.38880812788E+01  0.19346985400E+02  0.21448217910E+03  0.21539541755E+03  0.17770000000E+01 0.  1.
         15    1    1    2    0    0 -0.37425081655E+01 -0.20298885440E+00  0.29623106684E+01  0.50971153940E+01  0.17770000000E+01 0.  1.
</event>
<event>
 6   1  0.1826851E-04  0.5028302E+03  0.7546771E-02  0.9393499E-01
        -11   -1    0    0    0    0  0.00000000000E+00  0.00000000000E+00  0.50000000000E+03  0.50000000000E+03  0.00000000000E+00 0.  1.
         11   -1    0    0    0    0 -0.00000000000E+00 -0.00000000000E+00 -0.50000000000E+03  0.50000000000E+03  0.00000000000E+00 0.  1.
        -11    1    1    2    0    0 -0.51044415906E+01 -0.24477221813E+02  0.39184309079E+03  0.39264003554E+03  0.00000000000E+00 0.  1.
         11    1    1    2    0    0 -0.17417954932E+02  0.65064131030E+01 -0.49682195688E+03  0.49716976517E+03  0.00000000000E+00 0.  1.
        -15    1    1    2    0    0  0.18221274581E+02  0.10490920432E+02  0.92742454207E+02  0.95112537556E+02  0.17770000000E+01 0.  1.
         15    1    1    2    0    0  0.43011219409E+01  0.74798882779E+01  0.12236411881E+02  0.15077661732E+02  0.17770000000E+01 0. -1.
</event>
<event>
 6   1  0.1826851E-04  0.4818254E+03  0.7546771E-02  0.9441421E-01
        -11   -1    0    0    0    0  0.00000000000E+00  0.00000000000E+00  0.50000000000E+03  0.50000000000E+03  0.00000000000E+00 0. -1.
         11   -1    0    0    0    0 -0.00000000000E+00 -0.00000000000E+00 -0.50000000000E+03  0.50000000000E+03  0.00000000000E+00 0.  1.
        -11    1    1    2    0    0  0.92522648968E+01 -0.18155135836E+02  0.47409262090E+03  0.47453032206E+03  0.00000000000E+00 0. -1.
         11    1    1    2    0    0  0.91437303397E+01 -0.38869210836E+01 -0.48957148890E+03  0.48967229726E+03  0.00000000000E+00 0.  1.
        -15    1    1    2    0    0 -0.22008868114E+01  0.13356609879E+02  0.83635398880E+01  0.16010916859E+02  0.17770000000E+01 0.  1.
         15    1    1    2    0    0 -0.16195108425E+02  0.86854470407E+01  0.71153281180E+01  0.19786463818E+02  0.17770000000E+01 0. -1.
</event>
<event>
 6   1  0.1826851E-04  0.5181873E+03  0.7546771E-02  0.9360009E-01
        -11   -1    0    0    0    0  0.00000000000E+00  0.00000000000E+00  0.50000000000E+03  0.50000000000E+03  0.00000000000E+00 0. -1.
         11   -1    0    0    0    0 -0.00000000000E+00 -0.00000000000E+00 -0.50000000000E+03  0.50000000000E+03  0.00000000000E+00 0. -1.
        -11    1    1    2    0    0 -0.18456726513E+02  0.14909045839E+02  0.44121122814E+03  0.44184870515E+03  0.00000000000E+00 0. -1.
         11    1    1    2    0    0 -0.17700979145E+02  0.49122521118E+01 -0.48146238042E+03  0.48181270079E+03  0.00000000000E+00 0. -1.
        -15    1    1    2    0    0  0.27557000380E+02 -0.11153708485E+02 -0.43177739899E+01  0.30093095290E+02  0.17770000000E+01 0. -1.
         15    1    1    2    0    0  0.86007052774E+01 -0.86675894662E+01  0.44568926271E+02  0.46245498769E+02  0.17770000000E+01 0.  1.
</event>
<event>
 6   1  0.1826851E-04  0.5009575E+03  0.7546771E-02  0.9397670E-01
        -11   -1    0    0    0    0  0.00000000000E+00  0.00000000000E+00  0.50000000000E+03  0.50000000000E+03  0.00000000000E+00 0.  1.
         11   -1    0    0    0    0 -0.00000000000E+00 -0.00000000000E+00 -0.50000000000E+03  0.50000000000E+03  0.00000000000E+00 0. -1.
        -11    1    1    2    0    0  0.71057090113E+00 -0.71366202395E+01  0.49899093483E+03  0.49904247244E+03  0.00000000000E+00 0.  1.
         11    1    1    2    0    0  0.64696351835E+01  0.25773257704E+01 -0.43271780639E+03  0.43277384251E+03  0.00000000000E+00 0. -1.
        -15    1    1    2    0    0  0.25240014196E+01 -0.10177604096E+01 -0.30146838474E+02  0.30321543799E+02  0.17770000000E+01 0. -1.
         15    1    1    2    0    0 -0.97042075042E+01  0.55770548787E+01 -0.36126289965E+02  0.37862141250E+02  0.17770000000E+01 0.  1.
</event>
<event>
 6   1  0.1826851E-04  0.5001587E+03  0.7546771E-02  0.9399455E-01
        -11   -1    0    0    0    0  0.00000000000E+00  0.00000000000E+00  0.50000000000E+03  0.50000000000E+03  0.00000000000E+00 0. -1.
         11   -1    0    0    0    0 -0.00000000000E+00 -0.00000000000E+00 -0.50000000000E+03  0.50000000000E+03  0.00000000000E+00 0.  1.
        -11    1    1    2    0    0  0.75131162297E+01  0.13505777091E+02  0.49960230011E+03  0.49984128601E+03  0.00000000000E+00 0. -1.
         11    1    1    2    0    0 -0.31861172204E+01 -0.11766064208E+01 -0.21083951695E+03  0.21086687187E+03  0.00000000000E+00 0.  1.
        -15    1    1    2    0    0  0.28151040723E+01 -0.17928998688E+01 -0.11133157180E+03  0.11139576253E+03  0.17770000000E+01 0.  1.
         15    1    1    2    0    0 -0.71421030816E+01 -0.10536270801E+02 -0.17743121136E+03  0.17789607958E+03  0.17770000000E+01 0. -1.
</event>
<event>
 6   1  0.1826851E-04  0.5002122E+03  0.7546771E-02  0.9399335E-01
        -11   -1    0    0    0    0  0.00000000000E+00  0.00000000000E+00  0.50000000000E+03  0.50000000000E+03  0.00000000000E+00 0. -1.
         11   -1    0    0    0    0 -0.00000000000E+00 -0.00000000000E+00 -0.50000000000E+03  0.50000000000E+03  0.00000000000E+00 0. -1.
        -11    1    1    2    0    0  0.14251319006E+02 -0.87125277451E+00  0.49958379107E+03  0.49978777844E+03  0.00000000000E+00 0. -1.
         11    1    1    2    0    0  0.81810059242E+00 -0.50643922551E+01 -0.45198800029E+02  0.45488997368E+02  0.00000000000E+00 0. -1.
        -15    1    1    2    0    0 -0.12160287690E+02  0.47413920448E+01 -0.29057185977E+03  0.29087027489E+03  0.17770000000E+01 0. -1.
         15    1    1    2    0    0 -0.29091319087E+01  0.11942529848E+01 -0.16381313127E+03  0.16385294930E+03  0.17770000000E+01 0.  1.
</event>
<event>
 6   1  0.1826851E-04  0.5022946E+03  0.7546771E-02  0.9394690E-01
        -11   -1    0    0    0    0  0.00000000000E+00  0.00000000000E+00  0.50000000000E+03  0.50000000000E+03  0.00000000000E+00 0.  1.
         11   -1    0    0    0    0 -0.00000000000E+00 -0.00000000000E+00 -0.50000000000E+03  0.50000000000E+03  0.00000000000E+00 0.  1.
        -11    1    1    2    0    0 -0.47542771356E+01  0.57248763100E+01  0.49764977273E+03  0.49770540851E+03  0.00000000000E+00 0.  1.
         11    1    1    2    0    0  0.24819156477E+01  0.10977200902E+02 -0.46334077847E+03  0.46347743832E+03  0.00000000000E+00 0.  1.
        -15    1    1    2    0    0  0.35058841369E+01 -0.13329597959E+02 -0.23660948516E+02  0.27440255448E+02  0.17770000000E+01 0.  1.
         15    1    1    2    0    0 -0.12335226490E+01 -0.33724792524E+01 -0.10648045748E+02  0.11376897718E+02  0.17770000000E+01 0. -1.
</event>
<event>
 6   1  0.1826851E-04  0.5055126E+03  0.7546771E-02  0.9387559E-01
        -11   -1    0    0    0    0  0.00000000000E+00  0.00000000000E+00  0.50000000000E+03  0.50000000000E+03  0.00000000000E+00 0. -1.
         11   -1    0    0    0    0 -0.00000000000E+00 -0.00000000000E+00 -0.50000000000E+03  0.50000000000E+03  0.00000000000E+00 0. -1.
        -11    1    1    2    0    0 -0.14427187819E+01  0.15407514138E+02  0.49424523038E+03  0.49448743228E+03  0.00000000000E+00 0. -1.
         11    1    1    2    0    0 -0.12836171887E+02  0.11518233793E+00 -0.47403462318E+03  0.47420839781E+03  0.00000000000E+00 0. -1.
        -15    1    1    2    0    0  0.13261079983E+02 -0.11488843682E+02 -0.10332371487E+02  0.20439310189E+02  0.17770000000E+01 0. -1.
         15    1    1    2    0    0  0.10178106864E+01 -0.40338527934E+01 -0.98782357152E+01  0.10864859723E+02  0.17770000000E+01 0.  1.
</event>
<event>
 6   1  0.1826851E-04  0.4819630E+03  0.7546771E-02  0.9441099E-01
        -11   -1    0    0    0    0  0.00000000000E+00  0.00000000000E+00  0.50000000000E+03  0.50000000000E+03  0.00000000000E+00 0. -1.
         11   -1    0    0    0    0 -0.00000000000E+00 -0.00000000000E+00 -0.50000000000E+03  0.50000000000E+03  0.00000000000E+00 0.  1.
        -11    1    1    2    0    0  0.52645249747E+01 -0.22145576911E+02  0.47931631113E+03  0.47985650763E+03  0.00000000000E+00 0. -1.
         11    1    1    2    0    0 -0.15239833978E+01 -0.64269569622E+01 -0.48446887566E+03  0.48451390051E+03  0.00000000000E+00 0.  1.
        -15    1    1    2    0    0 -0.65908144649E+01  0.27686385572E+02  0.95076961780E+01  0.30058755746E+02  0.17770000000E+01 0.  1.
         15    1    1    2    0    0  0.28502728881E+01  0.88614830093E+00 -0.43551316492E+01  0.55708361159E+01  0.17770000000E+01 0. -1.
</event>
<event>
 6   1  0.1826851E-04  0.5159280E+03  0.7546771E-02  0.9364858E-01
        -11   -1    0    0    0    0  0.00000000000E+00  0.00000000000E+00  0.50000000000E+03  0.50000000000E+03  0.00000000000E+00 0.  1.
         11   -1    0    0    0    0 -0.00000000000E+00 -0.00000000000E+00 -0.50000000000E+03  0.50000000000E+03  0.00000000000E+00 0.  1.
        -11    1    1    2    0    0  0.38120631713E+02  0.16281347757E+02  0.48229389922E+03  0.48407196787E+03  0.00000000000E+00 0.  1.
         11    1    1    2    0    0  0.27657898376E+02 -0.33481503094E+02 -0.41796782217E+03  0.42021788487E+03  0.00000000000E+00 0.  1.
        -15    1    1    2    0    0 -0.57031350979E+02  0.89378308508E+01 -0.46589341224E+02  0.74203667426E+02  0.17770000000E+01 0. -1.
         15    1    1    2    0    0 -0.87471791097E+01  0.82623244867E+01 -0.17736735823E+02  0.21506479836E+02  0.17770000000E+01 0.  1.
</event>
<event>
 6   1  0.1826851E-04  0.5006525E+03  0.7546771E-02  0.9398351E-01
        -11   -1    0    0    0    0  0.00000000000E+00  0.00000000000E+00  0.50000000000E+03  0.50000000000E+03  0.00000000000E+00 0. -1.
         11   -1    0    0    0    0 -0.00000000000E+00 -0.00000000000E+00 -0.50000000000E+03  0.50000000000E+03  0.00000000000E+00 0. -1.
        -11    1    1    2    0    0 -0.60426892058E+01  0.11043211830E+02  0.20869981090E+03  0.20907911825E+03  0.00000000000E+00 0. -1.
         11    1    1    2    0    0  0.44009912471E+01  0.10304061621E+02 -0.49922178086E+03  0.49934750315E+03  0.00000000000E+00 0. -1.
        -15    1    1    2    0    0  0.33987651405E+01 -0.11261968952E+02  0.21638944886E+03  0.21671625425E+03  0.17770000000E+01 0. -1.
         15    1    1    2    0    0 -0.17570671818E+01 -0.10085304499E+02  0.74132521107E+02  0.74857124354E+02  0.17770000000E+01 0.  1.
</event>
<event>
 6   1  0.1826851E-04  0.5010903E+03  0.7546771E-02  0.9397373E-01
        -11   -1    0    0    0    0  0.00000000000E+00  0.00000000000E+00  0.50000000000E+03  0.50000000000E+03  0.00000000000E+00 0.  1.
         11   -1    0    0    0    0 -0.00000000000E+00 -0.00000000000E+00 -0.50000000000E+03  0.50000000000E+03  0.00000000000E+00 0. -1.
        -11    1    1    2    0    0 -0.16539112481E+02 -0.65345956879E+01  0.49859270645E+03  0.49890974145E+03  0.00000000000E+00 0.  1.
         11    1    1    2    0    0 -0.58276709454E+01 -0.61823747342E+01 -0.19640508866E+03  0.19658876458E+03  0.00000000000E+00 0. -1.
        -15    1    1    2    0    0  0.22772107739E+02  0.16388614642E+02 -0.17465622272E+03  0.17690423806E+03  0.17770000000E+01 0. -1.
         15    1    1    2    0    0 -0.40532431262E+00 -0.36716442201E+01 -0.12753139507E+03  0.12759725592E+03  0.17770000000E+01 0.  1.
</event>
<event>
 6   1  0.1826851E-04  0.5064008E+03  0.7546771E-02  0.9385600E-01
        -11   -1    0    0    0    0  0.00000000000E+00  0.00000000000E+00  0.50000000000E+03  0.50000000000E+03  0.00000000000E+00 0.  1.
         11   -1    0    0    0    0 -0.00000000000E+00 -0.00000000000E+00 -0.50000000000E+03  0.50000000000E+03  0.00000000000E+00 0.  1.
        -11    1    1    2    0    0  0.16852693408E+02 -0.53099428319E+01  0.46805410644E+03  0.46838750552E+03  0.00000000000E+00 0.  1.
         11    1    1    2    0    0 -0.58025023546E+00  0.13174626296E+02 -0.49342298073E+03  0.49359917482E+03  0.00000000000E+00 0.  1.
        -15    1    1    2    0    0 -0.71818228884E+01 -0.36121370286E+01 -0.22822569108E+01  0.85435671426E+01  0.17770000000E+01 0. -1.
         15    1    1    2    0    0 -0.90906202839E+01 -0.42525464352E+01  0.27651131200E+02  0.29469752526E+02  0.17770000000E+01 0.  1.
</event>
<event>
 6   1  0.1826851E-04  0.5027921E+03  0.7546771E-02  0.9393584E-01
        -11   -1    0    0    0    0  0.00000000000E+00  0.00000000000E+00  0.50000000000E+03  0.50000000000E+03  0.00000000000E+00 0.  1.
         11   -1    0    0    0    0 -0.00000000000E+00 -0.00000000000E+00 -0.50000000000E+03  0.50000000000E+03  0.00000000000E+00 0.  1.
        -11    1    1    2    0    0 -0.22475764158E+02 -0.13228863581E+01  0.48482133456E+02  0.53454908729E+02  0.00000000000E+00 0.  1.
         11    1    1    2    0    0  0.37061443067E+01  0.13577965438E+02 -0.49700862749E+03  0.49720787650E+03  0.00000000000E+00 0.  1.
        -15    1    1    2    0    0  0.28361707616E+01 -0.10257131859E+02  0.19081169094E+03  0.19111648738E+03  0.17770000000E+01 0. -1.
         15    1    1    2    0    0  0.15933449090E+02 -0.19979472206E+01  0.25771480309E+03  0.25822072739E+03  0.17770000000E+01 0.  1.
</event>
<event>
 6   1  0.1826851E-04  0.5005369E+03  0.7546771E-02  0.9398609E-01
        -11   -1    0    0    0    0  0.00000000000E+00  0.00000000000E+00  0.50000000000E+03  0.50000000000E+03  0.00000000000E+00 0. -1.
         11   -1    0    0    0    0 -0.00000000000E+00 -0.00000000000E+00 -0.50000000000E+03  0.50000000000E+03  0.00000000000E+00 0. -1.
        -11    1    1    2    0    0 -0.23241959154E+01 -0.69662326170E+01  0.21077113897E+03  0.21089903581E+03  0.00000000000E+00 0. -1.
         11    1    1    2    0    0  0.29989880433E+01 -0.86041329723E+01 -0.49937994123E+03  0.49946306244E+03  0.00000000000E+00 0. -1.
        -15    1    1    2    0    0  0.52646011688E+01  0.12465950245E+02  0.25255369793E+03  0.25292220940E+03  0.17770000000E+01 0. -1.
         15    1    1    2    0    0 -0.59393932966E+01  0.31044153446E+01  0.36055104334E+02  0.36715692353E+02  0.17770000000E+01 0.  1.
</event>
<event>
 6   1  0.1826851E-04  0.5001892E+03  0.7546771E-02  0.9399387E-01
        -11   -1    0    0    0    0  0.00000000000E+00  0.00000000000E+00  0.50000000000E+03  0.50000000000E+03  0.00000000000E+00 0.  1.
         11   -1    0    0    0    0 -0.00000000000E+00 -0.00000000000E+00 -0.50000000000E+03  0.50000000000E+03  0.00000000000E+00 0.  1.
        -11    1    1    2    0    0  0.10454478247E+01 -0.20534300749E+02  0.49938774310E+03  0.49981083264E+03  0.00000000000E+00 0.  1.
         11    1    1    2    0    0 -0.31073630447E+01  0.46396826183E+01 -0.12163499462E+03  0.12176310721E+03  0.00000000000E+00 0.  1.
        -15    1    1    2    0    0  0.49633248034E+01  0.12807459585E+02 -0.15280173111E+03  0.15342813423E+03  0.17770000000E+01 0.  1.
         15    1    1    2    0    0 -0.29014095834E+01  0.30871585459E+01 -0.22495101737E+03  0.22499792592E+03  0.17770000000E+01 0. -1.
</event>
<event>
 6   1  0.1826851E-04  0.5038304E+03  0.7546771E-02  0.9391279E-01
        -11   -1    0    0    0    0  0.00000000000E+00  0.00000000000E+00  0.50000000000E+03  0.50000000000E+03  0.00000000000E+00 0. -1.
         11   -1    0    0    0    0 -0.00000000000E+00 -0.00000000000E+00 -0.50000000000E+03  0.50000000000E+03  0.00000000000E+00 0. -1.
        -11    1    1    2    0    0  0.56302650972E+02  0.11635172299E+02  0.49282741828E+03  0.49616955766E+03  0.00000000000E+00 0. -1.
         11    1    1    2    0    0  0.42783060514E+01 -0.12562679802E+01 -0.28156317388E+03  0.28159847833E+03  0.00000000000E+00 0. -1.
        -15    1    1    2    0    0 -0.56510083931E+02 -0.13141255612E+02 -0.15149576685E+03  0.16223503718E+03  0.17770000000E+01 0. -1.
         15    1    1    2    0    0 -0.40708730921E+01  0.27623512937E+01 -0.59768477548E+02  0.59996926837E+02  0.17770000000E+01 0. -1.
</event>
<event>
 6   1  0.1826851E-04  0.4906411E+03  0.7546771E-02  0.9420998E-01
        -11   -1    0    0    0    0  0.00000000000E+00  0.00000000000E+00  0.50000000000E+03  0.50000000000E+03  0.00000000000E+00 0. -1.
         11   -1    0    0    0    0 -0.00000000000E+00 -0.00000000000E+00 -0.50000000000E+03  0.50000000000E+03  0.00000000000E+00 0. -1.
        -11    1    1    2    0    0  0.65879488611E+00 -0.77095170174E+01  0.49173551706E+03  0.49179639019E+03  0.00000000000E+00 0. -1.
         11    1    1    2    0    0 -0.36599131575E+01 -0.94305083113E+01 -0.48953795126E+03  0.48964245647E+03  0.00000000000E+00 0. -1.
        -15    1    1    2    0    0  0.37245392379E+01  0.10943638230E+02 -0.28609739660E+01  0.12040693970E+02  0.17770000000E+01 0. -1.
         15    1    1    2    0    0 -0.72342096642E+00  0.61963870991E+01  0.66340816805E+00  0.65204593683E+01  0.17770000000E+01 0.  1.
</event>
<event>
 6   1  0.1826851E-04  0.5020907E+03  0.7546771E-02  0.9395144E-01
        -11   -1    0    0    0    0  0.00000000000E+00  0.00000000000E+00  0.50000000000E+03  0.50000000000E+03  0.00000000000E+00 0. -1.
         11   -1    0    0    0    0 -0.00000000000E+00 -0.00000000000E+00 -0.50000000000E+03  0.50000000000E+03  0.00000000000E+00 0. -1.
        -11    1    1    2    0    0  0.59678213552E-01 -0.88949855464E+01  0.49782980515E+03  0.49790926807E+03  0.00000000000E+00 0. -1.
         11    1    1    2    0    0 -0.69953248766E+01 -0.59772012259E+01 -0.45797933711E+03  0.45807175718E+03  0.00000000000E+00 0. -1.
        -15    1    1    2    0    0  0.74226108137E+01  0.12562392180E+02 -0.37384456858E+02  0.40170439282E+02  0.17770000000E+01 0.  1.
         15    1    1    2    0    0 -0.48696415060E+00  0.23097945927E+01 -0.24660111823E+01  0.38485354742E+01  0.17770000000E+01 0. -1.
</event>
<event>
 6   1  0.1826851E-04  0.5043578E+03  0.7546771E-02  0.9390111E-01
        -11   -1    0    0    0    0  0.00000000000E+00  0.00000000000E+00  0.50000000000E+03  0.50000000000E+03  0.00000000000E+00 0.  1.
         11   -1    0    0    0    0 -0.00000000000E+00 -0.00000000000E+00 -0.50000000000E+03  0.50000000000E+03  0.00000000000E+00 0.  1.
        -11    1    1    2    0    0  0.30072703385E+02  0.40105705713E+02  0.92668382404E+02  0.10535779144E+03  0.00000000000E+00 0.  1.
         11    1    1    2    0    0 -0.36150750251E+02 -0.56004465489E+02 -0.49113933536E+03  0.49564223351E+03  0.00000000000E+00 0.  1.
        -15    1    1    2    0    0  0.36239548118E+00  0.73879603288E+00  0.10153621828E+02  0.10340740558E+02  0.17770000000E+01 0.  1.
         15    1    1    2    0    0  0.57156513855E+01  0.15159963743E+02  0.38831733113E+03  0.38865923449E+03  0.17770000000E+01 0.  1.
</event>
<event>
 6   1  0.1826851E-04  0.5001113E+03  0.7546771E-02  0.9399561E-01
        -11   -1    0    0    0    0  0.00000000000E+00  0.00000000000E+00  0.50000000000E+03  0.50000000000E+03  0.00000000000E+00 0. -1.
         11   -1    0    0    0    0 -0.00000000000E+00 -0.00000000000E+00 -0.50000000000E+03  0.50000000000E+03  0.00000000000E+00 0.  1.
        -11    1    1    2    0    0  0.38982993120E+01 -0.26650774463E+01  0.34912361695E+03  0.34915555171E+03  0.00000000000E+00 0. -1.
         11    1    1    2    0    0 -0.56509976926E+01 -0.38617696711E+01 -0.49984185079E+03  0.49988871045E+03  0.00000000000E+00 0.  1.
        -15    1    1    2    0    0  0.22521748702E+01  0.18599198069E+01  0.67064992188E+02  0.67152084849E+02  0.17770000000E+01 0. -1.
         15    1    1    2    0    0 -0.49947648962E+00  0.46669273104E+01  0.83653241649E+02  0.83803652991E+02  0.17770000000E+01 0.  1.
</event>
<event>
 6   1  0.1826851E-04  0.5063079E+03  0.7546771E-02  0.9385805E-01
        -11   -1    0    0    0    0  0.00000000000E+00  0.00000000000E+00  0.50000000000E+03  0.50000000000E+03  0.00000000000E+00 0. -1.
         11   -1    0    0    0    0 -0.00000000000E+00 -0.00000000000E+00 -0.50000000000E+03  0.50000000000E+03  0.00000000000E+00 0.  1.
        -11    1    1    2    0    0 -0.32783051800E+02  0.36316833584E+01  0.45490192078E+03  0.45609612489E+03  0.00000000000E+00 0. -1.
         11    1    1    2    0    0  0.61077590873E+01 -0.54053651768E+01 -0.49362470410E+03  0.49369208135E+03  0.00000000000E+00 0.  1.
        -15    1    1    2    0    0 -0.12507576347E+01  0.32167412342E+01  0.37333791672E+01  0.53858767007E+01  0.17770000000E+01 0.  1.
         15    1    1    2    0    0  0.27926050347E+02 -0.14430594157E+01  0.34989404153E+02  0.44825917062E+02  0.17770000000E+01 0. -1.
</event>
<event>
 6   1  0.1826851E-04  0.5002933E+03  0.7546771E-02  0.9399154E-01
        -11   -1    0    0    0    0  0.00000000000E+00  0.00000000000E+00  0.50000000000E+03  0.50000000000E+03  0.00000000000E+00 0.  1.
         11   -1    0    0    0    0 -0.00000000000E+00 -0.00000000000E+00 -0.50000000000E+03  0.50000000000E+03  0.00000000000E+00 0.  1.
        -11    1    1    2    0    0  0.45484306264E+02  0.19554647102E+01  0.49762855665E+03  0.49970674035E+03  0.00000000000E+00 0.  1.
         11    1    1    2    0    0 -0.13803358519E+01  0.98690235377E+00 -0.69025430629E+02  0.69046284309E+02  0.00000000000E+00 0.  1.
        -15    1    1    2    0    0 -0.40158014639E+02  0.17498785671E+01 -0.39492023753E+03  0.39696458275E+03  0.17770000000E+01 0.  1.
         15    1    1    2    0    0 -0.39459557728E+01 -0.46922456311E+01 -0.33682888485E+02  0.34282392590E+02  0.17770000000E+01 0. -1.
</event>
<event>
 6   1  0.1826851E-04  0.4911153E+03  0.7546771E-02  0.9419912E-01
        -11   -1    0    0    0    0  0.00000000000E+00  0.00000000000E+00  0.50000000000E+03  0.50000000000E+03  0.00000000000E+00 0.  1.
         11   -1    0    0    0    0 -0.00000000000E+00 -0.00000000000E+00 -0.50000000000E+03  0.50000000000E+03  0.00000000000E+00 0.  1.
        -11    1    1    2    0    0 -0.50656760400E+01  0.11797164609E+02  0.49093149548E+03  0.49109934577E+03  0.00000000000E+00 0.  1.
         11    1    1    2    0    0  0.72777613003E+01  0.14036652184E+01 -0.49116664632E+03  0.49122256722E+03  0.00000000000E+00 0.  1.
        -15    1    1    2    0    0 -0.45435849751E+01 -0.84119649854E+00 -0.34156399749E+00  0.49624762910E+01  0.17770000000E+01 0. -1.
         15    1    1    2    0    0  0.23314997147E+01 -0.12359633329E+02  0.57671483958E+00  0.12715610719E+02  0.17770000000E+01 0.  1.
</event>
<event>
 6   1  0.1826851E-04  0.5030070E+03  0.7546771E-02  0.9393106E-01
        -11   -1    0    0    0    0  0.00000000000E+00  0.00000000000E+00  0.50000000000E+03  0.50000000000E+03  0.00000000000E+00 0. -1.
         11   -1    0    0    0    0 -0.00000000000E+00 -0.00000000000E+00 -0.50000000000E+03  0.50000000000E+03  0.00000000000E+00 0. -1.
        -11    1    1    2    0    0 -0.21543272629E+02  0.98927732099E+01  0.27755072622E+03  0.27856127725E+03  0.00000000000E+00 0. -1.
         11    1    1    2    0    0 -0.68818017816E+01  0.93575043735E+01 -0.49685724068E+03  0.49699299764E+03  0.00000000000E+00 0. -1.
        -15    1    1    2    0    0  0.18630940707E+02  0.52982043690E+01  0.12440824826E+03  0.12591962868E+03  0.17770000000E+01 0.  1.
         15    1    1    2    0    0  0.97941337033E+01 -0.24548481952E+02  0.94898266196E+02  0.98526096428E+02  0.17770000000E+01 0. -1.
</event>
<event>
 6   1  0.1826851E-04  0.5003873E+03  0.7546771E-02  0.9398943E-01
        -11   -1    0    0    0    0  0.00000000000E+00  0.00000000000E+00  0.50000000000E+03  0.50000000000E+03  0.00000000000E+00 0.  1.
         11   -1    0    0    0    0 -0.00000000000E+00 -0.00000000000E+00 -0.50000000000E+03  0.50000000000E+03  0.00000000000E+00 0.  1.
        -11    1    1    2    0    0 -0.79534369277E+01  0.67492552105E+00  0.39373746419E+02  0.40174675984E+02  0.00000000000E+00 0.  1.
         11    1    1    2    0    0  0.12024859807E+02 -0.29523641825E+02 -0.49859461298E+03  0.49961268076E+03  0.00000000000E+00 0.  1.
        -15    1    1    2    0    0 -0.22836957360E+01  0.21490937127E+02  0.28800046675E+03  0.28881568901E+03  0.17770000000E+01 0. -1.
         15    1    1    2    0    0 -0.17877271434E+01  0.73577791771E+01  0.17122039982E+03  0.17139695425E+03  0.17770000000E+01 0.  1.
</event>
<event>
 6   1  0.1826851E-04  0.5130762E+03  0.7546771E-02  0.9371017E-01
        -11   -1    0    0    0    0  0.00000000000E+00  0.00000000000E+00  0.50000000000E+03  0.50000000000E+03  0.00000000000E+00 0.  1.
         11   -1    0    0    0    0 -0.00000000000E+00 -0.00000000000E+00 -0.50000000000E+03  0.50000000000E+03  0.00000000000E+00 0. -1.
        -11    1    1    2    0    0  0.26358629050E+02 -0.16626086066E+02  0.48592546759E+03  0.48692377649E+03  0.00000000000E+00 0.  1.
         11    1    1    2    0    0 -0.17767851064E+01  0.12109795414E+02 -0.46338614656E+03  0.46354775906E+03  0.00000000000E+00 0. -1.
        -15    1    1    2    0    0  0.28601836918E+01 -0.10269737884E+02  0.35187041756E+00  0.10813404124E+02  0.17770000000E+01 0.  1.
         15    1    1    2    0    0 -0.27442027636E+02  0.14786028535E+02 -0.22891191451E+02  0.38715060321E+02  0.17770000000E+01 0. -1.
</event>
<event>
 6   1  0.1826851E-04  0.5013088E+03  0.7546771E-02  0.9396886E-01
        -11   -1    0    0    0    0  0.00000000000E+00  0.00000000000E+00  0.50000000000E+03  0.50000000000E+03  0.00000000000E+00 0.  1.
         11   -1    0    0    0    0 -0.00000000000E+00 -0.00000000000E+00 -0.50000000000E+03  0.50000000000E+03  0.00000000000E+00 0.  1.
        -11    1    1    2    0    0  0.11315780638E+02  0.15458666472E+02  0.68082262796E+02  0.70726315951E+02  0.00000000000E+00 0.  1.
         11    1    1    2    0    0 -0.69411465562E+01 -0.88401465663E+01 -0.49856456677E+03  0.49869124210E+03  0.00000000000E+00 0.  1.
        -15    1    1    2    0    0 -0.41430161183E+00 -0.18366286975E+01  0.17193919645E+03  0.17195868648E+03  0.17770000000E+01 0.  1.
         15    1    1    2    0    0 -0.39603324702E+01 -0.47818912086E+01  0.25854310753E+03  0.25862375548E+03  0.17770000000E+01 0.  1.
</event>
<event>
 6   1  0.1826851E-04  0.5027004E+03  0.7546771E-02  0.9393788E-01
        -11   -1    0    0    0    0  0.00000000000E+00  0.00000000000E+00  0.50000000000E+03  0.50000000000E+03  0.00000000000E+00 0. -1.
         11   -1    0    0    0    0 -0.00000000000E+00 -0.00000000000E+00 -0.50000000000E+03  0.50000000000E+03  0.00000000000E+00 0. -1.
        -11    1    1    2    0    0  0.12039345198E+02  0.69619663203E+00  0.49715339445E+03  0.49729963618E+03  0.00000000000E+00 0. -1.
         11    1    1    2    0    0  0.50367033211E+01 -0.47146618355E+01 -0.45340190158E+03  0.45345438666E+03  0.00000000000E+00 0. -1.
        -15    1    1    2    0    0 -0.28084550958E+00 -0.35505998205E+01 -0.59740979390E+01  0.71786634181E+01  0.17770000000E+01 0.  1.
         15    1    1    2    0    0 -0.16795203010E+02  0.75690650240E+01 -0.37777394931E+02  0.42067313751E+02  0.17770000000E+01 0. -1.
</event>
<event>
 6   1  0.1826851E-04  0.5021389E+03  0.7546771E-02  0.9395036E-01
        -11   -1    0    0    0    0  0.00000000000E+00  0.00000000000E+00  0.50000000000E+03  0.50000000000E+03  0.00000000000E+00 0. -1.
         11   -1    0    0    0    0 -0.00000000000E+00 -0.00000000000E+00 -0.50000000000E+03  0.50000000000E+03  0.00000000000E+00 0.  1.
        -11    1    1    2    0    0  0.87970828398E+01  0.57192615043E+01  0.46500186813E+03  0.46512023820E+03  0.00000000000E+00 0. -1.
         11    1    1    2    0    0 -0.11831550668E+02 -0.11993169989E+02 -0.49757597384E+03  0.49786109656E+03  0.00000000000E+00 0.  1.
        -15    1    1    2    0    0 -0.36727094124E+01 -0.38459493839E+00  0.12999046264E+01  0.42993242181E+01  0.17770000000E+01 0. -1.
         15    1    1    2    0    0  0.67071772401E+01  0.66585034228E+01  0.31274201087E+02  0.32719341024E+02  0.17770000000E+01 0.  1.
</event>
<event>
 6   1  0.1826851E-04  0.5007870E+03  0.7546771E-02  0.9398050E-01
        -11   -1    0    0    0    0  0.00000000000E+00  0.00000000000E+00  0.50000000000E+03  0.50000000000E+03  0.00000000000E+00 0. -1.
         11   -1    0    0    0    0 -0.00000000000E+00 -0.00000000000E+00 -0.50000000000E+03  0.50000000000E+03  0.00000000000E+00 0.  1.
        -11    1    1    2    0    0  0.21500534911E+02 -0.19848471994E+02  0.23749881067E+03  0.23929462993E+03  0.00000000000E+00 0. -1.
         11    1    1    2    0    0 -0.71021790256E+01  0.28028484128E+02 -0.49837491081E+03  0.49921296917E+03  0.00000000000E+00 0.  1.
        -15    1    1    2    0    0 -0.12177242968E+02 -0.85759577250E+01  0.22681873946E+03  0.22731416718E+03  0.17770000000E+01 0. -1.
         15    1    1    2    0    0 -0.22211129173E+01  0.39594559096E+00  0.34057360670E+02  0.34178233721E+02  0.17770000000E+01 0.  1.
</event>
<event>
 6   1  0.1826851E-04  0.4963315E+03  0.7546771E-02  0.9408056E-01
        -11   -1    0    0    0    0  0.00000000000E+00  0.00000000000E+00  0.50000000000E+03  0.50000000000E+03  0.00000000000E+00 0.  1.
         11   -1    0    0    0    0 -0.00000000000E+00 -0.00000000000E+00 -0.50000000000E+03  0.50000000000E+03  0.00000000000E+00 0.  1.
        -11    1    1    2    0    0 -0.11427193794E+02  0.97824743775E+01  0.80177019772E+01  0.17045853101E+02  0.00000000000E+00 0.  1.
         11    1    1    2    0    0  0.14167472817E+02 -0.22525475528E+02 -0.49006598842E+03  0.49078792501E+03  0.00000000000E+00 0.  1.
        -15    1    1    2    0    0  0.37104829563E+02 -0.24300312441E+02  0.24028503276E+03  0.24435083028E+03  0.17770000000E+01 0.  1.
         15    1    1    2    0    0 -0.39845108586E+02  0.37043313592E+02  0.24176325368E+03  0.24781539161E+03  0.17770000000E+01 0. -1.
</event>
<event>
 6   1  0.1826851E-04  0.4569898E+03  0.7546771E-02  0.9501551E-01
        -11   -1    0    0    0    0  0.00000000000E+00  0.00000000000E+00  0.50000000000E+03  0.50000000000E+03  0.00000000000E+00 0. -1.
         11   -1    0    0    0    0 -0.00000000000E+00 -0.00000000000E+00 -0.50000000000E+03  0.50000000000E+03  0.00000000000E+00 0.  1.
        -11    1    1    2    0    0 -0.34633303011E+02 -0.30605402902E+02  0.45691773614E+03  0.45924935924E+03  0.00000000000E+00 0. -1.
         11    1    1    2    0    0 -0.10765185996E+02 -0.93179603347E+01 -0.45650554720E+03  0.45672752078E+03  0.00000000000E+00 0.  1.
        -15    1    1    2    0    0  0.25574522092E+02  0.26890597694E+02  0.28323090216E+02  0.46717401394E+02  0.17770000000E+01 0. -1.
         15    1    1    2    0    0  0.19823966915E+02  0.13032765542E+02 -0.28735279153E+02  0.37305718582E+02  0.17770000000E+01 0.  1.
</event>
<event>
 6   1  0.1826851E-04  0.5011027E+03  0.7546771E-02  0.9397346E-01
        -11   -1    0    0    0    0  0.00000000000E+00  0.00000000000E+00  0.50000000000E+03  0.50000000000E+03  0.00000000000E+00 0. -1.
         11   -1    0    0    0    0 -0.00000000000E+00 -0.00000000000E+00 -0.50000000000E+03  0.50000000000E+03  0.00000000000E+00 0.  1.
        -11    1    1    2    0    0 -0.12990624475E+02  0.42658355170E+01  0.42475784383E+03  0.42497785774E+03  0.00000000000E+00 0. -1.
         11    1    1    2    0    0 -0.19240461531E+01 -0.68609518181E+01 -0.49884638537E+03  0.49889727481E+03  0.00000000000E+00 0.  1.
        -15    1    1    2    0    0  0.46305732623E+01 -0.27828796036E+01  0.27263403007E+02  0.27850269301E+02  0.17770000000E+01 0. -1.
         15    1    1    2    0    0  0.10284097365E+02  0.53779959048E+01  0.46825138536E+02  0.48274598149E+02  0.17770000000E+01 0.  1.
</event>
<event>
 6   1  0.1826851E-04  0.5006321E+03  0.7546771E-02  0.9398396E-01
        -11   -1    0    0    0    0  0.00000000000E+00  0.00000000000E+00  0.50000000000E+03  0.50000000000E+03  0.00000000000E+00 0.  1.
         11   -1    0    0    0    0 -0.00000000000E+00 -0.00000000000E+00 -0.50000000000E+03  0.50000000000E+03  0.00000000000E+00 0.  1.
        -11    1    1    2    0    0  0.69541437685E+01  0.65048050057E+01  0.49927708324E+03  0.49936787887E+03  0.00000000000E+00 0.  1.
         11    1    1    2    0    0 -0.17116856121E+01 -0.10276043495E+02 -0.44789304235E+03  0.44801417871E+03  0.00000000000E+00 0.  1.
        -15    1    1    2    0    0 -0.24279177413E+01  0.58525619828E+01 -0.21712505699E+02  0.22687835927E+02  0.17770000000E+01 0. -1.
         15    1    1    2    0    0 -0.28145404151E+01 -0.20813234937E+01 -0.29671535190E+02  0.29930106495E+02  0.17770000000E+01 0.  1.
</event>
<event>
 6   1  0.1826851E-04  0.5000827E+03  0.7546771E-02  0.9399625E-01
        -11   -1    0    0    0    0  0.00000000000E+00  0.00000000000E+00  0.50000000000E+03  0.50000000000E+03  0.00000000000E+00 0.  1.
         11   -1    0    0    0    0 -0.00000000000E+00 -0.00000000000E+00 -0.50000000000E+03  0.50000000000E+03  0.00000000000E+00 0. -1.
        -11    1    1    2    0    0  0.30035217242E+01 -0.86247864783E+00 -0.95642740774E+01  0.10061826414E+02  0.00000000000E+00 0.  1.
         11    1    1    2    0    0  0.66536071688E+01 -0.23714088525E+01 -0.48980454199E+03  0.48985547197E+03  0.00000000000E+00 0. -1.
        -15    1    1    2    0    0 -0.93652811423E+01  0.11104394739E+02  0.17419698599E+03  0.17481065107E+03  0.17770000000E+01 0.  1.
         15    1    1    2    0    0 -0.29184775077E+00 -0.78705072387E+01  0.32517183008E+03  0.32527205054E+03  0.17770000000E+01 0. -1.
</event>
<event>
 6   1  0.1826851E-04  0.5017212E+03  0.7546771E-02  0.9395967E-01
        -11   -1    0    0    0    0  0.00000000000E+00  0.00000000000E+00  0.50000000000E+03  0.50000000000E+03  0.00000000000E+00 0. -1.
         11   -1    0    0    0    0 -0.00000000000E+00 -0.00000000000E+00 -0.50000000000E+03  0.50000000000E+03  0.00000000000E+00 0. -1.
        -11    1    1    2    0    0 -0.26012945678E+02  0.37762510772E+02  0.18623335505E+03  0.19179557632E+03  0.00000000000E+00 0. -1.
         11    1    1    2    0    0  0.22224230836E+02 -0.41674944955E+02 -0.49603531540E+03  0.49827878903E+03  0.00000000000E+00 0. -1.
        -15    1    1    2    0    0  0.41800111835E+01  0.17821360265E+01  0.11491159136E+03  0.11501512970E+03  0.17770000000E+01 0. -1.
         15    1    1    2    0    0 -0.39129634168E+00  0.21302981566E+01  0.19489036899E+03  0.19491050495E+03  0.17770000000E+01 0.  1.
</event>
<event>
 6   1  0.1826851E-04  0.5021880E+03  0.7546771E-02  0.9394927E-01
        -11   -1    0    0    0    0  0.00000000000E+00  0.00000000000E+00  0.50000000000E+03  0.50000000000E+03  0.00000000000E+00 0. -1.
         11   -1    0    0    0    0 -0.00000000000E+00 -0.00000000000E+00 -0.50000000000E+03  0.50000000000E+03  0.00000000000E+00 0.  1.
        -11    1    1    2    0    0  0.68591841912E+01  0.66515888461E+01  0.49772027422E+03  0.49781197597E+03  0.00000000000E+00 0. -1.
         11    1    1    2    0    0  0.14412952595E+01 -0.73620971049E+01 -0.47673181163E+03  0.47679083258E+03  0.00000000000E+00 0.  1.
        -15    1    1    2    0    0 -0.51372365684E+01 -0.46695337226E+01 -0.72017070614E+01  0.10159628849E+02  0.17770000000E+01 0. -1.
         15    1    1    2    0    0 -0.31632428823E+01  0.53800419814E+01 -0.13786755530E+02  0.15237562610E+02  0.17770000000E+01 0.  1.
</event>
<event>
 6   1  0.1826851E-04  0.4534668E+03  0.7546771E-02  0.9510409E-01
        -11   -1    0    0    0    0  0.00000000000E+00  0.00000000000E+00  0.50000000000E+03  0.50000000000E+03  0.00000000000E+00 0.  1.
         11   -1    0    0    0    0 -0.00000000000E+00 -0.00000000000E+00 -0.50000000000E+03  0.50000000000E+03  0.00000000000E+00 0.  1.
        -11    1    1    2    0    0  0.28092844597E+02  0.15949982665E+02  0.45972903012E+03  0.46086265958E+03  0.00000000000E+00 0.  1.
         11    1    1    2    0    0  0.62737613970E+00  0.24610212852E+02 -0.44684546006E+03  0.44752309589E+03  0.00000000000E+00 0.  1.
        -15    1    1    2    0    0 -0.46144022935E+02 -0.34926386017E+02  0.13497562780E+02  0.59451368553E+02  0.17770000000E+01 0. -1.
         15    1    1    2    0    0  0.17423802198E+02 -0.56338094998E+01 -0.26381132838E+02  0.32162875980E+02  0.17770000000E+01 0.  1.
</event>
<event>
 6   1  0.1826851E-04  0.5040568E+03  0.7546771E-02  0.9390778E-01
        -11   -1    0    0    0    0  0.00000000000E+00  0.00000000000E+00  0.50000000000E+03  0.50000000000E+03  0.00000000000E+00 0.  1.
         11   -1    0    0    0    0 -0.00000000000E+00 -0.00000000000E+00 -0.50000000000E+03  0.50000000000E+03  0.00000000000E+00 0. -1.
        -11    1    1    2    0    0 -0.10846604508E+02 -0.14271684397E+02  0.45001535462E+03  0.45037223404E+03  0.00000000000E+00 0.  1.
         11    1    1    2    0    0  0.15499604822E+01 -0.83428793981E+01 -0.49587063895E+03  0.49594323928E+03  0.00000000000E+00 0. -1.
        -15    1    1    2    0    0  0.52540543014E+01  0.16352575780E+02  0.41314104612E+02  0.44777503170E+02  0.17770000000E+01 0.  1.
         15    1    1    2    0    0  0.40425897245E+01  0.62619880147E+01  0.45411797187E+01  0.89070235103E+01  0.17770000000E+01 0. -1.
</event>
<event>
 6   1  0.1826851E-04  0.5017206E+03  0.7546771E-02  0.9395968E-01
        -11   -1    0    0    0    0  0.00000000000E+00  0.00000000000E+00  0.50000000000E+03  0.50000000000E+03  0.00000000000E+00 0.  1.
         11   -1    0    0    0    0 -0.00000000000E+00 -0.00000000000E+00 -0.50000000000E+03  0.50000000000E+03  0.00000000000E+00 0.  1.
        -11    1    1    2    0    0 -0.11014846579E+01  0.24618809898E+02  0.23523952419E+03  0.23652681204E+03  0.00000000000E+00 0.  1.
         11    1    1    2    0    0 -0.19759025877E+01 -0.86672213711E+01 -0.49820009466E+03  0.49827939877E+03  0.00000000000E+00 0.  1.
        -15    1    1    2    0    0 -0.33610016407E+01  0.40088578734E+01  0.10568045759E+02  0.11925124470E+02  0.17770000000E+01 0. -1.
         15    1    1    2    0    0  0.64383888864E+01 -0.19960446400E+02  0.25239252471E+03  0.25326866472E+03  0.17770000000E+01 0.  1.
</event>
<event>
 6   1  0.1826851E-04  0.4600997E+03  0.7546771E-02  0.9493801E-01
        -11   -1    0    0    0    0  0.00000000000E+00  0.00000000000E+00  0.50000000000E+03  0.50000000000E+03  0.00000000000E+00 0.  1.
         11   -1    0    0    0    0 -0.00000000000E+00 -0.00000000000E+00 -0.50000000000E+03  0.50000000000E+03  0.00000000000E+00 0. -1.
        -11    1    1    2    0    0  0.68184242939E+02 -0.31405870046E+02  0.46225850424E+03  0.46831436493E+03  0.00000000000E+00 0.  1.
         11    1    1    2    0    0 -0.11617701536E+01  0.62221604788E+01 -0.45465350122E+03  0.45469756010E+03  0.00000000000E+00 0. -1.
        -15    1    1    2    0    0 -0.62762261229E+02  0.27437769286E+02 -0.88100513779E+00  0.68526392850E+02  0.17770000000E+01 0.  1.
         15    1    1    2    0    0 -0.42602115561E+01 -0.22540597189E+01 -0.67239978856E+01  0.84616821191E+01  0.17770000000E+01 0. -1.
</event>
<event>
 6   1  0.1826851E-04  0.5011021E+03  0.7546771E-02  0.9397347E-01
        -11   -1    0    0    0    0  0.00000000000E+00  0.00000000000E+00  0.50000000000E+03  0.50000000000E+03  0.00000000000E+00 0. -1.
         11   -1    0    0    0    0 -0.00000000000E+00 -0.00000000000E+00 -0.50000000000E+03  0.50000000000E+03  0.00000000000E+00 0. -1.
        -11    1    1    2    0    0  0.27013264151E+02  0.15986702352E+02  0.18132588670E+03  0.18402273848E+03  0.00000000000E+00 0. -1.
         11    1    1    2    0    0 -0.24841415806E+02 -0.73338369177E+01 -0.49822512857E+03  0.49889794532E+03  0.00000000000E+00 0. -1.
        -15    1    1    2    0    0 -0.29363521079E+01 -0.25594973850E+01  0.13395108694E+03  0.13401949341E+03  0.17770000000E+01 0. -1.
         15    1    1    2    0    0  0.76450376280E+00 -0.60933680492E+01  0.18294815493E+03  0.18305982279E+03  0.17770000000E+01 0.  1.
</event>
<event>
 6   1  0.1826851E-04  0.5144798E+03  0.7546771E-02  0.9367980E-01
        -11   -1    0    0    0    0  0.00000000000E+00  0.00000000000E+00  0.50000000000E+03  0.50000000000E+03  0.00000000000E+00 0.  1.
         11   -1    0    0    0    0 -0.00000000000E+00 -0.00000000000E+00 -0.50000000000E+03  0.50000000000E+03  0.00000000000E+00 0.  1.
        -11    1    1    2    0    0 -0.20887346696E+01 -0.29388703039E+02  0.48462540183E+03  0.48552017340E+03  0.00000000000E+00 0.  1.
         11    1    1    2    0    0  0.15397944473E+02 -0.59817081912E+01 -0.43289020381E+03  0.43320527015E+03  0.00000000000E+00 0.  1.
        -15    1    1    2    0    0  0.18925847376E+02  0.17185349598E+02 -0.21525121901E+02  0.33466588436E+02  0.17770000000E+01 0.  1.
         15    1    1    2    0    0 -0.32235057180E+02  0.18185061633E+02 -0.30210076117E+02  0.47807968018E+02  0.17770000000E+01 0. -1.
</event>
<event>
 6   1  0.1826851E-04  0.5117944E+03  0.7546771E-02  0.9373799E-01
        -11   -1    0    0    0    0  0.00000000000E+00  0.00000000000E+00  0.50000000000E+03  0.50000000000E+03  0.00000000000E+00 0. -1.
         11   -1    0    0    0    0 -0.00000000000E+00 -0.00000000000E+00 -0.50000000000E+03  0.50000000000E+03  0.00000000000E+00 0.  1.
        -11    1    1    2    0    0 -0.64307040773E+02  0.20429518658E+02  0.20799029301E+03  0.21866120532E+03  0.00000000000E+00 0. -1.
         11    1    1    2    0    0 -0.63782728795E+01  0.30327387503E+01 -0.48815448012E+03  0.48820556769E+03  0.00000000000E+00 0.  1.
        -15    1    1    2    0    0  0.63208318485E+02 -0.11243852816E+02  0.16485067224E+03  0.17691980561E+03  0.17770000000E+01 0. -1.
         15    1    1    2    0    0  0.74769951681E+01 -0.12218404593E+02  0.11531351487E+03  0.11621342138E+03  0.17770000000E+01 0.  1.
</event>
<event>
 6   1  0.1826851E-04  0.5003284E+03  0.7546771E-02  0.9399075E-01
        -11   -1    0    0    0    0  0.00000000000E+00  0.00000000000E+00  0.50000000000E+03  0.50000000000E+03  0.00000000000E+00 0.  1.
         11   -1    0    0    0    0 -0.00000000000E+00 -0.00000000000E+00 -0.50000000000E+03  0.50000000000E+03  0.00000000000E+00 0.  1.
        -11    1    1    2    0    0 -0.11713046382E+02 -0.48023666163E+01  0.14189550375E+03  0.14245908945E+03  0.00000000000E+00 0.  1.
         11    1    1    2    0    0  0.56358416156E+01  0.79666483381E+01 -0.49957633473E+03  0.49967163660E+03  0.00000000000E+00 0.  1.
        -15    1    1    2    0    0  0.48806488813E+01  0.78290807879E+00  0.91560253656E+02  0.91710803382E+02  0.17770000000E+01 0. -1.
         15    1    1    2    0    0  0.11965558847E+01 -0.39471898006E+01  0.26612057732E+03  0.26615847057E+03  0.17770000000E+01 0.  1.
</event>
<event>
 6   1  0.1826851E-04  0.5007036E+03  0.7546771E-02  0.9398237E-01
        -11   -1    0    0    0    0  0.00000000000E+00  0.00000000000E+00  0.50000000000E+03  0.50000000000E+03  0.00000000000E+00 0.  1.
         11   -1    0    0    0    0 -0.00000000000E+00 -0.00000000000E+00 -0.50000000000E+03  0.50000000000E+03  0.00000000000E+00 0. -1.
        -11    1    1    2    0    0 -0.24944916736E+02  0.11425690588E+03  0.45741195678E+03  0.47212560576E+03  0.00000000000E+00 0.  1.
         11    1    1    2    0    0  0.26076520054E+02 -0.11285910284E+03 -0.48567446628E+03  0.49929635408E+03  0.00000000000E+00 0. -1.
        -15    1    1    2    0    0 -0.58500425580E+00 -0.12896032926E+01  0.12387897411E+02  0.12594563823E+02  0.17770000000E+01 0. -1.
         15    1    1    2    0    0 -0.54659906202E+00 -0.10819974474E+00  0.15874612093E+02  0.15983476337E+02  0.17770000000E+01 0.  1.
</event>
<event>
 6   1  0.1826851E-04  0.5001006E+03  0.7546771E-02  0.9399585E-01
        -11   -1    0    0    0    0  0.00000000000E+00  0.00000000000E+00  0.50000000000E+03  0.50000000000E+03  0.00000000000E+00 0. -1.
         11   -1    0    0    0    0 -0.00000000000E+00 -0.00000000000E+00 -0.50000000000E+03  0.50000000000E+03  0.00000000000E+00 0. -1.
        -11    1    1    2    0    0  0.18064878276E+01  0.26996431802E+01  0.36464393633E+02  0.36608789581E+02  0.00000000000E+00 0. -1.
         11    1    1    2    0    0 -0.92056649844E+01  0.23190105733E+01 -0.49980920676E+03  0.49989935511E+03  0.00000000000E+00 0. -1.
        -15    1    1    2    0    0  0.33359129796E+01 -0.53629217108E+01  0.19539440127E+03  0.19550452430E+03  0.17770000000E+01 0. -1.
         15    1    1    2    0    0  0.40632641772E+01  0.34426795734E+00  0.26795041186E+03  0.26798733101E+03  0.17770000000E+01 0.  1.
</event>
<event>
 6   1  0.1826851E-04  0.5038304E+03  0.7546771E-02  0.9391279E-01
        -11   -1    0    0    0    0  0.00000000000E+00  0.00000000000E+00  0.50000000000E+03  0.50000000000E+03  0.00000000000E+00 0.  1.
         11   -1    0    0    0    0 -0.00000000000E+00 -0.00000000000E+00 -0.50000000000E+03  0.50000000000E+03  0.00000000000E+00 0. -1.
        -11    1    1    2    0    0  0.69874176978E+01 -0.69484287615E+01  0.49607174186E+03  0.49616960582E+03  0.00000000000E+00 0.  1.
         11    1    1    2    0    0  0.69573522005E+01 -0.74097124470E+00 -0.47219997207E+03  0.47225180509E+03  0.00000000000E+00 0. -1.
        -15    1    1    2    0    0 -0.28468471856E+01 -0.12375371670E+00 -0.14754764737E+02  0.15132107102E+02  0.17770000000E+01 0. -1.
         15    1    1    2    0    0 -0.11097922713E+02  0.78131537229E+01 -0.91170050481E+01  0.16446481985E+02  0.17770000000E+01 0.  1.
</event>
<event>
 6   1  0.1826851E-04  0.5001511E+03  0.7546771E-02  0.9399472E-01
        -11   -1    0    0    0    0  0.00000000000E+00  0.00000000000E+00  0.50000000000E+03  0.50000000000E+03  0.00000000000E+00 0.  1.
         11   -1    0    0    0    0 -0.00000000000E+00 -0.00000000000E+00 -0.50000000000E+03  0.50000000000E+03  0.00000000000E+00 0. -1.
        -11    1    1    2    0    0 -0.23317406325E+01  0.67840963822E+01  0.49979737892E+03  0.49984885811E+03  0.00000000000E+00 0.  1.
         11    1    1    2    0    0  0.71847494538E+00 -0.37757292975E+01 -0.34516934603E+02  0.34730262198E+02  0.00000000000E+00 0. -1.
        -15    1    1    2    0    0 -0.30915334587E+01  0.21811242761E+01 -0.15568626495E+03  0.15574236966E+03  0.17770000000E+01 0.  1.
         15    1    1    2    0    0  0.47047991458E+01 -0.51894913608E+01 -0.30959417936E+03  0.30967851004E+03  0.17770000000E+01 0. -1.
</event>
<event>
 6   1  0.1826851E-04  0.5005689E+03  0.7546771E-02  0.9398538E-01
        -11   -1    0    0    0    0  0.00000000000E+00  0.00000000000E+00  0.50000000000E+03  0.50000000000E+03  0.00000000000E+00 0.  1.
         11   -1    0    0    0    0 -0.00000000000E+00 -0.00000000000E+00 -0.50000000000E+03  0.50000000000E+03  0.00000000000E+00 0. -1.
        -11    1    1    2    0    0  0.40634085341E+01  0.12580579034E+02  0.44019966037E+03  0.44039814174E+03  0.00000000000E+00 0.  1.
         11    1    1    2    0    0  0.36562944468E+01 -0.73450668891E+01 -0.49936366761E+03  0.49943106734E+03  0.00000000000E+00 0. -1.
        -15    1    1    2    0    0 -0.50239564866E+01 -0.44254164468E+01  0.48697174930E+02  0.49187366515E+02  0.17770000000E+01 0.  1.
         15    1    1    2    0    0 -0.26957464944E+01 -0.81009569839E+00  0.10466832302E+02  0.10983424404E+02  0.17770000000E+01 0. -1.
</event>
<event>
 6   1  0.1826851E-04  0.5018545E+03  0.7546771E-02  0.9395670E-01
        -11   -1    0    0    0    0  0.00000000000E+00  0.00000000000E+00  0.50000000000E+03  0.50000000000E+03  0.00000000000E+00 0. -1.
         11   -1    0    0    0    0 -0.00000000000E+00 -0.00000000000E+00 -0.50000000000E+03  0.50000000000E+03  0.00000000000E+00 0.  1.
        -11    1    1    2    0    0 -0.71335103593E+01 -0.49938452805E+01  0.46900041557E+03  0.46908124591E+03  0.00000000000E+00 0. -1.
         11    1    1    2    0    0 -0.46827521438E+00 -0.71058058470E+01 -0.49809460111E+03  0.49814550426E+03  0.00000000000E+00 0.  1.
        -15    1    1    2    0    0  0.35566976768E+01  0.34488482890E+01  0.84012050012E+01  0.99137594966E+01  0.17770000000E+01 0.  1.
         15    1    1    2    0    0  0.40450878969E+01  0.86508028386E+01  0.20692980535E+02  0.22859490332E+02  0.17770000000E+01 0. -1.
</event>
<event>
 6   1  0.1826851E-04  0.5027077E+03  0.7546771E-02  0.9393771E-01
        -11   -1    0    0    0    0  0.00000000000E+00  0.00000000000E+00  0.50000000000E+03  0.50000000000E+03  0.00000000000E+00 0. -1.
         11   -1    0    0    0    0 -0.00000000000E+00 -0.00000000000E+00 -0.50000000000E+03  0.50000000000E+03  0.00000000000E+00 0.  1.
        -11    1    1    2    0    0  0.10761824238E+02  0.12600094550E+02  0.49701610123E+03  0.49729225223E+03  0.00000000000E+00 0. -1.
         11    1    1    2    0    0  0.10583138579E+02  0.20766375323E+00 -0.39551875764E+03  0.39566037658E+03  0.00000000000E+00 0.  1.
        -15    1    1    2    0    0 -0.19145484511E+02 -0.69513997577E+01 -0.37424246455E+02  0.42645087495E+02  0.17770000000E+01 0. -1.
         15    1    1    2    0    0 -0.21994783059E+01 -0.58563585457E+01 -0.64073097137E+02  0.64402283701E+02  0.17770000000E+01 0.  1.
</event>
<event>
 6   1  0.1826851E-04  0.5001705E+03  0.7546771E-02  0.9399428E-01
        -11   -1    0    0    0    0  0.00000000000E+00  0.00000000000E+00  0.50000000000E+03  0.50000000000E+03  0.00000000000E+00 0. -1.
         11   -1    0    0    0    0 -0.00000000000E+00 -0.00000000000E+00 -0.50000000000E+03  0.50000000000E+03  0.00000000000E+00 0.  1.
        -11    1    1    2    0    0 -0.60605511843E+00  0.47865089000E+01  0.28527097194E+03  0.28531176878E+03  0.00000000000E+00 0. -1.
         11    1    1    2    0    0 -0.92622521057E+01  0.12383275428E+01 -0.49974212722E+03  0.49982948741E+03  0.00000000000E+00 0.  1.
        -15    1    1    2    0    0  0.19787695609E+01 -0.77238783557E+00  0.27506180611E+02  0.27645249370E+02  0.17770000000E+01 0.  1.
         15    1    1    2    0    0  0.78895376632E+01 -0.52524486072E+01  0.18696497466E+03  0.18721349444E+03  0.17770000000E+01 0. -1.
</event>
<event>
 6   1  0.1826851E-04  0.5021296E+03  0.7546771E-02  0.9395057E-01
        -11   -1    0    0    0    0  0.00000000000E+00  0.00000000000E+00  0.50000000000E+03  0.50000000000E+03  0.00000000000E+00 0. -1.
         11   -1    0    0    0    0 -0.00000000000E+00 -0.00000000000E+00 -0.50000000000E+03  0.50000000000E+03  0.00000000000E+00 0. -1.
        -11    1    1    2    0    0  0.42578286284E+01  0.18526249025E+02  0.49750739739E+03  0.49787042638E+03  0.00000000000E+00 0. -1.
         11    1    1    2    0    0 -0.91693263111E+01 -0.26012544711E+01 -0.30997113530E+03  0.31011763540E+03  0.00000000000E+00 0. -1.
        -15    1    1    2    0    0 -0.85978288789E+01 -0.23469483520E+02 -0.99379676580E+02  0.10249008325E+03  0.17770000000E+01 0. -1.
         15    1    1    2    0    0  0.13509326562E+02  0.75444889658E+01 -0.88156585513E+02  0.89521854964E+02  0.17770000000E+01 0.  1.
</event>
<event>
 6   1  0.1826851E-04  0.4953257E+03  0.7546771E-02  0.9410330E-01
        -11   -1    0    0    0    0  0.00000000000E+00  0.00000000000E+00  0.50000000000E+03  0.50000000000E+03  0.00000000000E+00 0.  1.
         11   -1    0    0    0    0 -0.00000000000E+00 -0.00000000000E+00 -0.50000000000E+03  0.50000000000E+03  0.00000000000E+00 0. -1.
        -11    1    1    2    0    0  0.11598579029E+01 -0.88157572164E+01  0.49509402244E+03  0.49517386230E+03  0.00000000000E+00 0.  1.
         11    1    1    2    0    0 -0.60356138712E+01  0.40647422104E+01 -0.49544756269E+03  0.49550099711E+03  0.00000000000E+00 0. -1.
        -15    1    1    2    0    0  0.54493780507E+01  0.38193883261E+01  0.13400728097E+01  0.70169061886E+01  0.17770000000E+01 0. -1.
         15    1    1    2    0    0 -0.57362208241E+00  0.93162667988E+00 -0.98653256113E+00  0.23082344028E+01  0.17770000000E+01 0.  1.
</event>
<event>
 6   1  0.1826851E-04  0.5000414E+03  0.7546771E-02  0.9399717E-01
        -11   -1    0    0    0    0  0.00000000000E+00  0.00000000000E+00  0.50000000000E+03  0.50000000000E+03  0.00000000000E+00 0.  1.
         11   -1    0    0    0    0 -0.00000000000E+00 -0.00000000000E+00 -0.50000000000E+03  0.50000000000E+03  0.00000000000E+00 0.  1.
        -11    1    1    2    0    0  0.60630002248E+01 -0.10073005474E+02  0.28547254239E+03  0.28571453913E+03  0.00000000000E+00 0.  1.
         11    1    1    2    0    0 -0.60392210169E+01  0.14165897629E+02 -0.49972140085E+03  0.49995862160E+03  0.00000000000E+00 0.  1.
        -15    1    1    2    0    0  0.33487149783E+00 -0.23021185583E+01  0.14808082583E+03  0.14810975862E+03  0.17770000000E+01 0.  1.
         15    1    1    2    0    0 -0.35865070571E+00 -0.17907735965E+01  0.66168032625E+02  0.66217080658E+02  0.17770000000E+01 0.  1.
</event>
<event>
 6   1  0.1826851E-04  0.5007984E+03  0.7546771E-02  0.9398025E-01
        -11   -1    0    0    0    0  0.00000000000E+00  0.00000000000E+00  0.50000000000E+03  0.50000000000E+03  0.00000000000E+00 0. -1.
         11   -1    0    0    0    0 -0.00000000000E+00 -0.00000000000E+00 -0.50000000000E+03  0.50000000000E+03  0.00000000000E+00 0.  1.
        -11    1    1    2    0    0  0.11004159471E+02 -0.12858014352E+01  0.39017270232E+03  0.39032996611E+03  0.00000000000E+00 0. -1.
         11    1    1    2    0    0  0.38292991794E+01 -0.60178755937E+01 -0.49915059199E+03  0.49920155432E+03  0.00000000000E+00 0.  1.
        -15    1    1    2    0    0 -0.11441907400E+02  0.53069434567E+01  0.62142959889E+02  0.63434896442E+02  0.17770000000E+01 0. -1.
         15    1    1    2    0    0 -0.33915512503E+01  0.19967335721E+01  0.46834929783E+02  0.47033583125E+02  0.17770000000E+01 0.  1.
</event>
<event>
 6   1  0.1826851E-04  0.5063588E+03  0.7546771E-02  0.9385693E-01
        -11   -1    0    0    0    0  0.00000000000E+00  0.00000000000E+00  0.50000000000E+03  0.50000000000E+03  0.00000000000E+00 0.  1.
         11   -1    0    0    0    0 -0.00000000000E+00 -0.00000000000E+00 -0.50000000000E+03  0.50000000000E+03  0.00000000000E+00 0.  1.
        -11    1    1    2    0    0  0.48578489468E+01  0.34484903929E+02  0.31812693507E+03  0.32002742713E+03  0.00000000000E+00 0.  1.
         11    1    1    2    0    0 -0.15533741043E+02 -0.65263738982E+01 -0.49335352820E+03  0.49364115960E+03  0.00000000000E+00 0.  1.
        -15    1    1    2    0    0  0.10280344051E+02  0.15947601169E+02  0.44236088973E+02  0.48166386137E+02  0.17770000000E+01 0.  1.
         15    1    1    2    0    0  0.39554804480E+00 -0.43906131201E+02  0.13099050415E+03  0.13816502713E+03  0.17770000000E+01 0. -1.
</event>
<event>
 6   1  0.1826851E-04  0.4903330E+03  0.7546771E-02  0.9421704E-01
        -11   -1    0    0    0    0  0.00000000000E+00  0.00000000000E+00  0.50000000000E+03  0.50000000000E+03  0.00000000000E+00 0.  1.
         11   -1    0    0    0    0 -0.00000000000E+00 -0.00000000000E+00 -0.50000000000E+03  0.50000000000E+03  0.00000000000E+00 0. -1.
        -11    1    1    2    0    0 -0.11983263114E+02  0.12879099714E+02  0.48884803668E+03  0.48916446393E+03  0.00000000000E+00 0.  1.
         11    1    1    2    0    0  0.68137575947E+01 -0.87305520284E+00 -0.49154426092E+03  0.49159225987E+03  0.00000000000E+00 0. -1.
        -15    1    1    2    0    0  0.51550363238E+01 -0.14287786531E+02  0.52889283780E-02  0.15292906866E+02  0.17770000000E+01 0.  1.
         15    1    1    2    0    0  0.14469195953E-01  0.22817420193E+01  0.26909353110E+01  0.39503693306E+01  0.17770000000E+01 0. -1.
</event>
<event>
 6   1  0.1826851E-04  0.5003202E+03  0.7546771E-02  0.9399093E-01
        -11   -1    0    0    0    0  0.00000000000E+00  0.00000000000E+00  0.50000000000E+03  0.50000000000E+03  0.00000000000E+00 0.  1.
         11   -1    0    0    0    0 -0.00000000000E+00 -0.00000000000E+00 -0.50000000000E+03  0.50000000000E+03  0.00000000000E+00 0.  1.
        -11    1    1    2    0    0  0.66198973065E+01 -0.47349765570E+01  0.15934409420E+03  0.15955182042E+03  0.00000000000E+00 0.  1.
         11    1    1    2    0    0 -0.67291578527E+01 -0.29925868210E+01 -0.49962549354E+03  0.49967976838E+03  0.00000000000E+00 0.  1.
        -15    1    1    2    0    0  0.25828720521E+01 -0.43057401270E+00  0.13308264378E+02  0.13679336672E+02  0.17770000000E+01 0. -1.
         15    1    1    2    0    0 -0.24736115058E+01  0.81581373907E+01  0.32697313496E+03  0.32708907453E+03  0.17770000000E+01 0.  1.
</event>
<event>
 6   1  0.1826851E-04  0.5025384E+03  0.7546771E-02  0.9394148E-01
        -11   -1    0    0    0    0  0.00000000000E+00  0.00000000000E+00  0.50000000000E+03  0.50000000000E+03  0.00000000000E+00 0.  1.
         11   -1    0    0    0    0 -0.00000000000E+00 -0.00000000000E+00 -0.50000000000E+03  0.50000000000E+03  0.00000000000E+00 0.  1.
        -11    1    1    2    0    0  0.16615143422E+01 -0.13290225324E+02  0.18073404025E+02  0.22495302890E+02  0.00000000000E+00 0.  1.
         11    1    1    2    0    0  0.14223328151E+02 -0.98901753986E+01 -0.49715990260E+03  0.49746164414E+03  0.00000000000E+00 0.  1.
        -15    1    1    2    0    0 -0.42668679717E+01  0.37543883473E+01  0.17892672720E+03  0.17902578873E+03  0.17770000000E+01 0.  1.
         15    1    1    2    0    0 -0.11617974522E+02  0.19426012375E+02  0.30015977138E+03  0.30101726424E+03  0.17770000000E+01 0. -1.
</event>
<event>
 6   1  0.1826851E-04  0.5011792E+03  0.7546771E-02  0.9397175E-01
        -11   -1    0    0    0    0  0.00000000000E+00  0.00000000000E+00  0.50000000000E+03  0.50000000000E+03  0.00000000000E+00 0.  1.
         11   -1    0    0    0    0 -0.00000000000E+00 -0.00000000000E+00 -0.50000000000E+03  0.50000000000E+03  0.00000000000E+00 0. -1.
        -11    1    1    2    0    0 -0.78354074288E+01 -0.18583518698E+02  0.49841293250E+03  0.49882080155E+03  0.00000000000E+00 0.  1.
         11    1    1    2    0    0  0.25029650009E+01  0.48474904657E+01 -0.38186863648E+03  0.38190760470E+03  0.00000000000E+00 0. -1.
        -15    1    1    2    0    0  0.60799628071E+01  0.18142536512E+02 -0.73927115566E+02  0.76383857744E+02  0.17770000000E+01 0. -1.
         15    1    1    2    0    0 -0.74752037911E+00 -0.44065082794E+01 -0.42617180447E+02  0.42887736012E+02  0.17770000000E+01 0.  1.
</event>
<event>
 6   1  0.1826851E-04  0.5006820E+03  0.7546771E-02  0.9398285E-01
        -11   -1    0    0    0    0  0.00000000000E+00  0.00000000000E+00  0.50000000000E+03  0.50000000000E+03  0.00000000000E+00 0.  1.
         11   -1    0    0    0    0 -0.00000000000E+00 -0.00000000000E+00 -0.50000000000E+03  0.50000000000E+03  0.00000000000E+00 0.  1.
        -11    1    1    2    0    0  0.83332729319E+02  0.80033481664E+02  0.48576612490E+03  0.49931796489E+03  0.00000000000E+00 0.  1.
         11    1    1    2    0    0 -0.12056903346E+02 -0.31000410137E+02 -0.15522725013E+03  0.15875104261E+03  0.00000000000E+00 0.  1.
        -15    1    1    2    0    0 -0.66941119143E+02 -0.47993106576E+02 -0.30423047774E+03  0.31518850396E+03  0.17770000000E+01 0. -1.
         15    1    1    2    0    0 -0.43347068305E+01 -0.10399649509E+01 -0.26308397029E+02  0.26742488546E+02  0.17770000000E+01 0.  1.
</event>
<event>
 6   1  0.1826851E-04  0.5018282E+03  0.7546771E-02  0.9395728E-01
        -11   -1    0    0    0    0  0.00000000000E+00  0.00000000000E+00  0.50000000000E+03  0.50000000000E+03  0.00000000000E+00 0.  1.
         11   -1    0    0    0    0 -0.00000000000E+00 -0.00000000000E+00 -0.50000000000E+03  0.50000000000E+03  0.00000000000E+00 0. -1.
        -11    1    1    2    0    0  0.15104141568E+02 -0.16422845393E+01  0.49794010634E+03  0.49817183952E+03  0.00000000000E+00 0.  1.
         11    1    1    2    0    0  0.24367089573E+01  0.52671556431E+01 -0.41215153036E+03  0.41219238768E+03  0.00000000000E+00 0. -1.
        -15    1    1    2    0    0 -0.16799880123E+02  0.38876542559E+01 -0.68971378584E+02  0.71116514401E+02  0.17770000000E+01 0.  1.
         15    1    1    2    0    0 -0.74097040244E+00 -0.75125253597E+01 -0.16817197395E+02  0.18519258399E+02  0.17770000000E+01 0.  1.
</event>
<event>
 6   1  0.1826851E-04  0.5054865E+03  0.7546771E-02  0.9387616E-01
        -11   -1    0    0    0    0  0.00000000000E+00  0.00000000000E+00  0.50000000000E+03  0.50000000000E+03  0.00000000000E+00 0. -1.
         11   -1    0    0    0    0 -0.00000000000E+00 -0.00000000000E+00 -0.50000000000E+03  0.50000000000E+03  0.00000000000E+00 0.  1.
        -11    1    1    2    0    0 -0.62432582547E+01 -0.10931950246E+02  0.47858191411E+03  0.47874746404E+03  0.00000000000E+00 0. -1.
         11    1    1    2    0    0  0.70615758581E+01  0.25646477807E+00 -0.49446300052E+03  0.49451348870E+03  0.00000000000E+00 0.  1.
        -15    1    1    2    0    0 -0.74109879477E+00  0.43639963176E+01 -0.37335863270E+01  0.60573168272E+01  0.17770000000E+01 0. -1.
         15    1    1    2    0    0 -0.77218808590E-01  0.63114891503E+01  0.19614672731E+02  0.20681730426E+02  0.17770000000E+01 0.  1.
</event>
<event>
 6   1  0.1826851E-04  0.5028990E+03  0.7546771E-02  0.9393346E-01
        -11   -1    0    0    0    0  0.00000000000E+00  0.00000000000E+00  0.50000000000E+03  0.50000000000E+03  0.00000000000E+00 0.  1.
         11   -1    0    0    0    0 -0.00000000000E+00 -0.00000000000E+00 -0.50000000000E+03  0.50000000000E+03  0.00000000000E+00 0.  1.
        -11    1    1    2    0    0 -0.58341593284E+01  0.15180605943E+02  0.47674306588E+03  0.47702037596E+03  0.00000000000E+00 0.  1.
         11    1    1    2    0    0  0.10668989761E+02 -0.65188840616E+01 -0.49694376687E+03  0.49710102658E+03  0.00000000000E+00 0.  1.
        -15    1    1    2    0    0 -0.73681535275E+01 -0.11879806423E+01  0.69383706832E+01  0.10344065987E+02  0.17770000000E+01 0.  1.
         15    1    1    2    0    0  0.25333230953E+01 -0.74737412391E+01  0.13262330310E+02  0.15534531478E+02  0.17770000000E+01 0. -1.
</event>
<event>
 6   1  0.1826851E-04  0.5026219E+03  0.7546771E-02  0.9393962E-01
        -11   -1    0    0    0    0  0.00000000000E+00  0.00000000000E+00  0.50000000000E+03  0.50000000000E+03  0.00000000000E+00 0.  1.
         11   -1    0    0    0    0 -0.00000000000E+00 -0.00000000000E+00 -0.50000000000E+03  0.50000000000E+03  0.00000000000E+00 0. -1.
        -11    1    1    2    0    0  0.17336880582E+02 -0.15625749172E+02  0.49683020381E+03  0.49737810857E+03  0.00000000000E+00 0.  1.
         11    1    1    2    0    0  0.29355112240E+01 -0.64054475745E+01 -0.40755338027E+03  0.40761428429E+03  0.00000000000E+00 0. -1.
        -15    1    1    2    0    0  0.10892832382E+01  0.21106259653E+01 -0.12397186929E+02  0.12747127233E+02  0.17770000000E+01 0.  1.
         15    1    1    2    0    0 -0.21361675044E+02  0.19920570781E+02 -0.76879636609E+02  0.82260479910E+02  0.17770000000E+01 0. -1.
</event>
<event>
 6   1  0.1826851E-04  0.5015357E+03  0.7546771E-02  0.9396380E-01
        -11   -1    0    0    0    0  0.00000000000E+00  0.00000000000E+00  0.50000000000E+03  0.50000000000E+03  0.00000000000E+00 0. -1.
         11   -1    0    0    0    0 -0.00000000000E+00 -0.00000000000E+00 -0.50000000000E+03  0.50000000000E+03  0.00000000000E+00 0. -1.
        -11    1    1    2    0    0  0.29865121180E+01  0.13329467997E+02  0.49827708735E+03  0.49846429135E+03  0.00000000000E+00 0. -1.
         11    1    1    2    0    0  0.84993055624E+01  0.31549735216E+01 -0.42597774050E+03  0.42607420416E+03  0.00000000000E+00 0. -1.
        -15    1    1    2    0    0 -0.62252172110E+01 -0.13417531230E+02 -0.56632375660E+02  0.58559091314E+02  0.17770000000E+01 0.  1.
         15    1    1    2    0    0 -0.52606004694E+01 -0.30669102880E+01 -0.15666971187E+02  0.16902413176E+02  0.17770000000E+01 0. -1.
</event>
<event>
 6   1  0.1826851E-04  0.5000705E+03  0.7546771E-02  0.9399652E-01
        -11   -1    0    0    0    0  0.00000000000E+00  0.00000000000E+00  0.50000000000E+03  0.50000000000E+03  0.00000000000E+00 0. -1.
         11   -1    0    0    0    0 -0.00000000000E+00 -0.00000000000E+00 -0.50000000000E+03  0.50000000000E+03  0.00000000000E+00 0. -1.
        -11    1    1    2    0    0  0.19971874278E+00 -0.40110336334E+01  0.60321991828E+02  0.60455528915E+02  0.00000000000E+00 0. -1.
         11    1    1    2    0    0 -0.54377755645E+01  0.10211327150E+02 -0.49979560555E+03  0.49992948295E+03  0.00000000000E+00 0. -1.
        -15    1    1    2    0    0 -0.20077804312E+00 -0.34516864850E+01  0.26018407953E+03  0.26021311923E+03  0.17770000000E+01 0. -1.
         15    1    1    2    0    0  0.54388348648E+01 -0.27486070318E+01  0.17928953419E+03  0.17940186890E+03  0.17770000000E+01 0.  1.
</event>
<event>
 6   1  0.1826851E-04  0.5002012E+03  0.7546771E-02  0.9399360E-01
        -11   -1    0    0    0    0  0.00000000000E+00  0.00000000000E+00  0.50000000000E+03  0.50000000000E+03  0.00000000000E+00 0.  1.
         11   -1    0    0    0    0 -0.00000000000E+00 -0.00000000000E+00 -0.50000000000E+03  0.50000000000E+03  0.00000000000E+00 0.  1.
        -11    1    1    2    0    0  0.44401336441E+01  0.13736598716E+01  0.31108623736E+03  0.31112095527E+03  0.00000000000E+00 0.  1.
         11    1    1    2    0    0  0.21208228873E+01  0.70771234293E+01 -0.49974419597E+03  0.49979880449E+03  0.00000000000E+00 0.  1.
        -15    1    1    2    0    0  0.32157134412E+00 -0.19385379695E+01  0.25372044601E+02  0.25509992431E+02  0.17770000000E+01 0.  1.
         15    1    1    2    0    0 -0.68825278755E+01 -0.65122453313E+01  0.16328591400E+03  0.16357024781E+03  0.17770000000E+01 0. -1.
</event>
<event>
 6   1  0.1826851E-04  0.4772108E+03  0.7546771E-02  0.9452298E-01
        -11   -1    0    0    0    0  0.00000000000E+00  0.00000000000E+00  0.50000000000E+03  0.50000000000E+03  0.00000000000E+00 0. -1.
         11   -1    0    0    0    0 -0.00000000000E+00 -0.00000000000E+00 -0.50000000000E+03  0.50000000000E+03  0.00000000000E+00 0. -1.
        -11    1    1    2    0    0 -0.27369000659E+02  0.26106164839E+02  0.24331115799E+02  0.44973294695E+02  0.00000000000E+00 0. -1.
         11    1    1    2    0    0 -0.11420757140E+02  0.12444440893E+01 -0.48816804821E+03  0.48830321075E+03  0.00000000000E+00 0. -1.
        -15    1    1    2    0    0  0.26714951850E+02 -0.64076226058E+01  0.23561499392E+03  0.23721789428E+03  0.17770000000E+01 0.  1.
         15    1    1    2    0    0  0.12074805949E+02 -0.20942986322E+02  0.22822193850E+03  0.22950560027E+03  0.17770000000E+01 0. -1.
</event>
<event>
 6   1  0.1826851E-04  0.5045541E+03  0.7546771E-02  0.9389677E-01
        -11   -1    0    0    0    0  0.00000000000E+00  0.00000000000E+00  0.50000000000E+03  0.50000000000E+03  0.00000000000E+00 0.  1.
         11   -1    0    0    0    0 -0.00000000000E+00 -0.00000000000E+00 -0.50000000000E+03  0.50000000000E+03  0.00000000000E+00 0. -1.
        -11    1    1    2    0    0  0.37094866381E+01  0.80691932978E+01  0.47669083864E+03  0.47677356032E+03  0.00000000000E+00 0.  1.
         11    1    1    2    0    0  0.75002650974E+01  0.45144343804E+01 -0.49536855048E+03  0.49544589503E+03  0.00000000000E+00 0. -1.
        -15    1    1    2    0    0 -0.77340705956E+00 -0.88340134017E+01  0.10669105780E+02  0.13986618548E+02  0.17770000000E+01 0.  1.
         15    1    1    2    0    0 -0.10436344676E+02 -0.37496142765E+01  0.80086060594E+01  0.13793926106E+02  0.17770000000E+01 0. -1.
</event>
<event>
 6   1  0.1826851E-04  0.5037552E+03  0.7546771E-02  0.9391446E-01
        -11   -1    0    0    0    0  0.00000000000E+00  0.00000000000E+00  0.50000000000E+03  0.50000000000E+03  0.00000000000E+00 0.  1.
         11   -1    0    0    0    0 -0.00000000000E+00 -0.00000000000E+00 -0.50000000000E+03  0.50000000000E+03  0.00000000000E+00 0. -1.
        -11    1    1    2    0    0 -0.81489345417E+01  0.69626652899E+01  0.48616056078E+03  0.48627870065E+03  0.00000000000E+00 0.  1.
         11    1    1    2    0    0  0.11203047034E+01 -0.86726167113E+01 -0.49616775787E+03  0.49624481188E+03  0.00000000000E+00 0. -1.
        -15    1    1    2    0    0  0.55276883934E+01  0.37230654847E+01 -0.11376233168E+00  0.68983495450E+01  0.17770000000E+01 0. -1.
         15    1    1    2    0    0  0.15009414450E+01 -0.20131140632E+01  0.10120959421E+02  0.10578137930E+02  0.17770000000E+01 0.  1.
</event>
<event>
 6   1  0.1826851E-04  0.5025086E+03  0.7546771E-02  0.9394214E-01
        -11   -1    0    0    0    0  0.00000000000E+00  0.00000000000E+00  0.50000000000E+03  0.50000000000E+03  0.00000000000E+00 0. -1.
         11   -1    0    0    0    0 -0.00000000000E+00 -0.00000000000E+00 -0.50000000000E+03  0.50000000000E+03  0.00000000000E+00 0. -1.
        -11    1    1    2    0    0  0.76270450801E+01  0.30094831321E+02  0.49652171918E+03  0.49749139521E+03  0.00000000000E+00 0. -1.
         11    1    1    2    0    0 -0.26822282171E+02  0.18011597724E+01 -0.32375336902E+03  0.32486754677E+03  0.00000000000E+00 0. -1.
        -15    1    1    2    0    0 -0.27998433643E+01 -0.85568842913E+01 -0.35889898577E+02  0.37044593945E+02  0.17770000000E+01 0.  1.
         15    1    1    2    0    0  0.21995080455E+02 -0.23339106802E+02 -0.13687845159E+03  0.14059646407E+03  0.17770000000E+01 0. -1.
</event>
<event>
 6   1  0.1826851E-04  0.5044409E+03  0.7546771E-02  0.9389927E-01
        -11   -1    0    0    0    0  0.00000000000E+00  0.00000000000E+00  0.50000000000E+03  0.50000000000E+03  0.00000000000E+00 0.  1.
         11   -1    0    0    0    0 -0.00000000000E+00 -0.00000000000E+00 -0.50000000000E+03  0.50000000000E+03  0.00000000000E+00 0. -1.
        -11    1    1    2    0    0 -0.18070443227E+02  0.12252831522E+02  0.49507795832E+03  0.49555913634E+03  0.00000000000E+00 0.  1.
         11    1    1    2    0    0  0.89035888105E+01  0.16717442598E+00 -0.46177365902E+03  0.46185951760E+03  0.00000000000E+00 0. -1.
        -15    1    1    2    0    0 -0.46701979236E+01 -0.58863346853E+01 -0.22438813131E+02  0.23730102158E+02  0.17770000000E+01 0.  1.
         15    1    1    2    0    0  0.13837052340E+02 -0.65336712628E+01 -0.10865486173E+02  0.18851243896E+02  0.17770000000E+01 0. -1.
</event>
<event>
 6   1  0.1826851E-04  0.5072804E+03  0.7546771E-02  0.9383665E-01
        -11   -1    0    0    0    0  0.00000000000E+00  0.00000000000E+00  0.50000000000E+03  0.50000000000E+03  0.00000000000E+00 0. -1.
         11   -1    0    0    0    0 -0.00000000000E+00 -0.00000000000E+00 -0.50000000000E+03  0.50000000000E+03  0.00000000000E+00 0. -1.
        -11    1    1    2    0    0 -0.28207482131E+02 -0.22873006026E+02  0.39373034015E+03  0.39540158979E+03  0.00000000000E+00 0. -1.
         11    1    1    2    0    0  0.14619545375E+01 -0.12030078681E+02 -0.49257057130E+03  0.49271962394E+03  0.00000000000E+00 0. -1.
        -15    1    1    2    0    0  0.26541143912E+02  0.35676034599E+02  0.10010837064E+03  0.10955389252E+03  0.17770000000E+01 0.  1.
         15    1    1    2    0    0  0.20438368145E+00 -0.77294989214E+00 -0.12681394854E+01  0.23248937566E+01  0.17770000000E+01 0. -1.
</event>
<event>
 6   1  0.1826851E-04  0.5003281E+03  0.7546771E-02  0.9399076E-01
        -11   -1    0    0    0    0  0.00000000000E+00  0.00000000000E+00  0.50000000000E+03  0.50000000000E+03  0.00000000000E+00 0.  1.
         11   -1    0    0    0    0 -0.00000000000E+00 -0.00000000000E+00 -0.50000000000E+03  0.50000000000E+03  0.00000000000E+00 0. -1.
        -11    1    1    2    0    0  0.98516908217E+01  0.16171899132E+02  0.49931299113E+03  0.49967194162E+03  0.00000000000E+00 0.  1.
         11    1    1    2    0    0 -0.17066642433E+01  0.28018561164E+01 -0.13871972129E+03  0.13875851028E+03  0.00000000000E+00 0. -1.
        -15    1    1    2    0    0 -0.12531341146E+02 -0.17422237703E+02 -0.28501244328E+03  0.28582480548E+03  0.17770000000E+01 0. -1.
         15    1    1    2    0    0  0.43863145681E+01 -0.15515175459E+01 -0.75580826557E+02  0.75744742618E+02  0.17770000000E+01 0.  1.
</event>
<event>
 6   1  0.1826851E-04  0.5002989E+03  0.7546771E-02  0.9399141E-01
        -11   -1    0    0    0    0  0.00000000000E+00  0.00000000000E+00  0.50000000000E+03  0.50000000000E+03  0.00000000000E+00 0.  1.
         11   -1    0    0    0    0 -0.00000000000E+00 -0.00000000000E+00 -0.50000000000E+03  0.50000000000E+03  0.00000000000E+00 0. -1.
        -11    1    1    2    0    0  0.52359748264E+01  0.72065464248E+01  0.49962173489E+03  0.49970113840E+03  0.00000000000E+00 0.  1.
         11    1    1    2    0    0  0.39163240370E+01 -0.56599720949E+01 -0.39607545860E+03  0.39613525693E+03  0.00000000000E+00 0. -1.
        -15    1    1    2    0    0 -0.24428443992E+01 -0.89712072127E+00 -0.58138267883E+02  0.58223605486E+02  0.17770000000E+01 0.  1.
         15    1    1    2    0    0 -0.67094544641E+01 -0.64945360857E+00 -0.45408008402E+02  0.45939999186E+02  0.17770000000E+01 0. -1.
</event>
<event>
 6   1  0.1826851E-04  0.5091203E+03  0.7546771E-02  0.9379630E-01
        -11   -1    0    0    0    0  0.00000000000E+00  0.00000000000E+00  0.50000000000E+03  0.50000000000E+03  0.00000000000E+00 0.  1.
         11   -1    0    0    0    0 -0.00000000000E+00 -0.00000000000E+00 -0.50000000000E+03  0.50000000000E+03  0.00000000000E+00 0.  1.
        -11    1    1    2    0    0 -0.25488881692E+02  0.15250092416E+01  0.45696018724E+03  0.45767305084E+03  0.00000000000E+00 0.  1.
         11    1    1    2    0    0 -0.81893510615E+01 -0.18909412093E+02 -0.49044696831E+03  0.49087967983E+03  0.00000000000E+00 0.  1.
        -15    1    1    2    0    0  0.12777422966E+02  0.10201682758E+02  0.10514425798E+02  0.19520444350E+02  0.17770000000E+01 0.  1.
         15    1    1    2    0    0  0.20900809787E+02  0.71827200937E+01  0.22972355277E+02  0.31926824986E+02  0.17770000000E+01 0. -1.
</event>
<event>
 6   1  0.1826851E-04  0.5037082E+03  0.7546771E-02  0.9391550E-01
        -11   -1    0    0    0    0  0.00000000000E+00  0.00000000000E+00  0.50000000000E+03  0.50000000000E+03  0.00000000000E+00 0. -1.
         11   -1    0    0    0    0 -0.00000000000E+00 -0.00000000000E+00 -0.50000000000E+03  0.50000000000E+03  0.00000000000E+00 0. -1.
        -11    1    1    2    0    0  0.16786043127E+02 -0.74399615860E+01  0.41867261586E+03  0.41907503331E+03  0.00000000000E+00 0. -1.
         11    1    1    2    0    0  0.60769194656E+01 -0.83086189794E+01 -0.49618507518E+03  0.49629184049E+03  0.00000000000E+00 0. -1.
        -15    1    1    2    0    0 -0.12127411723E+02  0.50078180988E+01  0.13851360442E+02  0.19161687616E+02  0.17770000000E+01 0. -1.
         15    1    1    2    0    0 -0.10735550870E+02  0.10740762467E+02  0.63661098885E+02  0.65471438591E+02  0.17770000000E+01 0.  1.
</event>
<event>
 6   1  0.1826851E-04  0.4991547E+03  0.7546771E-02  0.9401703E-01
        -11   -1    0    0    0    0  0.00000000000E+00  0.00000000000E+00  0.50000000000E+03  0.50000000000E+03  0.00000000000E+00 0. -1.
         11   -1    0    0    0    0 -0.00000000000E+00 -0.00000000000E+00 -0.50000000000E+03  0.50000000000E+03  0.00000000000E+00 0.  1.
        -11    1    1    2    0    0 -0.19216030364E+01  0.78960584592E+00  0.55485718646E+00  0.21503260494E+01  0.00000000000E+00 0. -1.
         11    1    1    2    0    0 -0.12446601381E+02  0.80707556502E+00 -0.49878827387E+03  0.49894419669E+03  0.00000000000E+00 0.  1.
        -15    1    1    2    0    0 -0.39596851712E+01 -0.38138821334E+01  0.59408474845E+02  0.59688771272E+02  0.17770000000E+01 0.  1.
         15    1    1    2    0    0  0.18327889589E+02  0.22172007225E+01  0.43882494184E+03  0.43921670599E+03  0.17770000000E+01 0. -1.
</event>
<event>
 6   1  0.1826851E-04  0.4961201E+03  0.7546771E-02  0.9408533E-01
        -11   -1    0    0    0    0  0.00000000000E+00  0.00000000000E+00  0.50000000000E+03  0.50000000000E+03  0.00000000000E+00 0.  1.
         11   -1    0    0    0    0 -0.00000000000E+00 -0.00000000000E+00 -0.50000000000E+03  0.50000000000E+03  0.00000000000E+00 0.  1.
        -11    1    1    2    0    0  0.41284873966E+01  0.68962363548E+01  0.49665817485E+03  0.49672320776E+03  0.00000000000E+00 0.  1.
         11    1    1    2    0    0  0.15560892863E+01 -0.73862397920E+01 -0.49547670274E+03  0.49553419752E+03  0.00000000000E+00 0.  1.
        -15    1    1    2    0    0 -0.11510809489E+01 -0.12704445345E+01 -0.51229066619E+00  0.25217429276E+01  0.17770000000E+01 0. -1.
         15    1    1    2    0    0 -0.45334957339E+01  0.17604479718E+01 -0.66918144672E+00  0.52208517925E+01  0.17770000000E+01 0.  1.
</event>
<event>
 6   1  0.1826851E-04  0.5011840E+03  0.7546771E-02  0.9397164E-01
        -11   -1    0    0    0    0  0.00000000000E+00  0.00000000000E+00  0.50000000000E+03  0.50000000000E+03  0.00000000000E+00 0.  1.
         11   -1    0    0    0    0 -0.00000000000E+00 -0.00000000000E+00 -0.50000000000E+03  0.50000000000E+03  0.00000000000E+00 0. -1.
        -11    1    1    2    0    0  0.69250508537E+02  0.30236442118E+02  0.49305932067E+03  0.49881596713E+03  0.00000000000E+00 0.  1.
         11    1    1    2    0    0 -0.33373388823E+02 -0.33121237752E+02 -0.18602923501E+03  0.19187932601E+03  0.00000000000E+00 0. -1.
        -15    1    1    2    0    0 -0.27045383974E+02 -0.53779721976E+00 -0.25007541562E+03  0.25154048033E+03  0.17770000000E+01 0. -1.
         15    1    1    2    0    0 -0.88317357402E+01  0.34225928541E+01 -0.56954670047E+02  0.57764226535E+02  0.17770000000E+01 0.  1.
</event>
<event>
 6   1  0.1826851E-04  0.4814186E+03  0.7546771E-02  0.9442375E-01
        -11   -1    0    0    0    0  0.00000000000E+00  0.00000000000E+00  0.50000000000E+03  0.50000000000E+03  0.00000000000E+00 0. -1.
         11   -1    0    0    0    0 -0.00000000000E+00 -0.00000000000E+00 -0.50000000000E+03  0.50000000000E+03  0.00000000000E+00 0. -1.
        -11    1    1    2    0    0 -0.20176564306E+02  0.17717161063E+02  0.48148526353E+03  0.48223339841E+03  0.00000000000E+00 0. -1.
         11    1    1    2    0    0  0.74740742336E+00  0.97648403856E+01 -0.48109224577E+03  0.48119191563E+03  0.00000000000E+00 0. -1.
        -15    1    1    2    0    0  0.14412433004E+01 -0.13423872579E+02 -0.11281833280E+01  0.13664115920E+02  0.17770000000E+01 0. -1.
         15    1    1    2    0    0  0.17987913582E+02 -0.14058128870E+02  0.73516556487E+00  0.22910570045E+02  0.17770000000E+01 0.  1.
</event>
<event>
 6   1  0.1826851E-04  0.5014981E+03  0.7546771E-02  0.9396464E-01
        -11   -1    0    0    0    0  0.00000000000E+00  0.00000000000E+00  0.50000000000E+03  0.50000000000E+03  0.00000000000E+00 0. -1.
         11   -1    0    0    0    0 -0.00000000000E+00 -0.00000000000E+00 -0.50000000000E+03  0.50000000000E+03  0.00000000000E+00 0. -1.
        -11    1    1    2    0    0 -0.12891379718E+02  0.12776041026E+02  0.42197393718E+03  0.42236408294E+03  0.00000000000E+00 0. -1.
         11    1    1    2    0    0 -0.60668371002E+01 -0.83796614932E+01 -0.49839455973E+03  0.49850191816E+03  0.00000000000E+00 0. -1.
        -15    1    1    2    0    0  0.12919180863E+02 -0.46000736691E+01  0.44543598003E+02  0.46640709300E+02  0.17770000000E+01 0. -1.
         15    1    1    2    0    0  0.60390359559E+01  0.20369413623E+00  0.31877024546E+02  0.32493289607E+02  0.17770000000E+01 0.  1.
</event>
<event>
 6   1  0.1826851E-04  0.5005570E+03  0.7546771E-02  0.9398564E-01
        -11   -1    0    0    0    0  0.00000000000E+00  0.00000000000E+00  0.50000000000E+03  0.50000000000E+03  0.00000000000E+00 0. -1.
         11   -1    0    0    0    0 -0.00000000000E+00 -0.00000000000E+00 -0.50000000000E+03  0.50000000000E+03  0.00000000000E+00 0.  1.
        -11    1    1    2    0    0  0.10055543964E+02  0.60994636877E+01  0.49930454874E+03  0.49944303961E+03  0.00000000000E+00 0. -1.
         11    1    1    2    0    0  0.20005937978E+01  0.83281336333E+01 -0.24748359390E+03  0.24763176176E+03  0.00000000000E+00 0.  1.
        -15    1    1    2    0    0 -0.26471326620E+01 -0.13625376793E+02 -0.15214116256E+03  0.15278334097E+03  0.17770000000E+01 0.  1.
         15    1    1    2    0    0 -0.94090051001E+01 -0.80222052841E+00 -0.99679792290E+02  0.10014185766E+03  0.17770000000E+01 0. -1.
</event>
<event>
 6   1  0.1826851E-04  0.5214032E+03  0.7546771E-02  0.9353152E-01
        -11   -1    0    0    0    0  0.00000000000E+00  0.00000000000E+00  0.50000000000E+03  0.50000000000E+03  0.00000000000E+00 0.  1.
         11   -1    0    0    0    0 -0.00000000000E+00 -0.00000000000E+00 -0.50000000000E+03  0.50000000000E+03  0.00000000000E+00 0.  1.
        -11    1    1    2    0    0  0.14233496132E+02 -0.45234663256E+02  0.47624166504E+03  0.47859679344E+03  0.00000000000E+00 0.  1.
         11    1    1    2    0    0 -0.52710203953E+01 -0.68930881934E+01 -0.44120063005E+03  0.44128595522E+03  0.00000000000E+00 0.  1.
        -15    1    1    2    0    0 -0.17032731765E+02  0.50559019226E+02 -0.10804997048E+02  0.54463144113E+02  0.17770000000E+01 0.  1.
         15    1    1    2    0    0  0.80702560287E+01  0.15687322230E+01 -0.24236037942E+02  0.25654107220E+02  0.17770000000E+01 0. -1.
</event>
<event>
 6   1  0.1826851E-04  0.5059612E+03  0.7546771E-02  0.9386569E-01
        -11   -1    0    0    0    0  0.00000000000E+00  0.00000000000E+00  0.50000000000E+03  0.50000000000E+03  0.00000000000E+00 0.  1.
         11   -1    0    0    0    0 -0.00000000000E+00 -0.00000000000E+00 -0.50000000000E+03  0.50000000000E+03  0.00000000000E+00 0.  1.
        -11    1    1    2    0    0  0.13541331545E+02  0.12240318591E+03  0.47844370671E+03  0.49403875159E+03  0.00000000000E+00 0.  1.
         11    1    1    2    0    0 -0.16926211967E+02 -0.12308479721E+03 -0.26824452505E+03  0.29562051549E+03  0.00000000000E+00 0.  1.
        -15    1    1    2    0    0  0.33717136969E+01  0.29384438180E+01 -0.14044975841E+03  0.14053218589E+03  0.17770000000E+01 0. -1.
         15    1    1    2    0    0  0.13166724816E-01 -0.22568325226E+01 -0.69749423247E+02  0.69808547032E+02  0.17770000000E+01 0.  1.
</event>
<event>
 6   1  0.1826851E-04  0.5001102E+03  0.7546771E-02  0.9399563E-01
        -11   -1    0    0    0    0  0.00000000000E+00  0.00000000000E+00  0.50000000000E+03  0.50000000000E+03  0.00000000000E+00 0.  1.
         11   -1    0    0    0    0 -0.00000000000E+00 -0.00000000000E+00 -0.50000000000E+03  0.50000000000E+03  0.00000000000E+00 0. -1.
        -11    1    1    2    0    0 -0.36019170445E+01 -0.24138453926E+00  0.38183292451E+02  0.38353564310E+02  0.00000000000E+00 0.  1.
         11    1    1    2    0    0  0.78114698111E+01  0.16128855366E+01 -0.49982618986E+03  0.49988982839E+03  0.00000000000E+00 0. -1.
        -15    1    1    2    0    0 -0.15061177288E+01  0.27633927699E+01  0.84608381413E+02  0.84685539879E+02  0.17770000000E+01 0.  1.
         15    1    1    2    0    0 -0.27034350378E+01 -0.41348937673E+01  0.37703451599E+03  0.37707106742E+03  0.17770000000E+01 0.  1.
</event>
<event>
 6   1  0.1826851E-04  0.5165072E+03  0.7546771E-02  0.9363613E-01
        -11   -1    0    0    0    0  0.00000000000E+00  0.00000000000E+00  0.50000000000E+03  0.50000000000E+03  0.00000000000E+00 0.  1.
         11   -1    0    0    0    0 -0.00000000000E+00 -0.00000000000E+00 -0.50000000000E+03  0.50000000000E+03  0.00000000000E+00 0. -1.
        -11    1    1    2    0    0  0.12178960653E+01 -0.25333132760E+02  0.44913700078E+03  0.44985252735E+03  0.00000000000E+00 0.  1.
         11    1    1    2    0    0 -0.36738626380E+02  0.18883882624E+02 -0.48172500484E+03  0.48349282102E+03  0.00000000000E+00 0. -1.
        -15    1    1    2    0    0  0.34541128590E+02  0.76983250762E+01  0.43146129372E+02  0.55830994815E+02  0.17770000000E+01 0.  1.
         15    1    1    2    0    0  0.97960172468E+00 -0.12490749402E+01 -0.10558125313E+02  0.10823656816E+02  0.17770000000E+01 0. -1.
</event>
<event>
 6   1  0.1826851E-04  0.5007172E+03  0.7546771E-02  0.9398206E-01
        -11   -1    0    0    0    0  0.00000000000E+00  0.00000000000E+00  0.50000000000E+03  0.50000000000E+03  0.00000000000E+00 0.  1.
         11   -1    0    0    0    0 -0.00000000000E+00 -0.00000000000E+00 -0.50000000000E+03  0.50000000000E+03  0.00000000000E+00 0. -1.
        -11    1    1    2    0    0  0.56681614436E+01 -0.11179521077E+02  0.32810692836E+03  0.32834625959E+03  0.00000000000E+00 0.  1.
         11    1    1    2    0    0  0.73887155685E+01 -0.15063708644E+01 -0.49922583896E+03  0.49928278616E+03  0.00000000000E+00 0. -1.
        -15    1    1    2    0    0 -0.80179254787E+01  0.13009084736E+02  0.12755531066E+03  0.12847971988E+03  0.17770000000E+01 0.  1.
         15    1    1    2    0    0 -0.50389515334E+01 -0.32319279551E+00  0.43563599939E+02  0.43891234373E+02  0.17770000000E+01 0. -1.
</event>
<event>
 6   1  0.1826851E-04  0.5003055E+03  0.7546771E-02  0.9399126E-01
        -11   -1    0    0    0    0  0.00000000000E+00  0.00000000000E+00  0.50000000000E+03  0.50000000000E+03  0.00000000000E+00 0.  1.
         11   -1    0    0    0    0 -0.00000000000E+00 -0.00000000000E+00 -0.50000000000E+03  0.50000000000E+03  0.00000000000E+00 0. -1.
        -11    1    1    2    0    0 -0.97273306269E+01  0.13022706464E+02  0.49943004293E+03  0.49969448629E+03  0.00000000000E+00 0.  1.
         11    1    1    2    0    0 -0.31596687446E+01 -0.12181097029E+01 -0.13913897414E+03  0.13918017611E+03  0.00000000000E+00 0. -1.
        -15    1    1    2    0    0  0.36610822685E-01 -0.28083049231E+01 -0.20637877482E+03  0.20640553370E+03  0.17770000000E+01 0. -1.
         15    1    1    2    0    0  0.12850388549E+02 -0.89962918381E+01 -0.15391229398E+03  0.15471980390E+03  0.17770000000E+01 0.  1.
</event>
<event>
 6   1  0.1826851E-04  0.5001528E+03  0.7546771E-02  0.9399468E-01
        -11   -1    0    0    0    0  0.00000000000E+00  0.00000000000E+00  0.50000000000E+03  0.50000000000E+03  0.00000000000E+00 0. -1.
         11   -1    0    0    0    0 -0.00000000000E+00 -0.00000000000E+00 -0.50000000000E+03  0.50000000000E+03  0.00000000000E+00 0. -1.
        -11    1    1    2    0    0  0.74241665389E+01  0.15770703961E+01  0.88431957451E+02  0.88757064499E+02  0.00000000000E+00 0. -1.
         11    1    1    2    0    0 -0.10451266822E+02 -0.51874653949E+01 -0.49971100150E+03  0.49984720045E+03  0.00000000000E+00 0. -1.
        -15    1    1    2    0    0 -0.20005174868E+01  0.24935038043E+01  0.24537951597E+03  0.24540677296E+03  0.17770000000E+01 0. -1.
         15    1    1    2    0    0  0.50276177699E+01  0.11168911945E+01  0.16589952809E+03  0.16598896209E+03  0.17770000000E+01 0.  1.
</event>
<event>
 6   1  0.1826851E-04  0.5019228E+03  0.7546771E-02  0.9395518E-01
        -11   -1    0    0    0    0  0.00000000000E+00  0.00000000000E+00  0.50000000000E+03  0.50000000000E+03  0.00000000000E+00 0.  1.
         11   -1    0    0    0    0 -0.00000000000E+00 -0.00000000000E+00 -0.50000000000E+03  0.50000000000E+03  0.00000000000E+00 0.  1.
        -11    1    1    2    0    0  0.12290174910E+02  0.40084975432E+01  0.49790942112E+03  0.49807721097E+03  0.00000000000E+00 0.  1.
         11    1    1    2    0    0 -0.14185171559E+02 -0.19252522071E+01 -0.45603842299E+03  0.45626304796E+03  0.00000000000E+00 0.  1.
        -15    1    1    2    0    0 -0.69857850676E+01 -0.49091973701E+01 -0.19708612682E+02  0.21551996536E+02  0.17770000000E+01 0.  1.
         15    1    1    2    0    0  0.88807817168E+01  0.28259520340E+01 -0.22162385446E+02  0.24107744533E+02  0.17770000000E+01 0. -1.
</event>
<event>
 6   1  0.1826851E-04  0.5010040E+03  0.7546771E-02  0.9397566E-01
        -11   -1    0    0    0    0  0.00000000000E+00  0.00000000000E+00  0.50000000000E+03  0.50000000000E+03  0.00000000000E+00 0.  1.
         11   -1    0    0    0    0 -0.00000000000E+00 -0.00000000000E+00 -0.50000000000E+03  0.50000000000E+03  0.00000000000E+00 0. -1.
        -11    1    1    2    0    0 -0.34996234715E+01  0.84551120061E+01  0.43003089385E+03  0.43012824360E+03  0.00000000000E+00 0.  1.
         11    1    1    2    0    0 -0.97251617657E+01 -0.31749955299E+01 -0.49889113019E+03  0.49899601116E+03  0.00000000000E+00 0. -1.
        -15    1    1    2    0    0 -0.26683877198E+00 -0.20595726834E+01  0.91288635104E+01  0.95292665280E+01  0.17770000000E+01 0. -1.
         15    1    1    2    0    0  0.13491624009E+02 -0.32205437928E+01  0.59731372834E+02  0.61346478712E+02  0.17770000000E+01 0.  1.
</event>
<event>
 6   1  0.1826851E-04  0.5003153E+03  0.7546771E-02  0.9399104E-01
        -11   -1    0    0    0    0  0.00000000000E+00  0.00000000000E+00  0.50000000000E+03  0.50000000000E+03  0.00000000000E+00 0.  1.
         11   -1    0    0    0    0 -0.00000000000E+00 -0.00000000000E+00 -0.50000000000E+03  0.50000000000E+03  0.00000000000E+00 0. -1.
        -11    1    1    2    0    0  0.20964450378E+02 -0.72195409902E+01  0.49919247597E+03  0.49968465858E+03  0.00000000000E+00 0.  1.
         11    1    1    2    0    0  0.40391860898E+01 -0.19990082892E+01 -0.46331355657E+02  0.46550033034E+02  0.00000000000E+00 0. -1.
        -15    1    1    2    0    0 -0.40220378219E+01  0.57955726522E+01 -0.12335130891E+03  0.12356564486E+03  0.17770000000E+01 0. -1.
         15    1    1    2    0    0 -0.20981598646E+02  0.34229766272E+01 -0.32950981140E+03  0.33019966352E+03  0.17770000000E+01 0.  1.
</event>
<event>
 6   1  0.1826851E-04  0.5038043E+03  0.7546771E-02  0.9391337E-01
        -11   -1    0    0    0    0  0.00000000000E+00  0.00000000000E+00  0.50000000000E+03  0.50000000000E+03  0.00000000000E+00 0.  1.
         11   -1    0    0    0    0 -0.00000000000E+00 -0.00000000000E+00 -0.50000000000E+03  0.50000000000E+03  0.00000000000E+00 0. -1.
        -11    1    1    2    0    0  0.30747206511E+00 -0.78373610999E+01  0.47032604537E+03  0.47039144096E+03  0.00000000000E+00 0.  1.
         11    1    1    2    0    0  0.70124829571E+01 -0.37251989090E+01 -0.49613219975E+03  0.49619573926E+03  0.00000000000E+00 0. -1.
        -15    1    1    2    0    0  0.65329615593E+00  0.71462639275E+01  0.17082868585E+01  0.75876120737E+01  0.17770000000E+01 0. -1.
         15    1    1    2    0    0 -0.79732511781E+01  0.44162960813E+01  0.24097867522E+02  0.25825207715E+02  0.17770000000E+01 0.  1.
</event>
<event>
 6   1  0.1826851E-04  0.5055011E+03  0.7546771E-02  0.9387584E-01
        -11   -1    0    0    0    0  0.00000000000E+00  0.00000000000E+00  0.50000000000E+03  0.50000000000E+03  0.00000000000E+00 0.  1.
         11   -1    0    0    0    0 -0.00000000000E+00 -0.00000000000E+00 -0.50000000000E+03  0.50000000000E+03  0.00000000000E+00 0.  1.
        -11    1    1    2    0    0  0.14389446820E+02  0.70400189301E+01  0.49423939444E+03  0.49449893535E+03  0.00000000000E+00 0.  1.
         11    1    1    2    0    0  0.61183955304E+01 -0.52295139701E+01 -0.47680365341E+03  0.47687158281E+03  0.00000000000E+00 0.  1.
        -15    1    1    2    0    0 -0.16566342673E+02 -0.12130961224E+01 -0.17594586950E+02  0.24261956448E+02  0.17770000000E+01 0.  1.
         15    1    1    2    0    0 -0.39414996776E+01 -0.59740883756E+00  0.15884591935E+00  0.43675253925E+01  0.17770000000E+01 0. -1.
</event>
<event>
 6   1  0.1826851E-04  0.5002450E+03  0.7546771E-02  0.9399262E-01
        -11   -1    0    0    0    0  0.00000000000E+00  0.00000000000E+00  0.50000000000E+03  0.50000000000E+03  0.00000000000E+00 0.  1.
         11   -1    0    0    0    0 -0.00000000000E+00 -0.00000000000E+00 -0.50000000000E+03  0.50000000000E+03  0.00000000000E+00 0.  1.
        -11    1    1    2    0    0 -0.12654288481E+02 -0.70177558478E+01  0.34718310962E+03  0.34748451982E+03  0.00000000000E+00 0.  1.
         11    1    1    2    0    0  0.73216896284E+01  0.18920072693E+01 -0.49969780207E+03  0.49975502021E+03  0.00000000000E+00 0.  1.
        -15    1    1    2    0    0  0.24243225083E+01  0.11492158065E+01  0.75027289049E+02  0.75096270664E+02  0.17770000000E+01 0. -1.
         15    1    1    2    0    0  0.29082763439E+01  0.39765327721E+01  0.77487403408E+02  0.77664189303E+02  0.17770000000E+01 0. -1.
</event>
<event>
 6   1  0.1826851E-04  0.4732453E+03  0.7546771E-02  0.9461749E-01
        -11   -1    0    0    0    0  0.00000000000E+00  0.00000000000E+00  0.50000000000E+03  0.50000000000E+03  0.00000000000E+00 0.  1.
         11   -1    0    0    0    0 -0.00000000000E+00 -0.00000000000E+00 -0.50000000000E+03  0.50000000000E+03  0.00000000000E+00 0. -1.
        -11    1    1    2    0    0 -0.20442385340E+02 -0.20003592422E+02  0.47862689181E+03  0.47948069449E+03  0.00000000000E+00 0.  1.
         11    1    1    2    0    0 -0.54368874666E+01  0.48556028368E+01 -0.46749339871E+03  0.46755022667E+03  0.00000000000E+00 0. -1.
        -15    1    1    2    0    0  0.39912649094E+01  0.67154088438E+01 -0.24594523852E+02  0.25866488823E+02  0.17770000000E+01 0. -1.
         15    1    1    2    0    0  0.21888007897E+02  0.84325807413E+01  0.13461030754E+02  0.27102590017E+02  0.17770000000E+01 0.  1.
</event>
<event>
 6   1  0.1826851E-04  0.4657987E+03  0.7546771E-02  0.9479767E-01
        -11   -1    0    0    0    0  0.00000000000E+00  0.00000000000E+00  0.50000000000E+03  0.50000000000E+03  0.00000000000E+00 0. -1.
         11   -1    0    0    0    0 -0.00000000000E+00 -0.00000000000E+00 -0.50000000000E+03  0.50000000000E+03  0.00000000000E+00 0.  1.
        -11    1    1    2    0    0  0.10427050907E+02 -0.13767053141E+02  0.46169857466E+03  0.46202145945E+03  0.00000000000E+00 0. -1.
         11    1    1    2    0    0  0.63174579873E+01 -0.25595628775E+01 -0.46985574323E+03  0.46990518307E+03  0.00000000000E+00 0.  1.
        -15    1    1    2    0    0 -0.57364914746E+00  0.25845636305E+01 -0.26881983568E+02  0.27070423197E+02  0.17770000000E+01 0.  1.
         15    1    1    2    0    0 -0.16170859746E+02  0.13742052388E+02  0.35039152131E+02  0.41002934283E+02  0.17770000000E+01 0. -1.
</event>
<event>
 6   1  0.1826851E-04  0.4830084E+03  0.7546771E-02  0.9438653E-01
        -11   -1    0    0    0    0  0.00000000000E+00  0.00000000000E+00  0.50000000000E+03  0.50000000000E+03  0.00000000000E+00 0. -1.
         11   -1    0    0    0    0 -0.00000000000E+00 -0.00000000000E+00 -0.50000000000E+03  0.50000000000E+03  0.00000000000E+00 0.  1.
        -11    1    1    2    0    0  0.32134604936E+01 -0.34348463014E+02  0.48227937910E+03  0.48351167798E+03  0.00000000000E+00 0. -1.
         11    1    1    2    0    0  0.55797812790E+00  0.15254491230E+02 -0.48245975958E+03  0.48270118133E+03  0.00000000000E+00 0.  1.
        -15    1    1    2    0    0  0.65297673069E+01 -0.42585805720E+01  0.16320643009E+01  0.81605595674E+01  0.17770000000E+01 0. -1.
         15    1    1    2    0    0 -0.10301205928E+02  0.23352552356E+02 -0.14516838153E+01  0.25626581122E+02  0.17770000000E+01 0.  1.
</event>
<event>
 6   1  0.1826851E-04  0.5001257E+03  0.7546771E-02  0.9399529E-01
        -11   -1    0    0    0    0  0.00000000000E+00  0.00000000000E+00  0.50000000000E+03  0.50000000000E+03  0.00000000000E+00 0. -1.
         11   -1    0    0    0    0 -0.00000000000E+00 -0.00000000000E+00 -0.50000000000E+03  0.50000000000E+03  0.00000000000E+00 0.  1.
        -11    1    1    2    0    0  0.17565632744E+01  0.16637656564E+01  0.18336139395E+02  0.18495070657E+02  0.00000000000E+00 0. -1.
         11    1    1    2    0    0 -0.11973304885E+02 -0.23003910169E+01 -0.49972563542E+03  0.49987434673E+03  0.00000000000E+00 0.  1.
        -15    1    1    2    0    0  0.81224772733E+01  0.11275879318E+00  0.45786469442E+03  0.45794019640E+03  0.17770000000E+01 0. -1.
         15    1    1    2    0    0  0.20942643376E+01  0.52386656730E+00  0.23524801599E+02  0.23690386206E+02  0.17770000000E+01 0. -1.
</event>
<event>
 6   1  0.1826851E-04  0.5001362E+03  0.7546771E-02  0.9399505E-01
        -11   -1    0    0    0    0  0.00000000000E+00  0.00000000000E+00  0.50000000000E+03  0.50000000000E+03  0.00000000000E+00 0.  1.
         11   -1    0    0    0    0 -0.00000000000E+00 -0.00000000000E+00 -0.50000000000E+03  0.50000000000E+03  0.00000000000E+00 0. -1.
        -11    1    1    2    0    0  0.50827262010E+01 -0.67273667661E+01  0.49979265114E+03  0.49986376714E+03  0.00000000000E+00 0.  1.
         11    1    1    2    0    0  0.65862515505E+00 -0.22924113126E+01 -0.15825583485E+03  0.15827380769E+03  0.00000000000E+00 0. -1.
        -15    1    1    2    0    0 -0.15647857458E+01 -0.17392972391E+01 -0.45018041115E+02  0.45113805694E+02  0.17770000000E+01 0. -1.
         15    1    1    2    0    0 -0.41765656103E+01  0.10759075318E+02 -0.29651877518E+03  0.29674861948E+03  0.17770000000E+01 0. -1.
</event>
<event>
 6   1  0.1826851E-04  0.5009620E+03  0.7546771E-02  0.9397660E-01
        -11   -1    0    0    0    0  0.00000000000E+00  0.00000000000E+00  0.50000000000E+03  0.50000000000E+03  0.00000000000E+00 0. -1.
         11   -1    0    0    0    0 -0.00000000000E+00 -0.00000000000E+00 -0.50000000000E+03  0.50000000000E+03  0.00000000000E+00 0. -1.
        -11    1    1    2    0    0  0.10430868697E+02  0.96087773363E+01  0.49883647673E+03  0.49903803676E+03  0.00000000000E+00 0. -1.
         11    1    1    2    0    0  0.76924089641E+00 -0.87522032676E+01 -0.45415464114E+03  0.45423961833E+03  0.00000000000E+00 0. -1.
        -15    1    1    2    0    0 -0.95689167531E+01 -0.12903804161E+01 -0.24525505356E+02  0.26417558392E+02  0.17770000000E+01 0. -1.
         15    1    1    2    0    0 -0.16311928399E+01  0.43380634739E+00 -0.20156330234E+02  0.20304786517E+02  0.17770000000E+01 0.  1.
</event>
<event>
 6   1  0.1826851E-04  0.5045232E+03  0.7546771E-02  0.9389745E-01
        -11   -1    0    0    0    0  0.00000000000E+00  0.00000000000E+00  0.50000000000E+03  0.50000000000E+03  0.00000000000E+00 0.  1.
         11   -1    0    0    0    0 -0.00000000000E+00 -0.00000000000E+00 -0.50000000000E+03  0.50000000000E+03  0.00000000000E+00 0. -1.
        -11    1    1    2    0    0 -0.46396018499E+01 -0.84338366875E+01  0.47952803488E+03  0.47962463629E+03  0.00000000000E+00 0.  1.
         11    1    1    2    0    0  0.41940041963E+01 -0.62888655325E+01 -0.49541916871E+03  0.49547683319E+03  0.00000000000E+00 0. -1.
        -15    1    1    2    0    0 -0.43813150122E+01  0.96318484621E+01  0.50374020989E+01  0.11853336026E+02  0.17770000000E+01 0. -1.
         15    1    1    2    0    0  0.48269126658E+01  0.50908537580E+01  0.10853731734E+02  0.13045194496E+02  0.17770000000E+01 0.  1.
</event>
<event>
 6   1  0.1826851E-04  0.5015415E+03  0.7546771E-02  0.9396367E-01
        -11   -1    0    0    0    0  0.00000000000E+00  0.00000000000E+00  0.50000000000E+03  0.50000000000E+03  0.00000000000E+00 0.  1.
         11   -1    0    0    0    0 -0.00000000000E+00 -0.00000000000E+00 -0.50000000000E+03  0.50000000000E+03  0.00000000000E+00 0. -1.
        -11    1    1    2    0    0 -0.42596946101E+01  0.16579183425E+02  0.49816452604E+03  0.49845853321E+03  0.00000000000E+00 0.  1.
         11    1    1    2    0    0  0.60323997625E+01  0.77421846367E+01 -0.38718268348E+03  0.38730706379E+03  0.00000000000E+00 0. -1.
        -15    1    1    2    0    0  0.37876615559E+01 -0.49566601003E+01 -0.19762229370E+02  0.20799478312E+02  0.17770000000E+01 0.  1.
         15    1    1    2    0    0 -0.55603667083E+01 -0.19364707961E+02 -0.91219613192E+02  0.93434924692E+02  0.17770000000E+01 0. -1.
</event>
<event>
 6   1  0.1826851E-04  0.5097034E+03  0.7546771E-02  0.9378356E-01
        -11   -1    0    0    0    0  0.00000000000E+00  0.00000000000E+00  0.50000000000E+03  0.50000000000E+03  0.00000000000E+00 0. -1.
         11   -1    0    0    0    0 -0.00000000000E+00 -0.00000000000E+00 -0.50000000000E+03  0.50000000000E+03  0.00000000000E+00 0.  1.
        -11    1    1    2    0    0  0.49078740298E+01  0.28818845957E+02  0.46869231333E+03  0.46960312785E+03  0.00000000000E+00 0. -1.
         11    1    1    2    0    0 -0.18245972660E+02  0.65137263168E+00 -0.48995655257E+03  0.49029660738E+03  0.00000000000E+00 0.  1.
        -15    1    1    2    0    0  0.49289346975E+01 -0.27302287996E+01  0.38806582027E+01  0.70686479355E+01  0.17770000000E+01 0.  1.
         15    1    1    2    0    0  0.84091639323E+01 -0.26739989789E+02  0.17383581033E+02  0.33031616831E+02  0.17770000000E+01 0. -1.
</event>
<event>
 6   1  0.1826851E-04  0.5070914E+03  0.7546771E-02  0.9384080E-01
        -11   -1    0    0    0    0  0.00000000000E+00  0.00000000000E+00  0.50000000000E+03  0.50000000000E+03  0.00000000000E+00 0. -1.
         11   -1    0    0    0    0 -0.00000000000E+00 -0.00000000000E+00 -0.50000000000E+03  0.50000000000E+03  0.00000000000E+00 0. -1.
        -11    1    1    2    0    0 -0.47866849742E+01 -0.83804867985E+01  0.49281409744E+03  0.49290859147E+03  0.00000000000E+00 0. -1.
         11    1    1    2    0    0  0.17682227771E+02  0.31279680184E+01 -0.46508031800E+03  0.46542684447E+03  0.00000000000E+00 0. -1.
        -15    1    1    2    0    0 -0.29855190876E+01 -0.77606354367E+00 -0.29572836420E+02  0.29786338845E+02  0.17770000000E+01 0. -1.
         15    1    1    2    0    0 -0.99100237091E+01  0.60285823238E+01  0.18390569789E+01  0.11878225218E+02  0.17770000000E+01 0.  1.
</event>
<event>
 6   1  0.1826851E-04  0.5068804E+03  0.7546771E-02  0.9384545E-01
        -11   -1    0    0    0    0  0.00000000000E+00  0.00000000000E+00  0.50000000000E+03  0.50000000000E+03  0.00000000000E+00 0. -1.
         11   -1    0    0    0    0 -0.00000000000E+00 -0.00000000000E+00 -0.50000000000E+03  0.50000000000E+03  0.00000000000E+00 0. -1.
        -11    1    1    2    0    0  0.32697675286E+00 -0.26355753517E+02  0.49241465015E+03  0.49311958017E+03  0.00000000000E+00 0. -1.
         11    1    1    2    0    0 -0.24193335846E+01 -0.61976379714E+01 -0.45115664211E+03  0.45120569545E+03  0.00000000000E+00 0. -1.
        -15    1    1    2    0    0  0.17577350068E+01  0.30386644990E+02 -0.25738481879E+02  0.39900689274E+02  0.17770000000E+01 0. -1.
         15    1    1    2    0    0  0.33462182494E+00  0.21667464988E+01 -0.15519526165E+02  0.15774035107E+02  0.17770000000E+01 0. -1.
</event>
<event>
 6   1  0.1826851E-04  0.5017540E+03  0.7546771E-02  0.9395894E-01
        -11   -1    0    0    0    0  0.00000000000E+00  0.00000000000E+00  0.50000000000E+03  0.50000000000E+03  0.00000000000E+00 0.  1.
         11   -1    0    0    0    0 -0.00000000000E+00 -0.00000000000E+00 -0.50000000000E+03  0.50000000000E+03  0.00000000000E+00 0. -1.
        -11    1    1    2    0    0  0.82487697240E+01  0.15123904407E+01  0.49817543340E+03  0.49824601551E+03  0.00000000000E+00 0.  1.
         11    1    1    2    0    0 -0.29636453486E+01  0.96182779602E+01 -0.47462892677E+03  0.47473562389E+03  0.00000000000E+00 0. -1.
        -15    1    1    2    0    0 -0.29915392239E+01 -0.87168765154E+01 -0.18147910921E+02  0.20431290780E+02  0.17770000000E+01 0. -1.
         15    1    1    2    0    0 -0.22935851515E+01 -0.24137918855E+01 -0.53985957144E+01  0.65870698190E+01  0.17770000000E+01 0.  1.
</event>
<event>
 6   1  0.1826851E-04  0.5029493E+03  0.7546771E-02  0.9393235E-01
        -11   -1    0    0    0    0  0.00000000000E+00  0.00000000000E+00  0.50000000000E+03  0.50000000000E+03  0.00000000000E+00 0.  1.
         11   -1    0    0    0    0 -0.00000000000E+00 -0.00000000000E+00 -0.50000000000E+03  0.50000000000E+03  0.00000000000E+00 0. -1.
        -11    1    1    2    0    0 -0.85543238967E+01  0.29366561645E+02  0.49610870006E+03  0.49705071539E+03  0.00000000000E+00 0.  1.
         11    1    1    2    0    0 -0.45932652794E+00 -0.85046487573E+01 -0.40253942061E+03  0.40262951354E+03  0.00000000000E+00 0. -1.
        -15    1    1    2    0    0 -0.26611142644E+01  0.52397063242E+01 -0.29573471958E+02  0.30204039864E+02  0.17770000000E+01 0.  1.
         15    1    1    2    0    0  0.11674764689E+02 -0.26101619212E+02 -0.63995807490E+02  0.70115731197E+02  0.17770000000E+01 0. -1.
</event>
<event>
 6   1  0.1826851E-04  0.5066766E+03  0.7546771E-02  0.9384993E-01
        -11   -1    0    0    0    0  0.00000000000E+00  0.00000000000E+00  0.50000000000E+03  0.50000000000E+03  0.00000000000E+00 0.  1.
         11   -1    0    0    0    0 -0.00000000000E+00 -0.00000000000E+00 -0.50000000000E+03  0.50000000000E+03  0.00000000000E+00 0. -1.
        -11    1    1    2    0    0 -0.27592858527E+01 -0.14745388911E+02  0.49309530136E+03  0.49332343992E+03  0.00000000000E+00 0.  1.
         11    1    1    2    0    0 -0.72348468852E+01 -0.17017591312E+01 -0.48032090671E+03  0.48037840544E+03  0.00000000000E+00 0. -1.
        -15    1    1    2    0    0  0.10533594955E+02  0.59765398558E+01 -0.55355443782E+01  0.13434121924E+02  0.17770000000E+01 0. -1.
         15    1    1    2    0    0 -0.53946221659E+00  0.10470608186E+02 -0.72388502769E+01  0.12864032711E+02  0.17770000000E+01 0.  1.
</event>
<event>
 6   1  0.1826851E-04  0.5000493E+03  0.7546771E-02  0.9399699E-01
        -11   -1    0    0    0    0  0.00000000000E+00  0.00000000000E+00  0.50000000000E+03  0.50000000000E+03  0.00000000000E+00 0.  1.
         11   -1    0    0    0    0 -0.00000000000E+00 -0.00000000000E+00 -0.50000000000E+03  0.50000000000E+03  0.00000000000E+00 0.  1.
        -11    1    1    2    0    0  0.41306375576E+01 -0.29221265493E+01  0.10213251559E+03  0.10225777101E+03  0.00000000000E+00 0.  1.
         11    1    1    2    0    0 -0.86602858000E+01  0.59011703946E+01 -0.49984081573E+03  0.49995066299E+03  0.00000000000E+00 0.  1.
        -15    1    1    2    0    0  0.25814218944E+01 -0.41000955286E+01  0.22251284351E+03  0.22257267976E+03  0.17770000000E+01 0.  1.
         15    1    1    2    0    0  0.19482263479E+01  0.11210516834E+01  0.17519545663E+03  0.17521888624E+03  0.17770000000E+01 0.  1.
</event>
<event>
 6   1  0.1826851E-04  0.5068318E+03  0.7546771E-02  0.9384652E-01
        -11   -1    0    0    0    0  0.00000000000E+00  0.00000000000E+00  0.50000000000E+03  0.50000000000E+03  0.00000000000E+00 0.  1.
         11   -1    0    0    0    0 -0.00000000000E+00 -0.00000000000E+00 -0.50000000000E+03  0.50000000000E+03  0.00000000000E+00 0.  1.
        -11    1    1    2    0    0  0.16052265374E+02 -0.56286488729E+02  0.14753665903E+03  0.15872274505E+03  0.00000000000E+00 0.  1.
         11    1    1    2    0    0  0.75718847543E+01  0.20744044397E+02 -0.49267359710E+03  0.49316824928E+03  0.00000000000E+00 0.  1.
        -15    1    1    2    0    0 -0.59212057964E+00  0.91172276248E+01  0.10631844154E+03  0.10672508227E+03  0.17770000000E+01 0. -1.
         15    1    1    2    0    0 -0.23032029549E+02  0.26425216707E+02  0.23881849653E+03  0.24138392340E+03  0.17770000000E+01 0.  1.
</event>
<event>
 6   1  0.1826851E-04  0.5193542E+03  0.7546771E-02  0.9357515E-01
        -11   -1    0    0    0    0  0.00000000000E+00  0.00000000000E+00  0.50000000000E+03  0.50000000000E+03  0.00000000000E+00 0.  1.
         11   -1    0    0    0    0 -0.00000000000E+00 -0.00000000000E+00 -0.50000000000E+03  0.50000000000E+03  0.00000000000E+00 0.  1.
        -11    1    1    2    0    0  0.16705681947E+03  0.10733881766E+02  0.45055213426E+03  0.48064583930E+03  0.00000000000E+00 0.  1.
         11    1    1    2    0    0  0.15270616049E+01 -0.17418976114E+01 -0.12630145576E+03  0.12632269729E+03  0.00000000000E+00 0.  1.
        -15    1    1    2    0    0 -0.14230683497E+01  0.38103574920E+01 -0.15407565399E+03  0.15413957580E+03  0.17770000000E+01 0. -1.
         15    1    1    2    0    0 -0.16716081273E+03 -0.12802341647E+02 -0.17017502452E+03  0.23889188760E+03  0.17770000000E+01 0.  1.
</event>
<event>
 6   1  0.1826851E-04  0.5003065E+03  0.7546771E-02  0.9399124E-01
        -11   -1    0    0    0    0  0.00000000000E+00  0.00000000000E+00  0.50000000000E+03  0.50000000000E+03  0.00000000000E+00 0. -1.
         11   -1    0    0    0    0 -0.00000000000E+00 -0.00000000000E+00 -0.50000000000E+03  0.50000000000E+03  0.00000000000E+00 0. -1.
        -11    1    1    2    0    0 -0.57686792312E+01 -0.39474122912E+01  0.49964456503E+03  0.49969345712E+03  0.00000000000E+00 0. -1.
         11    1    1    2    0    0  0.49738473800E+01  0.43545030010E+01 -0.42959901091E+03  0.42964987028E+03  0.00000000000E+00 0. -1.
        -15    1    1    2    0    0 -0.14993846694E+01 -0.28650381640E+01 -0.55489071583E+02  0.55611612027E+02  0.17770000000E+01 0. -1.
         15    1    1    2    0    0  0.22942165206E+01  0.24579474542E+01 -0.14556482530E+02  0.15045060578E+02  0.17770000000E+01 0.  1.
</event>
<event>
 6   1  0.1826851E-04  0.5038624E+03  0.7546771E-02  0.9391208E-01
        -11   -1    0    0    0    0  0.00000000000E+00  0.00000000000E+00  0.50000000000E+03  0.50000000000E+03  0.00000000000E+00 0.  1.
         11   -1    0    0    0    0 -0.00000000000E+00 -0.00000000000E+00 -0.50000000000E+03  0.50000000000E+03  0.00000000000E+00 0. -1.
        -11    1    1    2    0    0 -0.12108273990E+01  0.27459133535E+02  0.49537561618E+03  0.49613755273E+03  0.00000000000E+00 0.  1.
         11    1    1    2    0    0 -0.63004974872E+01 -0.58809201744E+01 -0.42394055173E+03  0.42402815106E+03  0.00000000000E+00 0. -1.
        -15    1    1    2    0    0 -0.56690524020E+00 -0.24484391818E+02 -0.63213737010E+02  0.67815493068E+02  0.17770000000E+01 0. -1.
         15    1    1    2    0    0  0.80782301264E+01  0.29061784569E+01 -0.82213274437E+01  0.12018803149E+02  0.17770000000E+01 0.  1.
</event>
<event>
 6   1  0.1826851E-04  0.5002642E+03  0.7546771E-02  0.9399219E-01
        -11   -1    0    0    0    0  0.00000000000E+00  0.00000000000E+00  0.50000000000E+03  0.50000000000E+03  0.00000000000E+00 0. -1.
         11   -1    0    0    0    0 -0.00000000000E+00 -0.00000000000E+00 -0.50000000000E+03  0.50000000000E+03  0.00000000000E+00 0.  1.
        -11    1    1    2    0    0 -0.57462222847E+01 -0.10796207934E+01  0.27857728747E+02  0.28464674644E+02  0.00000000000E+00 0. -1.
         11    1    1    2    0    0  0.11778130931E+02  0.40417860657E+01 -0.49958061566E+03  0.49973578213E+03  0.00000000000E+00 0.  1.
        -15    1    1    2    0    0 -0.26101583145E+01  0.58373685733E+00  0.15396610695E+03  0.15399958926E+03  0.17770000000E+01 0. -1.
         15    1    1    2    0    0 -0.34217503321E+01 -0.35459021296E+01  0.31775677996E+03  0.31779995396E+03  0.17770000000E+01 0.  1.
</event>
<event>
 6   1  0.1826851E-04  0.5007829E+03  0.7546771E-02  0.9398060E-01
        -11   -1    0    0    0    0  0.00000000000E+00  0.00000000000E+00  0.50000000000E+03  0.50000000000E+03  0.00000000000E+00 0. -1.
         11   -1    0    0    0    0 -0.00000000000E+00 -0.00000000000E+00 -0.50000000000E+03  0.50000000000E+03  0.00000000000E+00 0.  1.
        -11    1    1    2    0    0  0.43676790062E+01  0.63643428514E+01  0.19572553873E+02  0.21039637472E+02  0.00000000000E+00 0. -1.
         11    1    1    2    0    0 -0.99782449320E+01  0.45181688017E+01 -0.49909687595E+03  0.49921705781E+03  0.00000000000E+00 0.  1.
        -15    1    1    2    0    0  0.47556102779E+01 -0.56865980205E+01  0.36958014596E+03  0.36965875513E+03  0.17770000000E+01 0. -1.
         15    1    1    2    0    0  0.85495564789E+00 -0.51959136326E+01  0.10994417612E+03  0.11008454959E+03  0.17770000000E+01 0.  1.
</event>
<event>
 6   1  0.1826851E-04  0.5006160E+03  0.7546771E-02  0.9398432E-01
        -11   -1    0    0    0    0  0.00000000000E+00  0.00000000000E+00  0.50000000000E+03  0.50000000000E+03  0.00000000000E+00 0.  1.
         11   -1    0    0    0    0 -0.00000000000E+00 -0.00000000000E+00 -0.50000000000E+03  0.50000000000E+03  0.00000000000E+00 0.  1.
        -11    1    1    2    0    0 -0.80326757586E+01 -0.86118624572E-01  0.25873786408E+02  0.27092141284E+02  0.00000000000E+00 0.  1.
         11    1    1    2    0    0  0.72185168175E+01 -0.35303307128E+01 -0.49931935437E+03  0.49938400842E+03  0.00000000000E+00 0.  1.
        -15    1    1    2    0    0  0.10952080631E+01 -0.16786368374E+01  0.97870212502E+02  0.97906861488E+02  0.17770000000E+01 0.  1.
         15    1    1    2    0    0 -0.28104912199E+00  0.52950861748E+01  0.37557535546E+03  0.37561698881E+03  0.17770000000E+01 0.  1.
</event>
<event>
 6   1  0.1826851E-04  0.5015013E+03  0.7546771E-02  0.9396457E-01
        -11   -1    0    0    0    0  0.00000000000E+00  0.00000000000E+00  0.50000000000E+03  0.50000000000E+03  0.00000000000E+00 0. -1.
         11   -1    0    0    0    0 -0.00000000000E+00 -0.00000000000E+00 -0.50000000000E+03  0.50000000000E+03  0.00000000000E+00 0.  1.
        -11    1    1    2    0    0  0.23483128407E+02 -0.16223710678E+02  0.49768090753E+03  0.49849869792E+03  0.00000000000E+00 0. -1.
         11    1    1    2    0    0  0.39452312667E+01 -0.26069206039E+01 -0.32321909968E+03  0.32325368874E+03  0.00000000000E+00 0.  1.
        -15    1    1    2    0    0 -0.21325557399E+01  0.28903798189E+01 -0.52846177322E+02  0.52997908223E+02  0.17770000000E+01 0.  1.
         15    1    1    2    0    0 -0.25295803934E+02  0.15940251463E+02 -0.12161563053E+03  0.12524970512E+03  0.17770000000E+01 0. -1.
</event>
<event>
 6   1  0.1826851E-04  0.5000816E+03  0.7546771E-02  0.9399627E-01
        -11   -1    0    0    0    0  0.00000000000E+00  0.00000000000E+00  0.50000000000E+03  0.50000000000E+03  0.00000000000E+00 0.  1.
         11   -1    0    0    0    0 -0.00000000000E+00 -0.00000000000E+00 -0.50000000000E+03  0.50000000000E+03  0.00000000000E+00 0. -1.
        -11    1    1    2    0    0 -0.29022651398E+01  0.25469253585E+02  0.49926079996E+03  0.49991844575E+03  0.00000000000E+00 0.  1.
         11    1    1    2    0    0  0.57772240627E+00 -0.20312148940E+02 -0.35646680055E+03  0.35704551118E+03  0.00000000000E+00 0. -1.
        -15    1    1    2    0    0  0.21554250729E+01 -0.21389609502E+01 -0.33188944733E+02  0.33374912625E+02  0.17770000000E+01 0.  1.
         15    1    1    2    0    0  0.16911766063E+00 -0.30181436947E+01 -0.10960505467E+03  0.10966113045E+03  0.17770000000E+01 0. -1.
</event>
<event>
 6   1  0.1826851E-04  0.5018349E+03  0.7546771E-02  0.9395713E-01
        -11   -1    0    0    0    0  0.00000000000E+00  0.00000000000E+00  0.50000000000E+03  0.50000000000E+03  0.00000000000E+00 0.  1.
         11   -1    0    0    0    0 -0.00000000000E+00 -0.00000000000E+00 -0.50000000000E+03  0.50000000000E+03  0.00000000000E+00 0.  1.
        -11    1    1    2    0    0  0.18367830291E+02 -0.15791125707E+02  0.49757589782E+03  0.49816514424E+03  0.00000000000E+00 0.  1.
         11    1    1    2    0    0 -0.94770025340E+01  0.17800519787E+02 -0.48542600884E+03  0.48584470991E+03  0.00000000000E+00 0.  1.
        -15    1    1    2    0    0 -0.22295227030E+01  0.68769796838E+00 -0.42492028754E+01  0.51630566582E+01  0.17770000000E+01 0. -1.
         15    1    1    2    0    0 -0.66613050539E+01 -0.26970920486E+01 -0.79006861054E+01  0.10827089197E+02  0.17770000000E+01 0. -1.
</event>
<event>
 6   1  0.1826851E-04  0.5083784E+03  0.7546771E-02  0.9381255E-01
        -11   -1    0    0    0    0  0.00000000000E+00  0.00000000000E+00  0.50000000000E+03  0.50000000000E+03  0.00000000000E+00 0. -1.
         11   -1    0    0    0    0 -0.00000000000E+00 -0.00000000000E+00 -0.50000000000E+03  0.50000000000E+03  0.00000000000E+00 0.  1.
        -11    1    1    2    0    0  0.27879440880E+02 -0.38387085357E+02  0.32168742200E+03  0.32516707862E+03  0.00000000000E+00 0. -1.
         11    1    1    2    0    0 -0.21728449878E+02 -0.22818254407E+02 -0.49061084074E+03  0.49162159769E+03  0.00000000000E+00 0.  1.
        -15    1    1    2    0    0  0.20885149545E+00  0.43901545148E+02  0.15164499295E+03  0.15788207910E+03  0.17770000000E+01 0. -1.
         15    1    1    2    0    0 -0.63598424975E+01  0.17303794616E+02  0.17278425783E+02  0.25329244585E+02  0.17770000000E+01 0.  1.
</event>
<event>
 6   1  0.1826851E-04  0.5149865E+03  0.7546771E-02  0.9366887E-01
        -11   -1    0    0    0    0  0.00000000000E+00  0.00000000000E+00  0.50000000000E+03  0.50000000000E+03  0.00000000000E+00 0.  1.
         11   -1    0    0    0    0 -0.00000000000E+00 -0.00000000000E+00 -0.50000000000E+03  0.50000000000E+03  0.00000000000E+00 0.  1.
        -11    1    1    2    0    0 -0.26824743748E+02 -0.13474571403E+02  0.48408361126E+03  0.48501347780E+03  0.00000000000E+00 0.  1.
         11    1    1    2    0    0 -0.94280841241E+01  0.83536679368E+01 -0.46024388010E+03  0.46041622659E+03  0.00000000000E+00 0.  1.
        -15    1    1    2    0    0  0.33644867406E+01 -0.68989429352E+01 -0.17154990319E+02  0.18877674817E+02  0.17770000000E+01 0. -1.
         15    1    1    2    0    0  0.32888341131E+02  0.12019846402E+02 -0.66847408438E+01  0.35692620792E+02  0.17770000000E+01 0.  1.
</event>
<event>
 6   1  0.1826851E-04  0.4959950E+03  0.7546771E-02  0.9408816E-01
        -11   -1    0    0    0    0  0.00000000000E+00  0.00000000000E+00  0.50000000000E+03  0.50000000000E+03  0.00000000000E+00 0.  1.
         11   -1    0    0    0    0 -0.00000000000E+00 -0.00000000000E+00 -0.50000000000E+03  0.50000000000E+03  0.00000000000E+00 0. -1.
        -11    1    1    2    0    0  0.98022205213E+00 -0.52740035841E+01  0.63881973399E+01  0.83417632627E+01  0.00000000000E+00 0.  1.
         11    1    1    2    0    0 -0.24237805987E+00  0.13782630564E+02 -0.49870627305E+03  0.49889674927E+03  0.00000000000E+00 0. -1.
        -15    1    1    2    0    0  0.87236621678E+01 -0.20545859630E+01  0.24888767100E+03  0.24905532339E+03  0.17770000000E+01 0.  1.
         15    1    1    2    0    0 -0.94615061601E+01 -0.64540410164E+01  0.24343040471E+03  0.24370616408E+03  0.17770000000E+01 0. -1.
</event>
<event>
 6   1  0.1826851E-04  0.5194690E+03  0.7546771E-02  0.9357270E-01
        -11   -1    0    0    0    0  0.00000000000E+00  0.00000000000E+00  0.50000000000E+03  0.50000000000E+03  0.00000000000E+00 0.  1.
         11   -1    0    0    0    0 -0.00000000000E+00 -0.00000000000E+00 -0.50000000000E+03  0.50000000000E+03  0.00000000000E+00 0. -1.
        -11    1    1    2    0    0  0.86623998669E+02 -0.24336160598E+02  0.12231654568E+03  0.15184631443E+03  0.00000000000E+00 0.  1.
         11    1    1    2    0    0 -0.23462807820E+02 -0.36546404901E+02 -0.47856439783E+03  0.48053098332E+03  0.00000000000E+00 0. -1.
        -15    1    1    2    0    0 -0.78433619998E+01  0.18465578015E+01  0.17566520033E+02  0.19407948327E+02  0.17770000000E+01 0. -1.
         15    1    1    2    0    0 -0.55317828849E+02  0.59036007697E+02  0.33868133212E+03  0.34821475392E+03  0.17770000000E+01 0.  1.
</event>
<event>
 6   1  0.1826851E-04  0.5033724E+03  0.7546771E-02  0.9392295E-01
        -11   -1    0    0    0    0  0.00000000000E+00  0.00000000000E+00  0.50000000000E+03  0.50000000000E+03  0.00000000000E+00 0. -1.
         11   -1    0    0    0    0 -0.00000000000E+00 -0.00000000000E+00 -0.50000000000E+03  0.50000000000E+03  0.00000000000E+00 0.  1.
        -11    1    1    2    0    0  0.18041869818E+02  0.12387615322E+02  0.49614518582E+03  0.49662763464E+03  0.00000000000E+00 0. -1.
         11    1    1    2    0    0  0.64494899189E+01 -0.47368134952E+01 -0.40104486199E+03  0.40112468716E+03  0.00000000000E+00 0.  1.
        -15    1    1    2    0    0 -0.18436111576E+02 -0.11546625927E+02 -0.32129840664E+02  0.38841976913E+02  0.17770000000E+01 0.  1.
         15    1    1    2    0    0 -0.60552481608E+01  0.38958241009E+01 -0.62970483170E+02  0.63405701284E+02  0.17770000000E+01 0. -1.
</event>
<event>
 6   1  0.1826851E-04  0.5014871E+03  0.7546771E-02  0.9396488E-01
        -11   -1    0    0    0    0  0.00000000000E+00  0.00000000000E+00  0.50000000000E+03  0.50000000000E+03  0.00000000000E+00 0.  1.
         11   -1    0    0    0    0 -0.00000000000E+00 -0.00000000000E+00 -0.50000000000E+03  0.50000000000E+03  0.00000000000E+00 0.  1.
        -11    1    1    2    0    0  0.71711120226E+01  0.10809884510E+01  0.46659376160E+03  0.46665011706E+03  0.00000000000E+00 0.  1.
         11    1    1    2    0    0  0.25157273862E+01 -0.62536750893E+01 -0.49846737426E+03  0.49851294921E+03  0.00000000000E+00 0.  1.
        -15    1    1    2    0    0 -0.47925617095E+01  0.14369783718E+01  0.24495493859E+02  0.25064327300E+02  0.17770000000E+01 0.  1.
         15    1    1    2    0    0 -0.48942776993E+01  0.37357082664E+01  0.73781187970E+01  0.97726064298E+01  0.17770000000E+01 0. -1.
</event>
<event>
 6   1  0.1826851E-04  0.5011083E+03  0.7546771E-02  0.9397333E-01
        -11   -1    0    0    0    0  0.00000000000E+00  0.00000000000E+00  0.50000000000E+03  0.50000000000E+03  0.00000000000E+00 0. -1.
         11   -1    0    0    0    0 -0.00000000000E+00 -0.00000000000E+00 -0.50000000000E+03  0.50000000000E+03  0.00000000000E+00 0. -1.
        -11    1    1    2    0    0  0.20048528312E+02  0.93241868974E+01  0.12713222084E+03  0.12904063516E+03  0.00000000000E+00 0. -1.
         11    1    1    2    0    0 -0.31188388758E+01 -0.27101887734E+02 -0.49814525462E+03  0.49889170586E+03  0.00000000000E+00 0. -1.
        -15    1    1    2    0    0 -0.29464841999E+01  0.17142609289E+01  0.17882274732E+02  0.18290815680E+02  0.17770000000E+01 0. -1.
         15    1    1    2    0    0 -0.13983205236E+02  0.16063439908E+02  0.35313075906E+03  0.35377684329E+03  0.17770000000E+01 0. -1.
</event>
<event>
 6   1  0.1826851E-04  0.5037898E+03  0.7546771E-02  0.9391370E-01
        -11   -1    0    0    0    0  0.00000000000E+00  0.00000000000E+00  0.50000000000E+03  0.50000000000E+03  0.00000000000E+00 0.  1.
         11   -1    0    0    0    0 -0.00000000000E+00 -0.00000000000E+00 -0.50000000000E+03  0.50000000000E+03  0.00000000000E+00 0.  1.
        -11    1    1    2    0    0  0.86764960018E+01 -0.33633030037E+01  0.49612298366E+03  0.49621024607E+03  0.00000000000E+00 0.  1.
         11    1    1    2    0    0 -0.29784732636E+01 -0.71925953596E+01 -0.48500620639E+03  0.48506868067E+03  0.00000000000E+00 0.  1.
        -15    1    1    2    0    0 -0.18732581092E+01 -0.92837342429E+00 -0.28474659414E+01  0.39543348930E+01  0.17770000000E+01 0. -1.
         15    1    1    2    0    0 -0.38247646291E+01  0.11484271788E+02 -0.82693113348E+01  0.14766738364E+02  0.17770000000E+01 0.  1.
</event>
<event>
 6   1  0.1826851E-04  0.5146484E+03  0.7546771E-02  0.9367617E-01
        -11   -1    0    0    0    0  0.00000000000E+00  0.00000000000E+00  0.50000000000E+03  0.50000000000E+03  0.00000000000E+00 0.  1.
         11   -1    0    0    0    0 -0.00000000000E+00 -0.00000000000E+00 -0.50000000000E+03  0.50000000000E+03  0.00000000000E+00 0. -1.
        -11    1    1    2    0    0  0.62605636042E+01 -0.24027580749E+02  0.43323376648E+03  0.43394471505E+03  0.00000000000E+00 0.  1.
         11    1    1    2    0    0  0.61952217091E+01 -0.63693853057E+01 -0.48527029203E+03  0.48535163147E+03  0.00000000000E+00 0. -1.
        -15    1    1    2    0    0 -0.15564951625E+01  0.72366674097E+01 -0.10579982233E+02  0.13034024146E+02  0.17770000000E+01 0. -1.
         15    1    1    2    0    0 -0.10899290151E+02  0.23160298645E+02  0.62616507781E+02  0.67669629338E+02  0.17770000000E+01 0.  1.
</event>
<event>
 6   1  0.1826851E-04  0.5007754E+03  0.7546771E-02  0.9398076E-01
        -11   -1    0    0    0    0  0.00000000000E+00  0.00000000000E+00  0.50000000000E+03  0.50000000000E+03  0.00000000000E+00 0. -1.
         11   -1    0    0    0    0 -0.00000000000E+00 -0.00000000000E+00 -0.50000000000E+03  0.50000000000E+03  0.00000000000E+00 0.  1.
        -11    1    1    2    0    0 -0.33643335130E+02 -0.16035286402E+02  0.23894883363E+03  0.24183785788E+03  0.00000000000E+00 0. -1.
         11    1    1    2    0    0  0.35457105493E+02  0.12486487801E+02 -0.49780730156E+03  0.49922462699E+03  0.00000000000E+00 0.  1.
        -15    1    1    2    0    0 -0.17099446201E+01  0.11523393921E+01  0.66225880743E+02  0.66281798451E+02  0.17770000000E+01 0. -1.
         15    1    1    2    0    0 -0.10382574245E+00  0.23964592089E+01  0.19263258718E+03  0.19265571668E+03  0.17770000000E+01 0. -1.
</event>
<event>
 6   1  0.1826851E-04  0.5070875E+03  0.7546771E-02  0.9384089E-01
        -11   -1    0    0    0    0  0.00000000000E+00  0.00000000000E+00  0.50000000000E+03  0.50000000000E+03  0.00000000000E+00 0. -1.
         11   -1    0    0    0    0 -0.00000000000E+00 -0.00000000000E+00 -0.50000000000E+03  0.50000000000E+03  0.00000000000E+00 0.  1.
        -11    1    1    2    0    0 -0.11147458773E+03 -0.42141873188E+02  0.20002838652E+03  0.23283873518E+03  0.00000000000E+00 0. -1.
         11    1    1    2    0    0  0.12419531664E+03  0.91130150431E+02 -0.46822384941E+03  0.49291252180E+03  0.00000000000E+00 0.  1.
        -15    1    1    2    0    0  0.84560333432E+00  0.28655288580E+01  0.11632662487E+02  0.12140958207E+02  0.17770000000E+01 0.  1.
         15    1    1    2    0    0 -0.13566332242E+02 -0.51853806101E+02  0.25656280041E+03  0.26210778481E+03  0.17770000000E+01 0. -1.
</event>
<event>
 6   1  0.1826851E-04  0.5005510E+03  0.7546771E-02  0.9398578E-01
        -11   -1    0    0    0    0  0.00000000000E+00  0.00000000000E+00  0.50000000000E+03  0.50000000000E+03  0.00000000000E+00 0. -1.
         11   -1    0    0    0    0 -0.00000000000E+00 -0.00000000000E+00 -0.50000000000E+03  0.50000000000E+03  0.00000000000E+00 0.  1.
        -11    1    1    2    0    0  0.95299132715E+01 -0.76834391033E+01  0.14192350407E+03  0.14245046680E+03  0.00000000000E+00 0. -1.
         11    1    1    2    0    0  0.12931117202E+02  0.68474049659E+01 -0.49923462610E+03  0.49944900906E+03  0.00000000000E+00 0.  1.
        -15    1    1    2    0    0 -0.56166139626E+01  0.30045980450E+01  0.87459608659E+02  0.87709263123E+02  0.17770000000E+01 0.  1.
         15    1    1    2    0    0 -0.16844416511E+02 -0.21685639076E+01  0.26985151338E+03  0.27039126102E+03  0.17770000000E+01 0. -1.
</event>
<event>
 6   1  0.1826851E-04  0.5003391E+03  0.7546771E-02  0.9399051E-01
        -11   -1    0    0    0    0  0.00000000000E+00  0.00000000000E+00  0.50000000000E+03  0.50000000000E+03  0.00000000000E+00 0. -1.
         11   -1    0    0    0    0 -0.00000000000E+00 -0.00000000000E+00 -0.50000000000E+03  0.50000000000E+03  0.00000000000E+00 0. -1.
        -11    1    1    2    0    0 -0.17067266857E+02 -0.12001938136E+02  0.40536427308E+03  0.40590088938E+03  0.00000000000E+00 0. -1.
         11    1    1    2    0    0  0.16848399945E+02  0.93673338364E+01 -0.49928892306E+03  0.49966092924E+03  0.00000000000E+00 0. -1.
        -15    1    1    2    0    0 -0.55803745729E+00  0.22460594108E+01  0.84307641377E+01  0.89214181398E+01  0.17770000000E+01 0. -1.
         15    1    1    2    0    0  0.77690436926E+00  0.38854488837E+00  0.85493885845E+02  0.85516763231E+02  0.17770000000E+01 0.  1.
</event>
<event>
 6   1  0.1826851E-04  0.5005358E+03  0.7546771E-02  0.9398612E-01
        -11   -1    0    0    0    0  0.00000000000E+00  0.00000000000E+00  0.50000000000E+03  0.50000000000E+03  0.00000000000E+00 0. -1.
         11   -1    0    0    0    0 -0.00000000000E+00 -0.00000000000E+00 -0.50000000000E+03  0.50000000000E+03  0.00000000000E+00 0.  1.
        -11    1    1    2    0    0 -0.21683877851E+02 -0.47970557542E+01  0.49897020075E+03  0.49946417643E+03  0.00000000000E+00 0. -1.
         11    1    1    2    0    0  0.35395396412E+01  0.16906540931E+01 -0.10633402549E+03  0.10640635145E+03  0.00000000000E+00 0.  1.
        -15    1    1    2    0    0  0.22959984687E+02  0.46730423960E+01 -0.19357891859E+03  0.19499988121E+03  0.17770000000E+01 0.  1.
         15    1    1    2    0    0 -0.48156464766E+01 -0.15666407349E+01 -0.19905725666E+03  0.19912959090E+03  0.17770000000E+01 0.  1.
</event>
<event>
 6   1  0.1826851E-04  0.5129324E+03  0.7546771E-02  0.9371329E-01
        -11   -1    0    0    0    0  0.00000000000E+00  0.00000000000E+00  0.50000000000E+03  0.50000000000E+03  0.00000000000E+00 0.  1.
         11   -1    0    0    0    0 -0.00000000000E+00 -0.00000000000E+00 -0.50000000000E+03  0.50000000000E+03  0.00000000000E+00 0.  1.
        -11    1    1    2    0    0 -0.31983844341E+02  0.79547302813E+02  0.16201863227E+03  0.18330514691E+03  0.00000000000E+00 0.  1.
         11    1    1    2    0    0  0.10996338788E+02 -0.54141277911E+02 -0.48392420442E+03  0.48706758572E+03  0.00000000000E+00 0.  1.
        -15    1    1    2    0    0  0.28754836506E+01  0.14147608464E+02  0.19339766444E+03  0.19394390315E+03  0.17770000000E+01 0. -1.
         15    1    1    2    0    0  0.18112021903E+02 -0.39553633366E+02  0.12850790771E+03  0.13568336421E+03  0.17770000000E+01 0.  1.
</event>
<event>
 6   1  0.1826851E-04  0.5003336E+03  0.7546771E-02  0.9399064E-01
        -11   -1    0    0    0    0  0.00000000000E+00  0.00000000000E+00  0.50000000000E+03  0.50000000000E+03  0.00000000000E+00 0.  1.
         11   -1    0    0    0    0 -0.00000000000E+00 -0.00000000000E+00 -0.50000000000E+03  0.50000000000E+03  0.00000000000E+00 0. -1.
        -11    1    1    2    0    0  0.15653521594E+02  0.42920610044E+00  0.31445332503E+03  0.31484299353E+03  0.00000000000E+00 0.  1.
         11    1    1    2    0    0 -0.68592111889E+01  0.45429077698E+01 -0.49959867511E+03  0.49966641168E+03  0.00000000000E+00 0. -1.
        -15    1    1    2    0    0 -0.67188714507E+01 -0.48744902900E+01  0.12929940209E+03  0.12957776429E+03  0.17770000000E+01 0.  1.
         15    1    1    2    0    0 -0.20754389549E+01 -0.97623580284E-01  0.55845947993E+02  0.55912830491E+02  0.17770000000E+01 0.  1.
</event>
<event>
 6   1  0.1826851E-04  0.5088315E+03  0.7546771E-02  0.9380262E-01
        -11   -1    0    0    0    0  0.00000000000E+00  0.00000000000E+00  0.50000000000E+03  0.50000000000E+03  0.00000000000E+00 0. -1.
         11   -1    0    0    0    0 -0.00000000000E+00 -0.00000000000E+00 -0.50000000000E+03  0.50000000000E+03  0.00000000000E+00 0.  1.
        -11    1    1    2    0    0 -0.53224452257E+02 -0.35844824087E+02  0.48695868613E+03  0.49116845962E+03  0.00000000000E+00 0. -1.
         11    1    1    2    0    0  0.12212644137E+01  0.76991546219E+01 -0.30989807121E+03  0.30999610160E+03  0.00000000000E+00 0.  1.
        -15    1    1    2    0    0  0.23994396862E+02 -0.57384109496E+01 -0.11045534170E+02  0.27089149028E+02  0.17770000000E+01 0.  1.
         15    1    1    2    0    0  0.28008790982E+02  0.33884080415E+02 -0.16601508075E+03  0.17174628975E+03  0.17770000000E+01 0. -1.
</event>
<event>
 6   1  0.1826851E-04  0.5059058E+03  0.7546771E-02  0.9386691E-01
        -11   -1    0    0    0    0  0.00000000000E+00  0.00000000000E+00  0.50000000000E+03  0.50000000000E+03  0.00000000000E+00 0. -1.
         11   -1    0    0    0    0 -0.00000000000E+00 -0.00000000000E+00 -0.50000000000E+03  0.50000000000E+03  0.00000000000E+00 0. -1.
        -11    1    1    2    0    0  0.77608188864E+01  0.75118709265E+01  0.46975315686E+03  0.46987731047E+03  0.00000000000E+00 0. -1.
         11    1    1    2    0    0 -0.20723359509E+02 -0.46532195988E+01 -0.49363750474E+03  0.49409421790E+03  0.00000000000E+00 0. -1.
        -15    1    1    2    0    0  0.11763964402E+02  0.83344483332E+01  0.18220022177E+02  0.23301948944E+02  0.17770000000E+01 0.  1.
         15    1    1    2    0    0  0.11985762208E+01 -0.11193099661E+02  0.56643256976E+01  0.12726522682E+02  0.17770000000E+01 0. -1.
</event>
<event>
 6   1  0.1826851E-04  0.5009492E+03  0.7546771E-02  0.9397688E-01
        -11   -1    0    0    0    0  0.00000000000E+00  0.00000000000E+00  0.50000000000E+03  0.50000000000E+03  0.00000000000E+00 0.  1.
         11   -1    0    0    0    0 -0.00000000000E+00 -0.00000000000E+00 -0.50000000000E+03  0.50000000000E+03  0.00000000000E+00 0. -1.
        -11    1    1    2    0    0  0.70774388354E+01  0.10767951761E+02  0.44670816382E+03  0.44689397238E+03  0.00000000000E+00 0.  1.
         11    1    1    2    0    0 -0.35541606140E+01 -0.95280025474E+01 -0.49894714952E+03  0.49905077187E+03  0.00000000000E+00 0. -1.
        -15    1    1    2    0    0  0.34002813270E+01  0.33428321288E+01  0.14320218071E+02  0.15197460786E+02  0.17770000000E+01 0. -1.
         15    1    1    2    0    0 -0.69235595483E+01 -0.45827813428E+01  0.37918767629E+02  0.38857794960E+02  0.17770000000E+01 0.  1.
</event>
<event>
 6   1  0.1826851E-04  0.5004699E+03  0.7546771E-02  0.9398759E-01
        -11   -1    0    0    0    0  0.00000000000E+00  0.00000000000E+00  0.50000000000E+03  0.50000000000E+03  0.00000000000E+00 0. -1.
         11   -1    0    0    0    0 -0.00000000000E+00 -0.00000000000E+00 -0.50000000000E+03  0.50000000000E+03  0.00000000000E+00 0.  1.
        -11    1    1    2    0    0  0.16048493176E+01 -0.54675099756E+01  0.36797557784E+03  0.36801969389E+03  0.00000000000E+00 0. -1.
         11    1    1    2    0    0  0.52391195212E+01 -0.79478661884E+01 -0.49943943820E+03  0.49953014861E+03  0.00000000000E+00 0.  1.
        -15    1    1    2    0    0 -0.31300103565E+01  0.23050889446E+01  0.32733878663E+02  0.33011739445E+02  0.17770000000E+01 0. -1.
         15    1    1    2    0    0 -0.37139584823E+01  0.11110287219E+02  0.98729981693E+02  0.99438418048E+02  0.17770000000E+01 0.  1.
</event>
<event>
 6   1  0.1826851E-04  0.5000926E+03  0.7546771E-02  0.9399603E-01
        -11   -1    0    0    0    0  0.00000000000E+00  0.00000000000E+00  0.50000000000E+03  0.50000000000E+03  0.00000000000E+00 0.  1.
         11   -1    0    0    0    0 -0.00000000000E+00 -0.00000000000E+00 -0.50000000000E+03  0.50000000000E+03  0.00000000000E+00 0.  1.
        -11    1    1    2    0    0 -0.79098663977E+00 -0.13710361512E+02  0.39082276035E+03  0.39106397134E+03  0.00000000000E+00 0.  1.
         11    1    1    2    0    0  0.21696609126E+01  0.13445565996E+02 -0.49972188883E+03  0.49990744829E+03  0.00000000000E+00 0.  1.
        -15    1    1    2    0    0 -0.25024498966E+01 -0.41659579470E+00  0.65595364201E+02  0.65668450121E+02  0.17770000000E+01 0.  1.
         15    1    1    2    0    0  0.11237756238E+01  0.68139131072E+00  0.43303764281E+02  0.43360130255E+02  0.17770000000E+01 0.  1.
</event>
<event>
 6   1  0.1826851E-04  0.5001016E+03  0.7546771E-02  0.9399582E-01
        -11   -1    0    0    0    0  0.00000000000E+00  0.00000000000E+00  0.50000000000E+03  0.50000000000E+03  0.00000000000E+00 0.  1.
         11   -1    0    0    0    0 -0.00000000000E+00 -0.00000000000E+00 -0.50000000000E+03  0.50000000000E+03  0.00000000000E+00 0.  1.
        -11    1    1    2    0    0  0.24987336294E+01  0.45425126732E+00  0.62713234030E+02  0.62764637627E+02  0.00000000000E+00 0.  1.
         11    1    1    2    0    0  0.76794887227E+01  0.10468512557E+02 -0.49972979424E+03  0.49989842124E+03  0.00000000000E+00 0.  1.
        -15    1    1    2    0    0 -0.92801515968E+01 -0.10335184295E+02  0.32552877704E+03  0.32582983237E+03  0.17770000000E+01 0.  1.
         15    1    1    2    0    0 -0.89807075531E+00 -0.58757952963E+00  0.11148778317E+03  0.11150710877E+03  0.17770000000E+01 0. -1.
</event>
<event>
 6   1  0.1826851E-04  0.5053582E+03  0.7546771E-02  0.9387899E-01
        -11   -1    0    0    0    0  0.00000000000E+00  0.00000000000E+00  0.50000000000E+03  0.50000000000E+03  0.00000000000E+00 0.  1.
         11   -1    0    0    0    0 -0.00000000000E+00 -0.00000000000E+00 -0.50000000000E+03  0.50000000000E+03  0.00000000000E+00 0. -1.
        -11    1    1    2    0    0 -0.16451326464E+02  0.74960890566E+01  0.41482869268E+03  0.41522244853E+03  0.00000000000E+00 0.  1.
         11    1    1    2    0    0 -0.20312766796E+02 -0.52970526977E+01 -0.49419615096E+03  0.49464179249E+03  0.00000000000E+00 0. -1.
        -15    1    1    2    0    0  0.18691122942E+01  0.40488838530E+01  0.23211741477E+02  0.23702947341E+02  0.17770000000E+01 0.  1.
         15    1    1    2    0    0  0.34894980966E+02 -0.62479202119E+01  0.56155716801E+02  0.66432811638E+02  0.17770000000E+01 0. -1.
</event>
<event>
 6   1  0.1826851E-04  0.5006820E+03  0.7546771E-02  0.9398285E-01
        -11   -1    0    0    0    0  0.00000000000E+00  0.00000000000E+00  0.50000000000E+03  0.50000000000E+03  0.00000000000E+00 0.  1.
         11   -1    0    0    0    0 -0.00000000000E+00 -0.00000000000E+00 -0.50000000000E+03  0.50000000000E+03  0.00000000000E+00 0. -1.
        -11    1    1    2    0    0 -0.46795409021E+00  0.20620414092E+02  0.35953412795E+03  0.36012526934E+03  0.00000000000E+00 0.  1.
         11    1    1    2    0    0  0.25863560625E+00 -0.89269453914E+01 -0.49923811210E+03  0.49931798468E+03  0.00000000000E+00 0. -1.
        -15    1    1    2    0    0 -0.41668949163E+01 -0.26502894967E+01  0.45232422493E+02  0.45535884984E+02  0.17770000000E+01 0. -1.
         15    1    1    2    0    0  0.43762134003E+01 -0.90431792039E+01  0.94471561657E+02  0.95020860998E+02  0.17770000000E+01 0.  1.
</event>
<event>
 6   1  0.1826851E-04  0.5022487E+03  0.7546771E-02  0.9394792E-01
        -11   -1    0    0    0    0  0.00000000000E+00  0.00000000000E+00  0.50000000000E+03  0.50000000000E+03  0.00000000000E+00 0.  1.
         11   -1    0    0    0    0 -0.00000000000E+00 -0.00000000000E+00 -0.50000000000E+03  0.50000000000E+03  0.00000000000E+00 0.  1.
        -11    1    1    2    0    0  0.96225203765E+01 -0.42043480750E+01  0.48629010368E+03  0.48640346872E+03  0.00000000000E+00 0.  1.
         11    1    1    2    0    0 -0.30559339689E+01  0.68131894676E+01 -0.49769527316E+03  0.49775128650E+03  0.00000000000E+00 0.  1.
        -15    1    1    2    0    0 -0.37708544173E+01 -0.39384889838E+01  0.10795172487E+02  0.12223932123E+02  0.17770000000E+01 0. -1.
         15    1    1    2    0    0 -0.27957319903E+01  0.13296475911E+01  0.60999699303E+00  0.36213126639E+01  0.17770000000E+01 0.  1.
</event>
<event>
 6   1  0.1826851E-04  0.5044398E+03  0.7546771E-02  0.9389930E-01
        -11   -1    0    0    0    0  0.00000000000E+00  0.00000000000E+00  0.50000000000E+03  0.50000000000E+03  0.00000000000E+00 0.  1.
         11   -1    0    0    0    0 -0.00000000000E+00 -0.00000000000E+00 -0.50000000000E+03  0.50000000000E+03  0.00000000000E+00 0.  1.
        -11    1    1    2    0    0 -0.11931754573E+02  0.19310946495E+01  0.49541276695E+03  0.49556019367E+03  0.00000000000E+00 0.  1.
         11    1    1    2    0    0 -0.22679372888E+01  0.74090905583E+01 -0.47997213259E+03  0.48003467190E+03  0.00000000000E+00 0.  1.
        -15    1    1    2    0    0  0.71479698268E+01 -0.84742302639E+01 -0.11567365973E+02  0.16120413635E+02  0.17770000000E+01 0.  1.
         15    1    1    2    0    0  0.70517220354E+01 -0.86595494383E+00 -0.38732683846E+01  0.82847207924E+01  0.17770000000E+01 0. -1.
</event>
<event>
 6   1  0.1826851E-04  0.5002435E+03  0.7546771E-02  0.9399265E-01
        -11   -1    0    0    0    0  0.00000000000E+00  0.00000000000E+00  0.50000000000E+03  0.50000000000E+03  0.00000000000E+00 0. -1.
         11   -1    0    0    0    0 -0.00000000000E+00 -0.00000000000E+00 -0.50000000000E+03  0.50000000000E+03  0.00000000000E+00 0.  1.
        -11    1    1    2    0    0  0.38509923920E+01  0.69849469999E+01  0.49969288097E+03  0.49975653564E+03  0.00000000000E+00 0. -1.
         11    1    1    2    0    0  0.57137741665E+01 -0.35277999063E+01 -0.35079199263E+03  0.35085625929E+03  0.00000000000E+00 0.  1.
        -15    1    1    2    0    0 -0.41565389459E+01 -0.17765095737E+01 -0.35453865427E+02  0.35785012296E+02  0.17770000000E+01 0. -1.
         15    1    1    2    0    0 -0.54082276126E+01 -0.16806375199E+01 -0.11344702291E+03  0.11360219278E+03  0.17770000000E+01 0.  1.
</event>
<event>
 6   1  0.1826851E-04  0.5004431E+03  0.7546771E-02  0.9398819E-01
        -11   -1    0    0    0    0  0.00000000000E+00  0.00000000000E+00  0.50000000000E+03  0.50000000000E+03  0.00000000000E+00 0.  1.
         11   -1    0    0    0    0 -0.00000000000E+00 -0.00000000000E+00 -0.50000000000E+03  0.50000000000E+03  0.00000000000E+00 0. -1.
        -11    1    1    2    0    0  0.15944926419E+02 -0.40942490020E+01  0.33114862062E+03  0.33155755533E+03  0.00000000000E+00 0.  1.
         11    1    1    2    0    0 -0.72861344235E+01 -0.40320616386E+01 -0.49948748750E+03  0.49955689911E+03  0.00000000000E+00 0. -1.
        -15    1    1    2    0    0 -0.29022074027E+00  0.81584299334E+00  0.14270529982E+02  0.14406789470E+02  0.17770000000E+01 0. -1.
         15    1    1    2    0    0 -0.83685712556E+01  0.73104676472E+01  0.15406833690E+03  0.15447875610E+03  0.17770000000E+01 0.  1.
</event>
<event>
 6   1  0.1826851E-04  0.5037938E+03  0.7546771E-02  0.9391361E-01
        -11   -1    0    0    0    0  0.00000000000E+00  0.00000000000E+00  0.50000000000E+03  0.50000000000E+03  0.00000000000E+00 0.  1.
         11   -1    0    0    0    0 -0.00000000000E+00 -0.00000000000E+00 -0.50000000000E+03  0.50000000000E+03  0.00000000000E+00 0. -1.
        -11    1    1    2    0    0  0.20746030031E+02  0.34988060750E+02  0.88409274974E+02  0.97317840392E+02  0.00000000000E+00 0.  1.
         11    1    1    2    0    0 -0.26785123994E+02 -0.28307166122E+02 -0.49467350990E+03  0.49620622721E+03  0.00000000000E+00 0. -1.
        -15    1    1    2    0    0  0.82063319508E+01 -0.51481097970E+01  0.32412551058E+03  0.32427511662E+03  0.17770000000E+01 0.  1.
         15    1    1    2    0    0 -0.21672379881E+01 -0.15327848311E+01  0.82138724341E+02  0.82200815782E+02  0.17770000000E+01 0. -1.
</event>
<event>
 6   1  0.1826851E-04  0.4865698E+03  0.7546771E-02  0.9430373E-01
        -11   -1    0    0    0    0  0.00000000000E+00  0.00000000000E+00  0.50000000000E+03  0.50000000000E+03  0.00000000000E+00 0.  1.
         11   -1    0    0    0    0 -0.00000000000E+00 -0.00000000000E+00 -0.50000000000E+03  0.50000000000E+03  0.00000000000E+00 0.  1.
        -11    1    1    2    0    0  0.12168611784E+02 -0.16402029918E+02  0.49241178634E+03  0.49283513371E+03  0.00000000000E+00 0.  1.
         11    1    1    2    0    0  0.59790599693E+01  0.63952183898E+01 -0.48051808090E+03  0.48059782985E+03  0.00000000000E+00 0.  1.
        -15    1    1    2    0    0 -0.30332844348E+01  0.66978359291E+01 -0.11609761408E+01  0.76529350707E+01  0.17770000000E+01 0.  1.
         15    1    1    2    0    0 -0.15114387318E+02  0.33089755990E+01 -0.10732729294E+02  0.18914101369E+02  0.17770000000E+01 0. -1.
</event>
<event>
 6   1  0.1826851E-04  0.5055956E+03  0.7546771E-02  0.9387375E-01
        -11   -1    0    0    0    0  0.00000000000E+00  0.00000000000E+00  0.50000000000E+03  0.50000000000E+03  0.00000000000E+00 0. -1.
         11   -1    0    0    0    0 -0.00000000000E+00 -0.00000000000E+00 -0.50000000000E+03  0.50000000000E+03  0.00000000000E+00 0.  1.
        -11    1    1    2    0    0  0.26222469291E+02 -0.23361982366E+02  0.52097515555E+02  0.62829541163E+02  0.00000000000E+00 0. -1.
         11    1    1    2    0    0 -0.27862351996E+02 -0.90636281831E+01 -0.49353547868E+03  0.49440441819E+03  0.00000000000E+00 0.  1.
        -15    1    1    2    0    0  0.21927315446E+01  0.19616558086E+01  0.29648368622E+02  0.29846937131E+02  0.17770000000E+01 0. -1.
         15    1    1    2    0    0 -0.55284883950E+00  0.30463954741E+02  0.41178959450E+03  0.41291910351E+03  0.17770000000E+01 0. -1.
</event>
<event>
 6   1  0.1826851E-04  0.5000602E+03  0.7546771E-02  0.9399675E-01
        -11   -1    0    0    0    0  0.00000000000E+00  0.00000000000E+00  0.50000000000E+03  0.50000000000E+03  0.00000000000E+00 0. -1.
         11   -1    0    0    0    0 -0.00000000000E+00 -0.00000000000E+00 -0.50000000000E+03  0.50000000000E+03  0.00000000000E+00 0. -1.
        -11    1    1    2    0    0  0.12885825232E+01 -0.11977293485E+01  0.39194190669E+02  0.39233653701E+02  0.00000000000E+00 0. -1.
         11    1    1    2    0    0  0.73907839638E+01 -0.24800785244E+01 -0.49987898830E+03  0.49993977380E+03  0.00000000000E+00 0. -1.
        -15    1    1    2    0    0 -0.74309840453E+01  0.45575681982E+01  0.32589243889E+03  0.32601385003E+03  0.17770000000E+01 0. -1.
         15    1    1    2    0    0 -0.12483824417E+01 -0.87976032527E+00  0.13479235874E+03  0.13481272248E+03  0.17770000000E+01 0. -1.
</event>
<event>
 6   1  0.1826851E-04  0.3778269E+03  0.7546771E-02  0.9724284E-01
        -11   -1    0    0    0    0  0.00000000000E+00  0.00000000000E+00  0.50000000000E+03  0.50000000000E+03  0.00000000000E+00 0. -1.
         11   -1    0    0    0    0 -0.00000000000E+00 -0.00000000000E+00 -0.50000000000E+03  0.50000000000E+03  0.00000000000E+00 0.  1.
        -11    1    1    2    0    0 -0.14111665416E+03 -0.13392409005E+02  0.42922397730E+03  0.45202487696E+03  0.00000000000E+00 0. -1.
         11    1    1    2    0    0 -0.42684695406E+02 -0.21799598465E+02 -0.32936633921E+03  0.33283538141E+03  0.00000000000E+00 0.  1.
        -15    1    1    2    0    0  0.16055484618E+03  0.38928108419E+02 -0.77006672529E+02  0.18228121571E+03  0.17770000000E+01 0. -1.
         15    1    1    2    0    0  0.23246503380E+02 -0.37361009490E+01 -0.22850965564E+02  0.32858525924E+02  0.17770000000E+01 0.  1.
</event>
<event>
 6   1  0.1826851E-04  0.4863255E+03  0.7546771E-02  0.9430938E-01
        -11   -1    0    0    0    0  0.00000000000E+00  0.00000000000E+00  0.50000000000E+03  0.50000000000E+03  0.00000000000E+00 0. -1.
         11   -1    0    0    0    0 -0.00000000000E+00 -0.00000000000E+00 -0.50000000000E+03  0.50000000000E+03  0.00000000000E+00 0.  1.
        -11    1    1    2    0    0  0.14822799777E+01  0.13933480752E+02  0.49165436372E+03  0.49185399501E+03  0.00000000000E+00 0. -1.
         11    1    1    2    0    0  0.71472520850E+01  0.62968242039E+01 -0.48100961675E+03  0.48110392289E+03  0.00000000000E+00 0.  1.
        -15    1    1    2    0    0 -0.78481064744E+01 -0.16268438150E+02 -0.32605530751E+01  0.18440276311E+02  0.17770000000E+01 0.  1.
         15    1    1    2    0    0 -0.78142558834E+00 -0.39618668057E+01 -0.73841938914E+01  0.86018057965E+01  0.17770000000E+01 0. -1.
</event>
<event>
 6   1  0.1826851E-04  0.5009721E+03  0.7546771E-02  0.9397637E-01
        -11   -1    0    0    0    0  0.00000000000E+00  0.00000000000E+00  0.50000000000E+03  0.50000000000E+03  0.00000000000E+00 0. -1.
         11   -1    0    0    0    0 -0.00000000000E+00 -0.00000000000E+00 -0.50000000000E+03  0.50000000000E+03  0.00000000000E+00 0.  1.
        -11    1    1    2    0    0 -0.22216704484E+01 -0.84727224540E+01  0.49895105242E+03  0.49902793064E+03  0.00000000000E+00 0. -1.
         11    1    1    2    0    0  0.29504365721E+01  0.81525338471E+01 -0.43690737772E+03  0.43699339308E+03  0.00000000000E+00 0.  1.
        -15    1    1    2    0    0 -0.43055583771E+01 -0.10026123173E+01 -0.54918755689E+01  0.72705908055E+01  0.17770000000E+01 0.  1.
         15    1    1    2    0    0  0.35767922534E+01  0.13228009242E+01 -0.56551799129E+02  0.56708085480E+02  0.17770000000E+01 0. -1.
</event>
<event>
 6   1  0.1826851E-04  0.5024714E+03  0.7546771E-02  0.9394297E-01
        -11   -1    0    0    0    0  0.00000000000E+00  0.00000000000E+00  0.50000000000E+03  0.50000000000E+03  0.00000000000E+00 0.  1.
         11   -1    0    0    0    0 -0.00000000000E+00 -0.00000000000E+00 -0.50000000000E+03  0.50000000000E+03  0.00000000000E+00 0. -1.
        -11    1    1    2    0    0 -0.78047664431E+01 -0.19274976589E+01  0.49746363947E+03  0.49752859438E+03  0.00000000000E+00 0.  1.
         11    1    1    2    0    0 -0.12208141404E+01 -0.63409112274E+01 -0.47776339666E+03  0.47780703295E+03  0.00000000000E+00 0. -1.
        -15    1    1    2    0    0  0.26989251493E+01  0.60350587306E+01 -0.52273552608E+01  0.86133096349E+01  0.17770000000E+01 0. -1.
         15    1    1    2    0    0  0.63266554342E+01  0.22333501558E+01 -0.14472887545E+02  0.16051063042E+02  0.17770000000E+01 0.  1.
</event>
<event>
 6   1  0.1826851E-04  0.5000480E+03  0.7546771E-02  0.9399702E-01
        -11   -1    0    0    0    0  0.00000000000E+00  0.00000000000E+00  0.50000000000E+03  0.50000000000E+03  0.00000000000E+00 0.  1.
         11   -1    0    0    0    0 -0.00000000000E+00 -0.00000000000E+00 -0.50000000000E+03  0.50000000000E+03  0.00000000000E+00 0.  1.
        -11    1    1    2    0    0  0.48786978346E-01  0.78098649356E+01  0.49989094916E+03  0.49995195511E+03  0.00000000000E+00 0.  1.
         11    1    1    2    0    0 -0.31289727121E+01 -0.43957293060E+01 -0.22761937516E+03  0.22768331704E+03  0.00000000000E+00 0.  1.
        -15    1    1    2    0    0  0.25079047869E+01 -0.85845070091E+00 -0.75125453936E+02  0.75193205026E+02  0.17770000000E+01 0.  1.
         15    1    1    2    0    0  0.57228094685E+00 -0.25556849287E+01 -0.19714612006E+03  0.19717152283E+03  0.17770000000E+01 0. -1.
</event>
<event>
 6   1  0.1826851E-04  0.5051774E+03  0.7546771E-02  0.9388299E-01
        -11   -1    0    0    0    0  0.00000000000E+00  0.00000000000E+00  0.50000000000E+03  0.50000000000E+03  0.00000000000E+00 0.  1.
         11   -1    0    0    0    0 -0.00000000000E+00 -0.00000000000E+00 -0.50000000000E+03  0.50000000000E+03  0.00000000000E+00 0. -1.
        -11    1    1    2    0    0 -0.34983670498E+01  0.58970607791E+01  0.49477509733E+03  0.49482260542E+03  0.00000000000E+00 0.  1.
         11    1    1    2    0    0  0.24536031771E+00  0.10237445368E+02 -0.48355077293E+03  0.48365919354E+03  0.00000000000E+00 0. -1.
        -15    1    1    2    0    0  0.14825547358E+01 -0.12174245764E+02 -0.11384249422E+02  0.16827628840E+02  0.17770000000E+01 0. -1.
         15    1    1    2    0    0  0.17704519962E+01 -0.39602603831E+01  0.15992502291E+00  0.46905722024E+01  0.17770000000E+01 0.  1.
</event>
<event>
 6   1  0.1826851E-04  0.5049137E+03  0.7546771E-02  0.9388881E-01
        -11   -1    0    0    0    0  0.00000000000E+00  0.00000000000E+00  0.50000000000E+03  0.50000000000E+03  0.00000000000E+00 0. -1.
         11   -1    0    0    0    0 -0.00000000000E+00 -0.00000000000E+00 -0.50000000000E+03  0.50000000000E+03  0.00000000000E+00 0. -1.
        -11    1    1    2    0    0  0.88828469833E+01  0.54467657695E+01  0.48082779147E+03  0.48094067958E+03  0.00000000000E+00 0. -1.
         11    1    1    2    0    0  0.53479138473E+00  0.10608549733E+02 -0.49497229458E+03  0.49508625484E+03  0.00000000000E+00 0. -1.
        -15    1    1    2    0    0 -0.24623096429E+01 -0.64715562429E+01  0.35351253825E+01  0.79748886797E+01  0.17770000000E+01 0. -1.
         15    1    1    2    0    0 -0.69553287250E+01 -0.95837592594E+01  0.10609377729E+02  0.15998176896E+02  0.17770000000E+01 0.  1.
</event>
<event>
 6   1  0.1826851E-04  0.5007408E+03  0.7546771E-02  0.9398154E-01
        -11   -1    0    0    0    0  0.00000000000E+00  0.00000000000E+00  0.50000000000E+03  0.50000000000E+03  0.00000000000E+00 0. -1.
         11   -1    0    0    0    0 -0.00000000000E+00 -0.00000000000E+00 -0.50000000000E+03  0.50000000000E+03  0.00000000000E+00 0. -1.
        -11    1    1    2    0    0 -0.86578614048E+01 -0.11169094671E+02  0.17622047736E+03  0.17678620953E+03  0.00000000000E+00 0. -1.
         11    1    1    2    0    0  0.65112318849E+01 -0.24716252896E+01 -0.49921066299E+03  0.49925924239E+03  0.00000000000E+00 0. -1.
        -15    1    1    2    0    0 -0.45781205486E+01  0.22174920884E+00  0.20281801473E+02  0.20869057488E+02  0.17770000000E+01 0.  1.
         15    1    1    2    0    0  0.67247500685E+01  0.13418970752E+02  0.30270838415E+03  0.30308549059E+03  0.17770000000E+01 0. -1.
</event>
<event>
 6   1  0.1826851E-04  0.5015129E+03  0.7546771E-02  0.9396431E-01
        -11   -1    0    0    0    0  0.00000000000E+00  0.00000000000E+00  0.50000000000E+03  0.50000000000E+03  0.00000000000E+00 0.  1.
         11   -1    0    0    0    0 -0.00000000000E+00 -0.00000000000E+00 -0.50000000000E+03  0.50000000000E+03  0.00000000000E+00 0. -1.
        -11    1    1    2    0    0  0.14961678637E+02 -0.31355850302E+01  0.39848949752E+02  0.42680469977E+02  0.00000000000E+00 0.  1.
         11    1    1    2    0    0 -0.12824792148E+02 -0.13680444348E+02 -0.49813423096E+03  0.49848705289E+03  0.00000000000E+00 0. -1.
        -15    1    1    2    0    0  0.26772835011E+01  0.90656830468E+00  0.18862690211E+03  0.18865644871E+03  0.17770000000E+01 0. -1.
         15    1    1    2    0    0 -0.48141699909E+01  0.15909461074E+02  0.26965837910E+03  0.27017602842E+03  0.17770000000E+01 0.  1.
</event>
<event>
 6   1  0.1826851E-04  0.5007949E+03  0.7546771E-02  0.9398033E-01
        -11   -1    0    0    0    0  0.00000000000E+00  0.00000000000E+00  0.50000000000E+03  0.50000000000E+03  0.00000000000E+00 0.  1.
         11   -1    0    0    0    0 -0.00000000000E+00 -0.00000000000E+00 -0.50000000000E+03  0.50000000000E+03  0.00000000000E+00 0.  1.
        -11    1    1    2    0    0  0.15444415244E+02  0.16980623959E+02  0.29606178857E+03  0.29695025543E+03  0.00000000000E+00 0.  1.
         11    1    1    2    0    0 -0.39004153943E+01 -0.13047433041E+02 -0.49901936773E+03  0.49920514632E+03  0.00000000000E+00 0.  1.
        -15    1    1    2    0    0  0.78872813568E+00 -0.13862306816E+01  0.10945952417E+03  0.10948556474E+03  0.17770000000E+01 0. -1.
         15    1    1    2    0    0 -0.12332727985E+02 -0.25469602357E+01  0.93498054995E+02  0.94359033499E+02  0.17770000000E+01 0.  1.
</event>
<event>
 6   1  0.1826851E-04  0.4917698E+03  0.7546771E-02  0.9418416E-01
        -11   -1    0    0    0    0  0.00000000000E+00  0.00000000000E+00  0.50000000000E+03  0.50000000000E+03  0.00000000000E+00 0.  1.
         11   -1    0    0    0    0 -0.00000000000E+00 -0.00000000000E+00 -0.50000000000E+03  0.50000000000E+03  0.00000000000E+00 0. -1.
        -11    1    1    2    0    0  0.90699249845E+01 -0.92888661422E+01  0.49113282768E+03  0.49130438732E+03  0.00000000000E+00 0.  1.
         11    1    1    2    0    0  0.34584625828E+01  0.72702351429E+01 -0.49225180578E+03  0.49231763890E+03  0.00000000000E+00 0. -1.
        -15    1    1    2    0    0 -0.13442376497E+02  0.20158445748E+01  0.25192539776E+01  0.13937915369E+02  0.17770000000E+01 0. -1.
         15    1    1    2    0    0  0.91398892967E+00  0.27864245358E-02 -0.14002758778E+01  0.24400584136E+01  0.17770000000E+01 0. -1.
</event>
<event>
 6   1  0.1826851E-04  0.4832358E+03  0.7546771E-02  0.9438122E-01
        -11   -1    0    0    0    0  0.00000000000E+00  0.00000000000E+00  0.50000000000E+03  0.50000000000E+03  0.00000000000E+00 0.  1.
         11   -1    0    0    0    0 -0.00000000000E+00 -0.00000000000E+00 -0.50000000000E+03  0.50000000000E+03  0.00000000000E+00 0. -1.
        -11    1    1    2    0    0  0.94707098784E+01  0.19192482740E+02  0.48281747122E+03  0.48329158513E+03  0.00000000000E+00 0.  1.
         11    1    1    2    0    0  0.90319364284E+01  0.28971322232E-01 -0.48346410197E+03  0.48354846149E+03  0.00000000000E+00 0. -1.
        -15    1    1    2    0    0 -0.46579846140E+01 -0.54502900353E+01 -0.87213057974E+01  0.11428971342E+02  0.17770000000E+01 0. -1.
         15    1    1    2    0    0 -0.13844661693E+02 -0.13771164027E+02  0.93679365476E+01  0.21730982035E+02  0.17770000000E+01 0.  1.
</event>
<event>
 6   1  0.1826851E-04  0.5015519E+03  0.7546771E-02  0.9396344E-01
        -11   -1    0    0    0    0  0.00000000000E+00  0.00000000000E+00  0.50000000000E+03  0.50000000000E+03  0.00000000000E+00 0. -1.
         11   -1    0    0    0    0 -0.00000000000E+00 -0.00000000000E+00 -0.50000000000E+03  0.50000000000E+03  0.00000000000E+00 0. -1.
        -11    1    1    2    0    0  0.12691063748E+01  0.11131235292E+02  0.45419176907E+03  0.45432992210E+03  0.00000000000E+00 0. -1.
         11    1    1    2    0    0  0.72454069269E+01 -0.19337422511E+01 -0.49839171879E+03  0.49844813235E+03  0.00000000000E+00 0. -1.
        -15    1    1    2    0    0 -0.57992888191E+00 -0.70961066720E+01  0.13178914671E+02  0.15084182720E+02  0.17770000000E+01 0. -1.
         15    1    1    2    0    0 -0.79345844198E+01 -0.21013863686E+01  0.31021035057E+02  0.32137762829E+02  0.17770000000E+01 0.  1.
</event>
<event>
 6   1  0.1826851E-04  0.5003892E+03  0.7546771E-02  0.9398939E-01
        -11   -1    0    0    0    0  0.00000000000E+00  0.00000000000E+00  0.50000000000E+03  0.50000000000E+03  0.00000000000E+00 0.  1.
         11   -1    0    0    0    0 -0.00000000000E+00 -0.00000000000E+00 -0.50000000000E+03  0.50000000000E+03  0.00000000000E+00 0. -1.
        -11    1    1    2    0    0 -0.10321366734E+02 -0.89748042535E+01  0.49942357504E+03  0.49961083358E+03  0.00000000000E+00 0.  1.
         11    1    1    2    0    0  0.77611587339E+01 -0.25461330826E+01 -0.38323996399E+03  0.38332699929E+03  0.00000000000E+00 0. -1.
        -15    1    1    2    0    0  0.25081010601E+01  0.10398224414E+01 -0.16713437717E+02  0.17025525865E+02  0.17770000000E+01 0.  1.
         15    1    1    2    0    0  0.52106939539E-01  0.10481114895E+02 -0.99470173332E+02  0.10003664127E+03  0.17770000000E+01 0. -1.
</event>
<event>
 6   1  0.1826851E-04  0.5035627E+03  0.7546771E-02  0.9391873E-01
        -11   -1    0    0    0    0  0.00000000000E+00  0.00000000000E+00  0.50000000000E+03  0.50000000000E+03  0.00000000000E+00 0.  1.
         11   -1    0    0    0    0 -0.00000000000E+00 -0.00000000000E+00 -0.50000000000E+03  0.50000000000E+03  0.00000000000E+00 0. -1.
        -11    1    1    2    0    0  0.22366309061E+02 -0.27835605340E+01  0.29808758168E+03  0.29893846581E+03  0.00000000000E+00 0.  1.
         11    1    1    2    0    0  0.59768504030E+01  0.35671541816E+01 -0.49638855205E+03  0.49643734946E+03  0.00000000000E+00 0. -1.
        -15    1    1    2    0    0 -0.26290407173E+02 -0.17113583307E+02  0.15730245092E+03  0.16040972239E+03  0.17770000000E+01 0. -1.
         15    1    1    2    0    0 -0.20527522911E+01  0.16329989659E+02  0.40998519451E+02  0.44214462345E+02  0.17770000000E+01 0.  1.
</event>
<event>
 6   1  0.1826851E-04  0.5015162E+03  0.7546771E-02  0.9396423E-01
        -11   -1    0    0    0    0  0.00000000000E+00  0.00000000000E+00  0.50000000000E+03  0.50000000000E+03  0.00000000000E+00 0.  1.
         11   -1    0    0    0    0 -0.00000000000E+00 -0.00000000000E+00 -0.50000000000E+03  0.50000000000E+03  0.00000000000E+00 0.  1.
        -11    1    1    2    0    0  0.10113700311E+02 -0.33549374111E+01  0.49836989861E+03  0.49848379952E+03  0.00000000000E+00 0.  1.
         11    1    1    2    0    0  0.30081100557E+01 -0.74798554926E+01 -0.44630792538E+03  0.44638073572E+03  0.00000000000E+00 0.  1.
        -15    1    1    2    0    0 -0.52185817708E+01  0.14077085441E+01 -0.14857663998E+02  0.15909844359E+02  0.17770000000E+01 0. -1.
         15    1    1    2    0    0 -0.79032285960E+01  0.94270843596E+01 -0.37204309234E+02  0.39225620407E+02  0.17770000000E+01 0.  1.
</event>
<event>
 6   1  0.1826851E-04  0.5100952E+03  0.7546771E-02  0.9377500E-01
        -11   -1    0    0    0    0  0.00000000000E+00  0.00000000000E+00  0.50000000000E+03  0.50000000000E+03  0.00000000000E+00 0.  1.
         11   -1    0    0    0    0 -0.00000000000E+00 -0.00000000000E+00 -0.50000000000E+03  0.50000000000E+03  0.00000000000E+00 0. -1.
        -11    1    1    2    0    0  0.17692186445E+02 -0.19828183444E+01  0.48958126642E+03  0.48990484939E+03  0.00000000000E+00 0.  1.
         11    1    1    2    0    0 -0.21838595915E+02 -0.48045137247E+01 -0.47585509976E+03  0.47638018807E+03  0.00000000000E+00 0. -1.
        -15    1    1    2    0    0  0.13440452912E+02 -0.17742987914E+01 -0.15681380488E+02  0.20805223712E+02  0.17770000000E+01 0.  1.
         15    1    1    2    0    0 -0.92940434413E+01  0.85616308604E+01  0.19552138294E+01  0.12909738828E+02  0.17770000000E+01 0. -1.
</event>
<event>
 6   1  0.1826851E-04  0.5002018E+03  0.7546771E-02  0.9399358E-01
        -11   -1    0    0    0    0  0.00000000000E+00  0.00000000000E+00  0.50000000000E+03  0.50000000000E+03  0.00000000000E+00 0. -1.
         11   -1    0    0    0    0 -0.00000000000E+00 -0.00000000000E+00 -0.50000000000E+03  0.50000000000E+03  0.00000000000E+00 0.  1.
        -11    1    1    2    0    0 -0.85075809005E+00  0.16078628864E+00 -0.64253303309E+00  0.10781884144E+01  0.00000000000E+00 0. -1.
         11    1    1    2    0    0 -0.73516247791E+01 -0.36314206191E+01 -0.49905623324E+03  0.49912358944E+03  0.00000000000E+00 0.  1.
        -15    1    1    2    0    0  0.27629825093E+01  0.15398217737E+01  0.25057739900E+03  0.25060366267E+03  0.17770000000E+01 0. -1.
         15    1    1    2    0    0  0.54394003598E+01  0.19308125567E+01  0.24912136727E+03  0.24919455948E+03  0.17770000000E+01 0. -1.
</event>
<event>
 6   1  0.1826851E-04  0.5001337E+03  0.7546771E-02  0.9399511E-01
        -11   -1    0    0    0    0  0.00000000000E+00  0.00000000000E+00  0.50000000000E+03  0.50000000000E+03  0.00000000000E+00 0. -1.
         11   -1    0    0    0    0 -0.00000000000E+00 -0.00000000000E+00 -0.50000000000E+03  0.50000000000E+03  0.00000000000E+00 0.  1.
        -11    1    1    2    0    0 -0.64027761474E+01  0.93633207586E+01  0.21706881193E+03  0.21736498437E+03  0.00000000000E+00 0. -1.
         11    1    1    2    0    0  0.52105203733E+01 -0.10774341667E+02 -0.49972298258E+03  0.49986627740E+03  0.00000000000E+00 0.  1.
        -15    1    1    2    0    0 -0.73616156065E+00 -0.13121613838E+01  0.31431570949E+02  0.31517694755E+02  0.17770000000E+01 0. -1.
         15    1    1    2    0    0  0.19284173348E+01  0.27231822925E+01  0.25122259971E+03  0.25125104348E+03  0.17770000000E+01 0. -1.
</event>
<event>
 6   1  0.1826851E-04  0.5003313E+03  0.7546771E-02  0.9399069E-01
        -11   -1    0    0    0    0  0.00000000000E+00  0.00000000000E+00  0.50000000000E+03  0.50000000000E+03  0.00000000000E+00 0.  1.
         11   -1    0    0    0    0 -0.00000000000E+00 -0.00000000000E+00 -0.50000000000E+03  0.50000000000E+03  0.00000000000E+00 0. -1.
        -11    1    1    2    0    0 -0.81496538123E+01  0.39475437449E-01  0.14447776140E+03  0.14470743573E+03  0.00000000000E+00 0.  1.
         11    1    1    2    0    0 -0.29210031590E+01  0.65458565743E+01 -0.49961730879E+03  0.49966872599E+03  0.00000000000E+00 0. -1.
        -15    1    1    2    0    0 -0.12752009118E+01 -0.41546887562E+01  0.50049487131E+02  0.50269239770E+02  0.17770000000E+01 0. -1.
         15    1    1    2    0    0  0.12345857883E+02 -0.24306432556E+01  0.30509006025E+03  0.30535459851E+03  0.17770000000E+01 0.  1.
</event>
<event>
 6   1  0.1826851E-04  0.4713573E+03  0.7546771E-02  0.9466284E-01
        -11   -1    0    0    0    0  0.00000000000E+00  0.00000000000E+00  0.50000000000E+03  0.50000000000E+03  0.00000000000E+00 0.  1.
         11   -1    0    0    0    0 -0.00000000000E+00 -0.00000000000E+00 -0.50000000000E+03  0.50000000000E+03  0.00000000000E+00 0. -1.
        -11    1    1    2    0    0 -0.18816789103E+01 -0.20205344459E+02  0.47715003597E+03  0.47758135798E+03  0.00000000000E+00 0.  1.
         11    1    1    2    0    0 -0.69162819406E+01  0.18737854892E+01 -0.46537089875E+03  0.46542606226E+03  0.00000000000E+00 0. -1.
        -15    1    1    2    0    0  0.70645697270E+01  0.84644168287E+01 -0.32252061858E+02  0.34130744509E+02  0.17770000000E+01 0.  1.
         15    1    1    2    0    0  0.17333911239E+01  0.98671421408E+01  0.20472924638E+02  0.22861835251E+02  0.17770000000E+01 0. -1.
</event>
<event>
 6   1  0.1826851E-04  0.5046839E+03  0.7546771E-02  0.9389390E-01
        -11   -1    0    0    0    0  0.00000000000E+00  0.00000000000E+00  0.50000000000E+03  0.50000000000E+03  0.00000000000E+00 0. -1.
         11   -1    0    0    0    0 -0.00000000000E+00 -0.00000000000E+00 -0.50000000000E+03  0.50000000000E+03  0.00000000000E+00 0. -1.
        -11    1    1    2    0    0  0.13621051993E+02 -0.22297509704E+02  0.10150428149E+03  0.10481331575E+03  0.00000000000E+00 0. -1.
         11    1    1    2    0    0 -0.26909236121E+02  0.10810765872E+02 -0.49446646239E+03  0.49531612338E+03  0.00000000000E+00 0. -1.
        -15    1    1    2    0    0  0.17759948053E+02  0.74073364740E+01  0.23813485916E+02  0.30667967474E+02  0.17770000000E+01 0.  1.
         15    1    1    2    0    0 -0.44717639244E+01  0.40794073583E+01  0.36914869498E+03  0.36920259340E+03  0.17770000000E+01 0. -1.
</event>
<event>
 6   1  0.1826851E-04  0.5076243E+03  0.7546771E-02  0.9382909E-01
        -11   -1    0    0    0    0  0.00000000000E+00  0.00000000000E+00  0.50000000000E+03  0.50000000000E+03  0.00000000000E+00 0. -1.
         11   -1    0    0    0    0 -0.00000000000E+00 -0.00000000000E+00 -0.50000000000E+03  0.50000000000E+03  0.00000000000E+00 0.  1.
        -11    1    1    2    0    0 -0.57281672871E-01 -0.25159038236E+02  0.49173246317E+03  0.49237566534E+03  0.00000000000E+00 0. -1.
         11    1    1    2    0    0 -0.81654835205E+01  0.97519270484E+00 -0.47175048566E+03  0.47182215595E+03  0.00000000000E+00 0.  1.
        -15    1    1    2    0    0  0.90581911834E+01  0.15218263279E+02 -0.19797456074E+02  0.26622234330E+02  0.17770000000E+01 0. -1.
         15    1    1    2    0    0 -0.83542599000E+00  0.89655822518E+01 -0.18452143186E+00  0.91799443821E+01  0.17770000000E+01 0.  1.
</event>
<event>
 6   1  0.1826851E-04  0.5001628E+03  0.7546771E-02  0.9399446E-01
        -11   -1    0    0    0    0  0.00000000000E+00  0.00000000000E+00  0.50000000000E+03  0.50000000000E+03  0.00000000000E+00 0.  1.
         11   -1    0    0    0    0 -0.00000000000E+00 -0.00000000000E+00 -0.50000000000E+03  0.50000000000E+03  0.00000000000E+00 0. -1.
        -11    1    1    2    0    0 -0.35373620889E+01 -0.95607546811E+01  0.24827657951E+03  0.24848577604E+03  0.00000000000E+00 0.  1.
         11    1    1    2    0    0  0.86158810293E+01  0.24835663057E+01 -0.49975677170E+03  0.49983720587E+03  0.00000000000E+00 0. -1.
        -15    1    1    2    0    0 -0.37289254645E+01  0.44873708888E+01  0.12273543692E+03  0.12288688534E+03  0.17770000000E+01 0.  1.
         15    1    1    2    0    0 -0.13495934759E+01  0.25898174866E+01  0.12874475526E+03  0.12879013275E+03  0.17770000000E+01 0.  1.
</event>
<event>
 6   1  0.1826851E-04  0.5007651E+03  0.7546771E-02  0.9398099E-01
        -11   -1    0    0    0    0  0.00000000000E+00  0.00000000000E+00  0.50000000000E+03  0.50000000000E+03  0.00000000000E+00 0.  1.
         11   -1    0    0    0    0 -0.00000000000E+00 -0.00000000000E+00 -0.50000000000E+03  0.50000000000E+03  0.00000000000E+00 0.  1.
        -11    1    1    2    0    0  0.11247556599E+03  0.58311980978E+02  0.48289171566E+03  0.49923486369E+03  0.00000000000E+00 0.  1.
         11    1    1    2    0    0 -0.11078080244E+03 -0.58772730210E+02 -0.44341518106E+03  0.46080759846E+03  0.00000000000E+00 0.  1.
        -15    1    1    2    0    0  0.14491623963E+01  0.25949770726E+00 -0.21298878798E+02  0.21423523935E+02  0.17770000000E+01 0.  1.
         15    1    1    2    0    0 -0.31439259459E+01  0.20125152544E+00 -0.18177655800E+02  0.18534013918E+02  0.17770000000E+01 0. -1.
</event>
<event>
 6   1  0.1826851E-04  0.5000731E+03  0.7546771E-02  0.9399646E-01
        -11   -1    0    0    0    0  0.00000000000E+00  0.00000000000E+00  0.50000000000E+03  0.50000000000E+03  0.00000000000E+00 0.  1.
         11   -1    0    0    0    0 -0.00000000000E+00 -0.00000000000E+00 -0.50000000000E+03  0.50000000000E+03  0.00000000000E+00 0. -1.
        -11    1    1    2    0    0 -0.64042378054E+00  0.22585488524E+01  0.36101226083E+02  0.36177475178E+02  0.00000000000E+00 0.  1.
         11    1    1    2    0    0  0.10148837973E+02 -0.94084193314E+01 -0.49973532889E+03  0.49992691087E+03  0.00000000000E+00 0. -1.
        -15    1    1    2    0    0 -0.57145598306E+01  0.30782053179E+01  0.37916985596E+03  0.37922957287E+03  0.17770000000E+01 0.  1.
         15    1    1    2    0    0 -0.37938543617E+01  0.40716651611E+01  0.84464246852E+02  0.84666041087E+02  0.17770000000E+01 0. -1.
</event>
<event>
 6   1  0.1826851E-04  0.5013049E+03  0.7546771E-02  0.9396895E-01
        -11   -1    0    0    0    0  0.00000000000E+00  0.00000000000E+00  0.50000000000E+03  0.50000000000E+03  0.00000000000E+00 0. -1.
         11   -1    0    0    0    0 -0.00000000000E+00 -0.00000000000E+00 -0.50000000000E+03  0.50000000000E+03  0.00000000000E+00 0.  1.
        -11    1    1    2    0    0  0.64551310541E+01 -0.43521505256E+01  0.44801586875E+03  0.44808350626E+03  0.00000000000E+00 0. -1.
         11    1    1    2    0    0  0.69667768515E+01 -0.41197558415E-01 -0.49864645077E+03  0.49869511782E+03  0.00000000000E+00 0.  1.
        -15    1    1    2    0    0 -0.61649593551E+01  0.11696953708E+01  0.34970222426E+02  0.35573151345E+02  0.17770000000E+01 0. -1.
         15    1    1    2    0    0 -0.72569485504E+01  0.32236527132E+01  0.15660359588E+02  0.17648224571E+02  0.17770000000E+01 0.  1.
</event>
<event>
 6   1  0.1826851E-04  0.4856032E+03  0.7546771E-02  0.9432613E-01
        -11   -1    0    0    0    0  0.00000000000E+00  0.00000000000E+00  0.50000000000E+03  0.50000000000E+03  0.00000000000E+00 0.  1.
         11   -1    0    0    0    0 -0.00000000000E+00 -0.00000000000E+00 -0.50000000000E+03  0.50000000000E+03  0.00000000000E+00 0. -1.
        -11    1    1    2    0    0 -0.69707051450E+01 -0.10582139616E+02  0.48550701721E+03  0.48567235475E+03  0.00000000000E+00 0.  1.
         11    1    1    2    0    0 -0.13668240721E+02  0.43373449282E+01 -0.48556160606E+03  0.48577330787E+03  0.00000000000E+00 0. -1.
        -15    1    1    2    0    0 -0.66392166335E+00 -0.20669515950E+00 -0.52651104636E+01  0.56002350002E+01  0.17770000000E+01 0. -1.
         15    1    1    2    0    0  0.21302867529E+02  0.64514898475E+01  0.53196993118E+01  0.22954102378E+02  0.17770000000E+01 0.  1.
</event>
<event>
 6   1  0.1826851E-04  0.5003409E+03  0.7546771E-02  0.9399047E-01
        -11   -1    0    0    0    0  0.00000000000E+00  0.00000000000E+00  0.50000000000E+03  0.50000000000E+03  0.00000000000E+00 0. -1.
         11   -1    0    0    0    0 -0.00000000000E+00 -0.00000000000E+00 -0.50000000000E+03  0.50000000000E+03  0.00000000000E+00 0.  1.
        -11    1    1    2    0    0  0.20970688243E+00 -0.77039691691E+01  0.72805485718E+02  0.73212252175E+02  0.00000000000E+00 0. -1.
         11    1    1    2    0    0 -0.32897326238E+00  0.71710801941E+01 -0.49960753773E+03  0.49965910817E+03  0.00000000000E+00 0.  1.
        -15    1    1    2    0    0  0.23173728933E+01  0.69542506160E+01  0.32384217061E+03  0.32392999400E+03  0.17770000000E+01 0. -1.
         15    1    1    2    0    0 -0.21981065133E+01 -0.64213616410E+01  0.10295988140E+03  0.10319864565E+03  0.17770000000E+01 0.  1.
</event>
<event>
 6   1  0.1826851E-04  0.5005603E+03  0.7546771E-02  0.9398557E-01
        -11   -1    0    0    0    0  0.00000000000E+00  0.00000000000E+00  0.50000000000E+03  0.50000000000E+03  0.00000000000E+00 0. -1.
         11   -1    0    0    0    0 -0.00000000000E+00 -0.00000000000E+00 -0.50000000000E+03  0.50000000000E+03  0.00000000000E+00 0.  1.
        -11    1    1    2    0    0 -0.51237082957E+01  0.12647600773E+02  0.49925323162E+03  0.49943968953E+03  0.00000000000E+00 0. -1.
         11    1    1    2    0    0  0.61508620122E+01 -0.14412406959E+01 -0.43858919348E+03  0.43863468959E+03  0.00000000000E+00 0.  1.
        -15    1    1    2    0    0 -0.75154735054E+00 -0.76165889729E+01 -0.30510723605E+02  0.31506177726E+02  0.17770000000E+01 0.  1.
         15    1    1    2    0    0 -0.27560636600E+00 -0.35897711040E+01 -0.30153314537E+02  0.30419443158E+02  0.17770000000E+01 0. -1.
</event>
<event>
 6   1  0.1826851E-04  0.5019493E+03  0.7546771E-02  0.9395459E-01
        -11   -1    0    0    0    0  0.00000000000E+00  0.00000000000E+00  0.50000000000E+03  0.50000000000E+03  0.00000000000E+00 0. -1.
         11   -1    0    0    0    0 -0.00000000000E+00 -0.00000000000E+00 -0.50000000000E+03  0.50000000000E+03  0.00000000000E+00 0. -1.
        -11    1    1    2    0    0 -0.31967861821E+01  0.70047087762E+01  0.49799116186E+03  0.49805068284E+03  0.00000000000E+00 0. -1.
         11    1    1    2    0    0 -0.63325635334E+01  0.17245984340E+01 -0.47433015553E+03  0.47437556013E+03  0.00000000000E+00 0. -1.
        -15    1    1    2    0    0  0.37570720086E+01 -0.89012333007E+00 -0.65885996738E+01  0.78406175957E+01  0.17770000000E+01 0. -1.
         15    1    1    2    0    0  0.57722777069E+01 -0.78391838802E+01 -0.17072406657E+02  0.19733139433E+02  0.17770000000E+01 0.  1.
</event>
<event>
 6   1  0.1826851E-04  0.5008157E+03  0.7546771E-02  0.9397986E-01
        -11   -1    0    0    0    0  0.00000000000E+00  0.00000000000E+00  0.50000000000E+03  0.50000000000E+03  0.00000000000E+00 0.  1.
         11   -1    0    0    0    0 -0.00000000000E+00 -0.00000000000E+00 -0.50000000000E+03  0.50000000000E+03  0.00000000000E+00 0.  1.
        -11    1    1    2    0    0  0.94071791655E+01 -0.94217532315E+01  0.24876527829E+03  0.24912131209E+03  0.00000000000E+00 0.  1.
         11    1    1    2    0    0  0.10271460975E+02  0.37153362101E+01 -0.49906474990E+03  0.49918426580E+03  0.00000000000E+00 0.  1.
        -15    1    1    2    0    0 -0.96775781058E+01  0.50416831728E+01  0.20352658110E+03  0.20382664456E+03  0.17770000000E+01 0. -1.
         15    1    1    2    0    0 -0.10001062035E+02  0.66473384867E+00  0.46772890506E+02  0.47867777556E+02  0.17770000000E+01 0.  1.
</event>
<event>
 6   1  0.1826851E-04  0.5003455E+03  0.7546771E-02  0.9399037E-01
        -11   -1    0    0    0    0  0.00000000000E+00  0.00000000000E+00  0.50000000000E+03  0.50000000000E+03  0.00000000000E+00 0. -1.
         11   -1    0    0    0    0 -0.00000000000E+00 -0.00000000000E+00 -0.50000000000E+03  0.50000000000E+03  0.00000000000E+00 0. -1.
        -11    1    1    2    0    0 -0.10080378147E+01 -0.65055054136E+01  0.40344794934E+03  0.40350165498E+03  0.00000000000E+00 0. -1.
         11    1    1    2    0    0  0.99953195712E+01  0.37543904541E+01 -0.49954043879E+03  0.49965453250E+03  0.00000000000E+00 0. -1.
        -15    1    1    2    0    0 -0.31513004528E+01  0.13627599626E+01  0.65720628638E+02  0.65834235523E+02  0.17770000000E+01 0.  1.
         15    1    1    2    0    0 -0.58359813037E+01  0.13883549969E+01  0.30371860810E+02  0.31009576996E+02  0.17770000000E+01 0. -1.
</event>
<event>
 6   1  0.1826851E-04  0.4864291E+03  0.7546771E-02  0.9430698E-01
        -11   -1    0    0    0    0  0.00000000000E+00  0.00000000000E+00  0.50000000000E+03  0.50000000000E+03  0.00000000000E+00 0. -1.
         11   -1    0    0    0    0 -0.00000000000E+00 -0.00000000000E+00 -0.50000000000E+03  0.50000000000E+03  0.00000000000E+00 0. -1.
        -11    1    1    2    0    0  0.57946303306E+01  0.17438481176E+02  0.48162861343E+03  0.48197904481E+03  0.00000000000E+00 0. -1.
         11    1    1    2    0    0  0.70488950940E+01 -0.31102775911E+01 -0.49105465134E+03  0.49111508973E+03  0.00000000000E+00 0. -1.
        -15    1    1    2    0    0 -0.52122181348E-01 -0.99917952368E+01  0.85234620320E+01  0.13253143883E+02  0.17770000000E+01 0. -1.
         15    1    1    2    0    0 -0.12791403243E+02 -0.43364083480E+01  0.90257588575E+00  0.13652721579E+02  0.17770000000E+01 0.  1.
</event>
<event>
 6   1  0.1826851E-04  0.5020469E+03  0.7546771E-02  0.9395241E-01
        -11   -1    0    0    0    0  0.00000000000E+00  0.00000000000E+00  0.50000000000E+03  0.50000000000E+03  0.00000000000E+00 0. -1.
         11   -1    0    0    0    0 -0.00000000000E+00 -0.00000000000E+00 -0.50000000000E+03  0.50000000000E+03  0.00000000000E+00 0. -1.
        -11    1    1    2    0    0  0.15231762031E+02  0.26588634418E+02  0.49700939498E+03  0.49795311100E+03  0.00000000000E+00 0. -1.
         11    1    1    2    0    0 -0.70073457340E+01 -0.56354089071E+01 -0.39946012728E+03  0.39956132697E+03  0.00000000000E+00 0. -1.
        -15    1    1    2    0    0  0.55950229515E+01  0.17819148292E+00 -0.23786235105E+02  0.24500586595E+02  0.17770000000E+01 0.  1.
         15    1    1    2    0    0 -0.13819439248E+02 -0.21131416994E+02 -0.73763032601E+02  0.77984975430E+02  0.17770000000E+01 0. -1.
</event>
<event>
 6   1  0.1826851E-04  0.5045868E+03  0.7546771E-02  0.9389605E-01
        -11   -1    0    0    0    0  0.00000000000E+00  0.00000000000E+00  0.50000000000E+03  0.50000000000E+03  0.00000000000E+00 0. -1.
         11   -1    0    0    0    0 -0.00000000000E+00 -0.00000000000E+00 -0.50000000000E+03  0.50000000000E+03  0.00000000000E+00 0. -1.
        -11    1    1    2    0    0 -0.66622806554E+00 -0.32179497754E+02  0.42252050635E+03  0.42374466631E+03  0.00000000000E+00 0. -1.
         11    1    1    2    0    0 -0.81492163023E+01 -0.55897824957E+00 -0.49534588385E+03  0.49541322836E+03  0.00000000000E+00 0. -1.
        -15    1    1    2    0    0  0.61317877126E+01  0.20485638695E+02  0.54426907128E+02  0.58503898689E+02  0.17770000000E+01 0. -1.
         15    1    1    2    0    0  0.26836566553E+01  0.12252837309E+02  0.18398470374E+02  0.22338206648E+02  0.17770000000E+01 0.  1.
</event>
<event>
 6   1  0.1826851E-04  0.5051571E+03  0.7546771E-02  0.9388344E-01
        -11   -1    0    0    0    0  0.00000000000E+00  0.00000000000E+00  0.50000000000E+03  0.50000000000E+03  0.00000000000E+00 0.  1.
         11   -1    0    0    0    0 -0.00000000000E+00 -0.00000000000E+00 -0.50000000000E+03  0.50000000000E+03  0.00000000000E+00 0.  1.
        -11    1    1    2    0    0  0.56569541059E+02 -0.30650721865E+01  0.21044170982E+03  0.21793398284E+03  0.00000000000E+00 0.  1.
         11    1    1    2    0    0 -0.16106642442E+02  0.10436543925E+02 -0.49447054781E+03  0.49484287207E+03  0.00000000000E+00 0.  1.
        -15    1    1    2    0    0 -0.12207084924E+01 -0.18436868334E+01  0.12947422729E+02  0.13254538645E+02  0.17770000000E+01 0. -1.
         15    1    1    2    0    0 -0.39242190125E+02 -0.55277849048E+01  0.27108141526E+03  0.27396860645E+03  0.17770000000E+01 0.  1.
</event>
<event>
 6   1  0.1826851E-04  0.5006137E+03  0.7546771E-02  0.9398438E-01
        -11   -1    0    0    0    0  0.00000000000E+00  0.00000000000E+00  0.50000000000E+03  0.50000000000E+03  0.00000000000E+00 0. -1.
         11   -1    0    0    0    0 -0.00000000000E+00 -0.00000000000E+00 -0.50000000000E+03  0.50000000000E+03  0.00000000000E+00 0. -1.
        -11    1    1    2    0    0 -0.38386522157E+01  0.13612405864E+02  0.30616653718E+03  0.30649303636E+03  0.00000000000E+00 0. -1.
         11    1    1    2    0    0  0.11385762713E+02 -0.13663170546E+02 -0.49906949689E+03  0.49938630393E+03  0.00000000000E+00 0. -1.
        -15    1    1    2    0    0 -0.99736450248E+01  0.35732730806E+01  0.18143354917E+03  0.18175129262E+03  0.17770000000E+01 0. -1.
         15    1    1    2    0    0  0.24265345273E+01 -0.35225083988E+01  0.11469410537E+02  0.12369367094E+02  0.17770000000E+01 0. -1.
</event>
<event>
 6   1  0.1826851E-04  0.5010927E+03  0.7546771E-02  0.9397368E-01
        -11   -1    0    0    0    0  0.00000000000E+00  0.00000000000E+00  0.50000000000E+03  0.50000000000E+03  0.00000000000E+00 0.  1.
         11   -1    0    0    0    0 -0.00000000000E+00 -0.00000000000E+00 -0.50000000000E+03  0.50000000000E+03  0.00000000000E+00 0. -1.
        -11    1    1    2    0    0 -0.11437005231E+02 -0.15304799293E+02  0.19485360131E+03  0.19578806888E+03  0.00000000000E+00 0.  1.
         11    1    1    2    0    0  0.27147629941E+01 -0.90928685880E+01 -0.49881707305E+03  0.49890732863E+03  0.00000000000E+00 0. -1.
        -15    1    1    2    0    0  0.78209274309E+01  0.61064339079E+01  0.95387794443E+02  0.95918947548E+02  0.17770000000E+01 0. -1.
         15    1    1    2    0    0  0.90131480602E+00  0.18291233973E+02  0.20857567729E+03  0.20938565494E+03  0.17770000000E+01 0.  1.
</event>
<event>
 6   1  0.1826851E-04  0.4307278E+03  0.7546771E-02  0.9569728E-01
        -11   -1    0    0    0    0  0.00000000000E+00  0.00000000000E+00  0.50000000000E+03  0.50000000000E+03  0.00000000000E+00 0.  1.
         11   -1    0    0    0    0 -0.00000000000E+00 -0.00000000000E+00 -0.50000000000E+03  0.50000000000E+03  0.00000000000E+00 0. -1.
        -11    1    1    2    0    0  0.10658866466E+03 -0.54001860546E+02  0.48874934807E+02  0.12909726422E+03  0.00000000000E+00 0.  1.
         11    1    1    2    0    0 -0.11030856874E+03  0.63812937052E+02 -0.45089570169E+03  0.46855843294E+03  0.00000000000E+00 0. -1.
        -15    1    1    2    0    0  0.74820977613E+01 -0.81036561646E+01  0.32534105359E+03  0.32553280927E+03  0.17770000000E+01 0.  1.
         15    1    1    2    0    0 -0.37621936847E+01 -0.17074203417E+01  0.76679713292E+02  0.76811493574E+02  0.17770000000E+01 0. -1.
</event>
<event>
 6   1  0.1826851E-04  0.5136282E+03  0.7546771E-02  0.9369822E-01
        -11   -1    0    0    0    0  0.00000000000E+00  0.00000000000E+00  0.50000000000E+03  0.50000000000E+03  0.00000000000E+00 0.  1.
         11   -1    0    0    0    0 -0.00000000000E+00 -0.00000000000E+00 -0.50000000000E+03  0.50000000000E+03  0.00000000000E+00 0. -1.
        -11    1    1    2    0    0 -0.87892871154E+01 -0.25416251887E+02  0.48562774618E+03  0.48637181794E+03  0.00000000000E+00 0.  1.
         11    1    1    2    0    0 -0.73005678976E+00  0.87149473722E+01 -0.47062022313E+03  0.47070147409E+03  0.00000000000E+00 0. -1.
        -15    1    1    2    0    0  0.53195473048E+01  0.26629909539E+02 -0.16612134551E+02  0.31883701306E+02  0.17770000000E+01 0. -1.
         15    1    1    2    0    0  0.41997966004E+01 -0.99286050247E+01  0.16046114995E+01  0.11043006669E+02  0.17770000000E+01 0.  1.
</event>
<event>
 6   1  0.1826851E-04  0.5081144E+03  0.7546771E-02  0.9381834E-01
        -11   -1    0    0    0    0  0.00000000000E+00  0.00000000000E+00  0.50000000000E+03  0.50000000000E+03  0.00000000000E+00 0. -1.
         11   -1    0    0    0    0 -0.00000000000E+00 -0.00000000000E+00 -0.50000000000E+03  0.50000000000E+03  0.00000000000E+00 0. -1.
        -11    1    1    2    0    0  0.19649914576E+02  0.16548398890E+02  0.35350030880E+03  0.35443255631E+03  0.00000000000E+00 0. -1.
         11    1    1    2    0    0  0.18840964979E+02  0.15963174944E+02 -0.49126530123E+03  0.49188555692E+03  0.00000000000E+00 0. -1.
        -15    1    1    2    0    0 -0.56939178669E+01  0.94060464315E+01  0.48296857926E+02  0.49564489553E+02  0.17770000000E+01 0.  1.
         15    1    1    2    0    0 -0.32796961687E+02 -0.41917620265E+02  0.89468134502E+02  0.10411739722E+03  0.17770000000E+01 0. -1.
</event>
<event>
 6   1  0.1826851E-04  0.5034130E+03  0.7546771E-02  0.9392205E-01
        -11   -1    0    0    0    0  0.00000000000E+00  0.00000000000E+00  0.50000000000E+03  0.50000000000E+03  0.00000000000E+00 0. -1.
         11   -1    0    0    0    0 -0.00000000000E+00 -0.00000000000E+00 -0.50000000000E+03  0.50000000000E+03  0.00000000000E+00 0.  1.
        -11    1    1    2    0    0  0.18382117196E+01 -0.13029821135E+02  0.44217080250E+03  0.44236656049E+03  0.00000000000E+00 0. -1.
         11    1    1    2    0    0  0.12137725259E+02 -0.67705545739E+01 -0.49639242649E+03  0.49658695700E+03  0.00000000000E+00 0.  1.
        -15    1    1    2    0    0  0.17587877527E+01  0.46665242503E+01  0.55330666244E+01  0.76578285569E+01  0.17770000000E+01 0. -1.
         15    1    1    2    0    0 -0.15734724731E+02  0.15133851459E+02  0.48688557374E+02  0.53388653949E+02  0.17770000000E+01 0.  1.
</event>
<event>
 6   1  0.1826851E-04  0.5011163E+03  0.7546771E-02  0.9397315E-01
        -11   -1    0    0    0    0  0.00000000000E+00  0.00000000000E+00  0.50000000000E+03  0.50000000000E+03  0.00000000000E+00 0. -1.
         11   -1    0    0    0    0 -0.00000000000E+00 -0.00000000000E+00 -0.50000000000E+03  0.50000000000E+03  0.00000000000E+00 0.  1.
        -11    1    1    2    0    0  0.16186202578E+02 -0.19104281612E+02  0.49825496883E+03  0.49888373465E+03  0.00000000000E+00 0. -1.
         11    1    1    2    0    0 -0.17104225366E+01 -0.46383531438E+01 -0.31069362099E+03  0.31073294964E+03  0.00000000000E+00 0.  1.
        -15    1    1    2    0    0 -0.66029064218E+00  0.17135640830E+02 -0.98252498763E+02  0.99753583457E+02  0.17770000000E+01 0.  1.
         15    1    1    2    0    0 -0.13815489399E+02  0.66069939263E+01 -0.89308849081E+02  0.90629732258E+02  0.17770000000E+01 0. -1.
</event>
<event>
 6   1  0.1826851E-04  0.5002485E+03  0.7546771E-02  0.9399254E-01
        -11   -1    0    0    0    0  0.00000000000E+00  0.00000000000E+00  0.50000000000E+03  0.50000000000E+03  0.00000000000E+00 0.  1.
         11   -1    0    0    0    0 -0.00000000000E+00 -0.00000000000E+00 -0.50000000000E+03  0.50000000000E+03  0.00000000000E+00 0. -1.
        -11    1    1    2    0    0 -0.47223212520E+01 -0.22342987934E+02  0.49922950526E+03  0.49975154662E+03  0.00000000000E+00 0.  1.
         11    1    1    2    0    0 -0.28794719107E+01  0.23877940771E+00 -0.16014980071E+03  0.16017586285E+03  0.00000000000E+00 0. -1.
        -15    1    1    2    0    0  0.23690405388E+01  0.63517983411E+01 -0.47370401809E+02  0.47886014574E+02  0.17770000000E+01 0.  1.
         15    1    1    2    0    0  0.52327526239E+01  0.15752410185E+02 -0.29170930275E+03  0.29218657595E+03  0.17770000000E+01 0. -1.
</event>
<event>
 6   1  0.1826851E-04  0.5011022E+03  0.7546771E-02  0.9397347E-01
        -11   -1    0    0    0    0  0.00000000000E+00  0.00000000000E+00  0.50000000000E+03  0.50000000000E+03  0.00000000000E+00 0.  1.
         11   -1    0    0    0    0 -0.00000000000E+00 -0.00000000000E+00 -0.50000000000E+03  0.50000000000E+03  0.00000000000E+00 0.  1.
        -11    1    1    2    0    0  0.93198585386E+01  0.19699075756E+02  0.32327969483E+03  0.32401338620E+03  0.00000000000E+00 0.  1.
         11    1    1    2    0    0  0.70896833810E+00 -0.69089354181E+01 -0.49884946510E+03  0.49889781004E+03  0.00000000000E+00 0.  1.
        -15    1    1    2    0    0 -0.18348759190E+00 -0.13217720515E+01  0.24749415472E+01  0.33262311577E+01  0.17770000000E+01 0. -1.
         15    1    1    2    0    0 -0.98453392848E+01 -0.11468368286E+02  0.17309482873E+03  0.17376257261E+03  0.17770000000E+01 0. -1.
</event>
<event>
 6   1  0.1826851E-04  0.5098951E+03  0.7546771E-02  0.9377937E-01
        -11   -1    0    0    0    0  0.00000000000E+00  0.00000000000E+00  0.50000000000E+03  0.50000000000E+03  0.00000000000E+00 0. -1.
         11   -1    0    0    0    0 -0.00000000000E+00 -0.00000000000E+00 -0.50000000000E+03  0.50000000000E+03  0.00000000000E+00 0. -1.
        -11    1    1    2    0    0  0.18434604836E+02 -0.79057511154E+01  0.48969431668E+03  0.49010494727E+03  0.00000000000E+00 0. -1.
         11    1    1    2    0    0  0.14234366227E+02  0.30311811058E-01 -0.46718967789E+03  0.46740647538E+03  0.00000000000E+00 0. -1.
        -15    1    1    2    0    0 -0.43370578489E+01  0.32645510415E+01 -0.91338461228E+01  0.10772754443E+02  0.17770000000E+01 0. -1.
         15    1    1    2    0    0 -0.28331913213E+02  0.46108882628E+01 -0.13370792664E+02  0.31715822902E+02  0.17770000000E+01 0.  1.
</event>
<event>
 6   1  0.1826851E-04  0.5051404E+03  0.7546771E-02  0.9388381E-01
        -11   -1    0    0    0    0  0.00000000000E+00  0.00000000000E+00  0.50000000000E+03  0.50000000000E+03  0.00000000000E+00 0.  1.
         11   -1    0    0    0    0 -0.00000000000E+00 -0.00000000000E+00 -0.50000000000E+03  0.50000000000E+03  0.00000000000E+00 0. -1.
        -11    1    1    2    0    0  0.64653246597E+02  0.14928396523E+02  0.17351439612E+03  0.18576906357E+03  0.00000000000E+00 0.  1.
         11    1    1    2    0    0 -0.45141647508E+02 -0.34809468331E+02 -0.49156538102E+03  0.49485956719E+03  0.00000000000E+00 0. -1.
        -15    1    1    2    0    0 -0.10779703421E+02  0.14917601461E+02  0.18127690239E+03  0.18221747970E+03  0.17770000000E+01 0.  1.
         15    1    1    2    0    0 -0.87318956681E+01  0.49634703478E+01  0.13677408251E+03  0.13715388954E+03  0.17770000000E+01 0.  1.
</event>
<event>
 6   1  0.1826851E-04  0.5044915E+03  0.7546771E-02  0.9389815E-01
        -11   -1    0    0    0    0  0.00000000000E+00  0.00000000000E+00  0.50000000000E+03  0.50000000000E+03  0.00000000000E+00 0. -1.
         11   -1    0    0    0    0 -0.00000000000E+00 -0.00000000000E+00 -0.50000000000E+03  0.50000000000E+03  0.00000000000E+00 0. -1.
        -11    1    1    2    0    0  0.77203393007E+01  0.45040897439E+01  0.48387665647E+03  0.48395920194E+03  0.00000000000E+00 0. -1.
         11    1    1    2    0    0  0.11734626024E+01 -0.67670780881E+01 -0.49546093771E+03  0.49550853793E+03  0.00000000000E+00 0. -1.
        -15    1    1    2    0    0 -0.12576537767E+02  0.19482518258E+01  0.86817406928E+01  0.15507912104E+02  0.17770000000E+01 0. -1.
         15    1    1    2    0    0  0.36827358638E+01  0.31473651848E+00  0.29025405483E+01  0.50243480327E+01  0.17770000000E+01 0.  1.
</event>
<event>
 6   1  0.1826851E-04  0.4758800E+03  0.7546771E-02  0.9455459E-01
        -11   -1    0    0    0    0  0.00000000000E+00  0.00000000000E+00  0.50000000000E+03  0.50000000000E+03  0.00000000000E+00 0. -1.
         11   -1    0    0    0    0 -0.00000000000E+00 -0.00000000000E+00 -0.50000000000E+03  0.50000000000E+03  0.00000000000E+00 0. -1.
        -11    1    1    2    0    0 -0.11421079735E+02  0.34406795163E+01  0.48316877772E+03  0.48331599094E+03  0.00000000000E+00 0. -1.
         11    1    1    2    0    0 -0.18326081020E+02  0.27990386519E+02 -0.46834924440E+03  0.46954267294E+03  0.00000000000E+00 0. -1.
        -15    1    1    2    0    0  0.57991041209E+01 -0.13061718061E+02 -0.32082916606E+01  0.14754285876E+02  0.17770000000E+01 0.  1.
         15    1    1    2    0    0  0.23948056635E+02 -0.18369347973E+02 -0.11611241657E+02  0.32387050242E+02  0.17770000000E+01 0. -1.
</event>
<event>
 6   1  0.1826851E-04  0.5021224E+03  0.7546771E-02  0.9395073E-01
        -11   -1    0    0    0    0  0.00000000000E+00  0.00000000000E+00  0.50000000000E+03  0.50000000000E+03  0.00000000000E+00 0. -1.
         11   -1    0    0    0    0 -0.00000000000E+00 -0.00000000000E+00 -0.50000000000E+03  0.50000000000E+03  0.00000000000E+00 0. -1.
        -11    1    1    2    0    0 -0.35223064772E+01 -0.31995855380E+02  0.32781803489E+03  0.32939460439E+03  0.00000000000E+00 0. -1.
         11    1    1    2    0    0 -0.52167542823E+01  0.52509927954E+02 -0.49507332152E+03  0.49787759614E+03  0.00000000000E+00 0. -1.
        -15    1    1    2    0    0 -0.78673851619E+01 -0.20308609042E+02  0.13100189558E+03  0.13281185837E+03  0.17770000000E+01 0. -1.
         15    1    1    2    0    0  0.16606445921E+02 -0.20546353085E+00  0.36253391053E+02  0.39915941092E+02  0.17770000000E+01 0.  1.
</event>
<event>
 6   1  0.1826851E-04  0.5001077E+03  0.7546771E-02  0.9399569E-01
        -11   -1    0    0    0    0  0.00000000000E+00  0.00000000000E+00  0.50000000000E+03  0.50000000000E+03  0.00000000000E+00 0.  1.
         11   -1    0    0    0    0 -0.00000000000E+00 -0.00000000000E+00 -0.50000000000E+03  0.50000000000E+03  0.00000000000E+00 0.  1.
        -11    1    1    2    0    0 -0.68074390215E+01  0.73742175196E+01  0.49979153098E+03  0.49989228315E+03  0.00000000000E+00 0.  1.
         11    1    1    2    0    0  0.22324124207E+01 -0.44729475941E+01 -0.23577706007E+03  0.23583005105E+03  0.00000000000E+00 0.  1.
        -15    1    1    2    0    0  0.44453529405E+01 -0.50524058014E+01 -0.10112617423E+03  0.10136542217E+03  0.17770000000E+01 0.  1.
         15    1    1    2    0    0  0.12967366024E+00  0.21511358759E+01 -0.16288829668E+03  0.16291224363E+03  0.17770000000E+01 0. -1.
</event>
<event>
 6   1  0.1826851E-04  0.4929617E+03  0.7546771E-02  0.9415698E-01
        -11   -1    0    0    0    0  0.00000000000E+00  0.00000000000E+00  0.50000000000E+03  0.50000000000E+03  0.00000000000E+00 0.  1.
         11   -1    0    0    0    0 -0.00000000000E+00 -0.00000000000E+00 -0.50000000000E+03  0.50000000000E+03  0.00000000000E+00 0. -1.
        -11    1    1    2    0    0 -0.14639018561E+02  0.90827621114E+00  0.25895462971E+01  0.14894011553E+02  0.00000000000E+00 0.  1.
         11    1    1    2    0    0 -0.30719875623E+01 -0.66554993840E+01 -0.49317789156E+03  0.49323236461E+03  0.00000000000E+00 0. -1.
        -15    1    1    2    0    0  0.15162230685E+02  0.14415780808E+02  0.43667482186E+03  0.43717932905E+03  0.17770000000E+01 0.  1.
         15    1    1    2    0    0  0.25487754383E+01 -0.86685576351E+01  0.53913523401E+02  0.54694294786E+02  0.17770000000E+01 0. -1.
</event>
<event>
 6   1  0.1826851E-04  0.5021143E+03  0.7546771E-02  0.9395091E-01
        -11   -1    0    0    0    0  0.00000000000E+00  0.00000000000E+00  0.50000000000E+03  0.50000000000E+03  0.00000000000E+00 0.  1.
         11   -1    0    0    0    0 -0.00000000000E+00 -0.00000000000E+00 -0.50000000000E+03  0.50000000000E+03  0.00000000000E+00 0. -1.
        -11    1    1    2    0    0  0.11765781658E+02  0.90146596858E+02  0.48951537645E+03  0.49788567596E+03  0.00000000000E+00 0.  1.
         11    1    1    2    0    0 -0.50565372989E+01 -0.70762566266E+00 -0.10244551838E+03  0.10257267442E+03  0.00000000000E+00 0. -1.
        -15    1    1    2    0    0  0.14698874452E+02 -0.33146769653E+02 -0.19113302654E+03  0.19455013958E+03  0.17770000000E+01 0.  1.
         15    1    1    2    0    0 -0.21408118810E+02 -0.56292201543E+02 -0.19593683154E+03  0.20499151004E+03  0.17770000000E+01 0. -1.
</event>
<event>
 6   1  0.1826851E-04  0.5010500E+03  0.7546771E-02  0.9397463E-01
        -11   -1    0    0    0    0  0.00000000000E+00  0.00000000000E+00  0.50000000000E+03  0.50000000000E+03  0.00000000000E+00 0.  1.
         11   -1    0    0    0    0 -0.00000000000E+00 -0.00000000000E+00 -0.50000000000E+03  0.50000000000E+03  0.00000000000E+00 0. -1.
        -11    1    1    2    0    0  0.27037178158E+01  0.75919511073E+01  0.49888489298E+03  0.49894998172E+03  0.00000000000E+00 0.  1.
         11    1    1    2    0    0  0.77416806647E+01 -0.91489247711E+01 -0.46448866373E+03  0.46464325581E+03  0.00000000000E+00 0. -1.
        -15    1    1    2    0    0 -0.69696781090E+01 -0.96103897479E+00 -0.19709544630E+02  0.21002949492E+02  0.17770000000E+01 0. -1.
         15    1    1    2    0    0 -0.34757203715E+01  0.25180126386E+01 -0.14686684628E+02  0.15403812973E+02  0.17770000000E+01 0.  1.
</event>
<event>
 6   1  0.1826851E-04  0.4887892E+03  0.7546771E-02  0.9425250E-01
        -11   -1    0    0    0    0  0.00000000000E+00  0.00000000000E+00  0.50000000000E+03  0.50000000000E+03  0.00000000000E+00 0. -1.
         11   -1    0    0    0    0 -0.00000000000E+00 -0.00000000000E+00 -0.50000000000E+03  0.50000000000E+03  0.00000000000E+00 0. -1.
        -11    1    1    2    0    0 -0.12953844189E+02 -0.45215316787E+01  0.48790594638E+03  0.48809882077E+03  0.00000000000E+00 0. -1.
         11    1    1    2    0    0 -0.12377550023E+01 -0.10153510421E+02 -0.48958736727E+03  0.48969420662E+03  0.00000000000E+00 0. -1.
        -15    1    1    2    0    0  0.72989665120E+01  0.11341292147E+02  0.36884320566E+01  0.14094753625E+02  0.17770000000E+01 0.  1.
         15    1    1    2    0    0  0.68926326789E+01  0.33337499520E+01 -0.20070111646E+01  0.81122189815E+01  0.17770000000E+01 0. -1.
</event>
<event>
 6   1  0.1826851E-04  0.5002425E+03  0.7546771E-02  0.9399267E-01
        -11   -1    0    0    0    0  0.00000000000E+00  0.00000000000E+00  0.50000000000E+03  0.50000000000E+03  0.00000000000E+00 0. -1.
         11   -1    0    0    0    0 -0.00000000000E+00 -0.00000000000E+00 -0.50000000000E+03  0.50000000000E+03  0.00000000000E+00 0. -1.
        -11    1    1    2    0    0 -0.18892624488E+01  0.40388770262E+01  0.29017329413E+02  0.29357916249E+02  0.00000000000E+00 0. -1.
         11    1    1    2    0    0  0.46979648164E+01  0.66438911142E+01 -0.49969121455E+03  0.49975746324E+03  0.00000000000E+00 0. -1.
        -15    1    1    2    0    0 -0.55934613202E+01 -0.71321366555E+01  0.30884803827E+03  0.30898612049E+03  0.17770000000E+01 0. -1.
         15    1    1    2    0    0  0.27847589527E+01 -0.35506314850E+01  0.16182584686E+03  0.16189850002E+03  0.17770000000E+01 0.  1.
</event>
<event>
 6   1  0.1826851E-04  0.5000515E+03  0.7546771E-02  0.9399694E-01
        -11   -1    0    0    0    0  0.00000000000E+00  0.00000000000E+00  0.50000000000E+03  0.50000000000E+03  0.00000000000E+00 0. -1.
         11   -1    0    0    0    0 -0.00000000000E+00 -0.00000000000E+00 -0.50000000000E+03  0.50000000000E+03  0.00000000000E+00 0.  1.
        -11    1    1    2    0    0  0.94477252080E+01  0.33690798385E+01  0.22342988984E+03  0.22365492592E+03  0.00000000000E+00 0. -1.
         11    1    1    2    0    0 -0.14291448614E+02 -0.45622283053E+01 -0.49972332421E+03  0.49994845753E+03  0.00000000000E+00 0.  1.
        -15    1    1    2    0    0 -0.46897980571E-01  0.15184701209E+01  0.86429560617E+02  0.86461174110E+02  0.17770000000E+01 0. -1.
         15    1    1    2    0    0  0.48906213868E+01 -0.32532165409E+00  0.18986387375E+03  0.18993544244E+03  0.17770000000E+01 0. -1.
</event>
<event>
 6   1  0.1826851E-04  0.5021410E+03  0.7546771E-02  0.9395032E-01
        -11   -1    0    0    0    0  0.00000000000E+00  0.00000000000E+00  0.50000000000E+03  0.50000000000E+03  0.00000000000E+00 0. -1.
         11   -1    0    0    0    0 -0.00000000000E+00 -0.00000000000E+00 -0.50000000000E+03  0.50000000000E+03  0.00000000000E+00 0.  1.
        -11    1    1    2    0    0 -0.70413794425E+01  0.50389581442E+01  0.49778368997E+03  0.49785899020E+03  0.00000000000E+00 0. -1.
         11    1    1    2    0    0 -0.61803118714E+01  0.92815503927E+00 -0.45365940474E+03  0.45370245010E+03  0.00000000000E+00 0.  1.
        -15    1    1    2    0    0  0.36541538655E+01 -0.70943510095E+01 -0.98976561197E+01  0.12837600336E+02  0.17770000000E+01 0. -1.
         15    1    1    2    0    0  0.95675374484E+01  0.11272378260E+01 -0.34226629113E+02  0.35600959360E+02  0.17770000000E+01 0.  1.
</event>
<event>
 6   1  0.1826851E-04  0.5125920E+03  0.7546771E-02  0.9372067E-01
        -11   -1    0    0    0    0  0.00000000000E+00  0.00000000000E+00  0.50000000000E+03  0.50000000000E+03  0.00000000000E+00 0. -1.
         11   -1    0    0    0    0 -0.00000000000E+00 -0.00000000000E+00 -0.50000000000E+03  0.50000000000E+03  0.00000000000E+00 0.  1.
        -11    1    1    2    0    0 -0.17178605582E+02  0.46685968289E+02  0.48486270207E+03  0.48740796463E+03  0.00000000000E+00 0. -1.
         11    1    1    2    0    0  0.71607853812E+01  0.11056553484E+01 -0.44012045634E+03  0.44018009429E+03  0.00000000000E+00 0.  1.
        -15    1    1    2    0    0  0.35309602315E+01  0.27115117649E+01 -0.29916124775E+00  0.48028327745E+01  0.17770000000E+01 0. -1.
         15    1    1    2    0    0  0.64868599691E+01 -0.50503135403E+02 -0.44443084488E+02  0.67609108303E+02  0.17770000000E+01 0.  1.
</event>
<event>
 6   1  0.1826851E-04  0.5095948E+03  0.7546771E-02  0.9378593E-01
        -11   -1    0    0    0    0  0.00000000000E+00  0.00000000000E+00  0.50000000000E+03  0.50000000000E+03  0.00000000000E+00 0.  1.
         11   -1    0    0    0    0 -0.00000000000E+00 -0.00000000000E+00 -0.50000000000E+03  0.50000000000E+03  0.00000000000E+00 0.  1.
        -11    1    1    2    0    0  0.19469229027E+02  0.45438303396E+01  0.48999753354E+03  0.49040522035E+03  0.00000000000E+00 0.  1.
         11    1    1    2    0    0 -0.21753581177E+02 -0.15557520515E+02 -0.39986952366E+03  0.40076288587E+03  0.00000000000E+00 0.  1.
        -15    1    1    2    0    0 -0.21367615413E+01 -0.15965799797E+02 -0.76565297998E+02  0.78261581249E+02  0.17770000000E+01 0.  1.
         15    1    1    2    0    0  0.44211136910E+01  0.26979489973E+02 -0.13562711877E+02  0.30570312526E+02  0.17770000000E+01 0. -1.
</event>
<event>
 6   1  0.1826851E-04  0.5003343E+03  0.7546771E-02  0.9399062E-01
        -11   -1    0    0    0    0  0.00000000000E+00  0.00000000000E+00  0.50000000000E+03  0.50000000000E+03  0.00000000000E+00 0.  1.
         11   -1    0    0    0    0 -0.00000000000E+00 -0.00000000000E+00 -0.50000000000E+03  0.50000000000E+03  0.00000000000E+00 0.  1.
        -11    1    1    2    0    0  0.22878055148E+01  0.96808104719E+01  0.49956669952E+03  0.49966572767E+03  0.00000000000E+00 0.  1.
         11    1    1    2    0    0 -0.59707915055E+01 -0.79035864794E+00 -0.27881229596E+03  0.27887734113E+03  0.00000000000E+00 0.  1.
        -15    1    1    2    0    0 -0.19413004300E+01 -0.79083849931E+01 -0.58327233418E+02  0.58919734281E+02  0.17770000000E+01 0.  1.
         15    1    1    2    0    0  0.56242864207E+01 -0.98206683085E+00 -0.16242717014E+03  0.16253719691E+03  0.17770000000E+01 0. -1.
</event>
<event>
 6   1  0.1826851E-04  0.5002774E+03  0.7546771E-02  0.9399189E-01
        -11   -1    0    0    0    0  0.00000000000E+00  0.00000000000E+00  0.50000000000E+03  0.50000000000E+03  0.00000000000E+00 0. -1.
         11   -1    0    0    0    0 -0.00000000000E+00 -0.00000000000E+00 -0.50000000000E+03  0.50000000000E+03  0.00000000000E+00 0.  1.
        -11    1    1    2    0    0  0.10126421097E+01  0.16732359151E+02  0.49944137545E+03  0.49972260785E+03  0.00000000000E+00 0. -1.
         11    1    1    2    0    0  0.42519632622E+01 -0.19568917784E+01 -0.16680837226E+03  0.16687402936E+03  0.00000000000E+00 0.  1.
        -15    1    1    2    0    0 -0.86306743225E+01 -0.15846663912E+02 -0.23894902539E+03  0.23963597343E+03  0.17770000000E+01 0. -1.
         15    1    1    2    0    0  0.33660689506E+01  0.10711965396E+01 -0.93683977799E+02  0.93767389360E+02  0.17770000000E+01 0.  1.
</event>
<event>
 6   1  0.1826851E-04  0.5040467E+03  0.7546771E-02  0.9390800E-01
        -11   -1    0    0    0    0  0.00000000000E+00  0.00000000000E+00  0.50000000000E+03  0.50000000000E+03  0.00000000000E+00 0. -1.
         11   -1    0    0    0    0 -0.00000000000E+00 -0.00000000000E+00 -0.50000000000E+03  0.50000000000E+03  0.00000000000E+00 0. -1.
        -11    1    1    2    0    0  0.26027855670E+02  0.23182777367E+02  0.27091773459E+03  0.27315070813E+03  0.00000000000E+00 0. -1.
         11    1    1    2    0    0 -0.69100766095E+01  0.59027391590E+01 -0.49587002722E+03  0.49595329960E+03  0.00000000000E+00 0. -1.
        -15    1    1    2    0    0  0.54385943265E+01 -0.46102787679E+01  0.12252941262E+03  0.12274953224E+03  0.17770000000E+01 0. -1.
         15    1    1    2    0    0 -0.24556373387E+02 -0.24475237758E+02  0.10242288001E+03  0.10814646002E+03  0.17770000000E+01 0.  1.
</event>
<event>
 6   1  0.1826851E-04  0.5034881E+03  0.7546771E-02  0.9392038E-01
        -11   -1    0    0    0    0  0.00000000000E+00  0.00000000000E+00  0.50000000000E+03  0.50000000000E+03  0.00000000000E+00 0. -1.
         11   -1    0    0    0    0 -0.00000000000E+00 -0.00000000000E+00 -0.50000000000E+03  0.50000000000E+03  0.00000000000E+00 0.  1.
        -11    1    1    2    0    0 -0.12973166539E+02  0.48430269351E+01  0.49631870812E+03  0.49651185081E+03  0.00000000000E+00 0. -1.
         11    1    1    2    0    0  0.12194752349E+02 -0.25842873657E+01 -0.48409180613E+03  0.48425227649E+03  0.00000000000E+00 0.  1.
        -15    1    1    2    0    0  0.73852385648E+01 -0.22048323445E+01 -0.54464687378E+01  0.96033736279E+01  0.17770000000E+01 0.  1.
         15    1    1    2    0    0 -0.66068243746E+01 -0.53907224887E-01 -0.67804332582E+01  0.96324990773E+01  0.17770000000E+01 0. -1.
</event>
<event>
 6   1  0.1826851E-04  0.4498130E+03  0.7546771E-02  0.9519688E-01
        -11   -1    0    0    0    0  0.00000000000E+00  0.00000000000E+00  0.50000000000E+03  0.50000000000E+03  0.00000000000E+00 0.  1.
         11   -1    0    0    0    0 -0.00000000000E+00 -0.00000000000E+00 -0.50000000000E+03  0.50000000000E+03  0.00000000000E+00 0. -1.
        -11    1    1    2    0    0 -0.51109991999E+01  0.79062211409E+02  0.46757820726E+03  0.47424290768E+03  0.00000000000E+00 0.  1.
         11    1    1    2    0    0  0.31305743060E+01 -0.55587602935E+01 -0.42915321825E+03  0.42920063496E+03  0.00000000000E+00 0. -1.
        -15    1    1    2    0    0  0.11258506079E+02 -0.20387504275E+02  0.86983856582E+01  0.24924364219E+02  0.17770000000E+01 0.  1.
         15    1    1    2    0    0 -0.92780811851E+01 -0.53115946841E+02 -0.47123374659E+02  0.71632093140E+02  0.17770000000E+01 0. -1.
</event>
<event>
 6   1  0.1826851E-04  0.5025484E+03  0.7546771E-02  0.9394125E-01
        -11   -1    0    0    0    0  0.00000000000E+00  0.00000000000E+00  0.50000000000E+03  0.50000000000E+03  0.00000000000E+00 0.  1.
         11   -1    0    0    0    0 -0.00000000000E+00 -0.00000000000E+00 -0.50000000000E+03  0.50000000000E+03  0.00000000000E+00 0.  1.
        -11    1    1    2    0    0  0.17920464183E+02 -0.21203262433E+02  0.49667628771E+03  0.49745156161E+03  0.00000000000E+00 0.  1.
         11    1    1    2    0    0  0.48341632879E+01 -0.47791690441E+01 -0.38312060030E+03  0.38318090240E+03  0.00000000000E+00 0.  1.
        -15    1    1    2    0    0 -0.20298975420E+02  0.26787357298E+02 -0.10384798335E+03  0.10916580183E+03  0.17770000000E+01 0. -1.
         15    1    1    2    0    0 -0.24556520516E+01 -0.80492582133E+00 -0.97077040607E+01  0.10201734152E+02  0.17770000000E+01 0.  1.
</event>
<event>
 6   1  0.1826851E-04  0.5099940E+03  0.7546771E-02  0.9377721E-01
        -11   -1    0    0    0    0  0.00000000000E+00  0.00000000000E+00  0.50000000000E+03  0.50000000000E+03  0.00000000000E+00 0. -1.
         11   -1    0    0    0    0 -0.00000000000E+00 -0.00000000000E+00 -0.50000000000E+03  0.50000000000E+03  0.00000000000E+00 0.  1.
        -11    1    1    2    0    0  0.42210365453E+02  0.38825815970E+02  0.48663819647E+03  0.49000601343E+03  0.00000000000E+00 0. -1.
         11    1    1    2    0    0  0.59721690861E+01  0.60017128551E+01 -0.39944296108E+03  0.39953268517E+03  0.00000000000E+00 0.  1.
        -15    1    1    2    0    0 -0.69555778268E+00  0.37891382308E+00 -0.11191644050E+01  0.22444674825E+01  0.17770000000E+01 0. -1.
         15    1    1    2    0    0 -0.47486976757E+02 -0.45206442648E+02 -0.86076070983E+02  0.10821683392E+03  0.17770000000E+01 0. -1.
</event>
<event>
 6   1  0.1826851E-04  0.4921976E+03  0.7546771E-02  0.9417439E-01
        -11   -1    0    0    0    0  0.00000000000E+00  0.00000000000E+00  0.50000000000E+03  0.50000000000E+03  0.00000000000E+00 0. -1.
         11   -1    0    0    0    0 -0.00000000000E+00 -0.00000000000E+00 -0.50000000000E+03  0.50000000000E+03  0.00000000000E+00 0. -1.
        -11    1    1    2    0    0  0.14500824517E+01 -0.13342504806E+02  0.49102316571E+03  0.49120654967E+03  0.00000000000E+00 0. -1.
         11    1    1    2    0    0  0.72033154356E+01  0.31410076217E+01 -0.49321935070E+03  0.49328194939E+03  0.00000000000E+00 0. -1.
        -15    1    1    2    0    0 -0.26888212848E+01  0.76512441414E+01  0.27920609976E+01  0.87592596963E+01  0.17770000000E+01 0.  1.
         15    1    1    2    0    0 -0.59645766024E+01  0.25502530425E+01 -0.59587600514E+00  0.67522412457E+01  0.17770000000E+01 0. -1.
</event>
<event>
 6   1  0.1826851E-04  0.4899786E+03  0.7546771E-02  0.9422517E-01
        -11   -1    0    0    0    0  0.00000000000E+00  0.00000000000E+00  0.50000000000E+03  0.50000000000E+03  0.00000000000E+00 0.  1.
         11   -1    0    0    0    0 -0.00000000000E+00 -0.00000000000E+00 -0.50000000000E+03  0.50000000000E+03  0.00000000000E+00 0.  1.
        -11    1    1    2    0    0  0.74776552398E+01  0.11297449767E+02  0.48814676695E+03  0.48833473538E+03  0.00000000000E+00 0.  1.
         11    1    1    2    0    0 -0.70013104760E+01  0.47598359555E+01 -0.49168754444E+03  0.49176042515E+03  0.00000000000E+00 0.  1.
        -15    1    1    2    0    0  0.23340499517E+01 -0.15802108375E+02  0.39349576462E+01  0.16546783342E+02  0.17770000000E+01 0.  1.
         15    1    1    2    0    0 -0.28103947156E+01 -0.25517734704E+00 -0.39418015177E+00  0.33580561234E+01  0.17770000000E+01 0. -1.
</event>
<event>
 6   1  0.1826851E-04  0.5018522E+03  0.7546771E-02  0.9395675E-01
        -11   -1    0    0    0    0  0.00000000000E+00  0.00000000000E+00  0.50000000000E+03  0.50000000000E+03  0.00000000000E+00 0. -1.
         11   -1    0    0    0    0 -0.00000000000E+00 -0.00000000000E+00 -0.50000000000E+03  0.50000000000E+03  0.00000000000E+00 0.  1.
        -11    1    1    2    0    0 -0.11925105395E+01  0.92269186848E+01  0.47602712600E+03  0.47611803452E+03  0.00000000000E+00 0. -1.
         11    1    1    2    0    0  0.71060318851E+01 -0.51788726254E+01 -0.49807018331E+03  0.49814779324E+03  0.00000000000E+00 0.  1.
        -15    1    1    2    0    0  0.44759262871E+00 -0.46486014955E+01  0.15999524624E+02  0.16761633340E+02  0.17770000000E+01 0. -1.
         15    1    1    2    0    0 -0.63611139743E+01  0.60055543611E+00  0.60435326861E+01  0.89725388912E+01  0.17770000000E+01 0.  1.
</event>
<event>
 6   1  0.1826851E-04  0.5003422E+03  0.7546771E-02  0.9399044E-01
        -11   -1    0    0    0    0  0.00000000000E+00  0.00000000000E+00  0.50000000000E+03  0.50000000000E+03  0.00000000000E+00 0.  1.
         11   -1    0    0    0    0 -0.00000000000E+00 -0.00000000000E+00 -0.50000000000E+03  0.50000000000E+03  0.00000000000E+00 0.  1.
        -11    1    1    2    0    0 -0.39558481037E+01 -0.83487693998E+01  0.49957234864E+03  0.49965776509E+03  0.00000000000E+00 0.  1.
         11    1    1    2    0    0 -0.73020378689E+01  0.16502453510E+01 -0.31302771813E+03  0.31311722307E+03  0.00000000000E+00 0.  1.
        -15    1    1    2    0    0  0.66876918869E+01  0.63078192044E+01 -0.76561254510E+02  0.77131687568E+02  0.17770000000E+01 0. -1.
         15    1    1    2    0    0  0.45701940858E+01  0.39070484451E+00 -0.10998337600E+03  0.11009332428E+03  0.17770000000E+01 0.  1.
</event>
<event>
 6   1  0.1826851E-04  0.4780379E+03  0.7546771E-02  0.9450339E-01
        -11   -1    0    0    0    0  0.00000000000E+00  0.00000000000E+00  0.50000000000E+03  0.50000000000E+03  0.00000000000E+00 0. -1.
         11   -1    0    0    0    0 -0.00000000000E+00 -0.00000000000E+00 -0.50000000000E+03  0.50000000000E+03  0.00000000000E+00 0. -1.
        -11    1    1    2    0    0 -0.23688849008E+02  0.95367915543E+01  0.47789643973E+03  0.47857822669E+03  0.00000000000E+00 0. -1.
         11    1    1    2    0    0 -0.16474002867E+02 -0.64688665136E+01 -0.47801815492E+03  0.47834568613E+03  0.00000000000E+00 0. -1.
        -15    1    1    2    0    0  0.77707827969E+01 -0.66541825342E+01 -0.89217307560E+00  0.10421943786E+02  0.17770000000E+01 0. -1.
         15    1    1    2    0    0  0.32392069078E+02  0.35862574935E+01  0.10138882702E+01  0.32654143388E+02  0.17770000000E+01 0.  1.
</event>
<event>
 6   1  0.1826851E-04  0.5011316E+03  0.7546771E-02  0.9397281E-01
        -11   -1    0    0    0    0  0.00000000000E+00  0.00000000000E+00  0.50000000000E+03  0.50000000000E+03  0.00000000000E+00 0. -1.
         11   -1    0    0    0    0 -0.00000000000E+00 -0.00000000000E+00 -0.50000000000E+03  0.50000000000E+03  0.00000000000E+00 0. -1.
        -11    1    1    2    0    0 -0.16939237763E+01  0.92372532679E+01  0.49878000306E+03  0.49886840718E+03  0.00000000000E+00 0. -1.
         11    1    1    2    0    0  0.90684983832E+01 -0.65963777054E+01 -0.44538590284E+03  0.44552705003E+03  0.00000000000E+00 0. -1.
        -15    1    1    2    0    0 -0.13626359981E+01 -0.73019803880E+01 -0.29081975382E+02  0.30068167812E+02  0.17770000000E+01 0.  1.
         15    1    1    2    0    0 -0.60119386087E+01  0.46611048255E+01 -0.24312124838E+02  0.25536374981E+02  0.17770000000E+01 0. -1.
</event>
<event>
 6   1  0.1826851E-04  0.5188694E+03  0.7546771E-02  0.9358551E-01
        -11   -1    0    0    0    0  0.00000000000E+00  0.00000000000E+00  0.50000000000E+03  0.50000000000E+03  0.00000000000E+00 0.  1.
         11   -1    0    0    0    0 -0.00000000000E+00 -0.00000000000E+00 -0.50000000000E+03  0.50000000000E+03  0.00000000000E+00 0. -1.
        -11    1    1    2    0    0  0.14297353892E+02  0.38971580830E+02  0.33758621446E+03  0.34012887357E+03  0.00000000000E+00 0.  1.
         11    1    1    2    0    0 -0.80207068921E+01 -0.32847094262E+01 -0.48105257464E+03  0.48113064819E+03  0.00000000000E+00 0. -1.
        -15    1    1    2    0    0  0.77334452812E+01 -0.70063691475E-01 -0.14318500097E+02  0.16370346938E+02  0.17770000000E+01 0.  1.
         15    1    1    2    0    0 -0.14010092281E+02 -0.35616807713E+02  0.15778486028E+03  0.16237013131E+03  0.17770000000E+01 0. -1.
</event>
<event>
 6   1  0.1826851E-04  0.5041340E+03  0.7546771E-02  0.9390607E-01
        -11   -1    0    0    0    0  0.00000000000E+00  0.00000000000E+00  0.50000000000E+03  0.50000000000E+03  0.00000000000E+00 0.  1.
         11   -1    0    0    0    0 -0.00000000000E+00 -0.00000000000E+00 -0.50000000000E+03  0.50000000000E+03  0.00000000000E+00 0.  1.
        -11    1    1    2    0    0  0.74949833280E+01 -0.22680741763E+02  0.46945812201E+03  0.47006544134E+03  0.00000000000E+00 0.  1.
         11    1    1    2    0    0  0.74871419850E+01  0.80791189050E+01 -0.49574366994E+03  0.49586602600E+03  0.00000000000E+00 0.  1.
        -15    1    1    2    0    0 -0.99889742291E+01  0.74711459775E+01  0.17588349252E+02  0.21635743269E+02  0.17770000000E+01 0.  1.
         15    1    1    2    0    0 -0.49931510839E+01  0.71304768809E+01  0.86971986772E+01  0.12432789394E+02  0.17770000000E+01 0. -1.
</event>
<event>
 6   1  0.1826851E-04  0.5001572E+03  0.7546771E-02  0.9399458E-01
        -11   -1    0    0    0    0  0.00000000000E+00  0.00000000000E+00  0.50000000000E+03  0.50000000000E+03  0.00000000000E+00 0.  1.
         11   -1    0    0    0    0 -0.00000000000E+00 -0.00000000000E+00 -0.50000000000E+03  0.50000000000E+03  0.00000000000E+00 0.  1.
        -11    1    1    2    0    0  0.94733394068E+00 -0.30176531958E+02  0.49893017084E+03  0.49984281119E+03  0.00000000000E+00 0.  1.
         11    1    1    2    0    0  0.69552395315E+00  0.20184446249E+01 -0.92985275377E+02  0.93009780718E+02  0.00000000000E+00 0.  1.
        -15    1    1    2    0    0  0.77786898291E+00  0.28195536079E+02 -0.36875849161E+03  0.36983993321E+03  0.17770000000E+01 0.  1.
         15    1    1    2    0    0 -0.24207268767E+01 -0.37448745931E-01 -0.37186403859E+02  0.37307474881E+02  0.17770000000E+01 0. -1.
</event>
<event>
 6   1  0.1826851E-04  0.5053627E+03  0.7546771E-02  0.9387889E-01
        -11   -1    0    0    0    0  0.00000000000E+00  0.00000000000E+00  0.50000000000E+03  0.50000000000E+03  0.00000000000E+00 0.  1.
         11   -1    0    0    0    0 -0.00000000000E+00 -0.00000000000E+00 -0.50000000000E+03  0.50000000000E+03  0.00000000000E+00 0.  1.
        -11    1    1    2    0    0 -0.17192865103E+02  0.32065824370E+01  0.42276979840E+03  0.42313139711E+03  0.00000000000E+00 0.  1.
         11    1    1    2    0    0 -0.27717273568E+01  0.14808940986E+02 -0.49440775496E+03  0.49463725635E+03  0.00000000000E+00 0.  1.
        -15    1    1    2    0    0  0.12910161669E+02  0.11985577659E+01  0.79519287776E+01  0.15313383536E+02  0.17770000000E+01 0. -1.
         15    1    1    2    0    0  0.70544307913E+01 -0.19214081189E+02  0.63686027784E+02  0.66917963011E+02  0.17770000000E+01 0.  1.
</event>
<event>
 6   1  0.1826851E-04  0.5129270E+03  0.7546771E-02  0.9371340E-01
        -11   -1    0    0    0    0  0.00000000000E+00  0.00000000000E+00  0.50000000000E+03  0.50000000000E+03  0.00000000000E+00 0. -1.
         11   -1    0    0    0    0 -0.00000000000E+00 -0.00000000000E+00 -0.50000000000E+03  0.50000000000E+03  0.00000000000E+00 0.  1.
        -11    1    1    2    0    0 -0.71718955089E+02 -0.19999029023E+02  0.31880465760E+03  0.32738353561E+03  0.00000000000E+00 0. -1.
         11    1    1    2    0    0  0.79393150063E+01 -0.25300254934E+02 -0.48635070957E+03  0.48707304209E+03  0.00000000000E+00 0.  1.
        -15    1    1    2    0    0  0.91799945815E+01  0.28465910316E+01  0.30439799353E+02  0.31970525405E+02  0.17770000000E+01 0.  1.
         15    1    1    2    0    0  0.54599645501E+02  0.42452692925E+02  0.13710625262E+03  0.15357289690E+03  0.17770000000E+01 0. -1.
</event>
<event>
 6   1  0.1826851E-04  0.4891503E+03  0.7546771E-02  0.9424419E-01
        -11   -1    0    0    0    0  0.00000000000E+00  0.00000000000E+00  0.50000000000E+03  0.50000000000E+03  0.00000000000E+00 0.  1.
         11   -1    0    0    0    0 -0.00000000000E+00 -0.00000000000E+00 -0.50000000000E+03  0.50000000000E+03  0.00000000000E+00 0. -1.
        -11    1    1    2    0    0  0.12971676903E+02 -0.48878125066E+01  0.48551210279E+03  0.48570995159E+03  0.00000000000E+00 0.  1.
         11    1    1    2    0    0  0.47467793462E+01  0.52468574591E+01 -0.49272696477E+03  0.49277776253E+03  0.00000000000E+00 0. -1.
        -15    1    1    2    0    0 -0.10022187931E+02  0.34597276093E+01  0.68174244924E+01  0.12729845709E+02  0.17770000000E+01 0.  1.
         15    1    1    2    0    0 -0.76962683188E+01 -0.38187725618E+01  0.39743748581E+00  0.87824401773E+01  0.17770000000E+01 0. -1.
</event>
<event>
 6   1  0.1826851E-04  0.5006085E+03  0.7546771E-02  0.9398449E-01
        -11   -1    0    0    0    0  0.00000000000E+00  0.00000000000E+00  0.50000000000E+03  0.50000000000E+03  0.00000000000E+00 0.  1.
         11   -1    0    0    0    0 -0.00000000000E+00 -0.00000000000E+00 -0.50000000000E+03  0.50000000000E+03  0.00000000000E+00 0. -1.
        -11    1    1    2    0    0  0.66272511723E+01 -0.83742672107E+01  0.49927728005E+03  0.49939148089E+03  0.00000000000E+00 0.  1.
         11    1    1    2    0    0  0.19223043988E+01 -0.78076671749E+01 -0.20426983015E+03  0.20442802750E+03  0.00000000000E+00 0. -1.
        -15    1    1    2    0    0 -0.16694538017E+01  0.69865604706E+01 -0.23151973896E+03  0.23163796399E+03  0.17770000000E+01 0.  1.
         15    1    1    2    0    0 -0.68801017694E+01  0.91953739150E+01 -0.63487710940E+02  0.64542527617E+02  0.17770000000E+01 0. -1.
</event>
<event>
 6   1  0.1826851E-04  0.5003798E+03  0.7546771E-02  0.9398960E-01
        -11   -1    0    0    0    0  0.00000000000E+00  0.00000000000E+00  0.50000000000E+03  0.50000000000E+03  0.00000000000E+00 0. -1.
         11   -1    0    0    0    0 -0.00000000000E+00 -0.00000000000E+00 -0.50000000000E+03  0.50000000000E+03  0.00000000000E+00 0. -1.
        -11    1    1    2    0    0 -0.67473584534E+01 -0.17536401418E+01  0.49957159511E+03  0.49962023652E+03  0.00000000000E+00 0. -1.
         11    1    1    2    0    0  0.43944338258E+01  0.81109021860E+01 -0.33372949413E+03  0.33385696493E+03  0.00000000000E+00 0. -1.
        -15    1    1    2    0    0  0.61053764200E+01 -0.35100368981E+00 -0.43579151467E+02  0.44042013991E+02  0.17770000000E+01 0. -1.
         15    1    1    2    0    0 -0.37524517923E+01 -0.60062583543E+01 -0.12226294951E+03  0.12248078456E+03  0.17770000000E+01 0.  1.
</event>
<event>
 6   1  0.1826851E-04  0.5030963E+03  0.7546771E-02  0.9392908E-01
        -11   -1    0    0    0    0  0.00000000000E+00  0.00000000000E+00  0.50000000000E+03  0.50000000000E+03  0.00000000000E+00 0. -1.
         11   -1    0    0    0    0 -0.00000000000E+00 -0.00000000000E+00 -0.50000000000E+03  0.50000000000E+03  0.00000000000E+00 0. -1.
        -11    1    1    2    0    0 -0.21027492648E+01 -0.10472762780E+02  0.49678886403E+03  0.49690368860E+03  0.00000000000E+00 0. -1.
         11    1    1    2    0    0 -0.55550941909E+01  0.38187722500E+01 -0.48512337401E+03  0.48517020736E+03  0.00000000000E+00 0. -1.
        -15    1    1    2    0    0  0.40773327479E+01  0.76288146102E+01 -0.51570932291E+01  0.10226279591E+02  0.17770000000E+01 0.  1.
         15    1    1    2    0    0  0.35805107077E+01 -0.97482407990E+00 -0.65083967888E+01  0.76998244574E+01  0.17770000000E+01 0. -1.
</event>
<event>
 6   1  0.1826851E-04  0.5016913E+03  0.7546771E-02  0.9396033E-01
        -11   -1    0    0    0    0  0.00000000000E+00  0.00000000000E+00  0.50000000000E+03  0.50000000000E+03  0.00000000000E+00 0.  1.
         11   -1    0    0    0    0 -0.00000000000E+00 -0.00000000000E+00 -0.50000000000E+03  0.50000000000E+03  0.00000000000E+00 0. -1.
        -11    1    1    2    0    0 -0.42795017207E+00  0.11790030328E+02  0.43704647609E+03  0.43720568411E+03  0.00000000000E+00 0.  1.
         11    1    1    2    0    0 -0.10145933165E+02 -0.85171250374E+00 -0.49820470357E+03  0.49830873164E+03  0.00000000000E+00 0. -1.
        -15    1    1    2    0    0  0.33060826749E+01  0.43335118976E+00  0.32031497297E+01  0.49533698729E+01  0.17770000000E+01 0. -1.
         15    1    1    2    0    0  0.72678006625E+01 -0.11371669014E+02  0.57955077752E+02  0.59532214379E+02  0.17770000000E+01 0.  1.
</event>
<event>
 6   1  0.1826851E-04  0.5019950E+03  0.7546771E-02  0.9395357E-01
        -11   -1    0    0    0    0  0.00000000000E+00  0.00000000000E+00  0.50000000000E+03  0.50000000000E+03  0.00000000000E+00 0.  1.
         11   -1    0    0    0    0 -0.00000000000E+00 -0.00000000000E+00 -0.50000000000E+03  0.50000000000E+03  0.00000000000E+00 0. -1.
        -11    1    1    2    0    0  0.75232323387E+01 -0.12562589498E+02  0.49778965897E+03  0.49800498216E+03  0.00000000000E+00 0.  1.
         11    1    1    2    0    0 -0.44350274040E+01  0.72962652761E+01 -0.46117718065E+03  0.46125621612E+03  0.00000000000E+00 0. -1.
        -15    1    1    2    0    0 -0.14576087840E+01 -0.26914254940E+01 -0.37441725621E+00  0.35589762346E+01  0.17770000000E+01 0.  1.
         15    1    1    2    0    0 -0.16305961507E+01  0.79577497161E+01 -0.36238061067E+02  0.37179825487E+02  0.17770000000E+01 0. -1.
</event>
<event>
 6   1  0.1826851E-04  0.5171065E+03  0.7546771E-02  0.9362326E-01
        -11   -1    0    0    0    0  0.00000000000E+00  0.00000000000E+00  0.50000000000E+03  0.50000000000E+03  0.00000000000E+00 0.  1.
         11   -1    0    0    0    0 -0.00000000000E+00 -0.00000000000E+00 -0.50000000000E+03  0.50000000000E+03  0.00000000000E+00 0.  1.
        -11    1    1    2    0    0  0.30662143716E+02 -0.32995732950E+02  0.43338413510E+03  0.43571859497E+03  0.00000000000E+00 0.  1.
         11    1    1    2    0    0 -0.36647016403E+00  0.79762590973E+01 -0.48282743843E+03  0.48289345648E+03  0.00000000000E+00 0.  1.
        -15    1    1    2    0    0 -0.36672428015E+02  0.23242699389E+02  0.56680167019E+02  0.71420509055E+02  0.17770000000E+01 0. -1.
         15    1    1    2    0    0  0.63767544628E+01  0.17767744636E+01 -0.72368636879E+01  0.99674394912E+01  0.17770000000E+01 0.  1.
</event>
<event>
 6   1  0.1826851E-04  0.5066538E+03  0.7546771E-02  0.9385043E-01
        -11   -1    0    0    0    0  0.00000000000E+00  0.00000000000E+00  0.50000000000E+03  0.50000000000E+03  0.00000000000E+00 0. -1.
         11   -1    0    0    0    0 -0.00000000000E+00 -0.00000000000E+00 -0.50000000000E+03  0.50000000000E+03  0.00000000000E+00 0. -1.
        -11    1    1    2    0    0 -0.26370255903E+02 -0.40525002384E+02  0.81999113496E+02  0.95192020825E+02  0.00000000000E+00 0. -1.
         11    1    1    2    0    0  0.37000037133E+02  0.73708975093E+01 -0.49190156779E+03  0.49334621238E+03  0.00000000000E+00 0. -1.
        -15    1    1    2    0    0 -0.99032118997E+01  0.30196659799E+02  0.34554735764E+03  0.34701015255E+03  0.17770000000E+01 0. -1.
         15    1    1    2    0    0 -0.72656933099E+00  0.29574450756E+01  0.64355096656E+02  0.64451614246E+02  0.17770000000E+01 0.  1.
</event>
<event>
 6   1  0.1826851E-04  0.5015470E+03  0.7546771E-02  0.9396355E-01
        -11   -1    0    0    0    0  0.00000000000E+00  0.00000000000E+00  0.50000000000E+03  0.50000000000E+03  0.00000000000E+00 0. -1.
         11   -1    0    0    0    0 -0.00000000000E+00 -0.00000000000E+00 -0.50000000000E+03  0.50000000000E+03  0.00000000000E+00 0.  1.
        -11    1    1    2    0    0 -0.55477182864E+02 -0.63054256973E+00  0.30103646377E+03  0.30610630167E+03  0.00000000000E+00 0. -1.
         11    1    1    2    0    0  0.53120832013E+02  0.22468305765E+02 -0.49510478212E+03  0.49845299963E+03  0.00000000000E+00 0.  1.
        -15    1    1    2    0    0 -0.18413302802E+01 -0.57487133369E+01  0.61786869036E+02  0.62106465980E+02  0.17770000000E+01 0.  1.
         15    1    1    2    0    0  0.41976811314E+01 -0.16089049858E+02  0.13228144932E+03  0.13333423272E+03  0.17770000000E+01 0. -1.
</event>
<event>
 6   1  0.1826851E-04  0.5028042E+03  0.7546771E-02  0.9393557E-01
        -11   -1    0    0    0    0  0.00000000000E+00  0.00000000000E+00  0.50000000000E+03  0.50000000000E+03  0.00000000000E+00 0. -1.
         11   -1    0    0    0    0 -0.00000000000E+00 -0.00000000000E+00 -0.50000000000E+03  0.50000000000E+03  0.00000000000E+00 0.  1.
        -11    1    1    2    0    0  0.24947209989E+02  0.14348023654E+02  0.49636220201E+03  0.49719580112E+03  0.00000000000E+00 0. -1.
         11    1    1    2    0    0  0.67550484965E+01  0.46144926554E+01 -0.27118439030E+03  0.27130775471E+03  0.00000000000E+00 0.  1.
        -15    1    1    2    0    0 -0.38464048753E+02 -0.14076618886E+02 -0.13962577729E+03  0.14552027233E+03  0.17770000000E+01 0. -1.
         15    1    1    2    0    0  0.67617902673E+01 -0.48858974235E+01 -0.85552034425E+02  0.85976171841E+02  0.17770000000E+01 0.  1.
</event>
<event>
 6   1  0.1826851E-04  0.5007670E+03  0.7546771E-02  0.9398095E-01
        -11   -1    0    0    0    0  0.00000000000E+00  0.00000000000E+00  0.50000000000E+03  0.50000000000E+03  0.00000000000E+00 0. -1.
         11   -1    0    0    0    0 -0.00000000000E+00 -0.00000000000E+00 -0.50000000000E+03  0.50000000000E+03  0.00000000000E+00 0.  1.
        -11    1    1    2    0    0  0.10738005141E+02 -0.31058795778E+01  0.49910788519E+03  0.49923304408E+03  0.00000000000E+00 0. -1.
         11    1    1    2    0    0 -0.41151814292E+00  0.78302696295E+01 -0.43436386939E+03  0.43443463663E+03  0.00000000000E+00 0.  1.
        -15    1    1    2    0    0 -0.57869340289E+01 -0.55010102232E+01 -0.25518691564E+02  0.26797594427E+02  0.17770000000E+01 0. -1.
         15    1    1    2    0    0 -0.45395529693E+01  0.77662017147E+00 -0.39225324231E+02  0.39534724864E+02  0.17770000000E+01 0.  1.
</event>
<event>
 6   1  0.1826851E-04  0.5035235E+03  0.7546771E-02  0.9391960E-01
        -11   -1    0    0    0    0  0.00000000000E+00  0.00000000000E+00  0.50000000000E+03  0.50000000000E+03  0.00000000000E+00 0. -1.
         11   -1    0    0    0    0 -0.00000000000E+00 -0.00000000000E+00 -0.50000000000E+03  0.50000000000E+03  0.00000000000E+00 0. -1.
        -11    1    1    2    0    0 -0.30729883364E+02  0.17486119513E+02  0.31530789253E+03  0.31728403237E+03  0.00000000000E+00 0. -1.
         11    1    1    2    0    0 -0.50164585086E+01 -0.81695947739E+01 -0.49638396399E+03  0.49647653202E+03  0.00000000000E+00 0. -1.
        -15    1    1    2    0    0  0.10268695321E+02 -0.63631398163E+01  0.10963846279E+03  0.11031629936E+03  0.17770000000E+01 0. -1.
         15    1    1    2    0    0  0.25477646552E+02 -0.29533849229E+01  0.71437608674E+02  0.75923136252E+02  0.17770000000E+01 0.  1.
</event>
<event>
 6   1  0.1826851E-04  0.5007921E+03  0.7546771E-02  0.9398039E-01
        -11   -1    0    0    0    0  0.00000000000E+00  0.00000000000E+00  0.50000000000E+03  0.50000000000E+03  0.00000000000E+00 0.  1.
         11   -1    0    0    0    0 -0.00000000000E+00 -0.00000000000E+00 -0.50000000000E+03  0.50000000000E+03  0.00000000000E+00 0.  1.
        -11    1    1    2    0    0 -0.81422097284E+01 -0.11798261119E+01  0.49914013839E+03  0.49920793796E+03  0.00000000000E+00 0.  1.
         11    1    1    2    0    0 -0.23721212023E+01  0.61483909542E+01 -0.44212565412E+03  0.44217476601E+03  0.00000000000E+00 0.  1.
        -15    1    1    2    0    0  0.50853720971E+01 -0.10213584802E+01 -0.37617969412E+02  0.38015438103E+02  0.17770000000E+01 0. -1.
         15    1    1    2    0    0  0.54289588337E+01 -0.39472063621E+01 -0.19396514861E+02  0.20601857922E+02  0.17770000000E+01 0.  1.
</event>
<event>
 6   1  0.1826851E-04  0.5025948E+03  0.7546771E-02  0.9394022E-01
        -11   -1    0    0    0    0  0.00000000000E+00  0.00000000000E+00  0.50000000000E+03  0.50000000000E+03  0.00000000000E+00 0. -1.
         11   -1    0    0    0    0 -0.00000000000E+00 -0.00000000000E+00 -0.50000000000E+03  0.50000000000E+03  0.00000000000E+00 0. -1.
        -11    1    1    2    0    0  0.62551986258E+01 -0.11646069100E+02  0.44055263838E+03  0.44075093377E+03  0.00000000000E+00 0. -1.
         11    1    1    2    0    0  0.11194287635E+01 -0.77311978941E+01 -0.49734387675E+03  0.49740522341E+03  0.00000000000E+00 0. -1.
        -15    1    1    2    0    0 -0.15435026017E+01  0.17384205309E+01  0.11291039411E+01  0.31364168941E+01  0.17770000000E+01 0.  1.
         15    1    1    2    0    0 -0.58311247876E+01  0.17638846463E+02  0.55662134428E+02  0.58707425927E+02  0.17770000000E+01 0. -1.
</event>
<event>
 6   1  0.1826851E-04  0.5016840E+03  0.7546771E-02  0.9396050E-01
        -11   -1    0    0    0    0  0.00000000000E+00  0.00000000000E+00  0.50000000000E+03  0.50000000000E+03  0.00000000000E+00 0. -1.
         11   -1    0    0    0    0 -0.00000000000E+00 -0.00000000000E+00 -0.50000000000E+03  0.50000000000E+03  0.00000000000E+00 0. -1.
        -11    1    1    2    0    0 -0.36790858225E+01  0.10915602871E+02  0.49818287292E+03  0.49831602516E+03  0.00000000000E+00 0. -1.
         11    1    1    2    0    0 -0.64731874395E+01 -0.51736838371E+01 -0.46259745921E+03  0.46267167455E+03  0.00000000000E+00 0. -1.
        -15    1    1    2    0    0  0.30504506325E+01 -0.70013402008E+01 -0.12448201534E+02  0.14711881732E+02  0.17770000000E+01 0.  1.
         15    1    1    2    0    0  0.71018226295E+01  0.12594211672E+01 -0.23137212170E+02  0.24300418563E+02  0.17770000000E+01 0. -1.
</event>
<event>
 6   1  0.1826851E-04  0.5110053E+03  0.7546771E-02  0.9375516E-01
        -11   -1    0    0    0    0  0.00000000000E+00  0.00000000000E+00  0.50000000000E+03  0.50000000000E+03  0.00000000000E+00 0. -1.
         11   -1    0    0    0    0 -0.00000000000E+00 -0.00000000000E+00 -0.50000000000E+03  0.50000000000E+03  0.00000000000E+00 0.  1.
        -11    1    1    2    0    0 -0.14030552864E+02 -0.31057510142E+01  0.48878346673E+03  0.48899466198E+03  0.00000000000E+00 0. -1.
         11    1    1    2    0    0  0.64009748968E+01  0.20869197863E+01 -0.47467980488E+03  0.47472754805E+03  0.00000000000E+00 0.  1.
        -15    1    1    2    0    0 -0.51841117745E+01  0.10675363936E+01 -0.20922243376E+02  0.21654390911E+02  0.17770000000E+01 0. -1.
         15    1    1    2    0    0  0.12813689742E+02 -0.48705165760E-01  0.68185815295E+01  0.14623399060E+02  0.17770000000E+01 0.  1.
</event>
<event>
 6   1  0.1826851E-04  0.5001052E+03  0.7546771E-02  0.9399574E-01
        -11   -1    0    0    0    0  0.00000000000E+00  0.00000000000E+00  0.50000000000E+03  0.50000000000E+03  0.00000000000E+00 0. -1.
         11   -1    0    0    0    0 -0.00000000000E+00 -0.00000000000E+00 -0.50000000000E+03  0.50000000000E+03  0.00000000000E+00 0.  1.
        -11    1    1    2    0    0  0.52638591646E+01 -0.83127208954E+01  0.33601202183E+03  0.33615604762E+03  0.00000000000E+00 0. -1.
         11    1    1    2    0    0 -0.14873943839E+02  0.73164151219E+01 -0.49961989885E+03  0.49989479639E+03  0.00000000000E+00 0.  1.
        -15    1    1    2    0    0  0.66317618219E+01  0.79017941568E+00  0.12246439291E+03  0.12265924306E+03  0.17770000000E+01 0. -1.
         15    1    1    2    0    0  0.29783228524E+01  0.20612635789E+00  0.41143484112E+02  0.41289912921E+02  0.17770000000E+01 0. -1.
</event>
<event>
 6   1  0.1826851E-04  0.5008027E+03  0.7546771E-02  0.9398015E-01
        -11   -1    0    0    0    0  0.00000000000E+00  0.00000000000E+00  0.50000000000E+03  0.50000000000E+03  0.00000000000E+00 0.  1.
         11   -1    0    0    0    0 -0.00000000000E+00 -0.00000000000E+00 -0.50000000000E+03  0.50000000000E+03  0.00000000000E+00 0. -1.
        -11    1    1    2    0    0 -0.20794865303E+02 -0.54131585022E+01  0.49873456933E+03  0.49919725495E+03  0.00000000000E+00 0.  1.
         11    1    1    2    0    0  0.61952226659E+01 -0.12724629027E+01 -0.34078486105E+03  0.34084354397E+03  0.00000000000E+00 0. -1.
        -15    1    1    2    0    0 -0.44501002103E+01  0.33673042944E+01 -0.36170777413E+02  0.36641847630E+02  0.17770000000E+01 0. -1.
         15    1    1    2    0    0  0.19049742847E+02  0.33183171105E+01 -0.12177893086E+03  0.12331735345E+03  0.17770000000E+01 0.  1.
</event>
<event>
 6   1  0.1826851E-04  0.5094490E+03  0.7546771E-02  0.9378912E-01
        -11   -1    0    0    0    0  0.00000000000E+00  0.00000000000E+00  0.50000000000E+03  0.50000000000E+03  0.00000000000E+00 0.  1.
         11   -1    0    0    0    0 -0.00000000000E+00 -0.00000000000E+00 -0.50000000000E+03  0.50000000000E+03  0.00000000000E+00 0. -1.
        -11    1    1    2    0    0 -0.19475390015E+01  0.40381853665E+02  0.48888215334E+03  0.49055096256E+03  0.00000000000E+00 0.  1.
         11    1    1    2    0    0  0.44430499080E-01 -0.95871701836E+01 -0.45025326046E+03  0.45035532012E+03  0.00000000000E+00 0. -1.
        -15    1    1    2    0    0  0.28767641431E+01  0.65225545201E+01 -0.62121436435E+01  0.96212237813E+01  0.17770000000E+01 0.  1.
         15    1    1    2    0    0 -0.97365564061E+00 -0.37317238001E+02 -0.32416749234E+02  0.49472493542E+02  0.17770000000E+01 0. -1.
</event>
<event>
 6   1  0.1826851E-04  0.5033968E+03  0.7546771E-02  0.9392241E-01
        -11   -1    0    0    0    0  0.00000000000E+00  0.00000000000E+00  0.50000000000E+03  0.50000000000E+03  0.00000000000E+00 0.  1.
         11   -1    0    0    0    0 -0.00000000000E+00 -0.00000000000E+00 -0.50000000000E+03  0.50000000000E+03  0.00000000000E+00 0.  1.
        -11    1    1    2    0    0 -0.92165949788E+01 -0.56116067012E+01  0.49648596111E+03  0.49660320713E+03  0.00000000000E+00 0.  1.
         11    1    1    2    0    0 -0.14452973121E+02  0.38756122590E+00 -0.43453871045E+03  0.43477917328E+03  0.00000000000E+00 0.  1.
        -15    1    1    2    0    0  0.19306688420E+02  0.45444796888E+01 -0.28119742878E+02  0.34456903255E+02  0.17770000000E+01 0.  1.
         15    1    1    2    0    0  0.43628796798E+01  0.67956578655E+00 -0.33827507783E+02  0.34160716336E+02  0.17770000000E+01 0. -1.
</event>
<event>
 6   1  0.1826851E-04  0.5000979E+03  0.7546771E-02  0.9399591E-01
        -11   -1    0    0    0    0  0.00000000000E+00  0.00000000000E+00  0.50000000000E+03  0.50000000000E+03  0.00000000000E+00 0.  1.
         11   -1    0    0    0    0 -0.00000000000E+00 -0.00000000000E+00 -0.50000000000E+03  0.50000000000E+03  0.00000000000E+00 0.  1.
        -11    1    1    2    0    0  0.14033090304E+01  0.21990609493E+01  0.16472381125E+02  0.16677664261E+02  0.00000000000E+00 0.  1.
         11    1    1    2    0    0 -0.67208853563E+01 -0.58100956965E+01 -0.49982315331E+03  0.49990210252E+03  0.00000000000E+00 0.  1.
        -15    1    1    2    0    0  0.21396911581E+01  0.35992546677E+01  0.27681887715E+03  0.27685624679E+03  0.17770000000E+01 0.  1.
         15    1    1    2    0    0  0.31778851678E+01  0.11780079459E-01  0.20653189504E+03  0.20656398643E+03  0.17770000000E+01 0.  1.
</event>
<event>
 6   1  0.1826851E-04  0.5023942E+03  0.7546771E-02  0.9394468E-01
        -11   -1    0    0    0    0  0.00000000000E+00  0.00000000000E+00  0.50000000000E+03  0.50000000000E+03  0.00000000000E+00 0.  1.
         11   -1    0    0    0    0 -0.00000000000E+00 -0.00000000000E+00 -0.50000000000E+03  0.50000000000E+03  0.00000000000E+00 0.  1.
        -11    1    1    2    0    0  0.25014672264E+02  0.15387535632E+02  0.83163180504E+02  0.88196511682E+02  0.00000000000E+00 0.  1.
         11    1    1    2    0    0 -0.14199088159E+02 -0.17458363770E+02 -0.49709672188E+03  0.49760582741E+03  0.00000000000E+00 0.  1.
        -15    1    1    2    0    0 -0.73429244489E+01 -0.32152858361E+01  0.22269090548E+03  0.22284221709E+03  0.17770000000E+01 0. -1.
         15    1    1    2    0    0 -0.34726596567E+01  0.52861139747E+01  0.19124263590E+03  0.19135544382E+03  0.17770000000E+01 0.  1.
</event>
<event>
 6   1  0.1826851E-04  0.5013210E+03  0.7546771E-02  0.9396859E-01
        -11   -1    0    0    0    0  0.00000000000E+00  0.00000000000E+00  0.50000000000E+03  0.50000000000E+03  0.00000000000E+00 0. -1.
         11   -1    0    0    0    0 -0.00000000000E+00 -0.00000000000E+00 -0.50000000000E+03  0.50000000000E+03  0.00000000000E+00 0.  1.
        -11    1    1    2    0    0 -0.11840900393E+02  0.21729448100E+01  0.49853368442E+03  0.49867901812E+03  0.00000000000E+00 0. -1.
         11    1    1    2    0    0  0.50964216159E+00  0.11583226438E+02 -0.41908142082E+03  0.41924177767E+03  0.00000000000E+00 0.  1.
        -15    1    1    2    0    0  0.15401361973E+01 -0.94798129585E+01 -0.38120183024E+02  0.39351555954E+02  0.17770000000E+01 0.  1.
         15    1    1    2    0    0  0.97911220341E+01 -0.42763582899E+01 -0.41332080579E+02  0.42727648249E+02  0.17770000000E+01 0. -1.
</event>
<event>
 6   1  0.1826851E-04  0.5000456E+03  0.7546771E-02  0.9399708E-01
        -11   -1    0    0    0    0  0.00000000000E+00  0.00000000000E+00  0.50000000000E+03  0.50000000000E+03  0.00000000000E+00 0.  1.
         11   -1    0    0    0    0 -0.00000000000E+00 -0.00000000000E+00 -0.50000000000E+03  0.50000000000E+03  0.00000000000E+00 0.  1.
        -11    1    1    2    0    0 -0.59444429672E+01 -0.95280620564E+00  0.22334540201E+03  0.22342652671E+03  0.00000000000E+00 0.  1.
         11    1    1    2    0    0  0.74136703367E+01 -0.10999525445E+00 -0.49989945552E+03  0.49995443816E+03  0.00000000000E+00 0.  1.
        -15    1    1    2    0    0 -0.48348762306E+00 -0.17394177163E+01  0.11459280455E+03  0.11462080055E+03  0.17770000000E+01 0. -1.
         15    1    1    2    0    0 -0.98573974648E+00  0.28022191764E+01  0.16196124895E+03  0.16199823458E+03  0.17770000000E+01 0.  1.
</event>
<event>
 6   1  0.1826851E-04  0.5010226E+03  0.7546771E-02  0.9397524E-01
        -11   -1    0    0    0    0  0.00000000000E+00  0.00000000000E+00  0.50000000000E+03  0.50000000000E+03  0.00000000000E+00 0.  1.
         11   -1    0    0    0    0 -0.00000000000E+00 -0.00000000000E+00 -0.50000000000E+03  0.50000000000E+03  0.00000000000E+00 0.  1.
        -11    1    1    2    0    0  0.29177373366E+01 -0.73180555427E+01  0.49891517407E+03  0.49897737228E+03  0.00000000000E+00 0.  1.
         11    1    1    2    0    0 -0.28741560001E+01 -0.66828327706E+01 -0.43874037297E+03  0.43880067901E+03  0.00000000000E+00 0.  1.
        -15    1    1    2    0    0 -0.18910818463E+01  0.11800177759E+02 -0.40670479694E+02  0.42427185073E+02  0.17770000000E+01 0. -1.
         15    1    1    2    0    0  0.18475005098E+01  0.22007105548E+01 -0.19504321403E+02  0.19794763638E+02  0.17770000000E+01 0.  1.
</event>
<event>
 6   1  0.1826851E-04  0.5006731E+03  0.7546771E-02  0.9398305E-01
        -11   -1    0    0    0    0  0.00000000000E+00  0.00000000000E+00  0.50000000000E+03  0.50000000000E+03  0.00000000000E+00 0. -1.
         11   -1    0    0    0    0 -0.00000000000E+00 -0.00000000000E+00 -0.50000000000E+03  0.50000000000E+03  0.00000000000E+00 0. -1.
        -11    1    1    2    0    0 -0.26051471607E+02 -0.67291861832E+01  0.49860143650E+03  0.49932690054E+03  0.00000000000E+00 0. -1.
         11    1    1    2    0    0  0.24076185209E+02  0.10557288803E+02 -0.46317766735E+03  0.46392313002E+03  0.00000000000E+00 0. -1.
        -15    1    1    2    0    0  0.25954737820E+01  0.19537094212E+01 -0.13521118415E+02  0.14018981306E+02  0.17770000000E+01 0.  1.
         15    1    1    2    0    0 -0.62018738439E+00 -0.57818120408E+01 -0.21902650741E+02  0.22730988129E+02  0.17770000000E+01 0. -1.
</event>
<event>
 6   1  0.1826851E-04  0.5000705E+03  0.7546771E-02  0.9399652E-01
        -11   -1    0    0    0    0  0.00000000000E+00  0.00000000000E+00  0.50000000000E+03  0.50000000000E+03  0.00000000000E+00 0.  1.
         11   -1    0    0    0    0 -0.00000000000E+00 -0.00000000000E+00 -0.50000000000E+03  0.50000000000E+03  0.00000000000E+00 0. -1.
        -11    1    1    2    0    0  0.69787609202E+00 -0.26591487458E+01  0.67556242841E+02  0.67612159039E+02  0.00000000000E+00 0.  1.
         11    1    1    2    0    0  0.81326463528E+01  0.35189454524E+01 -0.49985091674E+03  0.49992945691E+03  0.00000000000E+00 0. -1.
        -15    1    1    2    0    0 -0.85793664703E+01 -0.26228936652E+01  0.36983389511E+03  0.36994695945E+03  0.17770000000E+01 0.  1.
         15    1    1    2    0    0 -0.25115597449E+00  0.17630969585E+01  0.62460778789E+02  0.62511424605E+02  0.17770000000E+01 0.  1.
</event>
<event>
 6   1  0.1826851E-04  0.5023267E+03  0.7546771E-02  0.9394619E-01
        -11   -1    0    0    0    0  0.00000000000E+00  0.00000000000E+00  0.50000000000E+03  0.50000000000E+03  0.00000000000E+00 0. -1.
         11   -1    0    0    0    0 -0.00000000000E+00 -0.00000000000E+00 -0.50000000000E+03  0.50000000000E+03  0.00000000000E+00 0. -1.
        -11    1    1    2    0    0  0.14772335182E+02  0.77406278368E+01  0.42492900832E+03  0.42525615965E+03  0.00000000000E+00 0. -1.
         11    1    1    2    0    0 -0.80962869995E+01 -0.26596474894E+01 -0.49760037500E+03  0.49767334345E+03  0.00000000000E+00 0. -1.
        -15    1    1    2    0    0 -0.10985870073E+02 -0.70997181180E+01  0.70183094097E+02  0.71413722524E+02  0.17770000000E+01 0. -1.
         15    1    1    2    0    0  0.43098218901E+01  0.20187377706E+01  0.24882725814E+01  0.56567743768E+01  0.17770000000E+01 0.  1.
</event>
<event>
 6   1  0.1826851E-04  0.5027525E+03  0.7546771E-02  0.9393672E-01
        -11   -1    0    0    0    0  0.00000000000E+00  0.00000000000E+00  0.50000000000E+03  0.50000000000E+03  0.00000000000E+00 0. -1.
         11   -1    0    0    0    0 -0.00000000000E+00 -0.00000000000E+00 -0.50000000000E+03  0.50000000000E+03  0.00000000000E+00 0. -1.
        -11    1    1    2    0    0 -0.22202471762E+01  0.21596867480E+02  0.49677332641E+03  0.49724751584E+03  0.00000000000E+00 0. -1.
         11    1    1    2    0    0  0.10389352795E+02  0.33033111741E+01 -0.32899986889E+03  0.32918044329E+03  0.00000000000E+00 0. -1.
        -15    1    1    2    0    0 -0.21308303036E+02 -0.17704330951E+02 -0.84501114213E+02  0.88944269882E+02  0.17770000000E+01 0.  1.
         15    1    1    2    0    0  0.13139197417E+02 -0.71958477028E+01 -0.83272343308E+02  0.84627770985E+02  0.17770000000E+01 0. -1.
</event>
<event>
 6   1  0.1826851E-04  0.5007685E+03  0.7546771E-02  0.9398092E-01
        -11   -1    0    0    0    0  0.00000000000E+00  0.00000000000E+00  0.50000000000E+03  0.50000000000E+03  0.00000000000E+00 0.  1.
         11   -1    0    0    0    0 -0.00000000000E+00 -0.00000000000E+00 -0.50000000000E+03  0.50000000000E+03  0.00000000000E+00 0.  1.
        -11    1    1    2    0    0 -0.37805673186E+01 -0.92110702543E+01  0.49913219876E+03  0.49923149775E+03  0.00000000000E+00 0.  1.
         11    1    1    2    0    0 -0.56337617281E+01 -0.21664833969E+01 -0.42192525887E+03  0.42196843128E+03  0.00000000000E+00 0.  1.
        -15    1    1    2    0    0  0.88393865886E+01  0.97425926249E+01 -0.64073175427E+02  0.65433801698E+02  0.17770000000E+01 0. -1.
         15    1    1    2    0    0  0.57494245805E+00  0.16349610263E+01 -0.13133764461E+02  0.13366269274E+02  0.17770000000E+01 0.  1.
</event>
<event>
 6   1  0.1826851E-04  0.5025819E+03  0.7546771E-02  0.9394051E-01
        -11   -1    0    0    0    0  0.00000000000E+00  0.00000000000E+00  0.50000000000E+03  0.50000000000E+03  0.00000000000E+00 0.  1.
         11   -1    0    0    0    0 -0.00000000000E+00 -0.00000000000E+00 -0.50000000000E+03  0.50000000000E+03  0.00000000000E+00 0. -1.
        -11    1    1    2    0    0  0.27846179277E+02  0.85308418009E+01  0.49656479982E+03  0.49741811928E+03  0.00000000000E+00 0.  1.
         11    1    1    2    0    0 -0.32713109627E+01  0.16513659829E+02 -0.37364248575E+03  0.37402153627E+03  0.00000000000E+00 0. -1.
        -15    1    1    2    0    0 -0.21361209926E+02 -0.17098847224E+02 -0.75222886323E+02  0.80064425444E+02  0.17770000000E+01 0.  1.
         15    1    1    2    0    0 -0.32136583880E+01 -0.79456544061E+01 -0.47699427747E+02  0.48495919010E+02  0.17770000000E+01 0. -1.
</event>
<event>
 6   1  0.1826851E-04  0.5005739E+03  0.7546771E-02  0.9398526E-01
        -11   -1    0    0    0    0  0.00000000000E+00  0.00000000000E+00  0.50000000000E+03  0.50000000000E+03  0.00000000000E+00 0. -1.
         11   -1    0    0    0    0 -0.00000000000E+00 -0.00000000000E+00 -0.50000000000E+03  0.50000000000E+03  0.00000000000E+00 0.  1.
        -11    1    1    2    0    0 -0.14476303452E+02 -0.11812147748E+02  0.18896767853E+03  0.18988910902E+03  0.00000000000E+00 0. -1.
         11    1    1    2    0    0  0.10082969484E+02 -0.49200343141E-01 -0.49932428049E+03  0.49942607639E+03  0.00000000000E+00 0.  1.
        -15    1    1    2    0    0  0.21402534564E+01  0.95450602295E+00  0.76289261684E+02  0.76345929452E+02  0.17770000000E+01 0. -1.
         15    1    1    2    0    0  0.22530805114E+01  0.10906842069E+02  0.23406734027E+03  0.23433888514E+03  0.17770000000E+01 0. -1.
</event>
<event>
 6   1  0.1826851E-04  0.5005077E+03  0.7546771E-02  0.9398674E-01
        -11   -1    0    0    0    0  0.00000000000E+00  0.00000000000E+00  0.50000000000E+03  0.50000000000E+03  0.00000000000E+00 0.  1.
         11   -1    0    0    0    0 -0.00000000000E+00 -0.00000000000E+00 -0.50000000000E+03  0.50000000000E+03  0.00000000000E+00 0.  1.
        -11    1    1    2    0    0 -0.64714569322E+01 -0.70403877675E+01  0.49940078342E+03  0.49949233157E+03  0.00000000000E+00 0.  1.
         11    1    1    2    0    0  0.80979035128E+01  0.14013681083E+01 -0.41993090708E+03  0.42001131723E+03  0.00000000000E+00 0.  1.
        -15    1    1    2    0    0 -0.36118371874E+01 -0.20021834101E+01 -0.36000556907E+02  0.36280186505E+02  0.17770000000E+01 0.  1.
         15    1    1    2    0    0  0.19853906067E+01  0.76412030693E+01 -0.43469319429E+02  0.44216164701E+02  0.17770000000E+01 0. -1.
</event>
<event>
 6   1  0.1826851E-04  0.5069349E+03  0.7546771E-02  0.9384425E-01
        -11   -1    0    0    0    0  0.00000000000E+00  0.00000000000E+00  0.50000000000E+03  0.50000000000E+03  0.00000000000E+00 0. -1.
         11   -1    0    0    0    0 -0.00000000000E+00 -0.00000000000E+00 -0.50000000000E+03  0.50000000000E+03  0.00000000000E+00 0.  1.
        -11    1    1    2    0    0  0.25397153301E+02  0.50753218585E+02  0.13837310395E+03  0.14955942126E+03  0.00000000000E+00 0. -1.
         11    1    1    2    0    0 -0.30198867881E+02 -0.17648330290E+02 -0.49182287284E+03  0.49306508032E+03  0.00000000000E+00 0.  1.
        -15    1    1    2    0    0  0.19604619950E+02 -0.68321087167E+01  0.19169529585E+03  0.19282443572E+03  0.17770000000E+01 0. -1.
         15    1    1    2    0    0 -0.14802905370E+02 -0.26272779578E+02  0.16175447304E+03  0.16455106269E+03  0.17770000000E+01 0.  1.
</event>
<event>
 6   1  0.1826851E-04  0.5026450E+03  0.7546771E-02  0.9393911E-01
        -11   -1    0    0    0    0  0.00000000000E+00  0.00000000000E+00  0.50000000000E+03  0.50000000000E+03  0.00000000000E+00 0. -1.
         11   -1    0    0    0    0 -0.00000000000E+00 -0.00000000000E+00 -0.50000000000E+03  0.50000000000E+03  0.00000000000E+00 0. -1.
        -11    1    1    2    0    0 -0.76366461689E+01 -0.86752616845E+01  0.38702604655E+03  0.38719857856E+03  0.00000000000E+00 0. -1.
         11    1    1    2    0    0  0.10213283544E+02 -0.15257710793E+02 -0.49701593935E+03  0.49735495661E+03  0.00000000000E+00 0. -1.
        -15    1    1    2    0    0 -0.11930275191E+02  0.97278552291E+01  0.73939081122E+02  0.75545404093E+02  0.17770000000E+01 0.  1.
         15    1    1    2    0    0  0.93536378161E+01  0.14205117249E+02  0.36050811672E+02  0.39901060733E+02  0.17770000000E+01 0. -1.
</event>
<event>
 6   1  0.1826851E-04  0.5001972E+03  0.7546771E-02  0.9399368E-01
        -11   -1    0    0    0    0  0.00000000000E+00  0.00000000000E+00  0.50000000000E+03  0.50000000000E+03  0.00000000000E+00 0.  1.
         11   -1    0    0    0    0 -0.00000000000E+00 -0.00000000000E+00 -0.50000000000E+03  0.50000000000E+03  0.00000000000E+00 0. -1.
        -11    1    1    2    0    0  0.14318776688E+02  0.15974911800E+01  0.49959505190E+03  0.49980275632E+03  0.00000000000E+00 0.  1.
         11    1    1    2    0    0  0.26053198202E+01 -0.35367565939E+01 -0.17766837187E+03  0.17772266794E+03  0.00000000000E+00 0. -1.
        -15    1    1    2    0    0 -0.16090327038E+02  0.40040721901E+00 -0.26614883565E+03  0.26664099347E+03  0.17770000000E+01 0.  1.
         15    1    1    2    0    0 -0.83376946991E+00  0.15388581948E+01 -0.55777844381E+02  0.55833582268E+02  0.17770000000E+01 0. -1.
</event>
<event>
 6   1  0.1826851E-04  0.5012155E+03  0.7546771E-02  0.9397094E-01
        -11   -1    0    0    0    0  0.00000000000E+00  0.00000000000E+00  0.50000000000E+03  0.50000000000E+03  0.00000000000E+00 0.  1.
         11   -1    0    0    0    0 -0.00000000000E+00 -0.00000000000E+00 -0.50000000000E+03  0.50000000000E+03  0.00000000000E+00 0. -1.
        -11    1    1    2    0    0 -0.12660480174E+02  0.73910660833E+01  0.35999915795E+03  0.36029752891E+03  0.00000000000E+00 0.  1.
         11    1    1    2    0    0 -0.20934537983E+01  0.99601214530E+01 -0.49868069586E+03  0.49878454567E+03  0.00000000000E+00 0. -1.
        -15    1    1    2    0    0 -0.79920512446E+00 -0.94309377389E+00  0.82316586343E+01  0.85115267472E+01  0.17770000000E+01 0. -1.
         15    1    1    2    0    0  0.15553139097E+02 -0.16408093762E+02  0.13044987928E+03  0.13240639868E+03  0.17770000000E+01 0.  1.
</event>
<event>
 6   1  0.1826851E-04  0.5057903E+03  0.7546771E-02  0.9386946E-01
        -11   -1    0    0    0    0  0.00000000000E+00  0.00000000000E+00  0.50000000000E+03  0.50000000000E+03  0.00000000000E+00 0.  1.
         11   -1    0    0    0    0 -0.00000000000E+00 -0.00000000000E+00 -0.50000000000E+03  0.50000000000E+03  0.00000000000E+00 0. -1.
        -11    1    1    2    0    0  0.20758733931E+02  0.15129806873E+02  0.33774914727E+02  0.42433252942E+02  0.00000000000E+00 0.  1.
         11    1    1    2    0    0  0.42679856262E+01  0.80724786669E+01 -0.49412537840E+03  0.49420974312E+03  0.00000000000E+00 0. -1.
        -15    1    1    2    0    0 -0.12881014638E+01 -0.54745928865E+00  0.47808969235E+00  0.23119722766E+01  0.17770000000E+01 0.  1.
         15    1    1    2    0    0 -0.23738618093E+02 -0.22654826251E+02  0.45987237398E+03  0.46104503166E+03  0.17770000000E+01 0.  1.
</event>
<event>
 6   1  0.1826851E-04  0.4904700E+03  0.7546771E-02  0.9421390E-01
        -11   -1    0    0    0    0  0.00000000000E+00  0.00000000000E+00  0.50000000000E+03  0.50000000000E+03  0.00000000000E+00 0. -1.
         11   -1    0    0    0    0 -0.00000000000E+00 -0.00000000000E+00 -0.50000000000E+03  0.50000000000E+03  0.00000000000E+00 0. -1.
        -11    1    1    2    0    0  0.78273158430E+01 -0.64114125678E+01  0.48995408196E+03  0.49005854294E+03  0.00000000000E+00 0. -1.
         11    1    1    2    0    0 -0.59716701273E+01 -0.71806089154E+01 -0.49088904507E+03  0.49097787787E+03  0.00000000000E+00 0. -1.
        -15    1    1    2    0    0 -0.49519052454E+01  0.97453088090E+01 -0.39850913861E+01  0.11769923181E+02  0.17770000000E+01 0.  1.
         15    1    1    2    0    0  0.30962595297E+01  0.38467126742E+01  0.49200544989E+01  0.71936560069E+01  0.17770000000E+01 0. -1.
</event>
<event>
 6   1  0.1826851E-04  0.5029936E+03  0.7546771E-02  0.9393136E-01
        -11   -1    0    0    0    0  0.00000000000E+00  0.00000000000E+00  0.50000000000E+03  0.50000000000E+03  0.00000000000E+00 0.  1.
         11   -1    0    0    0    0 -0.00000000000E+00 -0.00000000000E+00 -0.50000000000E+03  0.50000000000E+03  0.00000000000E+00 0. -1.
        -11    1    1    2    0    0  0.14566722467E+02  0.15717589693E+01  0.43526239774E+03  0.43550891462E+03  0.00000000000E+00 0.  1.
         11    1    1    2    0    0 -0.33454075695E+01  0.70588524049E+01 -0.49694497275E+03  0.49700636323E+03  0.00000000000E+00 0. -1.
        -15    1    1    2    0    0  0.14755673675E+01  0.20809936675E+01 -0.45354392269E+00  0.31418569016E+01  0.17770000000E+01 0. -1.
         15    1    1    2    0    0 -0.12696882265E+02 -0.10711605042E+02  0.62136118941E+02  0.64342865244E+02  0.17770000000E+01 0.  1.
</event>
<event>
 6   1  0.1826851E-04  0.5019924E+03  0.7546771E-02  0.9395363E-01
        -11   -1    0    0    0    0  0.00000000000E+00  0.00000000000E+00  0.50000000000E+03  0.50000000000E+03  0.00000000000E+00 0. -1.
         11   -1    0    0    0    0 -0.00000000000E+00 -0.00000000000E+00 -0.50000000000E+03  0.50000000000E+03  0.00000000000E+00 0. -1.
        -11    1    1    2    0    0  0.96745096716E+01 -0.16146146341E+02  0.37186689044E+03  0.37234295801E+03  0.00000000000E+00 0. -1.
         11    1    1    2    0    0 -0.58342285298E+01 -0.45385870857E+01 -0.49795274946E+03  0.49800760807E+03  0.00000000000E+00 0. -1.
        -15    1    1    2    0    0  0.72546882088E+00  0.11319457532E+02  0.20179262528E+02  0.23216735106E+02  0.17770000000E+01 0. -1.
         15    1    1    2    0    0 -0.45657499627E+01  0.93652758949E+01  0.10590659650E+03  0.10643269881E+03  0.17770000000E+01 0.  1.
</event>
<event>
 6   1  0.1826851E-04  0.5001933E+03  0.7546771E-02  0.9399377E-01
        -11   -1    0    0    0    0  0.00000000000E+00  0.00000000000E+00  0.50000000000E+03  0.50000000000E+03  0.00000000000E+00 0.  1.
         11   -1    0    0    0    0 -0.00000000000E+00 -0.00000000000E+00 -0.50000000000E+03  0.50000000000E+03  0.00000000000E+00 0.  1.
        -11    1    1    2    0    0  0.33135121476E+01 -0.18928741650E+02  0.49943712429E+03  0.49980668037E+03  0.00000000000E+00 0.  1.
         11    1    1    2    0    0 -0.13931370478E+01  0.35873924548E+01 -0.10647175917E+03  0.10654128644E+03  0.00000000000E+00 0.  1.
        -15    1    1    2    0    0 -0.69944427126E+01  0.16019470895E+01 -0.19380636280E+03  0.19394729298E+03  0.17770000000E+01 0.  1.
         15    1    1    2    0    0  0.50740676127E+01  0.13739402106E+02 -0.19915900232E+03  0.19970474022E+03  0.17770000000E+01 0.  1.
</event>
<event>
 6   1  0.1826851E-04  0.5014576E+03  0.7546771E-02  0.9396554E-01
        -11   -1    0    0    0    0  0.00000000000E+00  0.00000000000E+00  0.50000000000E+03  0.50000000000E+03  0.00000000000E+00 0.  1.
         11   -1    0    0    0    0 -0.00000000000E+00 -0.00000000000E+00 -0.50000000000E+03  0.50000000000E+03  0.00000000000E+00 0.  1.
        -11    1    1    2    0    0  0.23071587573E+02 -0.14034876738E+01  0.12766628622E+03  0.12974185358E+03  0.00000000000E+00 0.  1.
         11    1    1    2    0    0 -0.96521065398E+01  0.33472977272E+01 -0.49843769637E+03  0.49854238007E+03  0.00000000000E+00 0.  1.
        -15    1    1    2    0    0 -0.90950283387E+01  0.41975561309E+01  0.60575169440E+02  0.61423512596E+02  0.17770000000E+01 0.  1.
         15    1    1    2    0    0 -0.43244526942E+01 -0.61413661842E+01  0.31019624070E+03  0.31029225376E+03  0.17770000000E+01 0. -1.
</event>
<event>
 6   1  0.1826851E-04  0.5003602E+03  0.7546771E-02  0.9399004E-01
        -11   -1    0    0    0    0  0.00000000000E+00  0.00000000000E+00  0.50000000000E+03  0.50000000000E+03  0.00000000000E+00 0.  1.
         11   -1    0    0    0    0 -0.00000000000E+00 -0.00000000000E+00 -0.50000000000E+03  0.50000000000E+03  0.00000000000E+00 0. -1.
        -11    1    1    2    0    0 -0.67823699387E+01 -0.67095574304E+01  0.61257661590E+02  0.61996127350E+02  0.00000000000E+00 0.  1.
         11    1    1    2    0    0  0.11700079085E+02  0.14026182131E+01 -0.49950084959E+03  0.49963982821E+03  0.00000000000E+00 0. -1.
        -15    1    1    2    0    0 -0.61991297762E+01  0.39786916242E+01  0.29137149734E+03  0.29147000941E+03  0.17770000000E+01 0.  1.
         15    1    1    2    0    0  0.12814206295E+01  0.13282475931E+01  0.14687169066E+03  0.14689403503E+03  0.17770000000E+01 0.  1.
</event>
<event>
 6   1  0.1826851E-04  0.5005822E+03  0.7546771E-02  0.9398508E-01
        -11   -1    0    0    0    0  0.00000000000E+00  0.00000000000E+00  0.50000000000E+03  0.50000000000E+03  0.00000000000E+00 0. -1.
         11   -1    0    0    0    0 -0.00000000000E+00 -0.00000000000E+00 -0.50000000000E+03  0.50000000000E+03  0.00000000000E+00 0. -1.
        -11    1    1    2    0    0 -0.23446088599E+02 -0.20938423224E+02  0.26534497108E+03  0.26720046841E+03  0.00000000000E+00 0. -1.
         11    1    1    2    0    0  0.18836411398E+02  0.21270576756E+02 -0.49860890863E+03  0.49941775258E+03  0.00000000000E+00 0. -1.
        -15    1    1    2    0    0  0.19602600929E+01  0.16517562494E-01  0.18103971991E+03  0.18105905337E+03  0.17770000000E+01 0. -1.
         15    1    1    2    0    0  0.26494171083E+01 -0.34867109416E+00  0.52224217629E+02  0.52322725641E+02  0.17770000000E+01 0.  1.
</event>
<event>
 6   1  0.1826851E-04  0.5005449E+03  0.7546771E-02  0.9398591E-01
        -11   -1    0    0    0    0  0.00000000000E+00  0.00000000000E+00  0.50000000000E+03  0.50000000000E+03  0.00000000000E+00 0.  1.
         11   -1    0    0    0    0 -0.00000000000E+00 -0.00000000000E+00 -0.50000000000E+03  0.50000000000E+03  0.00000000000E+00 0.  1.
        -11    1    1    2    0    0 -0.14297203365E+01  0.15271637943E+02  0.49921955163E+03  0.49945513087E+03  0.00000000000E+00 0.  1.
         11    1    1    2    0    0 -0.47166319121E+01  0.31660496366E+00 -0.31770345750E+03  0.31773862492E+03  0.00000000000E+00 0.  1.
        -15    1    1    2    0    0  0.28324258664E+01 -0.64259564199E+01 -0.13745674014E+03  0.13764747978E+03  0.17770000000E+01 0.  1.
         15    1    1    2    0    0  0.33139263822E+01 -0.91622864864E+01 -0.44059353994E+02  0.45158764433E+02  0.17770000000E+01 0. -1.
</event>
<event>
 6   1  0.1826851E-04  0.5034815E+03  0.7546771E-02  0.9392053E-01
        -11   -1    0    0    0    0  0.00000000000E+00  0.00000000000E+00  0.50000000000E+03  0.50000000000E+03  0.00000000000E+00 0.  1.
         11   -1    0    0    0    0 -0.00000000000E+00 -0.00000000000E+00 -0.50000000000E+03  0.50000000000E+03  0.00000000000E+00 0. -1.
        -11    1    1    2    0    0 -0.14451198592E+02  0.25421668954E+01  0.40608603608E+03  0.40635104092E+03  0.00000000000E+00 0.  1.
         11    1    1    2    0    0 -0.15185682638E+02  0.73979715266E+01 -0.49623103151E+03  0.49651845039E+03  0.00000000000E+00 0. -1.
        -15    1    1    2    0    0  0.86291723147E+01 -0.69105976613E+01  0.54236746802E+02  0.55380514692E+02  0.17770000000E+01 0. -1.
         15    1    1    2    0    0  0.21007708915E+02 -0.30295407607E+01  0.35908248624E+02  0.41749994004E+02  0.17770000000E+01 0.  1.
</event>
<event>
 6   1  0.1826851E-04  0.5025375E+03  0.7546771E-02  0.9394150E-01
        -11   -1    0    0    0    0  0.00000000000E+00  0.00000000000E+00  0.50000000000E+03  0.50000000000E+03  0.00000000000E+00 0.  1.
         11   -1    0    0    0    0 -0.00000000000E+00 -0.00000000000E+00 -0.50000000000E+03  0.50000000000E+03  0.00000000000E+00 0. -1.
        -11    1    1    2    0    0 -0.69630074904E+00 -0.86475854242E+01  0.48423576035E+03  0.48431346995E+03  0.00000000000E+00 0.  1.
         11    1    1    2    0    0  0.97367435122E+01  0.20380245205E+01 -0.49736300856E+03  0.49746248100E+03  0.00000000000E+00 0. -1.
        -15    1    1    2    0    0 -0.23471239457E+01  0.28115534731E+01  0.18885727197E+01  0.44875672325E+01  0.17770000000E+01 0. -1.
         15    1    1    2    0    0 -0.66933188174E+01  0.37980074306E+01  0.11238675484E+02  0.13736481823E+02  0.17770000000E+01 0.  1.
</event>
<event>
 6   1  0.1826851E-04  0.5026484E+03  0.7546771E-02  0.9393903E-01
        -11   -1    0    0    0    0  0.00000000000E+00  0.00000000000E+00  0.50000000000E+03  0.50000000000E+03  0.00000000000E+00 0. -1.
         11   -1    0    0    0    0 -0.00000000000E+00 -0.00000000000E+00 -0.50000000000E+03  0.50000000000E+03  0.00000000000E+00 0.  1.
        -11    1    1    2    0    0 -0.73864345846E+01 -0.18735082467E+02  0.49694370663E+03  0.49735159624E+03  0.00000000000E+00 0. -1.
         11    1    1    2    0    0 -0.12774520757E+02  0.36419761717E+01 -0.41091114634E+03  0.41112579895E+03  0.00000000000E+00 0.  1.
        -15    1    1    2    0    0  0.10732936042E+02  0.16220904598E+02 -0.40332710169E+02  0.44812932293E+02  0.17770000000E+01 0.  1.
         15    1    1    2    0    0  0.94280193004E+01 -0.11277983029E+01 -0.45699850115E+02  0.46709672515E+02  0.17770000000E+01 0. -1.
</event>
<event>
 6   1  0.1826851E-04  0.5001492E+03  0.7546771E-02  0.9399476E-01
        -11   -1    0    0    0    0  0.00000000000E+00  0.00000000000E+00  0.50000000000E+03  0.50000000000E+03  0.00000000000E+00 0.  1.
         11   -1    0    0    0    0 -0.00000000000E+00 -0.00000000000E+00 -0.50000000000E+03  0.50000000000E+03  0.00000000000E+00 0. -1.
        -11    1    1    2    0    0 -0.40305587359E+01  0.27109960971E+01  0.33778447838E+03  0.33781940255E+03  0.00000000000E+00 0.  1.
         11    1    1    2    0    0  0.53016491080E+01  0.47027494800E+01 -0.49980052639E+03  0.49985076724E+03  0.00000000000E+00 0. -1.
        -15    1    1    2    0    0 -0.20229564098E+01 -0.68428072118E+01  0.14641591955E+03  0.14660046244E+03  0.17770000000E+01 0.  1.
         15    1    1    2    0    0  0.75186603770E+00 -0.57093836537E+00  0.15600128467E+02  0.15729367766E+02  0.17770000000E+01 0.  1.
</event>
<event>
 6   1  0.1826851E-04  0.5144224E+03  0.7546771E-02  0.9368104E-01
        -11   -1    0    0    0    0  0.00000000000E+00  0.00000000000E+00  0.50000000000E+03  0.50000000000E+03  0.00000000000E+00 0.  1.
         11   -1    0    0    0    0 -0.00000000000E+00 -0.00000000000E+00 -0.50000000000E+03  0.50000000000E+03  0.00000000000E+00 0. -1.
        -11    1    1    2    0    0 -0.19250462471E+01  0.57526145952E+02  0.38110349346E+03  0.38542552588E+03  0.00000000000E+00 0.  1.
         11    1    1    2    0    0  0.13907698312E+01 -0.74539977378E+01 -0.48551839395E+03  0.48557760161E+03  0.00000000000E+00 0. -1.
        -15    1    1    2    0    0 -0.57934449743E+00  0.15152907080E+01 -0.63496734959E+01  0.67902745512E+01  0.17770000000E+01 0. -1.
         15    1    1    2    0    0  0.11136209133E+01 -0.51587438922E+02  0.11076457399E+03  0.12220659796E+03  0.17770000000E+01 0. -1.
</event>
<event>
 6   1  0.1826851E-04  0.4874746E+03  0.7546771E-02  0.9428281E-01
        -11   -1    0    0    0    0  0.00000000000E+00  0.00000000000E+00  0.50000000000E+03  0.50000000000E+03  0.00000000000E+00 0.  1.
         11   -1    0    0    0    0 -0.00000000000E+00 -0.00000000000E+00 -0.50000000000E+03  0.50000000000E+03  0.00000000000E+00 0. -1.
        -11    1    1    2    0    0 -0.79459357012E+01  0.39613060055E+01  0.48632357516E+03  0.48640461511E+03  0.00000000000E+00 0.  1.
         11    1    1    2    0    0  0.22560245002E+01 -0.76915336198E+01 -0.48850499035E+03  0.48857074711E+03  0.00000000000E+00 0. -1.
        -15    1    1    2    0    0  0.94300686293E+01 -0.43982284008E+01 -0.65286932908E+01  0.12411775558E+02  0.17770000000E+01 0.  1.
         15    1    1    2    0    0 -0.37401574283E+01  0.81284560150E+01  0.87101084753E+01  0.12612862222E+02  0.17770000000E+01 0. -1.
</event>
<event>
 6   1  0.1826851E-04  0.5001204E+03  0.7546771E-02  0.9399540E-01
        -11   -1    0    0    0    0  0.00000000000E+00  0.00000000000E+00  0.50000000000E+03  0.50000000000E+03  0.00000000000E+00 0. -1.
         11   -1    0    0    0    0 -0.00000000000E+00 -0.00000000000E+00 -0.50000000000E+03  0.50000000000E+03  0.00000000000E+00 0.  1.
        -11    1    1    2    0    0 -0.41970719826E+01 -0.59665993229E+01  0.81126811363E+02  0.81454129684E+02  0.00000000000E+00 0. -1.
         11    1    1    2    0    0  0.14974703805E+02  0.54306015725E+01 -0.49962572840E+03  0.49987958716E+03  0.00000000000E+00 0.  1.
        -15    1    1    2    0    0 -0.20906940799E+01  0.10871119252E+01  0.10740263684E+03  0.10744318006E+03  0.17770000000E+01 0. -1.
         15    1    1    2    0    0 -0.86869377422E+01 -0.55111417480E+00  0.31109628020E+03  0.31122310309E+03  0.17770000000E+01 0. -1.
</event>
<event>
 6   1  0.1826851E-04  0.5034479E+03  0.7546771E-02  0.9392128E-01
        -11   -1    0    0    0    0  0.00000000000E+00  0.00000000000E+00  0.50000000000E+03  0.50000000000E+03  0.00000000000E+00 0.  1.
         11   -1    0    0    0    0 -0.00000000000E+00 -0.00000000000E+00 -0.50000000000E+03  0.50000000000E+03  0.00000000000E+00 0.  1.
        -11    1    1    2    0    0 -0.82688951184E+01  0.20153594806E+01  0.49647915989E+03  0.49655210452E+03  0.00000000000E+00 0.  1.
         11    1    1    2    0    0  0.65475009986E+01  0.42396563869E+00 -0.48484830998E+03  0.48489270278E+03  0.00000000000E+00 0.  1.
        -15    1    1    2    0    0 -0.35749240587E+01  0.29409828220E+01 -0.91584142866E+01  0.10414592802E+02  0.17770000000E+01 0. -1.
         15    1    1    2    0    0  0.52963181785E+01 -0.53803079413E+01 -0.24724356167E+01  0.81405998963E+01  0.17770000000E+01 0.  1.
</event>
<event>
 6   1  0.1826851E-04  0.5017440E+03  0.7546771E-02  0.9395916E-01
        -11   -1    0    0    0    0  0.00000000000E+00  0.00000000000E+00  0.50000000000E+03  0.50000000000E+03  0.00000000000E+00 0.  1.
         11   -1    0    0    0    0 -0.00000000000E+00 -0.00000000000E+00 -0.50000000000E+03  0.50000000000E+03  0.00000000000E+00 0.  1.
        -11    1    1    2    0    0  0.16223246114E+02 -0.10376975476E+01  0.47756126022E+03  0.47783786769E+03  0.00000000000E+00 0.  1.
         11    1    1    2    0    0 -0.95675403067E+01  0.41064443326E+01 -0.49814721634E+03  0.49825600835E+03  0.00000000000E+00 0.  1.
        -15    1    1    2    0    0 -0.28905085270E+01 -0.40532448434E+01  0.36142089469E+01  0.64034419351E+01  0.17770000000E+01 0.  1.
         15    1    1    2    0    0 -0.37651972807E+01  0.98449805835E+00  0.16971747171E+02  0.17502682024E+02  0.17770000000E+01 0. -1.
</event>
<event>
 6   1  0.1826851E-04  0.5046507E+03  0.7546771E-02  0.9389463E-01
        -11   -1    0    0    0    0  0.00000000000E+00  0.00000000000E+00  0.50000000000E+03  0.50000000000E+03  0.00000000000E+00 0.  1.
         11   -1    0    0    0    0 -0.00000000000E+00 -0.00000000000E+00 -0.50000000000E+03  0.50000000000E+03  0.00000000000E+00 0.  1.
        -11    1    1    2    0    0  0.37436107794E+01  0.99191436296E+01  0.49523580499E+03  0.49534927735E+03  0.00000000000E+00 0.  1.
         11    1    1    2    0    0  0.71906224069E+01 -0.31302199849E+01 -0.46070199606E+03  0.46076874080E+03  0.00000000000E+00 0.  1.
        -15    1    1    2    0    0 -0.83094675690E+01 -0.23496010585E+01  0.10446552184E+00  0.88168315431E+01  0.17770000000E+01 0.  1.
         15    1    1    2    0    0 -0.26247656173E+01 -0.44393225863E+01 -0.34638274450E+02  0.35065150298E+02  0.17770000000E+01 0. -1.
</event>
<event>
 6   1  0.1826851E-04  0.5002717E+03  0.7546771E-02  0.9399202E-01
        -11   -1    0    0    0    0  0.00000000000E+00  0.00000000000E+00  0.50000000000E+03  0.50000000000E+03  0.00000000000E+00 0.  1.
         11   -1    0    0    0    0 -0.00000000000E+00 -0.00000000000E+00 -0.50000000000E+03  0.50000000000E+03  0.00000000000E+00 0. -1.
        -11    1    1    2    0    0 -0.40129535768E+01 -0.16027261536E+02  0.36027444062E+03  0.36065308743E+03  0.00000000000E+00 0.  1.
         11    1    1    2    0    0 -0.48052160159E+01  0.17839449907E+02 -0.49938668530E+03  0.49972832372E+03  0.00000000000E+00 0. -1.
        -15    1    1    2    0    0  0.34072120292E+01  0.20403437288E+00  0.96878495122E+02  0.96954892965E+02  0.17770000000E+01 0. -1.
         15    1    1    2    0    0  0.54109575635E+01 -0.20162227437E+01  0.42233749555E+02  0.42663695883E+02  0.17770000000E+01 0. -1.
</event>
<event>
 6   1  0.1826851E-04  0.5036004E+03  0.7546771E-02  0.9391789E-01
        -11   -1    0    0    0    0  0.00000000000E+00  0.00000000000E+00  0.50000000000E+03  0.50000000000E+03  0.00000000000E+00 0. -1.
         11   -1    0    0    0    0 -0.00000000000E+00 -0.00000000000E+00 -0.50000000000E+03  0.50000000000E+03  0.00000000000E+00 0. -1.
        -11    1    1    2    0    0 -0.88707359234E+02 -0.31325900017E+02  0.42366241908E+03  0.43398174262E+03  0.00000000000E+00 0. -1.
         11    1    1    2    0    0  0.78829931974E+02  0.14563909506E+02 -0.48988397668E+03  0.49639961346E+03  0.00000000000E+00 0. -1.
        -15    1    1    2    0    0  0.21527476764E+01  0.11809359131E+02  0.37208397756E+02  0.39137167479E+02  0.17770000000E+01 0.  1.
         15    1    1    2    0    0  0.77246795843E+01  0.49526313795E+01  0.29013159849E+02  0.30481476436E+02  0.17770000000E+01 0. -1.
</event>
<event>
 6   1  0.1826851E-04  0.5028237E+03  0.7546771E-02  0.9393514E-01
        -11   -1    0    0    0    0  0.00000000000E+00  0.00000000000E+00  0.50000000000E+03  0.50000000000E+03  0.00000000000E+00 0. -1.
         11   -1    0    0    0    0 -0.00000000000E+00 -0.00000000000E+00 -0.50000000000E+03  0.50000000000E+03  0.00000000000E+00 0. -1.
        -11    1    1    2    0    0 -0.39013297554E+02  0.46777425889E+02  0.49343098401E+03  0.49717632782E+03  0.00000000000E+00 0. -1.
         11    1    1    2    0    0  0.17532507398E+01  0.36390047647E+01 -0.26521655929E+03  0.26524731773E+03  0.00000000000E+00 0. -1.
        -15    1    1    2    0    0  0.46778798906E+00  0.60703333888E+00 -0.19108216698E+02  0.19205962342E+02  0.17770000000E+01 0. -1.
         15    1    1    2    0    0  0.36792258825E+02 -0.51023463992E+02 -0.20910620802E+03  0.21837039211E+03  0.17770000000E+01 0. -1.
</event>
<event>
 6   1  0.1826851E-04  0.5012076E+03  0.7546771E-02  0.9397112E-01
        -11   -1    0    0    0    0  0.00000000000E+00  0.00000000000E+00  0.50000000000E+03  0.50000000000E+03  0.00000000000E+00 0. -1.
         11   -1    0    0    0    0 -0.00000000000E+00 -0.00000000000E+00 -0.50000000000E+03  0.50000000000E+03  0.00000000000E+00 0. -1.
        -11    1    1    2    0    0  0.99823789748E+01 -0.25762283718E+02  0.49802665937E+03  0.49879243840E+03  0.00000000000E+00 0. -1.
         11    1    1    2    0    0 -0.10076199578E+02  0.47416789405E+00 -0.33005103747E+03  0.33020515134E+03  0.00000000000E+00 0. -1.
        -15    1    1    2    0    0 -0.56877718693E+01  0.19296342311E+02 -0.76134367412E+02  0.78767373993E+02  0.17770000000E+01 0. -1.
         15    1    1    2    0    0  0.57815924730E+01  0.59917735125E+01 -0.91841254489E+02  0.92235036274E+02  0.17770000000E+01 0.  1.
</event>
<event>
 6   1  0.1826851E-04  0.5121192E+03  0.7546771E-02  0.9373093E-01
        -11   -1    0    0    0    0  0.00000000000E+00  0.00000000000E+00  0.50000000000E+03  0.50000000000E+03  0.00000000000E+00 0.  1.
         11   -1    0    0    0    0 -0.00000000000E+00 -0.00000000000E+00 -0.50000000000E+03  0.50000000000E+03  0.00000000000E+00 0.  1.
        -11    1    1    2    0    0 -0.21489657502E+02 -0.29387832522E+02  0.48652052141E+03  0.48788079265E+03  0.00000000000E+00 0.  1.
         11    1    1    2    0    0  0.24671267413E+02  0.84859561665E+01 -0.41880205945E+03  0.41961392719E+03  0.00000000000E+00 0.  1.
        -15    1    1    2    0    0  0.22406748321E+02  0.50418752205E+00 -0.50955780852E+02  0.55695295192E+02  0.17770000000E+01 0. -1.
         15    1    1    2    0    0 -0.25588358232E+02  0.20397688834E+02 -0.16762681106E+02  0.36809984971E+02  0.17770000000E+01 0.  1.
</event>
<event>
 6   1  0.1826851E-04  0.5002965E+03  0.7546771E-02  0.9399146E-01
        -11   -1    0    0    0    0  0.00000000000E+00  0.00000000000E+00  0.50000000000E+03  0.50000000000E+03  0.00000000000E+00 0.  1.
         11   -1    0    0    0    0 -0.00000000000E+00 -0.00000000000E+00 -0.50000000000E+03  0.50000000000E+03  0.00000000000E+00 0.  1.
        -11    1    1    2    0    0  0.99286744145E+01 -0.44397765541E+01  0.49958509806E+03  0.49970347246E+03  0.00000000000E+00 0.  1.
         11    1    1    2    0    0 -0.33558851447E+01  0.53141989406E+01 -0.39270107273E+03  0.39275136563E+03  0.00000000000E+00 0.  1.
        -15    1    1    2    0    0 -0.46086507836E+01 -0.38744871770E+01 -0.35627529032E+02  0.36176371666E+02  0.17770000000E+01 0.  1.
         15    1    1    2    0    0 -0.19641384862E+01  0.30000647905E+01 -0.71256496290E+02  0.71368790246E+02  0.17770000000E+01 0. -1.
</event>
<event>
 6   1  0.1826851E-04  0.5008294E+03  0.7546771E-02  0.9397956E-01
        -11   -1    0    0    0    0  0.00000000000E+00  0.00000000000E+00  0.50000000000E+03  0.50000000000E+03  0.00000000000E+00 0.  1.
         11   -1    0    0    0    0 -0.00000000000E+00 -0.00000000000E+00 -0.50000000000E+03  0.50000000000E+03  0.00000000000E+00 0. -1.
        -11    1    1    2    0    0 -0.91777590754E+01 -0.10018286095E+02  0.49898562136E+03  0.49917055967E+03  0.00000000000E+00 0.  1.
         11    1    1    2    0    0  0.47246138301E+01 -0.38242822779E+01 -0.42019812340E+03  0.42024208502E+03  0.00000000000E+00 0. -1.
        -15    1    1    2    0    0  0.49962651840E+01  0.83861346479E+01 -0.63081041528E+02  0.63856600672E+02  0.17770000000E+01 0.  1.
         15    1    1    2    0    0 -0.54311993865E+00  0.54564337254E+01 -0.15706456431E+02  0.16730754642E+02  0.17770000000E+01 0. -1.
</event>
<event>
 6   1  0.1826851E-04  0.5046699E+03  0.7546771E-02  0.9389421E-01
        -11   -1    0    0    0    0  0.00000000000E+00  0.00000000000E+00  0.50000000000E+03  0.50000000000E+03  0.00000000000E+00 0. -1.
         11   -1    0    0    0    0 -0.00000000000E+00 -0.00000000000E+00 -0.50000000000E+03  0.50000000000E+03  0.00000000000E+00 0. -1.
        -11    1    1    2    0    0 -0.14666711597E+02  0.80709063376E+01  0.47697566320E+03  0.47726935293E+03  0.00000000000E+00 0. -1.
         11    1    1    2    0    0 -0.38721500299E+01 -0.81361116353E+01 -0.49524813744E+03  0.49533009952E+03  0.00000000000E+00 0. -1.
        -15    1    1    2    0    0  0.18452679459E+01  0.64942394318E+00  0.61238740410E+01  0.66698071577E+01  0.17770000000E+01 0. -1.
         15    1    1    2    0    0  0.16693593681E+02 -0.58421864547E+00  0.12148600194E+02  0.20730740389E+02  0.17770000000E+01 0.  1.
</event>
<event>
 6   1  0.1826851E-04  0.5040299E+03  0.7546771E-02  0.9390837E-01
        -11   -1    0    0    0    0  0.00000000000E+00  0.00000000000E+00  0.50000000000E+03  0.50000000000E+03  0.00000000000E+00 0. -1.
         11   -1    0    0    0    0 -0.00000000000E+00 -0.00000000000E+00 -0.50000000000E+03  0.50000000000E+03  0.00000000000E+00 0. -1.
        -11    1    1    2    0    0  0.24630144772E+02  0.12997501060E+02  0.49518757576E+03  0.49597007395E+03  0.00000000000E+00 0. -1.
         11    1    1    2    0    0  0.36725087520E+01 -0.54509595288E+01 -0.43616908401E+03  0.43621860360E+03  0.00000000000E+00 0. -1.
        -15    1    1    2    0    0 -0.28316954297E+02 -0.83701242634E+01 -0.46302134958E+02  0.54945011707E+02  0.17770000000E+01 0.  1.
         15    1    1    2    0    0  0.14300772733E-01  0.82358273173E+00 -0.12716356798E+02  0.12866310747E+02  0.17770000000E+01 0.  1.
</event>
<event>
 6   1  0.1826851E-04  0.5008435E+03  0.7546771E-02  0.9397924E-01
        -11   -1    0    0    0    0  0.00000000000E+00  0.00000000000E+00  0.50000000000E+03  0.50000000000E+03  0.00000000000E+00 0.  1.
         11   -1    0    0    0    0 -0.00000000000E+00 -0.00000000000E+00 -0.50000000000E+03  0.50000000000E+03  0.00000000000E+00 0.  1.
        -11    1    1    2    0    0  0.46696010673E+01  0.17410556366E+02  0.40766798501E+03  0.40806631648E+03  0.00000000000E+00 0.  1.
         11    1    1    2    0    0  0.68739024298E+00 -0.89313446837E+01 -0.49907606696E+03  0.49915645046E+03  0.00000000000E+00 0.  1.
        -15    1    1    2    0    0 -0.37001420457E+01 -0.10477843045E+02  0.83681046132E+02  0.84434302607E+02  0.17770000000E+01 0.  1.
         15    1    1    2    0    0 -0.16568492645E+01  0.19986313627E+01  0.77270358269E+01  0.83429304491E+01  0.17770000000E+01 0. -1.
</event>
<event>
 6   1  0.1826851E-04  0.5041463E+03  0.7546771E-02  0.9390579E-01
        -11   -1    0    0    0    0  0.00000000000E+00  0.00000000000E+00  0.50000000000E+03  0.50000000000E+03  0.00000000000E+00 0.  1.
         11   -1    0    0    0    0 -0.00000000000E+00 -0.00000000000E+00 -0.50000000000E+03  0.50000000000E+03  0.00000000000E+00 0. -1.
        -11    1    1    2    0    0 -0.77892600506E+01 -0.35345044154E+01  0.49577987139E+03  0.49585365398E+03  0.00000000000E+00 0.  1.
         11    1    1    2    0    0  0.32242286661E+01 -0.17973442169E+02 -0.46728154074E+03  0.46763819197E+03  0.00000000000E+00 0. -1.
        -15    1    1    2    0    0  0.17225010182E+01  0.11809235636E+02 -0.19106654015E+02  0.22597500143E+02  0.17770000000E+01 0.  1.
         15    1    1    2    0    0  0.28425303662E+01  0.96987109489E+01 -0.93916766374E+01  0.13910653903E+02  0.17770000000E+01 0. -1.
</event>
<event>
 6   1  0.1826851E-04  0.4919700E+03  0.7546771E-02  0.9417959E-01
        -11   -1    0    0    0    0  0.00000000000E+00  0.00000000000E+00  0.50000000000E+03  0.50000000000E+03  0.00000000000E+00 0. -1.
         11   -1    0    0    0    0 -0.00000000000E+00 -0.00000000000E+00 -0.50000000000E+03  0.50000000000E+03  0.00000000000E+00 0.  1.
        -11    1    1    2    0    0 -0.90808225061E+01 -0.27346505729E+01  0.49546660006E+03  0.49555735433E+03  0.00000000000E+00 0. -1.
         11    1    1    2    0    0  0.55321597950E+01 -0.98813629842E+01 -0.48836435198E+03  0.48849563602E+03  0.00000000000E+00 0.  1.
        -15    1    1    2    0    0  0.41023267010E+01  0.73020324752E+01 -0.34220842753E+01  0.92204746309E+01  0.17770000000E+01 0.  1.
         15    1    1    2    0    0 -0.55366399000E+00  0.53139810819E+01 -0.36801638092E+01  0.67265350229E+01  0.17770000000E+01 0. -1.
</event>
<event>
 6   1  0.1826851E-04  0.5000688E+03  0.7546771E-02  0.9399656E-01
        -11   -1    0    0    0    0  0.00000000000E+00  0.00000000000E+00  0.50000000000E+03  0.50000000000E+03  0.00000000000E+00 0.  1.
         11   -1    0    0    0    0 -0.00000000000E+00 -0.00000000000E+00 -0.50000000000E+03  0.50000000000E+03  0.00000000000E+00 0. -1.
        -11    1    1    2    0    0  0.44500575068E+01 -0.38676464708E+02  0.49841300948E+03  0.49993119522E+03  0.00000000000E+00 0.  1.
         11    1    1    2    0    0 -0.24486855568E+01  0.30255486050E+02 -0.41406762163E+03  0.41517873955E+03  0.00000000000E+00 0. -1.
        -15    1    1    2    0    0  0.16749373467E+00  0.28688875028E+01 -0.28817729363E+02  0.29015130955E+02  0.17770000000E+01 0.  1.
         15    1    1    2    0    0 -0.21688656846E+01  0.55520911558E+01 -0.55527658488E+02  0.55874934279E+02  0.17770000000E+01 0.  1.
</event>
<event>
 6   1  0.1826851E-04  0.5002817E+03  0.7546771E-02  0.9399180E-01
        -11   -1    0    0    0    0  0.00000000000E+00  0.00000000000E+00  0.50000000000E+03  0.50000000000E+03  0.00000000000E+00 0.  1.
         11   -1    0    0    0    0 -0.00000000000E+00 -0.00000000000E+00 -0.50000000000E+03  0.50000000000E+03  0.00000000000E+00 0. -1.
        -11    1    1    2    0    0 -0.10248904637E+01 -0.20016085736E+02  0.43112161879E+03  0.43158723832E+03  0.00000000000E+00 0.  1.
         11    1    1    2    0    0  0.43550054260E+01  0.20447527097E+02 -0.49928076277E+03  0.49971826814E+03  0.00000000000E+00 0. -1.
        -15    1    1    2    0    0 -0.16078360835E+01  0.73273317105E+00  0.60668304298E+02  0.60720037139E+02  0.17770000000E+01 0.  1.
         15    1    1    2    0    0 -0.17222788788E+01 -0.11641745317E+01  0.74908396776E+01  0.79744564048E+01  0.17770000000E+01 0.  1.
</event>
<event>
 6   1  0.1826851E-04  0.5005176E+03  0.7546771E-02  0.9398652E-01
        -11   -1    0    0    0    0  0.00000000000E+00  0.00000000000E+00  0.50000000000E+03  0.50000000000E+03  0.00000000000E+00 0. -1.
         11   -1    0    0    0    0 -0.00000000000E+00 -0.00000000000E+00 -0.50000000000E+03  0.50000000000E+03  0.00000000000E+00 0.  1.
        -11    1    1    2    0    0  0.20962834307E+02  0.30770670417E+01  0.49903281968E+03  0.49948239597E+03  0.00000000000E+00 0. -1.
         11    1    1    2    0    0  0.28242130420E+01  0.49079879393E+01 -0.20215699941E+03  0.20223628986E+03  0.00000000000E+00 0.  1.
        -15    1    1    2    0    0 -0.24206013778E+01  0.34551176081E+01 -0.53307882324E+02  0.53504067094E+02  0.17770000000E+01 0.  1.
         15    1    1    2    0    0 -0.21366445972E+02 -0.11440172589E+02 -0.24356793795E+03  0.24477724708E+03  0.17770000000E+01 0. -1.
</event>
<event>
 6   1  0.1826851E-04  0.4888462E+03  0.7546771E-02  0.9425119E-01
        -11   -1    0    0    0    0  0.00000000000E+00  0.00000000000E+00  0.50000000000E+03  0.50000000000E+03  0.00000000000E+00 0. -1.
         11   -1    0    0    0    0 -0.00000000000E+00 -0.00000000000E+00 -0.50000000000E+03  0.50000000000E+03  0.00000000000E+00 0. -1.
        -11    1    1    2    0    0  0.82065170905E+01  0.95359318085E+01  0.48632857973E+03  0.48649128294E+03  0.00000000000E+00 0. -1.
         11    1    1    2    0    0  0.21013566083E+01  0.69283751058E+01 -0.49135372992E+03  0.49140706750E+03  0.00000000000E+00 0. -1.
        -15    1    1    2    0    0 -0.57010011242E+01 -0.26558670982E+01  0.33426894959E+01  0.73407319749E+01  0.17770000000E+01 0.  1.
         15    1    1    2    0    0 -0.46068725746E+01 -0.13808439816E+02  0.16824606961E+01  0.14760917589E+02  0.17770000000E+01 0. -1.
</event>
<event>
 6   1  0.1826851E-04  0.5062093E+03  0.7546771E-02  0.9386022E-01
        -11   -1    0    0    0    0  0.00000000000E+00  0.00000000000E+00  0.50000000000E+03  0.50000000000E+03  0.00000000000E+00 0.  1.
         11   -1    0    0    0    0 -0.00000000000E+00 -0.00000000000E+00 -0.50000000000E+03  0.50000000000E+03  0.00000000000E+00 0. -1.
        -11    1    1    2    0    0  0.19860015934E+02 -0.11470549186E+02  0.43606018552E+03  0.43666288957E+03  0.00000000000E+00 0.  1.
         11    1    1    2    0    0 -0.13905751605E+01 -0.12346491336E+02 -0.49363438108E+03  0.49379071653E+03  0.00000000000E+00 0. -1.
        -15    1    1    2    0    0 -0.15855401690E+02  0.22588560025E+02  0.59524025188E+02  0.65634625849E+02  0.17770000000E+01 0.  1.
         15    1    1    2    0    0 -0.26140390836E+01  0.12284804960E+01 -0.19498296350E+01  0.39117680485E+01  0.17770000000E+01 0. -1.
</event>
<event>
 6   1  0.1826851E-04  0.5038828E+03  0.7546771E-02  0.9391163E-01
        -11   -1    0    0    0    0  0.00000000000E+00  0.00000000000E+00  0.50000000000E+03  0.50000000000E+03  0.00000000000E+00 0. -1.
         11   -1    0    0    0    0 -0.00000000000E+00 -0.00000000000E+00 -0.50000000000E+03  0.50000000000E+03  0.00000000000E+00 0. -1.
        -11    1    1    2    0    0  0.98235619680E+01  0.42452462041E+01  0.49600178688E+03  0.49611722110E+03  0.00000000000E+00 0. -1.
         11    1    1    2    0    0 -0.30197102338E+01  0.98376159879E+01 -0.47958819017E+03  0.47969858191E+03  0.00000000000E+00 0. -1.
        -15    1    1    2    0    0 -0.39307312938E+01 -0.13299850215E+02 -0.14797524702E+02  0.20358318460E+02  0.17770000000E+01 0.  1.
         15    1    1    2    0    0 -0.28731204404E+01 -0.78301197709E+00 -0.16160720065E+01  0.38258785333E+01  0.17770000000E+01 0. -1.
</event>
<event>
 6   1  0.1826851E-04  0.5000436E+03  0.7546771E-02  0.9399712E-01
        -11   -1    0    0    0    0  0.00000000000E+00  0.00000000000E+00  0.50000000000E+03  0.50000000000E+03  0.00000000000E+00 0. -1.
         11   -1    0    0    0    0 -0.00000000000E+00 -0.00000000000E+00 -0.50000000000E+03  0.50000000000E+03  0.00000000000E+00 0. -1.
        -11    1    1    2    0    0 -0.59298899958E+01  0.57806309788E+01  0.29809139627E+03  0.29820640473E+03  0.00000000000E+00 0. -1.
         11    1    1    2    0    0  0.53012400989E+01 -0.10068978754E+02 -0.49982689521E+03  0.49995641076E+03  0.00000000000E+00 0. -1.
        -15    1    1    2    0    0 -0.88556162953E+00  0.24071674155E+01  0.72815493390E+02  0.72882319399E+02  0.17770000000E+01 0. -1.
         15    1    1    2    0    0  0.15142115264E+01  0.18811803595E+01  0.12892000555E+03  0.12895486512E+03  0.17770000000E+01 0. -1.
</event>
<event>
 6   1  0.1826851E-04  0.5033251E+03  0.7546771E-02  0.9392400E-01
        -11   -1    0    0    0    0  0.00000000000E+00  0.00000000000E+00  0.50000000000E+03  0.50000000000E+03  0.00000000000E+00 0. -1.
         11   -1    0    0    0    0 -0.00000000000E+00 -0.00000000000E+00 -0.50000000000E+03  0.50000000000E+03  0.00000000000E+00 0.  1.
        -11    1    1    2    0    0 -0.10480203935E+02 -0.88710712053E+01  0.49648511574E+03  0.49667494474E+03  0.00000000000E+00 0. -1.
         11    1    1    2    0    0 -0.59893396312E+01  0.29833395107E+01 -0.47159507470E+03  0.47164254153E+03  0.00000000000E+00 0.  1.
        -15    1    1    2    0    0  0.16455469325E+02  0.41952982739E+01 -0.20774968118E+02  0.26891263035E+02  0.17770000000E+01 0. -1.
         15    1    1    2    0    0  0.14074241109E-01  0.16924334207E+01 -0.41150729314E+01  0.47912506925E+01  0.17770000000E+01 0.  1.
</event>
<event>
 6   1  0.1826851E-04  0.5183730E+03  0.7546771E-02  0.9359612E-01
        -11   -1    0    0    0    0  0.00000000000E+00  0.00000000000E+00  0.50000000000E+03  0.50000000000E+03  0.00000000000E+00 0.  1.
         11   -1    0    0    0    0 -0.00000000000E+00 -0.00000000000E+00 -0.50000000000E+03  0.50000000000E+03  0.00000000000E+00 0. -1.
        -11    1    1    2    0    0 -0.13121763536E+02  0.17111367871E+01  0.45494836760E+03  0.45514077586E+03  0.00000000000E+00 0.  1.
         11    1    1    2    0    0  0.82682164592E+01 -0.10401735409E+02 -0.48144363279E+03  0.48162696256E+03  0.00000000000E+00 0. -1.
        -15    1    1    2    0    0  0.13721813469E+02  0.27320440251E+02  0.13462826715E+01  0.30653952868E+02  0.17770000000E+01 0. -1.
         15    1    1    2    0    0 -0.88682663918E+01 -0.18629841629E+02  0.25148982518E+02  0.32578308713E+02  0.17770000000E+01 0.  1.
</event>
<event>
 6   1  0.1826851E-04  0.5010603E+03  0.7546771E-02  0.9397440E-01
        -11   -1    0    0    0    0  0.00000000000E+00  0.00000000000E+00  0.50000000000E+03  0.50000000000E+03  0.00000000000E+00 0.  1.
         11   -1    0    0    0    0 -0.00000000000E+00 -0.00000000000E+00 -0.50000000000E+03  0.50000000000E+03  0.00000000000E+00 0. -1.
        -11    1    1    2    0    0 -0.15167023551E+02 -0.39266599323E+00  0.49870896107E+03  0.49893969640E+03  0.00000000000E+00 0.  1.
         11    1    1    2    0    0 -0.58302098443E+01 -0.71492759345E+01 -0.37955763918E+03  0.37966973142E+03  0.00000000000E+00 0. -1.
        -15    1    1    2    0    0  0.12219217626E+02  0.28632617317E+01 -0.54514189326E+02  0.55968402818E+02  0.17770000000E+01 0.  1.
         15    1    1    2    0    0  0.87780157696E+01  0.46786801961E+01 -0.64637132564E+02  0.65422169365E+02  0.17770000000E+01 0. -1.
</event>
<event>
 6   1  0.1826851E-04  0.5003455E+03  0.7546771E-02  0.9399037E-01
        -11   -1    0    0    0    0  0.00000000000E+00  0.00000000000E+00  0.50000000000E+03  0.50000000000E+03  0.00000000000E+00 0. -1.
         11   -1    0    0    0    0 -0.00000000000E+00 -0.00000000000E+00 -0.50000000000E+03  0.50000000000E+03  0.00000000000E+00 0.  1.
        -11    1    1    2    0    0 -0.39161840153E+02 -0.27715631043E+02  0.49734575280E+03  0.49965448438E+03  0.00000000000E+00 0. -1.
         11    1    1    2    0    0  0.75805107134E+01 -0.19214913596E+01 -0.79283429785E+02  0.79668177525E+02  0.00000000000E+00 0.  1.
        -15    1    1    2    0    0  0.27265789141E+02  0.15695400749E+02 -0.25122157400E+03  0.25319005872E+03  0.17770000000E+01 0. -1.
         15    1    1    2    0    0  0.43155402986E+01  0.13941721654E+02 -0.16684074902E+03  0.16748727937E+03  0.17770000000E+01 0.  1.
</event>
<event>
 6   1  0.1826851E-04  0.5151989E+03  0.7546771E-02  0.9366429E-01
        -11   -1    0    0    0    0  0.00000000000E+00  0.00000000000E+00  0.50000000000E+03  0.50000000000E+03  0.00000000000E+00 0.  1.
         11   -1    0    0    0    0 -0.00000000000E+00 -0.00000000000E+00 -0.50000000000E+03  0.50000000000E+03  0.00000000000E+00 0. -1.
        -11    1    1    2    0    0  0.54190413560E+02  0.37982719496E+02  0.37964481240E+03  0.38536926640E+03  0.00000000000E+00 0.  1.
         11    1    1    2    0    0 -0.37927147607E+01  0.70179456398E+01 -0.48473543826E+03  0.48480107399E+03  0.00000000000E+00 0. -1.
        -15    1    1    2    0    0 -0.41280961686E+01  0.43315169906E+01  0.20952209223E+02  0.21862205235E+02  0.17770000000E+01 0.  1.
         15    1    1    2    0    0 -0.46269602631E+02 -0.49332182126E+02  0.84138416627E+02  0.10796745437E+03  0.17770000000E+01 0. -1.
</event>
<event>
 6   1  0.1826851E-04  0.5010767E+03  0.7546771E-02  0.9397404E-01
        -11   -1    0    0    0    0  0.00000000000E+00  0.00000000000E+00  0.50000000000E+03  0.50000000000E+03  0.00000000000E+00 0.  1.
         11   -1    0    0    0    0 -0.00000000000E+00 -0.00000000000E+00 -0.50000000000E+03  0.50000000000E+03  0.00000000000E+00 0. -1.
        -11    1    1    2    0    0  0.13383515289E+02 -0.59275514774E+01  0.31542426576E+03  0.31576371194E+03  0.00000000000E+00 0.  1.
         11    1    1    2    0    0 -0.14459112149E+02 -0.16472266850E+02 -0.49844163977E+03  0.49892331049E+03  0.00000000000E+00 0. -1.
        -15    1    1    2    0    0 -0.67308088186E+01  0.15753061594E+02  0.13997982566E+03  0.14103535747E+03  0.17770000000E+01 0.  1.
         15    1    1    2    0    0  0.78064056789E+01  0.66467567328E+01  0.43037548352E+02  0.44277620101E+02  0.17770000000E+01 0. -1.
</event>
<event>
 6   1  0.1826851E-04  0.5009266E+03  0.7546771E-02  0.9397739E-01
        -11   -1    0    0    0    0  0.00000000000E+00  0.00000000000E+00  0.50000000000E+03  0.50000000000E+03  0.00000000000E+00 0.  1.
         11   -1    0    0    0    0 -0.00000000000E+00 -0.00000000000E+00 -0.50000000000E+03  0.50000000000E+03  0.00000000000E+00 0. -1.
        -11    1    1    2    0    0  0.11361388007E+02  0.21534530923E+02  0.49847908379E+03  0.49907335546E+03  0.00000000000E+00 0.  1.
         11    1    1    2    0    0 -0.65589004750E+01  0.34411636546E+01 -0.25969471472E+03  0.25980031877E+03  0.00000000000E+00 0. -1.
        -15    1    1    2    0    0 -0.55048299920E+01 -0.89630496791E+01 -0.32359004393E+02  0.34072016481E+02  0.17770000000E+01 0.  1.
         15    1    1    2    0    0  0.70234245971E+00 -0.16012644899E+02 -0.20642536468E+03  0.20705430928E+03  0.17770000000E+01 0. -1.
</event>
<event>
 6   1  0.1826851E-04  0.5005465E+03  0.7546771E-02  0.9398588E-01
        -11   -1    0    0    0    0  0.00000000000E+00  0.00000000000E+00  0.50000000000E+03  0.50000000000E+03  0.00000000000E+00 0.  1.
         11   -1    0    0    0    0 -0.00000000000E+00 -0.00000000000E+00 -0.50000000000E+03  0.50000000000E+03  0.00000000000E+00 0.  1.
        -11    1    1    2    0    0  0.24818410342E+01  0.24275407386E+02  0.34991075389E+03  0.35076058876E+03  0.00000000000E+00 0.  1.
         11    1    1    2    0    0  0.28427689862E+01 -0.16222016931E+02 -0.49918191412E+03  0.49945351991E+03  0.00000000000E+00 0.  1.
        -15    1    1    2    0    0 -0.52373098997E+01 -0.22567230492E+01  0.55951066720E+02  0.56269012876E+02  0.17770000000E+01 0. -1.
         15    1    1    2    0    0 -0.87300120622E-01 -0.57966674066E+01  0.93320093503E+02  0.93516878449E+02  0.17770000000E+01 0.  1.
</event>
<event>
 6   1  0.1826851E-04  0.5008222E+03  0.7546771E-02  0.9397972E-01
        -11   -1    0    0    0    0  0.00000000000E+00  0.00000000000E+00  0.50000000000E+03  0.50000000000E+03  0.00000000000E+00 0.  1.
         11   -1    0    0    0    0 -0.00000000000E+00 -0.00000000000E+00 -0.50000000000E+03  0.50000000000E+03  0.00000000000E+00 0.  1.
        -11    1    1    2    0    0 -0.40569171975E+02  0.28859653400E+02  0.26874401539E+03  0.27331681821E+03  0.00000000000E+00 0.  1.
         11    1    1    2    0    0  0.46324937528E+02 -0.39106736035E+02 -0.49548273523E+03  0.49917780154E+03  0.00000000000E+00 0.  1.
        -15    1    1    2    0    0 -0.26807945641E+01 -0.33283464369E+01  0.57130911844E+02  0.57318089349E+02  0.17770000000E+01 0.  1.
         15    1    1    2    0    0 -0.30749709885E+01  0.13575429071E+02  0.16960780800E+03  0.17018729090E+03  0.17770000000E+01 0. -1.
</event>
<event>
 6   1  0.1826851E-04  0.5013797E+03  0.7546771E-02  0.9396728E-01
        -11   -1    0    0    0    0  0.00000000000E+00  0.00000000000E+00  0.50000000000E+03  0.50000000000E+03  0.00000000000E+00 0. -1.
         11   -1    0    0    0    0 -0.00000000000E+00 -0.00000000000E+00 -0.50000000000E+03  0.50000000000E+03  0.00000000000E+00 0.  1.
        -11    1    1    2    0    0  0.47813351582E+01 -0.94462231007E+01  0.45504491018E+03  0.45516805971E+03  0.00000000000E+00 0. -1.
         11    1    1    2    0    0  0.14019918995E+01  0.72953401645E+01 -0.49856495872E+03  0.49862030207E+03  0.00000000000E+00 0.  1.
        -15    1    1    2    0    0 -0.58589826785E+01  0.29648362845E+01  0.74550011072E+01  0.10092210002E+02  0.17770000000E+01 0. -1.
         15    1    1    2    0    0 -0.32434437912E+00 -0.81395334837E+00  0.36065047437E+02  0.36119428221E+02  0.17770000000E+01 0.  1.
</event>
<event>
 6   1  0.1826851E-04  0.5021446E+03  0.7546771E-02  0.9395024E-01
        -11   -1    0    0    0    0  0.00000000000E+00  0.00000000000E+00  0.50000000000E+03  0.50000000000E+03  0.00000000000E+00 0. -1.
         11   -1    0    0    0    0 -0.00000000000E+00 -0.00000000000E+00 -0.50000000000E+03  0.50000000000E+03  0.00000000000E+00 0.  1.
        -11    1    1    2    0    0  0.28813602827E+02 -0.58274710960E+02  0.24973845431E+03  0.25806096413E+03  0.00000000000E+00 0. -1.
         11    1    1    2    0    0 -0.33925504552E+02  0.55303739675E+02 -0.49360971390E+03  0.49785539381E+03  0.00000000000E+00 0.  1.
        -15    1    1    2    0    0 -0.35213819744E+00 -0.19131090795E+01  0.60102174341E+02  0.60159895921E+02  0.17770000000E+01 0.  1.
         15    1    1    2    0    0  0.54640399225E+01  0.48840803642E+01  0.18376908525E+03  0.18392374614E+03  0.17770000000E+01 0. -1.
</event>
<event>
 6   1  0.1826851E-04  0.5001276E+03  0.7546771E-02  0.9399524E-01
        -11   -1    0    0    0    0  0.00000000000E+00  0.00000000000E+00  0.50000000000E+03  0.50000000000E+03  0.00000000000E+00 0. -1.
         11   -1    0    0    0    0 -0.00000000000E+00 -0.00000000000E+00 -0.50000000000E+03  0.50000000000E+03  0.00000000000E+00 0. -1.
        -11    1    1    2    0    0 -0.15528836852E+02  0.12573756296E+02  0.49947286746E+03  0.49987237316E+03  0.00000000000E+00 0. -1.
         11    1    1    2    0    0  0.60661979243E+01 -0.11865583993E+02 -0.27086555620E+03  0.27119317907E+03  0.00000000000E+00 0. -1.
        -15    1    1    2    0    0  0.28513038951E+01  0.46357940812E+00 -0.14483489478E+03  0.14487459858E+03  0.17770000000E+01 0.  1.
         15    1    1    2    0    0  0.66113350330E+01 -0.11717517117E+01 -0.83772416480E+02  0.84059849184E+02  0.17770000000E+01 0.  1.
</event>
<event>
 6   1  0.1826851E-04  0.5015076E+03  0.7546771E-02  0.9396443E-01
        -11   -1    0    0    0    0  0.00000000000E+00  0.00000000000E+00  0.50000000000E+03  0.50000000000E+03  0.00000000000E+00 0.  1.
         11   -1    0    0    0    0 -0.00000000000E+00 -0.00000000000E+00 -0.50000000000E+03  0.50000000000E+03  0.00000000000E+00 0. -1.
        -11    1    1    2    0    0 -0.15660920429E+02  0.58540622691E+01  0.17239842653E+03  0.17320725142E+03  0.00000000000E+00 0.  1.
         11    1    1    2    0    0  0.97324792333E+01 -0.17003294677E+01 -0.49839446269E+03  0.49849237979E+03  0.00000000000E+00 0. -1.
        -15    1    1    2    0    0 -0.16170600391E+02 -0.18568837167E+01  0.15329032124E+03  0.15416230619E+03  0.17770000000E+01 0.  1.
         15    1    1    2    0    0  0.22099041586E+02 -0.22968490846E+01  0.17270571491E+03  0.17413806260E+03  0.17770000000E+01 0. -1.
</event>
<event>
 6   1  0.1826851E-04  0.5064570E+03  0.7546771E-02  0.9385477E-01
        -11   -1    0    0    0    0  0.00000000000E+00  0.00000000000E+00  0.50000000000E+03  0.50000000000E+03  0.00000000000E+00 0.  1.
         11   -1    0    0    0    0 -0.00000000000E+00 -0.00000000000E+00 -0.50000000000E+03  0.50000000000E+03  0.00000000000E+00 0. -1.
        -11    1    1    2    0    0  0.45405181506E+01  0.22669975471E+02  0.39695920933E+03  0.39763193780E+03  0.00000000000E+00 0.  1.
         11    1    1    2    0    0 -0.19739759707E+02  0.72680622120E+01 -0.49309457346E+03  0.49354304900E+03  0.00000000000E+00 0. -1.
        -15    1    1    2    0    0 -0.69209876196E+01 -0.18822745078E+02  0.18585573242E+02  0.27400311379E+02  0.17770000000E+01 0.  1.
         15    1    1    2    0    0  0.22120229176E+02 -0.11115292605E+02  0.77549790895E+02  0.81424701813E+02  0.17770000000E+01 0. -1.
</event>
<event>
 6   1  0.1826851E-04  0.5074185E+03  0.7546771E-02  0.9383362E-01
        -11   -1    0    0    0    0  0.00000000000E+00  0.00000000000E+00  0.50000000000E+03  0.50000000000E+03  0.00000000000E+00 0. -1.
         11   -1    0    0    0    0 -0.00000000000E+00 -0.00000000000E+00 -0.50000000000E+03  0.50000000000E+03  0.00000000000E+00 0.  1.
        -11    1    1    2    0    0 -0.36209855063E+00 -0.14312164583E+02  0.49237340889E+03  0.49258150894E+03  0.00000000000E+00 0. -1.
         11    1    1    2    0    0 -0.29622587717E+00 -0.85709564845E+01 -0.47565635934E+03  0.47573366627E+03  0.00000000000E+00 0.  1.
        -15    1    1    2    0    0 -0.45446234338E+01  0.21618698000E+01 -0.46803143306E+01  0.70986163736E+01  0.17770000000E+01 0.  1.
         15    1    1    2    0    0  0.52029478616E+01  0.20721251268E+02 -0.12036735218E+02  0.24586208416E+02  0.17770000000E+01 0. -1.
</event>
<event>
 6   1  0.1826851E-04  0.5014444E+03  0.7546771E-02  0.9396583E-01
        -11   -1    0    0    0    0  0.00000000000E+00  0.00000000000E+00  0.50000000000E+03  0.50000000000E+03  0.00000000000E+00 0.  1.
         11   -1    0    0    0    0 -0.00000000000E+00 -0.00000000000E+00 -0.50000000000E+03  0.50000000000E+03  0.00000000000E+00 0.  1.
        -11    1    1    2    0    0 -0.35216533566E+01  0.10788851076E+02  0.45100820401E+03  0.45115097410E+03  0.00000000000E+00 0.  1.
         11    1    1    2    0    0  0.10783670455E+02 -0.30164535603E+01 -0.49842980825E+03  0.49855557392E+03  0.00000000000E+00 0.  1.
        -15    1    1    2    0    0 -0.23848765057E+01 -0.98301368411E+01  0.22190824711E+02  0.24452191243E+02  0.17770000000E+01 0.  1.
         15    1    1    2    0    0 -0.48771405929E+01  0.20577393251E+01  0.25230779526E+02  0.25841260727E+02  0.17770000000E+01 0. -1.
</event>
<event>
 6   1  0.1826851E-04  0.5005853E+03  0.7546771E-02  0.9398501E-01
        -11   -1    0    0    0    0  0.00000000000E+00  0.00000000000E+00  0.50000000000E+03  0.50000000000E+03  0.00000000000E+00 0.  1.
         11   -1    0    0    0    0 -0.00000000000E+00 -0.00000000000E+00 -0.50000000000E+03  0.50000000000E+03  0.00000000000E+00 0. -1.
        -11    1    1    2    0    0  0.20188949400E+01 -0.64185615942E+01  0.20383361832E+03  0.20394464403E+03  0.00000000000E+00 0.  1.
         11    1    1    2    0    0  0.36199990201E+01 -0.16090548366E+02 -0.49914228261E+03  0.49941468584E+03  0.00000000000E+00 0. -1.
        -15    1    1    2    0    0  0.25144883484E+01  0.62777878538E+01  0.34918689720E+02  0.35611878534E+02  0.17770000000E+01 0. -1.
         15    1    1    2    0    0 -0.81533823085E+01  0.16231322106E+02  0.26038997457E+03  0.26102879160E+03  0.17770000000E+01 0.  1.
</event>
<event>
 6   1  0.1826851E-04  0.5127351E+03  0.7546771E-02  0.9371756E-01
        -11   -1    0    0    0    0  0.00000000000E+00  0.00000000000E+00  0.50000000000E+03  0.50000000000E+03  0.00000000000E+00 0. -1.
         11   -1    0    0    0    0 -0.00000000000E+00 -0.00000000000E+00 -0.50000000000E+03  0.50000000000E+03  0.00000000000E+00 0. -1.
        -11    1    1    2    0    0 -0.39111506374E+02 -0.18405572875E+02  0.42140227889E+03  0.42361345080E+03  0.00000000000E+00 0. -1.
         11    1    1    2    0    0 -0.10507411534E+02 -0.13064084737E+01 -0.48714985630E+03  0.48726491244E+03  0.00000000000E+00 0. -1.
        -15    1    1    2    0    0  0.70924302389E+01  0.15431775370E+02  0.14810470505E+02  0.22604203666E+02  0.17770000000E+01 0. -1.
         15    1    1    2    0    0  0.42526487669E+02  0.42802059782E+01  0.50937106903E+02  0.66517433094E+02  0.17770000000E+01 0.  1.
</event>
<event>
 6   1  0.1826851E-04  0.5008565E+03  0.7546771E-02  0.9397895E-01
        -11   -1    0    0    0    0  0.00000000000E+00  0.00000000000E+00  0.50000000000E+03  0.50000000000E+03  0.00000000000E+00 0.  1.
         11   -1    0    0    0    0 -0.00000000000E+00 -0.00000000000E+00 -0.50000000000E+03  0.50000000000E+03  0.00000000000E+00 0.  1.
        -11    1    1    2    0    0 -0.27481217654E+00  0.10949486564E+02  0.49902334482E+03  0.49914353191E+03  0.00000000000E+00 0.  1.
         11    1    1    2    0    0 -0.64596944072E+01  0.18047605863E+01 -0.37419883029E+03  0.37425893363E+03  0.00000000000E+00 0.  1.
        -15    1    1    2    0    0  0.93343517084E+01 -0.33964880743E+01 -0.42422318189E+02  0.43605929214E+02  0.17770000000E+01 0.  1.
         15    1    1    2    0    0 -0.25998451246E+01 -0.93577590760E+01 -0.82402196337E+02  0.82991605237E+02  0.17770000000E+01 0. -1.
</event>
<event>
 6   1  0.1826851E-04  0.5001837E+03  0.7546771E-02  0.9399399E-01
        -11   -1    0    0    0    0  0.00000000000E+00  0.00000000000E+00  0.50000000000E+03  0.50000000000E+03  0.00000000000E+00 0.  1.
         11   -1    0    0    0    0 -0.00000000000E+00 -0.00000000000E+00 -0.50000000000E+03  0.50000000000E+03  0.00000000000E+00 0. -1.
        -11    1    1    2    0    0  0.12271985031E+01  0.21776214885E+01  0.12446543590E+02  0.12695058048E+02  0.00000000000E+00 0.  1.
         11    1    1    2    0    0  0.29924279565E+01 -0.89371977414E+01 -0.49972745873E+03  0.49981632740E+03  0.00000000000E+00 0. -1.
        -15    1    1    2    0    0  0.87191436639E+00 -0.11618594776E+01  0.24209097662E+02  0.24317653890E+02  0.17770000000E+01 0. -1.
         15    1    1    2    0    0 -0.50915408260E+01  0.79214357305E+01  0.46307181748E+03  0.46317096066E+03  0.17770000000E+01 0.  1.
</event>
<event>
 6   1  0.1826851E-04  0.5003429E+03  0.7546771E-02  0.9399043E-01
        -11   -1    0    0    0    0  0.00000000000E+00  0.00000000000E+00  0.50000000000E+03  0.50000000000E+03  0.00000000000E+00 0. -1.
         11   -1    0    0    0    0 -0.00000000000E+00 -0.00000000000E+00 -0.50000000000E+03  0.50000000000E+03  0.00000000000E+00 0. -1.
        -11    1    1    2    0    0  0.11272966182E+01  0.29885458182E+02  0.49876122924E+03  0.49965705759E+03  0.00000000000E+00 0. -1.
         11    1    1    2    0    0 -0.18523981904E+01  0.52473673673E+00 -0.11629890486E+03  0.11631483998E+03  0.00000000000E+00 0. -1.
        -15    1    1    2    0    0  0.31175031876E+01  0.46830378844E+00 -0.38581615593E+02  0.38750960315E+02  0.17770000000E+01 0.  1.
         15    1    1    2    0    0 -0.23924016154E+01 -0.30878498707E+02 -0.34388070878E+03  0.34527714212E+03  0.17770000000E+01 0. -1.
</event>
<event>
 6   1  0.1826851E-04  0.5003691E+03  0.7546771E-02  0.9398984E-01
        -11   -1    0    0    0    0  0.00000000000E+00  0.00000000000E+00  0.50000000000E+03  0.50000000000E+03  0.00000000000E+00 0. -1.
         11   -1    0    0    0    0 -0.00000000000E+00 -0.00000000000E+00 -0.50000000000E+03  0.50000000000E+03  0.00000000000E+00 0.  1.
        -11    1    1    2    0    0  0.11255299934E+02 -0.13492927291E+01  0.31589788649E+03  0.31610121331E+03  0.00000000000E+00 0. -1.
         11    1    1    2    0    0 -0.13080572894E+02  0.35450948766E+00 -0.49945952121E+03  0.49963090416E+03  0.00000000000E+00 0.  1.
        -15    1    1    2    0    0  0.71223571989E+01  0.37152894064E+01  0.61462560633E+02  0.62010768710E+02  0.17770000000E+01 0. -1.
         15    1    1    2    0    0 -0.52970842397E+01 -0.27205061649E+01  0.12209907409E+03  0.12225711382E+03  0.17770000000E+01 0.  1.
</event>
<event>
 6   1  0.1826851E-04  0.5011711E+03  0.7546771E-02  0.9397193E-01
        -11   -1    0    0    0    0  0.00000000000E+00  0.00000000000E+00  0.50000000000E+03  0.50000000000E+03  0.00000000000E+00 0. -1.
         11   -1    0    0    0    0 -0.00000000000E+00 -0.00000000000E+00 -0.50000000000E+03  0.50000000000E+03  0.00000000000E+00 0. -1.
        -11    1    1    2    0    0  0.99880227663E+01 -0.24357678583E+01  0.21287882919E+02  0.23640379080E+02  0.00000000000E+00 0. -1.
         11    1    1    2    0    0 -0.51754372390E+01  0.11083829255E+02 -0.49867887088E+03  0.49882888116E+03  0.00000000000E+00 0. -1.
        -15    1    1    2    0    0 -0.86101515701E+00 -0.34426392401E+01  0.27006747694E+03  0.27009663630E+03  0.17770000000E+01 0. -1.
         15    1    1    2    0    0 -0.39515703704E+01 -0.52054221562E+01  0.20732351102E+03  0.20743410346E+03  0.17770000000E+01 0.  1.
</event>
<event>
 6   1  0.1826851E-04  0.4898293E+03  0.7546771E-02  0.9422860E-01
        -11   -1    0    0    0    0  0.00000000000E+00  0.00000000000E+00  0.50000000000E+03  0.50000000000E+03  0.00000000000E+00 0.  1.
         11   -1    0    0    0    0 -0.00000000000E+00 -0.00000000000E+00 -0.50000000000E+03  0.50000000000E+03  0.00000000000E+00 0. -1.
        -11    1    1    2    0    0 -0.10130234498E+02 -0.16258162541E+02  0.74250200066E+01  0.20544595939E+02  0.00000000000E+00 0.  1.
         11    1    1    2    0    0 -0.11609965217E+01 -0.21460469976E+02 -0.49219695789E+03  0.49266595686E+03  0.00000000000E+00 0. -1.
        -15    1    1    2    0    0  0.12523427371E+02  0.26875916661E+02  0.42255819564E+03  0.42360091780E+03  0.17770000000E+01 0.  1.
         15    1    1    2    0    0 -0.12321963506E+01  0.10842715855E+02  0.62213742251E+02  0.63188529409E+02  0.17770000000E+01 0. -1.
</event>
<event>
 6   1  0.1826851E-04  0.5024074E+03  0.7546771E-02  0.9394439E-01
        -11   -1    0    0    0    0  0.00000000000E+00  0.00000000000E+00  0.50000000000E+03  0.50000000000E+03  0.00000000000E+00 0. -1.
         11   -1    0    0    0    0 -0.00000000000E+00 -0.00000000000E+00 -0.50000000000E+03  0.50000000000E+03  0.00000000000E+00 0. -1.
        -11    1    1    2    0    0 -0.19225127761E+02 -0.12890011178E+02  0.49705391213E+03  0.49759255369E+03  0.00000000000E+00 0. -1.
         11    1    1    2    0    0 -0.74056578762E+01  0.67785408469E+01 -0.41893008468E+03  0.41905036480E+03  0.00000000000E+00 0. -1.
        -15    1    1    2    0    0  0.22200302881E+02  0.64592629601E+01 -0.71629785884E+02  0.75289836504E+02  0.17770000000E+01 0. -1.
         15    1    1    2    0    0  0.44304827558E+01 -0.34779262939E+00 -0.64940415654E+01  0.80672450078E+01  0.17770000000E+01 0.  1.
</event>
<event>
 6   1  0.1826851E-04  0.5035261E+03  0.7546771E-02  0.9391954E-01
        -11   -1    0    0    0    0  0.00000000000E+00  0.00000000000E+00  0.50000000000E+03  0.50000000000E+03  0.00000000000E+00 0. -1.
         11   -1    0    0    0    0 -0.00000000000E+00 -0.00000000000E+00 -0.50000000000E+03  0.50000000000E+03  0.00000000000E+00 0.  1.
        -11    1    1    2    0    0 -0.14440390558E+01 -0.15912707248E+02  0.49621671530E+03  0.49647389462E+03  0.00000000000E+00 0. -1.
         11    1    1    2    0    0  0.96674370720E+01 -0.74775629280E+01 -0.44567718461E+03  0.44584473325E+03  0.00000000000E+00 0.  1.
        -15    1    1    2    0    0  0.21205649037E+01  0.93364805971E+01 -0.23654428026E+02  0.25580390140E+02  0.17770000000E+01 0. -1.
         15    1    1    2    0    0 -0.10343962920E+02  0.14053789579E+02 -0.26885102663E+02  0.32100981988E+02  0.17770000000E+01 0.  1.
</event>
<event>
 6   1  0.1826851E-04  0.4941565E+03  0.7546771E-02  0.9412981E-01
        -11   -1    0    0    0    0  0.00000000000E+00  0.00000000000E+00  0.50000000000E+03  0.50000000000E+03  0.00000000000E+00 0.  1.
         11   -1    0    0    0    0 -0.00000000000E+00 -0.00000000000E+00 -0.50000000000E+03  0.50000000000E+03  0.00000000000E+00 0. -1.
        -11    1    1    2    0    0 -0.10224390454E+01  0.15594366695E+01  0.11671377832E+02  0.11819402897E+02  0.00000000000E+00 0.  1.
         11    1    1    2    0    0 -0.27030013107E+02 -0.70385513541E+01 -0.49901393934E+03  0.49979503246E+03  0.00000000000E+00 0. -1.
        -15    1    1    2    0    0  0.88431733081E+01  0.19242302762E+01  0.27060483615E+03  0.27076196087E+03  0.17770000000E+01 0.  1.
         15    1    1    2    0    0  0.19209278845E+02  0.35548844084E+01  0.21673772536E+03  0.21762360377E+03  0.17770000000E+01 0. -1.
</event>
<event>
 6   1  0.1826851E-04  0.5049254E+03  0.7546771E-02  0.9388856E-01
        -11   -1    0    0    0    0  0.00000000000E+00  0.00000000000E+00  0.50000000000E+03  0.50000000000E+03  0.00000000000E+00 0. -1.
         11   -1    0    0    0    0 -0.00000000000E+00 -0.00000000000E+00 -0.50000000000E+03  0.50000000000E+03  0.00000000000E+00 0. -1.
        -11    1    1    2    0    0 -0.41008223198E+01  0.38539609604E+02  0.34231358681E+03  0.34450066759E+03  0.00000000000E+00 0. -1.
         11    1    1    2    0    0 -0.13740906213E+02  0.15582271007E+01 -0.49488141585E+03  0.49507459673E+03  0.00000000000E+00 0. -1.
        -15    1    1    2    0    0  0.26945300749E+01 -0.15968911276E+02  0.92447832553E+02  0.93872392600E+02  0.17770000000E+01 0.  1.
         15    1    1    2    0    0  0.15147198457E+02 -0.24128925429E+02  0.60119996485E+02  0.66552343083E+02  0.17770000000E+01 0. -1.
</event>
<event>
 6   1  0.1826851E-04  0.5013556E+03  0.7546771E-02  0.9396782E-01
        -11   -1    0    0    0    0  0.00000000000E+00  0.00000000000E+00  0.50000000000E+03  0.50000000000E+03  0.00000000000E+00 0. -1.
         11   -1    0    0    0    0 -0.00000000000E+00 -0.00000000000E+00 -0.50000000000E+03  0.50000000000E+03  0.00000000000E+00 0. -1.
        -11    1    1    2    0    0 -0.16505615605E+02 -0.48615761096E+01  0.13904011403E+03  0.14010076223E+03  0.00000000000E+00 0. -1.
         11    1    1    2    0    0  0.71498238751E+01  0.33578159389E+01 -0.49858183170E+03  0.49864440016E+03  0.00000000000E+00 0. -1.
        -15    1    1    2    0    0  0.13123632251E+02  0.88063516763E+01  0.33372366628E+03  0.33410241651E+03  0.17770000000E+01 0. -1.
         15    1    1    2    0    0 -0.37678405209E+01 -0.73025915056E+01  0.25818051395E+02  0.27152421102E+02  0.17770000000E+01 0.  1.
</event>
<event>
 6   1  0.1826851E-04  0.5004644E+03  0.7546771E-02  0.9398771E-01
        -11   -1    0    0    0    0  0.00000000000E+00  0.00000000000E+00  0.50000000000E+03  0.50000000000E+03  0.00000000000E+00 0. -1.
         11   -1    0    0    0    0 -0.00000000000E+00 -0.00000000000E+00 -0.50000000000E+03  0.50000000000E+03  0.00000000000E+00 0. -1.
        -11    1    1    2    0    0 -0.14238591623E+02  0.95333341564E+01  0.49924162404E+03  0.49953560547E+03  0.00000000000E+00 0. -1.
         11    1    1    2    0    0  0.44229899954E+01 -0.13259836257E+00 -0.25996529344E+03  0.26000295040E+03  0.00000000000E+00 0. -1.
        -15    1    1    2    0    0 -0.22946467446E+01 -0.44455205010E+00 -0.14022007501E+03  0.14025081175E+03  0.17770000000E+01 0. -1.
         15    1    1    2    0    0  0.12110248372E+02 -0.89561837438E+01 -0.99056255591E+02  0.10021063239E+03  0.17770000000E+01 0.  1.
</event>
<event>
 6   1  0.1826851E-04  0.4908277E+03  0.7546771E-02  0.9420571E-01
        -11   -1    0    0    0    0  0.00000000000E+00  0.00000000000E+00  0.50000000000E+03  0.50000000000E+03  0.00000000000E+00 0.  1.
         11   -1    0    0    0    0 -0.00000000000E+00 -0.00000000000E+00 -0.50000000000E+03  0.50000000000E+03  0.00000000000E+00 0.  1.
        -11    1    1    2    0    0  0.24926923996E+01 -0.64556682799E+01  0.49487645333E+03  0.49492483594E+03  0.00000000000E+00 0.  1.
         11    1    1    2    0    0  0.83454910667E+01 -0.41180192722E+01 -0.48679171177E+03  0.48688065884E+03  0.00000000000E+00 0.  1.
        -15    1    1    2    0    0 -0.44263143214E+00  0.19624857089E+01 -0.13436829190E+01  0.30017470795E+01  0.17770000000E+01 0.  1.
         15    1    1    2    0    0 -0.10395552034E+02  0.86112018432E+01 -0.67410586466E+01  0.15192758142E+02  0.17770000000E+01 0. -1.
</event>
<event>
 6   1  0.1826851E-04  0.5047014E+03  0.7546771E-02  0.9389351E-01
        -11   -1    0    0    0    0  0.00000000000E+00  0.00000000000E+00  0.50000000000E+03  0.50000000000E+03  0.00000000000E+00 0. -1.
         11   -1    0    0    0    0 -0.00000000000E+00 -0.00000000000E+00 -0.50000000000E+03  0.50000000000E+03  0.00000000000E+00 0. -1.
        -11    1    1    2    0    0  0.12819359752E+02  0.38841525967E+02  0.10332032888E+03  0.11112196220E+03  0.00000000000E+00 0. -1.
         11    1    1    2    0    0 -0.13078446390E+02 -0.26121380396E+01 -0.49511903336E+03  0.49529862328E+03  0.00000000000E+00 0. -1.
        -15    1    1    2    0    0 -0.45574064337E+00 -0.16031072397E+02  0.13040254297E+03  0.13139704686E+03  0.17770000000E+01 0.  1.
         15    1    1    2    0    0  0.71482728093E+00 -0.20198315530E+02  0.26139616152E+03  0.26218236766E+03  0.17770000000E+01 0. -1.
</event>
<event>
 6   1  0.1826851E-04  0.5009430E+03  0.7546771E-02  0.9397702E-01
        -11   -1    0    0    0    0  0.00000000000E+00  0.00000000000E+00  0.50000000000E+03  0.50000000000E+03  0.00000000000E+00 0.  1.
         11   -1    0    0    0    0 -0.00000000000E+00 -0.00000000000E+00 -0.50000000000E+03  0.50000000000E+03  0.00000000000E+00 0. -1.
        -11    1    1    2    0    0 -0.83296653892E+01 -0.83869993878E+01  0.24943654902E+03  0.24971647337E+03  0.00000000000E+00 0.  1.
         11    1    1    2    0    0 -0.57038734640E+01 -0.13806266306E+02 -0.49883333607E+03  0.49905695500E+03  0.00000000000E+00 0. -1.
        -15    1    1    2    0    0  0.91201744836E+01  0.27819605183E+01  0.61905127532E+02  0.62660349750E+02  0.17770000000E+01 0. -1.
         15    1    1    2    0    0  0.49133643696E+01  0.19411305176E+02  0.18749165951E+03  0.18856622188E+03  0.17770000000E+01 0.  1.
</event>
<event>
 6   1  0.1826851E-04  0.5027221E+03  0.7546771E-02  0.9393739E-01
        -11   -1    0    0    0    0  0.00000000000E+00  0.00000000000E+00  0.50000000000E+03  0.50000000000E+03  0.00000000000E+00 0. -1.
         11   -1    0    0    0    0 -0.00000000000E+00 -0.00000000000E+00 -0.50000000000E+03  0.50000000000E+03  0.00000000000E+00 0. -1.
        -11    1    1    2    0    0 -0.87033909031E+01 -0.15448332370E+02  0.39871085130E+03  0.39910492722E+03  0.00000000000E+00 0. -1.
         11    1    1    2    0    0  0.14320542371E+01 -0.10719394301E+02 -0.49716026301E+03  0.49727787333E+03  0.00000000000E+00 0. -1.
        -15    1    1    2    0    0  0.14108738859E+01  0.18350331518E+02  0.84467742783E+02  0.86467812114E+02  0.17770000000E+01 0. -1.
         15    1    1    2    0    0  0.58604627801E+01  0.78173951530E+01  0.13981668929E+02  0.17149387336E+02  0.17770000000E+01 0.  1.
</event>
<event>
 6   1  0.1826851E-04  0.5156191E+03  0.7546771E-02  0.9365523E-01
        -11   -1    0    0    0    0  0.00000000000E+00  0.00000000000E+00  0.50000000000E+03  0.50000000000E+03  0.00000000000E+00 0.  1.
         11   -1    0    0    0    0 -0.00000000000E+00 -0.00000000000E+00 -0.50000000000E+03  0.50000000000E+03  0.00000000000E+00 0.  1.
        -11    1    1    2    0    0 -0.44401575703E+02 -0.84184088522E+01  0.42937764324E+03  0.43174938338E+03  0.00000000000E+00 0.  1.
         11    1    1    2    0    0  0.22065034102E+02  0.21919549951E+02 -0.48338131083E+03  0.48438086673E+03  0.00000000000E+00 0.  1.
        -15    1    1    2    0    0 -0.15374868064E+01 -0.17868888925E+02 -0.60995065153E+01  0.19026895853E+02  0.17770000000E+01 0.  1.
         15    1    1    2    0    0  0.23874028407E+02  0.43677478255E+01  0.60103174099E+02  0.64842854034E+02  0.17770000000E+01 0. -1.
</event>
<event>
 6   1  0.1826851E-04  0.4892619E+03  0.7546771E-02  0.9424163E-01
        -11   -1    0    0    0    0  0.00000000000E+00  0.00000000000E+00  0.50000000000E+03  0.50000000000E+03  0.00000000000E+00 0. -1.
         11   -1    0    0    0    0 -0.00000000000E+00 -0.00000000000E+00 -0.50000000000E+03  0.50000000000E+03  0.00000000000E+00 0. -1.
        -11    1    1    2    0    0  0.16496904920E+02 -0.13239918721E+02 -0.27708316158E+01  0.21333561061E+02  0.00000000000E+00 0. -1.
         11    1    1    2    0    0  0.22692322787E+00 -0.13488961332E+02 -0.48730310966E+03  0.48748981964E+03  0.00000000000E+00 0. -1.
        -15    1    1    2    0    0 -0.29412552170E+01  0.24086201932E+01  0.36903006025E+02  0.37140840272E+02  0.17770000000E+01 0. -1.
         15    1    1    2    0    0 -0.13782572931E+02  0.24320259860E+02  0.45317093525E+03  0.45403577903E+03  0.17770000000E+01 0. -1.
</event>
<event>
 6   1  0.1826851E-04  0.5068560E+03  0.7546771E-02  0.9384598E-01
        -11   -1    0    0    0    0  0.00000000000E+00  0.00000000000E+00  0.50000000000E+03  0.50000000000E+03  0.00000000000E+00 0. -1.
         11   -1    0    0    0    0 -0.00000000000E+00 -0.00000000000E+00 -0.50000000000E+03  0.50000000000E+03  0.00000000000E+00 0. -1.
        -11    1    1    2    0    0 -0.99331387561E+01  0.12939787643E+02  0.49287415334E+03  0.49314403209E+03  0.00000000000E+00 0. -1.
         11    1    1    2    0    0  0.13802401344E+01  0.64516263908E+01 -0.46175260803E+03  0.46179973968E+03  0.00000000000E+00 0. -1.
        -15    1    1    2    0    0  0.40895537183E+01 -0.22404598344E+02 -0.32000489389E+02  0.39317674482E+02  0.17770000000E+01 0. -1.
         15    1    1    2    0    0  0.44633449035E+01  0.30131843103E+01  0.87894408020E+00  0.57385537473E+01  0.17770000000E+01 0.  1.
</event>
<event>
 6   1  0.1826851E-04  0.5219179E+03  0.7546771E-02  0.9352060E-01
        -11   -1    0    0    0    0  0.00000000000E+00  0.00000000000E+00  0.50000000000E+03  0.50000000000E+03  0.00000000000E+00 0. -1.
         11   -1    0    0    0    0 -0.00000000000E+00 -0.00000000000E+00 -0.50000000000E+03  0.50000000000E+03  0.00000000000E+00 0. -1.
        -11    1    1    2    0    0 -0.21636014436E+03  0.24520632086E+03  0.24629201951E+03  0.40938687171E+03  0.00000000000E+00 0. -1.
         11    1    1    2    0    0  0.20310093318E+03 -0.24785515520E+03 -0.35479620032E+03  0.47808211719E+03  0.00000000000E+00 0. -1.
        -15    1    1    2    0    0 -0.86960769625E+00 -0.98988108859E+01  0.26460954578E+02  0.28321061433E+02  0.17770000000E+01 0.  1.
         15    1    1    2    0    0  0.14128818885E+02  0.12547645230E+02  0.82043226229E+02  0.84209949667E+02  0.17770000000E+01 0. -1.
</event>
<event>
 6   1  0.1826851E-04  0.5005337E+03  0.7546771E-02  0.9398616E-01
        -11   -1    0    0    0    0  0.00000000000E+00  0.00000000000E+00  0.50000000000E+03  0.50000000000E+03  0.00000000000E+00 0. -1.
         11   -1    0    0    0    0 -0.00000000000E+00 -0.00000000000E+00 -0.50000000000E+03  0.50000000000E+03  0.00000000000E+00 0. -1.
        -11    1    1    2    0    0 -0.79459248835E+01  0.38867114963E+01  0.56123232255E+02  0.56816031604E+02  0.00000000000E+00 0. -1.
         11    1    1    2    0    0 -0.13629317356E+02 -0.10792587819E+02 -0.49916363458E+03  0.49946628749E+03  0.00000000000E+00 0. -1.
        -15    1    1    2    0    0  0.20508728873E+02  0.40933753375E+01  0.38645552016E+03  0.38702505148E+03  0.17770000000E+01 0. -1.
         15    1    1    2    0    0  0.10665133668E+01  0.28125009849E+01  0.56584882166E+02  0.56692629426E+02  0.17770000000E+01 0.  1.
</event>
<event>
 6   1  0.1826851E-04  0.5029295E+03  0.7546771E-02  0.9393278E-01
        -11   -1    0    0    0    0  0.00000000000E+00  0.00000000000E+00  0.50000000000E+03  0.50000000000E+03  0.00000000000E+00 0. -1.
         11   -1    0    0    0    0 -0.00000000000E+00 -0.00000000000E+00 -0.50000000000E+03  0.50000000000E+03  0.00000000000E+00 0.  1.
        -11    1    1    2    0    0  0.91179563737E+01 -0.32998902280E+01  0.48133734916E+03  0.48143501129E+03  0.00000000000E+00 0. -1.
         11    1    1    2    0    0 -0.30802911365E+01 -0.90164181353E+01 -0.49697915087E+03  0.49707047829E+03  0.00000000000E+00 0.  1.
        -15    1    1    2    0    0 -0.86023778468E+00  0.18932741036E+01  0.46107785474E+01  0.53611103040E+01  0.17770000000E+01 0. -1.
         15    1    1    2    0    0 -0.51774274525E+01  0.10423034260E+02  0.11031023166E+02  0.16133400115E+02  0.17770000000E+01 0.  1.
</event>
<event>
 6   1  0.1826851E-04  0.5092388E+03  0.7546771E-02  0.9379371E-01
        -11   -1    0    0    0    0  0.00000000000E+00  0.00000000000E+00  0.50000000000E+03  0.50000000000E+03  0.00000000000E+00 0. -1.
         11   -1    0    0    0    0 -0.00000000000E+00 -0.00000000000E+00 -0.50000000000E+03  0.50000000000E+03  0.00000000000E+00 0. -1.
        -11    1    1    2    0    0  0.27867275156E+02 -0.12658705903E+01  0.40177760188E+03  0.40274486815E+03  0.00000000000E+00 0. -1.
         11    1    1    2    0    0  0.70855723312E+01 -0.14013528269E+02 -0.49050989950E+03  0.49076119021E+03  0.00000000000E+00 0. -1.
        -15    1    1    2    0    0  0.94195679092E+01  0.96478693782E+01  0.15093136154E+02  0.20316745091E+02  0.17770000000E+01 0.  1.
         15    1    1    2    0    0 -0.44372415397E+02  0.56315294809E+01  0.73639161473E+02  0.86177196542E+02  0.17770000000E+01 0. -1.
</event>
<event>
 6   1  0.1826851E-04  0.5001044E+03  0.7546771E-02  0.9399576E-01
        -11   -1    0    0    0    0  0.00000000000E+00  0.00000000000E+00  0.50000000000E+03  0.50000000000E+03  0.00000000000E+00 0.  1.
         11   -1    0    0    0    0 -0.00000000000E+00 -0.00000000000E+00 -0.50000000000E+03  0.50000000000E+03  0.00000000000E+00 0. -1.
        -11    1    1    2    0    0 -0.74957123954E+01 -0.10768400517E+02  0.27382087911E+03  0.27413503605E+03  0.00000000000E+00 0.  1.
         11    1    1    2    0    0  0.47546849155E+01  0.20523524700E+02 -0.49945151031E+03  0.49989562236E+03  0.00000000000E+00 0. -1.
        -15    1    1    2    0    0 -0.10102728649E+01 -0.32759919788E+01  0.41870941009E+02  0.42048617155E+02  0.17770000000E+01 0.  1.
         15    1    1    2    0    0  0.37513003448E+01 -0.64791322040E+01  0.18375969020E+03  0.18392072444E+03  0.17770000000E+01 0. -1.
</event>
<event>
 6   1  0.1826851E-04  0.5037684E+03  0.7546771E-02  0.9391417E-01
        -11   -1    0    0    0    0  0.00000000000E+00  0.00000000000E+00  0.50000000000E+03  0.50000000000E+03  0.00000000000E+00 0. -1.
         11   -1    0    0    0    0 -0.00000000000E+00 -0.00000000000E+00 -0.50000000000E+03  0.50000000000E+03  0.00000000000E+00 0.  1.
        -11    1    1    2    0    0 -0.37278795232E+02 -0.45651998081E+02  0.26028504646E+03  0.26687472513E+03  0.00000000000E+00 0. -1.
         11    1    1    2    0    0  0.26399815490E+02  0.18764378143E+02 -0.49517345648E+03  0.49623160334E+03  0.00000000000E+00 0.  1.
        -15    1    1    2    0    0  0.34547772591E+01  0.67152582099E+01  0.99074414128E+02  0.99377700932E+02  0.17770000000E+01 0.  1.
         15    1    1    2    0    0  0.74242024832E+01  0.20172361728E+02  0.13581399590E+03  0.13751597060E+03  0.17770000000E+01 0. -1.
</event>
<event>
 6   1  0.1826851E-04  0.5009922E+03  0.7546771E-02  0.9397592E-01
        -11   -1    0    0    0    0  0.00000000000E+00  0.00000000000E+00  0.50000000000E+03  0.50000000000E+03  0.00000000000E+00 0. -1.
         11   -1    0    0    0    0 -0.00000000000E+00 -0.00000000000E+00 -0.50000000000E+03  0.50000000000E+03  0.00000000000E+00 0. -1.
        -11    1    1    2    0    0 -0.10610189590E+02 -0.87395509563E+00  0.49889425487E+03  0.49900783307E+03  0.00000000000E+00 0. -1.
         11    1    1    2    0    0 -0.66838109235E+01 -0.19745742259E+01 -0.41086870170E+03  0.41092780669E+03  0.00000000000E+00 0. -1.
        -15    1    1    2    0    0  0.16123463025E+02  0.10569585970E+01 -0.76481355820E+02  0.78189761084E+02  0.17770000000E+01 0. -1.
         15    1    1    2    0    0  0.11705374883E+01  0.17915707246E+01 -0.11544197351E+02  0.11874599158E+02  0.17770000000E+01 0.  1.
</event>
<event>
 6   1  0.1826851E-04  0.4848699E+03  0.7546771E-02  0.9434316E-01
        -11   -1    0    0    0    0  0.00000000000E+00  0.00000000000E+00  0.50000000000E+03  0.50000000000E+03  0.00000000000E+00 0. -1.
         11   -1    0    0    0    0 -0.00000000000E+00 -0.00000000000E+00 -0.50000000000E+03  0.50000000000E+03  0.00000000000E+00 0. -1.
        -11    1    1    2    0    0 -0.13759132476E+02  0.13635699825E+02  0.48005858039E+03  0.48044925501E+03  0.00000000000E+00 0. -1.
         11    1    1    2    0    0  0.40156347075E+01  0.80163076852E+01 -0.48954552001E+03  0.48962761633E+03  0.00000000000E+00 0. -1.
        -15    1    1    2    0    0 -0.31502237621E+01 -0.60935904362E+01  0.61154228878E+01  0.93601218076E+01  0.17770000000E+01 0. -1.
         15    1    1    2    0    0  0.12893721531E+02 -0.15558417074E+02  0.33715167339E+01  0.20563006853E+02  0.17770000000E+01 0.  1.
</event>
<event>
 6   1  0.1826851E-04  0.5015126E+03  0.7546771E-02  0.9396431E-01
        -11   -1    0    0    0    0  0.00000000000E+00  0.00000000000E+00  0.50000000000E+03  0.50000000000E+03  0.00000000000E+00 0.  1.
         11   -1    0    0    0    0 -0.00000000000E+00 -0.00000000000E+00 -0.50000000000E+03  0.50000000000E+03  0.00000000000E+00 0.  1.
        -11    1    1    2    0    0 -0.50611557857E+01  0.27281527222E+01  0.40032588225E+03  0.40036716913E+03  0.00000000000E+00 0.  1.
         11    1    1    2    0    0 -0.12111020117E+02  0.49334104443E+01 -0.49831581010E+03  0.49848737391E+03  0.00000000000E+00 0.  1.
        -15    1    1    2    0    0  0.41368271913E+01 -0.39424289151E+00  0.42356813653E+01  0.61941498445E+01  0.17770000000E+01 0. -1.
         15    1    1    2    0    0  0.13035348711E+02 -0.72673202750E+01  0.93754246491E+02  0.94951307121E+02  0.17770000000E+01 0.  1.
</event>
<event>
 6   1  0.1826851E-04  0.5026402E+03  0.7546771E-02  0.9393921E-01
        -11   -1    0    0    0    0  0.00000000000E+00  0.00000000000E+00  0.50000000000E+03  0.50000000000E+03  0.00000000000E+00 0.  1.
         11   -1    0    0    0    0 -0.00000000000E+00 -0.00000000000E+00 -0.50000000000E+03  0.50000000000E+03  0.00000000000E+00 0. -1.
        -11    1    1    2    0    0  0.25915134701E+01 -0.24293178311E+02  0.37752337136E+03  0.37831305870E+03  0.00000000000E+00 0.  1.
         11    1    1    2    0    0 -0.67896604646E+01 -0.16873558230E+01 -0.49731056711E+03  0.49735977603E+03  0.00000000000E+00 0. -1.
        -15    1    1    2    0    0  0.22863802650E+01  0.22035368996E+02  0.11641580024E+03  0.11851827410E+03  0.17770000000E+01 0.  1.
         15    1    1    2    0    0  0.19117667296E+01  0.39451651382E+01  0.33713955042E+01  0.58088911715E+01  0.17770000000E+01 0. -1.
</event>
<event>
 6   1  0.1826851E-04  0.5000767E+03  0.7546771E-02  0.9399638E-01
        -11   -1    0    0    0    0  0.00000000000E+00  0.00000000000E+00  0.50000000000E+03  0.50000000000E+03  0.00000000000E+00 0.  1.
         11   -1    0    0    0    0 -0.00000000000E+00 -0.00000000000E+00 -0.50000000000E+03  0.50000000000E+03  0.00000000000E+00 0. -1.
        -11    1    1    2    0    0  0.12802317367E+01 -0.19790735295E+01  0.12076431860E+03  0.12078731876E+03  0.00000000000E+00 0.  1.
         11    1    1    2    0    0  0.11881515447E+02  0.20883144814E+01 -0.49977770574E+03  0.49992328073E+03  0.00000000000E+00 0. -1.
        -15    1    1    2    0    0 -0.94079596994E+01  0.10799747754E+01  0.30317971938E+03  0.30333278099E+03  0.17770000000E+01 0.  1.
         15    1    1    2    0    0 -0.37537874844E+01 -0.11892157273E+01  0.75833667757E+02  0.75956619521E+02  0.17770000000E+01 0. -1.
</event>
<event>
 6   1  0.1826851E-04  0.5025688E+03  0.7546771E-02  0.9394080E-01
        -11   -1    0    0    0    0  0.00000000000E+00  0.00000000000E+00  0.50000000000E+03  0.50000000000E+03  0.00000000000E+00 0. -1.
         11   -1    0    0    0    0 -0.00000000000E+00 -0.00000000000E+00 -0.50000000000E+03  0.50000000000E+03  0.00000000000E+00 0.  1.
        -11    1    1    2    0    0  0.76579896206E+01 -0.74332124912E+01  0.39999134376E+03  0.40013369332E+03  0.00000000000E+00 0. -1.
         11    1    1    2    0    0  0.16268960327E+01 -0.13027386803E+02 -0.49725795921E+03  0.49743123906E+03  0.00000000000E+00 0.  1.
        -15    1    1    2    0    0 -0.11886413420E+02  0.19799725912E+01  0.25492991895E+02  0.28253450767E+02  0.17770000000E+01 0. -1.
         15    1    1    2    0    0  0.26015277666E+01  0.18480626703E+02  0.71773623559E+02  0.74181616846E+02  0.17770000000E+01 0.  1.
</event>
<event>
 6   1  0.1826851E-04  0.5018093E+03  0.7546771E-02  0.9395770E-01
        -11   -1    0    0    0    0  0.00000000000E+00  0.00000000000E+00  0.50000000000E+03  0.50000000000E+03  0.00000000000E+00 0. -1.
         11   -1    0    0    0    0 -0.00000000000E+00 -0.00000000000E+00 -0.50000000000E+03  0.50000000000E+03  0.00000000000E+00 0.  1.
        -11    1    1    2    0    0  0.29097994906E+02  0.22722076096E+02  0.24824900246E+03  0.25097918893E+03  0.00000000000E+00 0. -1.
         11    1    1    2    0    0 -0.18789337192E+02 -0.29934656816E+01 -0.49782723118E+03  0.49819067849E+03  0.00000000000E+00 0.  1.
        -15    1    1    2    0    0 -0.10893295803E+02 -0.16924477914E+02  0.17268872789E+03  0.17386677750E+03  0.17770000000E+01 0. -1.
         15    1    1    2    0    0  0.58463808959E+00 -0.28041325008E+01  0.76889500823E+02  0.76963355089E+02  0.17770000000E+01 0.  1.
</event>
<event>
 6   1  0.1826851E-04  0.5010360E+03  0.7546771E-02  0.9397495E-01
        -11   -1    0    0    0    0  0.00000000000E+00  0.00000000000E+00  0.50000000000E+03  0.50000000000E+03  0.00000000000E+00 0.  1.
         11   -1    0    0    0    0 -0.00000000000E+00 -0.00000000000E+00 -0.50000000000E+03  0.50000000000E+03  0.00000000000E+00 0. -1.
        -11    1    1    2    0    0  0.16546399320E+02  0.31619194306E+01  0.28413392368E+03  0.28463286467E+03  0.00000000000E+00 0.  1.
         11    1    1    2    0    0  0.63715357517E+01  0.92933499494E+01 -0.49883675675E+03  0.49896399941E+03  0.00000000000E+00 0. -1.
        -15    1    1    2    0    0 -0.50148811413E+01 -0.29518271246E+00  0.46537793716E+02  0.46841863100E+02  0.17770000000E+01 0. -1.
         15    1    1    2    0    0 -0.17903053930E+02 -0.12160086668E+02  0.16816503935E+03  0.16956127281E+03  0.17770000000E+01 0.  1.
</event>
<event>
 6   1  0.1826851E-04  0.4926568E+03  0.7546771E-02  0.9416392E-01
        -11   -1    0    0    0    0  0.00000000000E+00  0.00000000000E+00  0.50000000000E+03  0.50000000000E+03  0.00000000000E+00 0. -1.
         11   -1    0    0    0    0 -0.00000000000E+00 -0.00000000000E+00 -0.50000000000E+03  0.50000000000E+03  0.00000000000E+00 0. -1.
        -11    1    1    2    0    0  0.71070252850E+01  0.13015873570E+01  0.49113518505E+03  0.49118832838E+03  0.00000000000E+00 0. -1.
         11    1    1    2    0    0 -0.18991962164E+01  0.86307729019E+01 -0.49411456895E+03  0.49419359004E+03  0.00000000000E+00 0. -1.
        -15    1    1    2    0    0 -0.10843631178E+01  0.33235556080E+00  0.26806962719E+01  0.34103027860E+01  0.17770000000E+01 0.  1.
         15    1    1    2    0    0 -0.41234659508E+01 -0.10264715820E+02  0.29868762583E+00  0.11207778799E+02  0.17770000000E+01 0. -1.
</event>
<event>
 6   1  0.1826851E-04  0.5020169E+03  0.7546771E-02  0.9395308E-01
        -11   -1    0    0    0    0  0.00000000000E+00  0.00000000000E+00  0.50000000000E+03  0.50000000000E+03  0.00000000000E+00 0. -1.
         11   -1    0    0    0    0 -0.00000000000E+00 -0.00000000000E+00 -0.50000000000E+03  0.50000000000E+03  0.00000000000E+00 0.  1.
        -11    1    1    2    0    0  0.23004971361E+01 -0.95075052119E+01  0.43719410781E+03  0.43730352485E+03  0.00000000000E+00 0. -1.
         11    1    1    2    0    0  0.53843102552E+00 -0.69721177500E+01 -0.49793401305E+03  0.49798311385E+03  0.00000000000E+00 0.  1.
        -15    1    1    2    0    0  0.50900088208E+01  0.21025968346E+01  0.14436576642E+02  0.15553185442E+02  0.17770000000E+01 0.  1.
         15    1    1    2    0    0 -0.79289369824E+01  0.14377026127E+02  0.46303328596E+02  0.49160175854E+02  0.17770000000E+01 0. -1.
</event>
<event>
 6   1  0.1826851E-04  0.5015785E+03  0.7546771E-02  0.9396285E-01
        -11   -1    0    0    0    0  0.00000000000E+00  0.00000000000E+00  0.50000000000E+03  0.50000000000E+03  0.00000000000E+00 0.  1.
         11   -1    0    0    0    0 -0.00000000000E+00 -0.00000000000E+00 -0.50000000000E+03  0.50000000000E+03  0.00000000000E+00 0. -1.
        -11    1    1    2    0    0  0.59419520371E+01 -0.52009719569E+01  0.49835894609E+03  0.49842150441E+03  0.00000000000E+00 0.  1.
         11    1    1    2    0    0 -0.23690790871E+01  0.75504600607E+01 -0.47735121270E+03  0.47741680139E+03  0.00000000000E+00 0. -1.
        -15    1    1    2    0    0 -0.59450555680E+01  0.18000690223E+01 -0.14651413148E+02  0.16012669060E+02  0.17770000000E+01 0.  1.
         15    1    1    2    0    0  0.23721826180E+01 -0.41495571261E+01 -0.63563202416E+01  0.81490251398E+01  0.17770000000E+01 0. -1.
</event>
<event>
 6   1  0.1826851E-04  0.4841438E+03  0.7546771E-02  0.9436005E-01
        -11   -1    0    0    0    0  0.00000000000E+00  0.00000000000E+00  0.50000000000E+03  0.50000000000E+03  0.00000000000E+00 0.  1.
         11   -1    0    0    0    0 -0.00000000000E+00 -0.00000000000E+00 -0.50000000000E+03  0.50000000000E+03  0.00000000000E+00 0.  1.
        -11    1    1    2    0    0  0.14856963176E+02  0.62261097607E+01  0.48384730401E+03  0.48411538645E+03  0.00000000000E+00 0.  1.
         11    1    1    2    0    0  0.97232842907E+01  0.67431884794E+01 -0.48442664704E+03  0.48457113947E+03  0.00000000000E+00 0.  1.
        -15    1    1    2    0    0 -0.25834375107E+02 -0.11275922689E+02 -0.74854298243E+00  0.28253838947E+02  0.17770000000E+01 0.  1.
         15    1    1    2    0    0  0.12541276397E+01 -0.16933755511E+01  0.13278860079E+01  0.30596351324E+01  0.17770000000E+01 0. -1.
</event>
<event>
 6   1  0.1826851E-04  0.5003681E+03  0.7546771E-02  0.9398986E-01
        -11   -1    0    0    0    0  0.00000000000E+00  0.00000000000E+00  0.50000000000E+03  0.50000000000E+03  0.00000000000E+00 0.  1.
         11   -1    0    0    0    0 -0.00000000000E+00 -0.00000000000E+00 -0.50000000000E+03  0.50000000000E+03  0.00000000000E+00 0.  1.
        -11    1    1    2    0    0  0.37706388120E+01  0.82220842083E+01  0.42054005913E+03  0.42063732801E+03  0.00000000000E+00 0.  1.
         11    1    1    2    0    0  0.38172105357E+01 -0.92327314076E+01 -0.49953198373E+03  0.49963188169E+03  0.00000000000E+00 0.  1.
        -15    1    1    2    0    0 -0.32434704645E+01 -0.19526789051E+01  0.17671914946E+02  0.18160048524E+02  0.17770000000E+01 0.  1.
         15    1    1    2    0    0 -0.43443788833E+01  0.29633261045E+01  0.61320009660E+02  0.61570741779E+02  0.17770000000E+01 0. -1.
</event>
<event>
 6   1  0.1826851E-04  0.5007259E+03  0.7546771E-02  0.9398187E-01
        -11   -1    0    0    0    0  0.00000000000E+00  0.00000000000E+00  0.50000000000E+03  0.50000000000E+03  0.00000000000E+00 0. -1.
         11   -1    0    0    0    0 -0.00000000000E+00 -0.00000000000E+00 -0.50000000000E+03  0.50000000000E+03  0.00000000000E+00 0. -1.
        -11    1    1    2    0    0 -0.17657147417E+02 -0.20662162648E+02  0.34435411730E+03  0.34542503951E+03  0.00000000000E+00 0. -1.
         11    1    1    2    0    0  0.15769772693E+02  0.76076511177E+01 -0.49896704419E+03  0.49927414641E+03  0.00000000000E+00 0. -1.
        -15    1    1    2    0    0  0.85042027609E+00  0.91129323162E+01  0.12600172100E+03  0.12634619176E+03  0.17770000000E+01 0. -1.
         15    1    1    2    0    0  0.10369544476E+01  0.39415792142E+01  0.28611205897E+02  0.28954622310E+02  0.17770000000E+01 0. -1.
</event>
<event>
 6   1  0.1826851E-04  0.5073921E+03  0.7546771E-02  0.9383420E-01
        -11   -1    0    0    0    0  0.00000000000E+00  0.00000000000E+00  0.50000000000E+03  0.50000000000E+03  0.00000000000E+00 0.  1.
         11   -1    0    0    0    0 -0.00000000000E+00 -0.00000000000E+00 -0.50000000000E+03  0.50000000000E+03  0.00000000000E+00 0.  1.
        -11    1    1    2    0    0  0.14525011703E+02  0.14962524034E+02  0.49216630114E+03  0.49260787759E+03  0.00000000000E+00 0.  1.
         11    1    1    2    0    0 -0.85732935432E+01 -0.60500263829E+01 -0.47099114776E+03  0.47110801888E+03  0.00000000000E+00 0.  1.
        -15    1    1    2    0    0  0.15921188969E+01  0.60903737694E+01 -0.17933684093E+02  0.19089322916E+02  0.17770000000E+01 0. -1.
         15    1    1    2    0    0 -0.75438370567E+01 -0.15002871420E+02 -0.32414692825E+01  0.17194780618E+02  0.17770000000E+01 0.  1.
</event>
<event>
 6   1  0.1826851E-04  0.5026023E+03  0.7546771E-02  0.9394006E-01
        -11   -1    0    0    0    0  0.00000000000E+00  0.00000000000E+00  0.50000000000E+03  0.50000000000E+03  0.00000000000E+00 0.  1.
         11   -1    0    0    0    0 -0.00000000000E+00 -0.00000000000E+00 -0.50000000000E+03  0.50000000000E+03  0.00000000000E+00 0. -1.
        -11    1    1    2    0    0  0.53325124348E+01  0.75496986061E+01  0.49731183002E+03  0.49739771805E+03  0.00000000000E+00 0.  1.
         11    1    1    2    0    0  0.29900361538E+01  0.61769969301E+01 -0.47097394195E+03  0.47102393740E+03  0.00000000000E+00 0. -1.
        -15    1    1    2    0    0 -0.84125981201E+01 -0.94292124444E+01 -0.18838024822E+02  0.22753258286E+02  0.17770000000E+01 0. -1.
         15    1    1    2    0    0  0.90049531526E-01 -0.42974830917E+01 -0.74998632460E+01  0.88250862630E+01  0.17770000000E+01 0.  1.
</event>
<event>
 6   1  0.1826851E-04  0.5023425E+03  0.7546771E-02  0.9394583E-01
        -11   -1    0    0    0    0  0.00000000000E+00  0.00000000000E+00  0.50000000000E+03  0.50000000000E+03  0.00000000000E+00 0.  1.
         11   -1    0    0    0    0 -0.00000000000E+00 -0.00000000000E+00 -0.50000000000E+03  0.50000000000E+03  0.00000000000E+00 0.  1.
        -11    1    1    2    0    0 -0.24041554993E+02  0.13483642823E+02  0.95683258527E+02  0.99574549724E+02  0.00000000000E+00 0.  1.
         11    1    1    2    0    0  0.65581671850E+01  0.47342857716E+01 -0.49759172822E+03  0.49765746353E+03  0.00000000000E+00 0.  1.
        -15    1    1    2    0    0  0.32924089007E+01 -0.58281217714E+01  0.14390899359E+03  0.14407554659E+03  0.17770000000E+01 0.  1.
         15    1    1    2    0    0  0.14190978907E+02 -0.12389806823E+02  0.25799947610E+03  0.25869244016E+03  0.17770000000E+01 0.  1.
</event>
<event>
 6   1  0.1826851E-04  0.5026706E+03  0.7546771E-02  0.9393854E-01
        -11   -1    0    0    0    0  0.00000000000E+00  0.00000000000E+00  0.50000000000E+03  0.50000000000E+03  0.00000000000E+00 0.  1.
         11   -1    0    0    0    0 -0.00000000000E+00 -0.00000000000E+00 -0.50000000000E+03  0.50000000000E+03  0.00000000000E+00 0. -1.
        -11    1    1    2    0    0  0.20968605037E+02  0.10074619752E+02  0.36015715780E+03  0.36090768719E+03  0.00000000000E+00 0.  1.
         11    1    1    2    0    0 -0.10810996362E+02  0.11818392784E+02 -0.49707138800E+03  0.49732938464E+03  0.00000000000E+00 0. -1.
        -15    1    1    2    0    0 -0.11939636366E+02 -0.19748589028E+02  0.13647938687E+03  0.13842811295E+03  0.17770000000E+01 0. -1.
         15    1    1    2    0    0  0.17820276906E+01 -0.21444235079E+01  0.43484333714E+00  0.33348152272E+01  0.17770000000E+01 0.  1.
</event>
<event>
 6   1  0.1826851E-04  0.5009094E+03  0.7546771E-02  0.9397777E-01
        -11   -1    0    0    0    0  0.00000000000E+00  0.00000000000E+00  0.50000000000E+03  0.50000000000E+03  0.00000000000E+00 0. -1.
         11   -1    0    0    0    0 -0.00000000000E+00 -0.00000000000E+00 -0.50000000000E+03  0.50000000000E+03  0.00000000000E+00 0. -1.
        -11    1    1    2    0    0 -0.92824349089E+01  0.56205036022E+01  0.39597754074E+03  0.39612620013E+03  0.00000000000E+00 0. -1.
         11    1    1    2    0    0 -0.84322902553E+01 -0.28826694467E+01 -0.49901103139E+03  0.49909059574E+03  0.00000000000E+00 0. -1.
        -15    1    1    2    0    0  0.14920738547E+02 -0.50491507377E+00  0.78502711630E+02  0.79929449143E+02  0.17770000000E+01 0.  1.
         15    1    1    2    0    0  0.27939866169E+01 -0.22329190817E+01  0.24530779022E+02  0.24853754993E+02  0.17770000000E+01 0. -1.
</event>
<event>
 6   1  0.1826851E-04  0.5057056E+03  0.7546771E-02  0.9387133E-01
        -11   -1    0    0    0    0  0.00000000000E+00  0.00000000000E+00  0.50000000000E+03  0.50000000000E+03  0.00000000000E+00 0. -1.
         11   -1    0    0    0    0 -0.00000000000E+00 -0.00000000000E+00 -0.50000000000E+03  0.50000000000E+03  0.00000000000E+00 0.  1.
        -11    1    1    2    0    0 -0.53734076815E+00 -0.35295273043E+02  0.39137037254E+03  0.39295904816E+03  0.00000000000E+00 0. -1.
         11    1    1    2    0    0  0.68912955169E+01 -0.13047962104E+00 -0.49424637037E+03  0.49429442805E+03  0.00000000000E+00 0.  1.
        -15    1    1    2    0    0 -0.11980302373E+02  0.73148950130E+01  0.16583939692E+02  0.21799544002E+02  0.17770000000E+01 0.  1.
         15    1    1    2    0    0  0.56263476242E+01  0.28110857651E+02  0.86292058139E+02  0.90946979787E+02  0.17770000000E+01 0. -1.
</event>
<event>
 6   1  0.1826851E-04  0.5041547E+03  0.7546771E-02  0.9390561E-01
        -11   -1    0    0    0    0  0.00000000000E+00  0.00000000000E+00  0.50000000000E+03  0.50000000000E+03  0.00000000000E+00 0. -1.
         11   -1    0    0    0    0 -0.00000000000E+00 -0.00000000000E+00 -0.50000000000E+03  0.50000000000E+03  0.00000000000E+00 0. -1.
        -11    1    1    2    0    0 -0.34477450960E+02 -0.44866238913E+02  0.49260619233E+03  0.49584527298E+03  0.00000000000E+00 0. -1.
         11    1    1    2    0    0 -0.76507430767E+01 -0.18615817578E+01 -0.30795751247E+03  0.30805815822E+03  0.00000000000E+00 0. -1.
        -15    1    1    2    0    0  0.43832141631E+02  0.43850766196E+02 -0.17716961281E+03  0.18771354711E+03  0.17770000000E+01 0. -1.
         15    1    1    2    0    0 -0.17039475947E+01  0.28770544748E+01 -0.74790670390E+01  0.83830216885E+01  0.17770000000E+01 0.  1.
</event>
<event>
 6   1  0.1826851E-04  0.5002853E+03  0.7546771E-02  0.9399172E-01
        -11   -1    0    0    0    0  0.00000000000E+00  0.00000000000E+00  0.50000000000E+03  0.50000000000E+03  0.00000000000E+00 0.  1.
         11   -1    0    0    0    0 -0.00000000000E+00 -0.00000000000E+00 -0.50000000000E+03  0.50000000000E+03  0.00000000000E+00 0. -1.
        -11    1    1    2    0    0 -0.53003717915E+01 -0.53165928504E+01  0.49965834473E+03  0.49971474018E+03  0.00000000000E+00 0.  1.
         11    1    1    2    0    0  0.47436882695E+01  0.95180514921E+01 -0.28943857783E+03  0.28963388306E+03  0.00000000000E+00 0. -1.
        -15    1    1    2    0    0  0.67873027196E+00 -0.85196480770E+01 -0.12583676465E+03  0.12613918560E+03  0.17770000000E+01 0. -1.
         15    1    1    2    0    0 -0.12204674991E+00  0.43181894353E+01 -0.84383002253E+02  0.84512191154E+02  0.17770000000E+01 0.  1.
</event>
<event>
 6   1  0.1826851E-04  0.5019096E+03  0.7546771E-02  0.9395547E-01
        -11   -1    0    0    0    0  0.00000000000E+00  0.00000000000E+00  0.50000000000E+03  0.50000000000E+03  0.00000000000E+00 0.  1.
         11   -1    0    0    0    0 -0.00000000000E+00 -0.00000000000E+00 -0.50000000000E+03  0.50000000000E+03  0.00000000000E+00 0.  1.
        -11    1    1    2    0    0 -0.72421052472E+01 -0.24502001310E+02  0.49743469411E+03  0.49809042458E+03  0.00000000000E+00 0.  1.
         11    1    1    2    0    0 -0.96465281249E+01  0.26110638218E+00 -0.35724294475E+03  0.35737325761E+03  0.00000000000E+00 0.  1.
        -15    1    1    2    0    0 -0.17408824419E+01 -0.14987262203E+01 -0.19697087083E+02  0.19910043208E+02  0.17770000000E+01 0.  1.
         15    1    1    2    0    0  0.18629515814E+02  0.25739621148E+02 -0.12049466227E+03  0.12462627460E+03  0.17770000000E+01 0.  1.
</event>
