<event>
 6    1  0.1023771E-002  0.1766377E+03  0.7546771E-02  0.1073219E+00
        -11   -1    0    0    0    0  0.00000000000E+00  0.00000000000E+00  0.18250000000E+03  0.18250000000E+03  0.00000000000E+00 0.  1.
         11   -1    0    0    0    0 -0.00000000000E+00 -0.00000000000E+00 -0.18250000000E+03  0.18250000000E+03  0.00000000000E+00 0. -1.
        -11    1    1    2    0    0  0.57700405839E+01 -0.15475285605E+01  0.17630305948E+03  0.17640424313E+03  0.00000000000E+00 0.  1.
         11    1    1    2    0    0 -0.38401055330E+01 -0.20254360833E+01 -0.17684166591E+03  0.17689495075E+03  0.00000000000E+00 0. -1.
        -15    1    1    2    0    0 -0.52699730093E+01 -0.11045126140E+01  0.37658901460E+00  0.56826148840E+01  0.17770000000E+01 0. -1.
         15    1    1    2    0    0  0.33400379584E+01  0.46774772578E+01  0.16201741521E+00  0.60181912318E+01  0.17770000000E+01 0.  1.
</event>
<event>
 6    1  0.1023771E-002  0.1827387E+03  0.7546771E-02  0.1068265E+00
        -11   -1    0    0    0    0  0.00000000000E+00  0.00000000000E+00  0.18250000000E+03  0.18250000000E+03  0.00000000000E+00 0.  1.
         11   -1    0    0    0    0 -0.00000000000E+00 -0.00000000000E+00 -0.18250000000E+03  0.18250000000E+03  0.00000000000E+00 0. -1.
        -11    1    1    2    0    0 -0.72121731409E+01  0.46613026169E+01  0.18205890425E+03  0.18226131734E+03  0.00000000000E+00 0.  1.
         11    1    1    2    0    0  0.16712205977E+01  0.33979233255E+00 -0.75566366783E+02  0.75585608590E+02  0.00000000000E+00 0. -1.
        -15    1    1    2    0    0  0.59864983305E+01 -0.62136742885E+01 -0.63958573178E+02  0.64562409515E+02  0.17770000000E+01 0. -1.
         15    1    1    2    0    0 -0.44554578725E+00  0.12125793391E+01 -0.42533964289E+02  0.42590664550E+02  0.17770000000E+01 0. -1.
</event>
<event>
 6    1  0.1023771E-002  0.1917922E+03  0.7546771E-02  0.1061290E+00
        -11   -1    0    0    0    0  0.00000000000E+00  0.00000000000E+00  0.18250000000E+03  0.18250000000E+03  0.00000000000E+00 0.  1.
         11   -1    0    0    0    0 -0.00000000000E+00 -0.00000000000E+00 -0.18250000000E+03  0.18250000000E+03  0.00000000000E+00 0. -1.
        -11    1    1    2    0    0  0.28293117354E+02  0.44080871974E+01  0.11316689167E+03  0.11673335895E+03  0.00000000000E+00 0.  1.
         11    1    1    2    0    0  0.52857818030E+01 -0.36255648419E+01 -0.17308915115E+03  0.17320778983E+03  0.00000000000E+00 0. -1.
        -15    1    1    2    0    0 -0.25724734735E+02 -0.64138275232E+01  0.59568370559E+02  0.65226127133E+02  0.17770000000E+01 0. -1.
         15    1    1    2    0    0 -0.78541644222E+01  0.56313051678E+01  0.35388892814E+00  0.98327240904E+01  0.17770000000E+01 0.  1.
</event>
<event>
 6    1  0.1023771E-002  0.1834629E+03  0.7546771E-02  0.1067691E+00
        -11   -1    0    0    0    0  0.00000000000E+00  0.00000000000E+00  0.18250000000E+03  0.18250000000E+03  0.00000000000E+00 0. -1.
         11   -1    0    0    0    0 -0.00000000000E+00 -0.00000000000E+00 -0.18250000000E+03  0.18250000000E+03  0.00000000000E+00 0.  1.
        -11    1    1    2    0    0  0.23528597931E+01 -0.79798119132E+01  0.18134639131E+03  0.18153712290E+03  0.00000000000E+00 0. -1.
         11    1    1    2    0    0 -0.65056073303E+01  0.21122804898E+00 -0.15304379974E+03  0.15318215361E+03  0.00000000000E+00 0.  1.
        -15    1    1    2    0    0  0.27731638922E+01  0.57877416648E+01 -0.12177425862E+02  0.13879330718E+02  0.17770000000E+01 0.  1.
         15    1    1    2    0    0  0.13795836450E+01  0.19808421995E+01 -0.16125165708E+02  0.16401392775E+02  0.17770000000E+01 0. -1.
</event>
<event>
 6    1  0.1023771E-002  0.1836822E+03  0.7546771E-02  0.1067518E+00
        -11   -1    0    0    0    0  0.00000000000E+00  0.00000000000E+00  0.18250000000E+03  0.18250000000E+03  0.00000000000E+00 0.  1.
         11   -1    0    0    0    0 -0.00000000000E+00 -0.00000000000E+00 -0.18250000000E+03  0.18250000000E+03  0.00000000000E+00 0.  1.
        -11    1    1    2    0    0 -0.69981664877E+01 -0.12441950326E+02  0.12261033216E+03  0.12343852727E+03  0.00000000000E+00 0.  1.
         11    1    1    2    0    0 -0.19118296255E-01  0.25979680001E+01 -0.18129915638E+03  0.18131777053E+03  0.00000000000E+00 0.  1.
        -15    1    1    2    0    0  0.37705605636E+01  0.21902241312E+01  0.14530004431E+02  0.15273930943E+02  0.17770000000E+01 0.  1.
         15    1    1    2    0    0  0.32467242203E+01  0.76537581951E+01  0.44158819796E+02  0.44969771263E+02  0.17770000000E+01 0. -1.
</event>
<event>
 6    1  0.1023771E-002  0.1832067E+03  0.7546771E-02  0.1067894E+00
        -11   -1    0    0    0    0  0.00000000000E+00  0.00000000000E+00  0.18250000000E+03  0.18250000000E+03  0.00000000000E+00 0.  1.
         11   -1    0    0    0    0 -0.00000000000E+00 -0.00000000000E+00 -0.18250000000E+03  0.18250000000E+03  0.00000000000E+00 0.  1.
        -11    1    1    2    0    0  0.44542124928E+01 -0.68671985346E+01  0.18160894012E+03  0.18179330449E+03  0.00000000000E+00 0.  1.
         11    1    1    2    0    0  0.16147651076E+01  0.20043656228E+01 -0.15369371720E+03  0.15371526813E+03  0.00000000000E+00 0.  1.
        -15    1    1    2    0    0 -0.65339517281E+00  0.11294475971E+00 -0.84473226043E+01  0.86576365107E+01  0.17770000000E+01 0.  1.
         15    1    1    2    0    0 -0.54155824275E+01  0.47498881521E+01 -0.19467900317E+02  0.20833790875E+02  0.17770000000E+01 0. -1.
</event>
<event>
 6    1  0.1023771E-002  0.1829794E+03  0.7546771E-02  0.1068074E+00
        -11   -1    0    0    0    0  0.00000000000E+00  0.00000000000E+00  0.18250000000E+03  0.18250000000E+03  0.00000000000E+00 0. -1.
         11   -1    0    0    0    0 -0.00000000000E+00 -0.00000000000E+00 -0.18250000000E+03  0.18250000000E+03  0.00000000000E+00 0.  1.
        -11    1    1    2    0    0 -0.36060355224E+01 -0.37101375929E+00  0.11907583397E+03  0.11913100092E+03  0.00000000000E+00 0. -1.
         11    1    1    2    0    0 -0.29113867014E+01  0.55786014555E+00 -0.18199641894E+03  0.18202055897E+03  0.00000000000E+00 0.  1.
        -15    1    1    2    0    0 -0.13649897472E+01 -0.82836339734E+00  0.22257990831E+02  0.22385827386E+02  0.17770000000E+01 0.  1.
         15    1    1    2    0    0  0.78824119709E+01  0.64151701109E+00  0.40662594139E+02  0.41462612721E+02  0.17770000000E+01 0. -1.
</event>
<event>
 6    1  0.1023771E-002  0.1847582E+03  0.7546771E-02  0.1066671E+00
        -11   -1    0    0    0    0  0.00000000000E+00  0.00000000000E+00  0.18250000000E+03  0.18250000000E+03  0.00000000000E+00 0. -1.
         11   -1    0    0    0    0 -0.00000000000E+00 -0.00000000000E+00 -0.18250000000E+03  0.18250000000E+03  0.00000000000E+00 0.  1.
        -11    1    1    2    0    0  0.55136920300E+01 -0.79666755302E+01  0.15958850673E+03  0.15988233236E+03  0.00000000000E+00 0. -1.
         11    1    1    2    0    0 -0.13798168473E+01  0.24407795390E+01 -0.18022002037E+03  0.18024182934E+03  0.00000000000E+00 0.  1.
        -15    1    1    2    0    0  0.14626365553E+01 -0.76912088328E+00 -0.99364261908E-01  0.24286734821E+01  0.17770000000E+01 0.  1.
         15    1    1    2    0    0 -0.55965117380E+01  0.62950168745E+01  0.20730877904E+02  0.22447164827E+02  0.17770000000E+01 0. -1.
</event>
<event>
 6    1  0.1023771E-002  0.1825354E+03  0.7546771E-02  0.1068427E+00
        -11   -1    0    0    0    0  0.00000000000E+00  0.00000000000E+00  0.18250000000E+03  0.18250000000E+03  0.00000000000E+00 0.  1.
         11   -1    0    0    0    0 -0.00000000000E+00 -0.00000000000E+00 -0.18250000000E+03  0.18250000000E+03  0.00000000000E+00 0. -1.
        -11    1    1    2    0    0  0.28581762466E+00 -0.11669205348E+01  0.26497554950E+02  0.26524777352E+02  0.00000000000E+00 0.  1.
         11    1    1    2    0    0 -0.28260839353E+01  0.12419220762E+01 -0.18243847297E+03  0.18246458709E+03  0.00000000000E+00 0. -1.
        -15    1    1    2    0    0  0.52736124621E+00  0.44358529125E+00  0.56582629927E+02  0.56614720844E+02  0.17770000000E+01 0.  1.
         15    1    1    2    0    0  0.20129050644E+01 -0.51858683262E+00  0.99358288097E+02  0.99395914714E+02  0.17770000000E+01 0. -1.
</event>
<event>
 6    1  0.1023771E-002  0.1933684E+03  0.7546771E-02  0.1060118E+00
        -11   -1    0    0    0    0  0.00000000000E+00  0.00000000000E+00  0.18250000000E+03  0.18250000000E+03  0.00000000000E+00 0. -1.
         11   -1    0    0    0    0 -0.00000000000E+00 -0.00000000000E+00 -0.18250000000E+03  0.18250000000E+03  0.00000000000E+00 0. -1.
        -11    1    1    2    0    0 -0.32652755132E+02  0.11400600220E+02  0.10408116141E+03  0.10967709088E+03  0.00000000000E+00 0. -1.
         11    1    1    2    0    0  0.44091036173E+00  0.91926308798E+01 -0.17138467223E+03  0.17163159599E+03  0.00000000000E+00 0. -1.
        -15    1    1    2    0    0  0.16910012061E+02 -0.16059605728E+01  0.67080945223E+01  0.18348947610E+02  0.17770000000E+01 0.  1.
         15    1    1    2    0    0  0.15301832709E+02 -0.18987270527E+02  0.60595416302E+02  0.65342365523E+02  0.17770000000E+01 0. -1.
</event>
<event>
 6    1  0.1023771E-002  0.1834095E+03  0.7546771E-02  0.1067733E+00
        -11   -1    0    0    0    0  0.00000000000E+00  0.00000000000E+00  0.18250000000E+03  0.18250000000E+03  0.00000000000E+00 0.  1.
         11   -1    0    0    0    0 -0.00000000000E+00 -0.00000000000E+00 -0.18250000000E+03  0.18250000000E+03  0.00000000000E+00 0. -1.
        -11    1    1    2    0    0  0.12029522975E+02  0.10975726955E+02  0.18085885297E+03  0.18159047526E+03  0.00000000000E+00 0.  1.
         11    1    1    2    0    0 -0.21484610275E+01 -0.53936311810E+00 -0.12857962362E+03  0.12859870298E+03  0.00000000000E+00 0. -1.
        -15    1    1    2    0    0 -0.36000526155E+01 -0.75533210109E+01 -0.20004249773E+02  0.21756396188E+02  0.17770000000E+01 0. -1.
         15    1    1    2    0    0 -0.62810093316E+01 -0.28830428261E+01 -0.32274979577E+02  0.33054425571E+02  0.17770000000E+01 0.  1.
</event>
<event>
 6    1  0.1023771E-002  0.1839134E+03  0.7546771E-02  0.1067335E+00
        -11   -1    0    0    0    0  0.00000000000E+00  0.00000000000E+00  0.18250000000E+03  0.18250000000E+03  0.00000000000E+00 0. -1.
         11   -1    0    0    0    0 -0.00000000000E+00 -0.00000000000E+00 -0.18250000000E+03  0.18250000000E+03  0.00000000000E+00 0. -1.
        -11    1    1    2    0    0 -0.52556571886E+01  0.13765134196E+02  0.18048614513E+03  0.18108657994E+03  0.00000000000E+00 0. -1.
         11    1    1    2    0    0 -0.28798664245E+01 -0.44824427033E+00 -0.14171328702E+03  0.14174325477E+03  0.00000000000E+00 0. -1.
        -15    1    1    2    0    0  0.20227448267E+01 -0.13303410971E+01 -0.75257942036E+01  0.81028767400E+01  0.17770000000E+01 0. -1.
         15    1    1    2    0    0  0.61127787864E+01 -0.11986548829E+02 -0.31247063902E+02  0.34067288545E+02  0.17770000000E+01 0.  1.
</event>
<event>
 6    1  0.1023771E-002  0.1882731E+03  0.7546771E-02  0.1063950E+00
        -11   -1    0    0    0    0  0.00000000000E+00  0.00000000000E+00  0.18250000000E+03  0.18250000000E+03  0.00000000000E+00 0.  1.
         11   -1    0    0    0    0 -0.00000000000E+00 -0.00000000000E+00 -0.18250000000E+03  0.18250000000E+03  0.00000000000E+00 0.  1.
        -11    1    1    2    0    0  0.32321225543E+01  0.24801254604E+02  0.11863305958E+03  0.12124088284E+03  0.00000000000E+00 0.  1.
         11    1    1    2    0    0 -0.25836087553E+01  0.11682153450E+01 -0.17670416717E+03  0.17672691492E+03  0.00000000000E+00 0.  1.
        -15    1    1    2    0    0 -0.32654740043E+01 -0.42761796255E+01  0.81751675613E+00  0.57249537386E+01  0.17770000000E+01 0.  1.
         15    1    1    2    0    0  0.26169602053E+01 -0.21693290323E+02  0.57253590840E+02  0.61307248502E+02  0.17770000000E+01 0.  1.
</event>
<event>
 6    1  0.1023771E-002  0.1972094E+03  0.7546771E-02  0.1057314E+00
        -11   -1    0    0    0    0  0.00000000000E+00  0.00000000000E+00  0.18250000000E+03  0.18250000000E+03  0.00000000000E+00 0.  1.
         11   -1    0    0    0    0 -0.00000000000E+00 -0.00000000000E+00 -0.18250000000E+03  0.18250000000E+03  0.00000000000E+00 0.  1.
        -11    1    1    2    0    0  0.70836730635E+01 -0.38664399231E+02  0.16312136167E+03  0.16779062198E+03  0.00000000000E+00 0.  1.
         11    1    1    2    0    0 -0.14130246234E+01  0.11080648703E+02 -0.14493889567E+03  0.14536870672E+03  0.00000000000E+00 0.  1.
        -15    1    1    2    0    0 -0.29470512253E+01 -0.15028797657E+01 -0.22006010436E+02  0.22324112139E+02  0.17770000000E+01 0. -1.
         15    1    1    2    0    0 -0.27235972149E+01  0.29086630294E+02  0.38235444424E+01  0.29516559162E+02  0.17770000000E+01 0.  1.
</event>
<event>
 6    1  0.1023771E-002  0.1892550E+03  0.7546771E-02  0.1063201E+00
        -11   -1    0    0    0    0  0.00000000000E+00  0.00000000000E+00  0.18250000000E+03  0.18250000000E+03  0.00000000000E+00 0.  1.
         11   -1    0    0    0    0 -0.00000000000E+00 -0.00000000000E+00 -0.18250000000E+03  0.18250000000E+03  0.00000000000E+00 0.  1.
        -11    1    1    2    0    0  0.46416420367E+00 -0.10385274807E+02  0.17543724404E+03  0.17574497426E+03  0.00000000000E+00 0.  1.
         11    1    1    2    0    0  0.28836969251E+01 -0.33248017507E+01 -0.16647179989E+03  0.16652996779E+03  0.00000000000E+00 0.  1.
        -15    1    1    2    0    0  0.12593616667E+01  0.38179252103E+01 -0.10668483902E+02  0.11538493077E+02  0.17770000000E+01 0.  1.
         15    1    1    2    0    0 -0.46072227954E+01  0.98921513473E+01  0.17030397476E+01  0.11186564868E+02  0.17770000000E+01 0. -1.
</event>
<event>
 6    1  0.1023771E-002  0.1776324E+03  0.7546771E-02  0.1072397E+00
        -11   -1    0    0    0    0  0.00000000000E+00  0.00000000000E+00  0.18250000000E+03  0.18250000000E+03  0.00000000000E+00 0. -1.
         11   -1    0    0    0    0 -0.00000000000E+00 -0.00000000000E+00 -0.18250000000E+03  0.18250000000E+03  0.00000000000E+00 0.  1.
        -11    1    1    2    0    0 -0.72746998386E+01  0.93297834199E+01  0.17714928728E+03  0.17754389907E+03  0.00000000000E+00 0. -1.
         11    1    1    2    0    0 -0.59131311441E+00 -0.73145757608E+01 -0.17766253196E+03  0.17781402625E+03  0.00000000000E+00 0.  1.
        -15    1    1    2    0    0  0.35735481422E+01  0.48224700623E+00  0.14722133079E+01  0.42811154532E+01  0.17770000000E+01 0. -1.
         15    1    1    2    0    0  0.42924648108E+01 -0.24974546654E+01 -0.95896862677E+00  0.53609592224E+01  0.17770000000E+01 0.  1.
</event>
<event>
 6    1  0.1023771E-002  0.1826148E+03  0.7546771E-02  0.1068363E+00
        -11   -1    0    0    0    0  0.00000000000E+00  0.00000000000E+00  0.18250000000E+03  0.18250000000E+03  0.00000000000E+00 0. -1.
         11   -1    0    0    0    0 -0.00000000000E+00 -0.00000000000E+00 -0.18250000000E+03  0.18250000000E+03  0.00000000000E+00 0.  1.
        -11    1    1    2    0    0 -0.51483754842E+00 -0.32491245928E+01  0.19654234343E+02  0.19927638995E+02  0.00000000000E+00 0. -1.
         11    1    1    2    0    0  0.20113122095E+01  0.70328098525E+01 -0.18223843840E+03  0.18238518093E+03  0.00000000000E+00 0.  1.
        -15    1    1    2    0    0 -0.71788670661E+00 -0.14123356808E+01  0.99656769878E+02  0.99685202337E+02  0.17770000000E+01 0. -1.
         15    1    1    2    0    0 -0.77858795443E+00 -0.23713495790E+01  0.62927434179E+02  0.63001977742E+02  0.17770000000E+01 0. -1.
</event>
<event>
 6    1  0.1023771E-002  0.1828954E+03  0.7546771E-02  0.1068141E+00
        -11   -1    0    0    0    0  0.00000000000E+00  0.00000000000E+00  0.18250000000E+03  0.18250000000E+03  0.00000000000E+00 0.  1.
         11   -1    0    0    0    0 -0.00000000000E+00 -0.00000000000E+00 -0.18250000000E+03  0.18250000000E+03  0.00000000000E+00 0.  1.
        -11    1    1    2    0    0 -0.62817043068E+01  0.35011292710E+01  0.18196255129E+03  0.18210460671E+03  0.00000000000E+00 0.  1.
         11    1    1    2    0    0 -0.34158785445E+01 -0.15011474490E+01 -0.10354982525E+03  0.10361702553E+03  0.00000000000E+00 0.  1.
        -15    1    1    2    0    0  0.59921495204E+00 -0.67770331655E+00 -0.22371495579E+02  0.22460184411E+02  0.17770000000E+01 0.  1.
         15    1    1    2    0    0  0.90983678993E+01 -0.13222785054E+01 -0.56041230457E+02  0.56818183349E+02  0.17770000000E+01 0. -1.
</event>
<event>
 6    1  0.1023771E-002  0.1767919E+03  0.7546771E-02  0.1073091E+00
        -11   -1    0    0    0    0  0.00000000000E+00  0.00000000000E+00  0.18250000000E+03  0.18250000000E+03  0.00000000000E+00 0.  1.
         11   -1    0    0    0    0 -0.00000000000E+00 -0.00000000000E+00 -0.18250000000E+03  0.18250000000E+03  0.00000000000E+00 0. -1.
        -11    1    1    2    0    0  0.28250565069E+01 -0.97862402227E+01  0.17693996112E+03  0.17723290125E+03  0.00000000000E+00 0.  1.
         11    1    1    2    0    0 -0.33503658099E+01  0.21765693176E+00 -0.17644908285E+03  0.17648102211E+03  0.00000000000E+00 0. -1.
        -15    1    1    2    0    0  0.84842334605E+00  0.86442632402E+00 -0.10212439257E+01  0.23806980488E+01  0.17770000000E+01 0. -1.
         15    1    1    2    0    0 -0.32311404302E+00  0.87041569669E+01  0.53036565689E+00  0.89053785950E+01  0.17770000000E+01 0.  1.
</event>
<event>
 6    1  0.1023771E-002  0.1637559E+03  0.7546771E-02  0.1084439E+00
        -11   -1    0    0    0    0  0.00000000000E+00  0.00000000000E+00  0.18250000000E+03  0.18250000000E+03  0.00000000000E+00 0. -1.
         11   -1    0    0    0    0 -0.00000000000E+00 -0.00000000000E+00 -0.18250000000E+03  0.18250000000E+03  0.00000000000E+00 0.  1.
        -11    1    1    2    0    0  0.58417311087E+01 -0.30318298658E+02  0.15467672756E+03  0.15772829519E+03  0.00000000000E+00 0. -1.
         11    1    1    2    0    0 -0.10309790709E+02 -0.51844059906E-01 -0.17133028439E+03  0.17164020747E+03  0.00000000000E+00 0.  1.
        -15    1    1    2    0    0  0.14846738254E+01  0.24957430300E+02  0.13002717872E+02  0.28236607172E+02  0.17770000000E+01 0.  1.
         15    1    1    2    0    0  0.29833857749E+01  0.54127124185E+01  0.36508389573E+01  0.73948901614E+01  0.17770000000E+01 0. -1.
</event>
<event>
 6    1  0.1023771E-002  0.1831668E+03  0.7546771E-02  0.1067925E+00
        -11   -1    0    0    0    0  0.00000000000E+00  0.00000000000E+00  0.18250000000E+03  0.18250000000E+03  0.00000000000E+00 0. -1.
         11   -1    0    0    0    0 -0.00000000000E+00 -0.00000000000E+00 -0.18250000000E+03  0.18250000000E+03  0.00000000000E+00 0. -1.
        -11    1    1    2    0    0  0.17577169619E+01 -0.45279620172E+01  0.18176827022E+03  0.18183315448E+03  0.00000000000E+00 0. -1.
         11    1    1    2    0    0  0.28099112798E+00  0.23381373947E+01 -0.15761616935E+03  0.15763376124E+03  0.00000000000E+00 0. -1.
        -15    1    1    2    0    0 -0.20919083934E+01 -0.17984590321E+01 -0.57544851469E+01  0.66243764931E+01  0.17770000000E+01 0. -1.
         15    1    1    2    0    0  0.53200303581E-01  0.39882836547E+01 -0.18397615721E+02  0.18908707783E+02  0.17770000000E+01 0. -1.
</event>
<event>
 6    1  0.1023771E-002  0.1707655E+03  0.7546771E-02  0.1078199E+00
        -11   -1    0    0    0    0  0.00000000000E+00  0.00000000000E+00  0.18250000000E+03  0.18250000000E+03  0.00000000000E+00 0.  1.
         11   -1    0    0    0    0 -0.00000000000E+00 -0.00000000000E+00 -0.18250000000E+03  0.18250000000E+03  0.00000000000E+00 0. -1.
        -11    1    1    2    0    0  0.54565196721E+01 -0.56616603906E+01  0.16509445006E+03  0.16528159440E+03  0.00000000000E+00 0.  1.
         11    1    1    2    0    0 -0.69052491384E+01 -0.12979325314E+02 -0.17633365359E+03  0.17694547957E+03  0.00000000000E+00 0. -1.
        -15    1    1    2    0    0 -0.10877216221E+01  0.25483549996E+01  0.28920054934E+01  0.43816294121E+01  0.17770000000E+01 0. -1.
         15    1    1    2    0    0  0.25364510884E+01  0.16092630705E+02  0.83471980389E+01  0.18391296617E+02  0.17770000000E+01 0.  1.
</event>
<event>
 6    1  0.1023771E-002  0.1831141E+03  0.7546771E-02  0.1067967E+00
        -11   -1    0    0    0    0  0.00000000000E+00  0.00000000000E+00  0.18250000000E+03  0.18250000000E+03  0.00000000000E+00 0. -1.
         11   -1    0    0    0    0 -0.00000000000E+00 -0.00000000000E+00 -0.18250000000E+03  0.18250000000E+03  0.00000000000E+00 0.  1.
        -11    1    1    2    0    0  0.37181466244E+01  0.96895530444E+01  0.18158957208E+03  0.18188591133E+03  0.00000000000E+00 0. -1.
         11    1    1    2    0    0 -0.19407844822E+01  0.11183313630E+00 -0.13921775207E+03  0.13923132421E+03  0.00000000000E+00 0.  1.
        -15    1    1    2    0    0  0.11454450262E+01 -0.56206858247E+01 -0.23181550262E+02  0.23946735790E+02  0.17770000000E+01 0.  1.
         15    1    1    2    0    0 -0.29228071684E+01 -0.41807003560E+01 -0.19190269746E+02  0.19936028670E+02  0.17770000000E+01 0. -1.
</event>
<event>
 6    1  0.1023771E-002  0.1825487E+03  0.7546771E-02  0.1068416E+00
        -11   -1    0    0    0    0  0.00000000000E+00  0.00000000000E+00  0.18250000000E+03  0.18250000000E+03  0.00000000000E+00 0. -1.
         11   -1    0    0    0    0 -0.00000000000E+00 -0.00000000000E+00 -0.18250000000E+03  0.18250000000E+03  0.00000000000E+00 0. -1.
        -11    1    1    2    0    0 -0.33761944703E+00  0.60012185717E+01  0.18235230114E+03  0.18245133691E+03  0.00000000000E+00 0. -1.
         11    1    1    2    0    0 -0.27765512344E+00 -0.89995394585E+00 -0.11124716896E+02  0.11164512327E+02  0.00000000000E+00 0. -1.
        -15    1    1    2    0    0 -0.39533347919E-01 -0.36703817977E+01 -0.63719989724E+02  0.63850356967E+02  0.17770000000E+01 0.  1.
         15    1    1    2    0    0  0.65480791839E+00 -0.14308828281E+01 -0.10750759452E+03  0.10753379379E+03  0.17770000000E+01 0. -1.
</event>
<event>
 6    1  0.1023771E-002  0.1852266E+03  0.7546771E-02  0.1066305E+00
        -11   -1    0    0    0    0  0.00000000000E+00  0.00000000000E+00  0.18250000000E+03  0.18250000000E+03  0.00000000000E+00 0.  1.
         11   -1    0    0    0    0 -0.00000000000E+00 -0.00000000000E+00 -0.18250000000E+03  0.18250000000E+03  0.00000000000E+00 0.  1.
        -11    1    1    2    0    0  0.66171299748E+01  0.10922207383E+02  0.17931923897E+03  0.17977338649E+03  0.00000000000E+00 0.  1.
         11    1    1    2    0    0  0.23157105408E+01  0.34419653336E+01 -0.14572120600E+03  0.14578024392E+03  0.00000000000E+00 0.  1.
        -15    1    1    2    0    0  0.24727734213E+01 -0.17003031751E+01 -0.67142966849E+01  0.75660523559E+01  0.17770000000E+01 0. -1.
         15    1    1    2    0    0 -0.11405613937E+02 -0.12663869541E+02 -0.26883736289E+02  0.31880317233E+02  0.17770000000E+01 0. -1.
</event>
<event>
 6    1  0.1023771E-002  0.1836534E+03  0.7546771E-02  0.1067540E+00
        -11   -1    0    0    0    0  0.00000000000E+00  0.00000000000E+00  0.18250000000E+03  0.18250000000E+03  0.00000000000E+00 0. -1.
         11   -1    0    0    0    0 -0.00000000000E+00 -0.00000000000E+00 -0.18250000000E+03  0.18250000000E+03  0.00000000000E+00 0. -1.
        -11    1    1    2    0    0  0.61211212940E+01  0.11635127432E+02  0.11330704552E+03  0.11406722089E+03  0.00000000000E+00 0. -1.
         11    1    1    2    0    0 -0.26804435244E+01 -0.50249511072E+00 -0.18132610096E+03  0.18134660782E+03  0.00000000000E+00 0. -1.
        -15    1    1    2    0    0  0.16703369660E+00 -0.20128399719E+01  0.41607116833E+01  0.49546620188E+01  0.17770000000E+01 0.  1.
         15    1    1    2    0    0 -0.36077114662E+01 -0.91197923489E+01  0.63858343753E+02  0.64631509269E+02  0.17770000000E+01 0. -1.
</event>
<event>
 6    1  0.1023771E-002  0.1826983E+03  0.7546771E-02  0.1068297E+00
        -11   -1    0    0    0    0  0.00000000000E+00  0.00000000000E+00  0.18250000000E+03  0.18250000000E+03  0.00000000000E+00 0.  1.
         11   -1    0    0    0    0 -0.00000000000E+00 -0.00000000000E+00 -0.18250000000E+03  0.18250000000E+03  0.00000000000E+00 0. -1.
        -11    1    1    2    0    0  0.26761044103E+01 -0.40106931506E+01  0.18223796952E+03  0.18230174088E+03  0.00000000000E+00 0.  1.
         11    1    1    2    0    0  0.19967772652E+01  0.13857582750E-01 -0.96965267747E+02  0.96985826082E+02  0.00000000000E+00 0. -1.
        -15    1    1    2    0    0 -0.35239329557E+01  0.30698967582E+01 -0.31874547954E+02  0.32264328690E+02  0.17770000000E+01 0.  1.
         15    1    1    2    0    0 -0.11489487198E+01  0.92693880957E+00 -0.53398153814E+02  0.53448104349E+02  0.17770000000E+01 0. -1.
</event>
<event>
 6    1  0.1023771E-002  0.1832039E+03  0.7546771E-02  0.1067896E+00
        -11   -1    0    0    0    0  0.00000000000E+00  0.00000000000E+00  0.18250000000E+03  0.18250000000E+03  0.00000000000E+00 0. -1.
         11   -1    0    0    0    0 -0.00000000000E+00 -0.00000000000E+00 -0.18250000000E+03  0.18250000000E+03  0.00000000000E+00 0.  1.
        -11    1    1    2    0    0 -0.73097270887E+01 -0.40847284790E+01  0.27103819470E+02  0.28367836483E+02  0.00000000000E+00 0. -1.
         11    1    1    2    0    0  0.16262712131E+01  0.23312475544E+01 -0.18177386187E+03  0.18179608448E+03  0.00000000000E+00 0.  1.
        -15    1    1    2    0    0  0.36272084761E+01  0.16926591208E+01  0.84517444548E+02  0.84630833023E+02  0.17770000000E+01 0. -1.
         15    1    1    2    0    0  0.20562473996E+01  0.60821803783E-01  0.70152597856E+02  0.70205246012E+02  0.17770000000E+01 0. -1.
</event>
<event>
 6    1  0.1023771E-002  0.1830350E+03  0.7546771E-02  0.1068030E+00
        -11   -1    0    0    0    0  0.00000000000E+00  0.00000000000E+00  0.18250000000E+03  0.18250000000E+03  0.00000000000E+00 0. -1.
         11   -1    0    0    0    0 -0.00000000000E+00 -0.00000000000E+00 -0.18250000000E+03  0.18250000000E+03  0.00000000000E+00 0. -1.
        -11    1    1    2    0    0 -0.55790508203E+01 -0.37624231253E+00  0.11788944506E+03  0.11802198364E+03  0.00000000000E+00 0. -1.
         11    1    1    2    0    0 -0.30683167767E+01 -0.46381663362E+01 -0.18187998860E+03  0.18196498951E+03  0.00000000000E+00 0. -1.
        -15    1    1    2    0    0  0.16471808562E+01  0.54542792338E+00  0.78452361655E+01  0.82289826762E+01  0.17770000000E+01 0.  1.
         15    1    1    2    0    0  0.70001867408E+01  0.44689807254E+01  0.56145307376E+02  0.56784044172E+02  0.17770000000E+01 0. -1.
</event>
<event>
 6    1  0.1023771E-002  0.1828046E+03  0.7546771E-02  0.1068213E+00
        -11   -1    0    0    0    0  0.00000000000E+00  0.00000000000E+00  0.18250000000E+03  0.18250000000E+03  0.00000000000E+00 0.  1.
         11   -1    0    0    0    0 -0.00000000000E+00 -0.00000000000E+00 -0.18250000000E+03  0.18250000000E+03  0.00000000000E+00 0. -1.
        -11    1    1    2    0    0  0.15139746875E+01  0.96148086310E+01  0.18193527543E+03  0.18219544755E+03  0.00000000000E+00 0.  1.
         11    1    1    2    0    0 -0.86803466642E-01 -0.34477721352E+01 -0.12620887692E+03  0.12625599107E+03  0.00000000000E+00 0. -1.
        -15    1    1    2    0    0 -0.18293827686E+01 -0.98039504553E+00 -0.70212900182E+01  0.75341926096E+01  0.17770000000E+01 0.  1.
         15    1    1    2    0    0  0.40221154777E+00 -0.51866414502E+01 -0.48705108492E+02  0.49014368770E+02  0.17770000000E+01 0. -1.
</event>
<event>
 6    1  0.1023771E-002  0.1827290E+03  0.7546771E-02  0.1068273E+00
        -11   -1    0    0    0    0  0.00000000000E+00  0.00000000000E+00  0.18250000000E+03  0.18250000000E+03  0.00000000000E+00 0. -1.
         11   -1    0    0    0    0 -0.00000000000E+00 -0.00000000000E+00 -0.18250000000E+03  0.18250000000E+03  0.00000000000E+00 0. -1.
        -11    1    1    2    0    0  0.21886870436E+01  0.21532868955E+01  0.15179173054E+02  0.15486584195E+02  0.00000000000E+00 0. -1.
         11    1    1    2    0    0  0.26060249255E+01 -0.33301901878E+01 -0.18222192164E+03  0.18227098029E+03  0.00000000000E+00 0. -1.
        -15    1    1    2    0    0 -0.18558427585E+00 -0.16446227230E+01  0.41686291236E+02  0.41756961473E+02  0.17770000000E+01 0.  1.
         15    1    1    2    0    0 -0.46091276932E+01  0.28215260153E+01  0.12535645735E+03  0.12548547404E+03  0.17770000000E+01 0. -1.
</event>
<event>
 6    1  0.1023771E-002  0.1827366E+03  0.7546771E-02  0.1068267E+00
        -11   -1    0    0    0    0  0.00000000000E+00  0.00000000000E+00  0.18250000000E+03  0.18250000000E+03  0.00000000000E+00 0.  1.
         11   -1    0    0    0    0 -0.00000000000E+00 -0.00000000000E+00 -0.18250000000E+03  0.18250000000E+03  0.00000000000E+00 0.  1.
        -11    1    1    2    0    0 -0.66851716983E+00  0.48086015936E+01  0.18219877463E+03  0.18226344406E+03  0.00000000000E+00 0.  1.
         11    1    1    2    0    0 -0.41263131259E+00 -0.48769746400E+01 -0.14042634511E+03  0.14051161357E+03  0.00000000000E+00 0.  1.
        -15    1    1    2    0    0  0.24400032131E+00  0.53674912503E+00 -0.42014609181E+01  0.45997433218E+01  0.17770000000E+01 0.  1.
         15    1    1    2    0    0  0.83714816111E+00 -0.46837607857E+00 -0.37570968598E+02  0.37625199050E+02  0.17770000000E+01 0.  1.
</event>
<event>
 6    1  0.1023771E-002  0.1871058E+03  0.7546771E-02  0.1064847E+00
        -11   -1    0    0    0    0  0.00000000000E+00  0.00000000000E+00  0.18250000000E+03  0.18250000000E+03  0.00000000000E+00 0. -1.
         11   -1    0    0    0    0 -0.00000000000E+00 -0.00000000000E+00 -0.18250000000E+03  0.18250000000E+03  0.00000000000E+00 0.  1.
        -11    1    1    2    0    0  0.29396581917E+02 -0.43908560330E+02  0.14590397026E+03  0.15517760546E+03  0.00000000000E+00 0. -1.
         11    1    1    2    0    0 -0.14980787936E+02  0.39510259893E+02 -0.17280300035E+03  0.17789424267E+03  0.00000000000E+00 0.  1.
        -15    1    1    2    0    0 -0.87869690317E+01  0.48899000035E+01  0.11238714492E+02  0.15185136787E+02  0.17770000000E+01 0. -1.
         15    1    1    2    0    0 -0.56288249494E+01 -0.49159956672E+00  0.15660315599E+02  0.16743015084E+02  0.17770000000E+01 0.  1.
</event>
<event>
 6    1  0.1023771E-002  0.1854310E+03  0.7546771E-02  0.1066145E+00
        -11   -1    0    0    0    0  0.00000000000E+00  0.00000000000E+00  0.18250000000E+03  0.18250000000E+03  0.00000000000E+00 0. -1.
         11   -1    0    0    0    0 -0.00000000000E+00 -0.00000000000E+00 -0.18250000000E+03  0.18250000000E+03  0.00000000000E+00 0.  1.
        -11    1    1    2    0    0 -0.16999066620E+01 -0.28276944176E+01  0.17594472508E+03  0.17597565690E+03  0.00000000000E+00 0. -1.
         11    1    1    2    0    0 -0.27527018893E+01  0.41906993402E+01 -0.17949896927E+03  0.17956898200E+03  0.00000000000E+00 0.  1.
        -15    1    1    2    0    0  0.12839071063E+01 -0.82687080891E+00 -0.18056696323E+01  0.29580913802E+01  0.17770000000E+01 0. -1.
         15    1    1    2    0    0  0.31687014450E+01 -0.53613411362E+00  0.53599138185E+01  0.64972697171E+01  0.17770000000E+01 0.  1.
</event>
<event>
 6    1  0.1023771E-002  0.1855315E+03  0.7546771E-02  0.1066067E+00
        -11   -1    0    0    0    0  0.00000000000E+00  0.00000000000E+00  0.18250000000E+03  0.18250000000E+03  0.00000000000E+00 0. -1.
         11   -1    0    0    0    0 -0.00000000000E+00 -0.00000000000E+00 -0.18250000000E+03  0.18250000000E+03  0.00000000000E+00 0. -1.
        -11    1    1    2    0    0 -0.26495968771E+02 -0.15346595239E+02  0.17683720024E+03  0.17946852018E+03  0.00000000000E+00 0. -1.
         11    1    1    2    0    0  0.12528148541E+02  0.44056660656E+01 -0.10950137840E+03  0.11030374549E+03  0.00000000000E+00 0. -1.
        -15    1    1    2    0    0  0.10817757652E+02  0.67405616739E+01 -0.70231230482E+01  0.14660867596E+02  0.17770000000E+01 0.  1.
         15    1    1    2    0    0  0.31500625776E+01  0.42003674996E+01 -0.60312698792E+02  0.60566866734E+02  0.17770000000E+01 0. -1.
</event>
<event>
 6    1  0.1023771E-002  0.1834078E+03  0.7546771E-02  0.1067734E+00
        -11   -1    0    0    0    0  0.00000000000E+00  0.00000000000E+00  0.18250000000E+03  0.18250000000E+03  0.00000000000E+00 0.  1.
         11   -1    0    0    0    0 -0.00000000000E+00 -0.00000000000E+00 -0.18250000000E+03  0.18250000000E+03  0.00000000000E+00 0.  1.
        -11    1    1    2    0    0 -0.22891910372E+01 -0.55603744329E+01  0.18149259820E+03  0.18159218420E+03  0.00000000000E+00 0.  1.
         11    1    1    2    0    0  0.12735868333E+01 -0.17817492187E+01 -0.14621903700E+03  0.14623543837E+03  0.00000000000E+00 0.  1.
        -15    1    1    2    0    0  0.27733104297E+01  0.77838057048E+01 -0.20364382606E+02  0.22048689075E+02  0.17770000000E+01 0.  1.
         15    1    1    2    0    0 -0.17577062258E+01 -0.44168205311E+00 -0.14909178596E+02  0.15123688360E+02  0.17770000000E+01 0.  1.
</event>
<event>
 6    1  0.1023771E-002  0.1833255E+03  0.7546771E-02  0.1067800E+00
        -11   -1    0    0    0    0  0.00000000000E+00  0.00000000000E+00  0.18250000000E+03  0.18250000000E+03  0.00000000000E+00 0. -1.
         11   -1    0    0    0    0 -0.00000000000E+00 -0.00000000000E+00 -0.18250000000E+03  0.18250000000E+03  0.00000000000E+00 0.  1.
        -11    1    1    2    0    0 -0.50082652113E+01  0.47852417649E+01  0.10653436037E+03  0.10675931434E+03  0.00000000000E+00 0. -1.
         11    1    1    2    0    0  0.44086520747E+01  0.68008324636E+01 -0.18149367574E+03  0.18167454931E+03  0.00000000000E+00 0.  1.
        -15    1    1    2    0    0  0.13524874640E+01 -0.29574920962E+01  0.60709791191E+01  0.71126997901E+01  0.17770000000E+01 0.  1.
         15    1    1    2    0    0 -0.75287432732E+00 -0.86285821323E+01  0.68888336250E+02  0.69453436557E+02  0.17770000000E+01 0. -1.
</event>
<event>
 6    1  0.1023771E-002  0.1845280E+03  0.7546771E-02  0.1066852E+00
        -11   -1    0    0    0    0  0.00000000000E+00  0.00000000000E+00  0.18250000000E+03  0.18250000000E+03  0.00000000000E+00 0.  1.
         11   -1    0    0    0    0 -0.00000000000E+00 -0.00000000000E+00 -0.18250000000E+03  0.18250000000E+03  0.00000000000E+00 0. -1.
        -11    1    1    2    0    0  0.10259189141E+02 -0.12717402153E+01  0.18017566212E+03  0.18047198538E+03  0.00000000000E+00 0.  1.
         11    1    1    2    0    0  0.23629302820E+01  0.24970706957E+01 -0.15930785551E+03  0.15934494542E+03  0.00000000000E+00 0. -1.
        -15    1    1    2    0    0 -0.11349970528E+02 -0.18693110996E+01 -0.15778033550E+02  0.19606637312E+02  0.17770000000E+01 0. -1.
         15    1    1    2    0    0 -0.12721488951E+01  0.64398061921E+00 -0.50897730609E+01  0.55764318933E+01  0.17770000000E+01 0. -1.
</event>
<event>
 6    1  0.1023771E-002  0.1867730E+03  0.7546771E-02  0.1065103E+00
        -11   -1    0    0    0    0  0.00000000000E+00  0.00000000000E+00  0.18250000000E+03  0.18250000000E+03  0.00000000000E+00 0.  1.
         11   -1    0    0    0    0 -0.00000000000E+00 -0.00000000000E+00 -0.18250000000E+03  0.18250000000E+03  0.00000000000E+00 0. -1.
        -11    1    1    2    0    0  0.51079434626E+01  0.35332875253E+02  0.17461485901E+03  0.17822696807E+03  0.00000000000E+00 0.  1.
         11    1    1    2    0    0 -0.18835395196E+01  0.95196789248E+00 -0.93255822372E+02  0.93279699668E+02  0.00000000000E+00 0. -1.
        -15    1    1    2    0    0 -0.17372068324E+01  0.11923430407E+01 -0.28623019141E+02  0.28755425979E+02  0.17770000000E+01 0. -1.
         15    1    1    2    0    0 -0.14871971106E+01 -0.37477186186E+02 -0.52736017496E+02  0.64737906284E+02  0.17770000000E+01 0. -1.
</event>
<event>
 6    1  0.1023771E-002  0.1830441E+03  0.7546771E-02  0.1068023E+00
        -11   -1    0    0    0    0  0.00000000000E+00  0.00000000000E+00  0.18250000000E+03  0.18250000000E+03  0.00000000000E+00 0.  1.
         11   -1    0    0    0    0 -0.00000000000E+00 -0.00000000000E+00 -0.18250000000E+03  0.18250000000E+03  0.00000000000E+00 0. -1.
        -11    1    1    2    0    0  0.51492305675E+01 -0.72046696004E+01  0.18174026717E+03  0.18195589177E+03  0.00000000000E+00 0.  1.
         11    1    1    2    0    0 -0.47894821955E+01 -0.27333392274E+01 -0.12639367970E+03  0.12651392236E+03  0.00000000000E+00 0. -1.
        -15    1    1    2    0    0  0.37988685355E+00  0.82477422094E+01 -0.48291628716E+02  0.49024572396E+02  0.17770000000E+01 0. -1.
         15    1    1    2    0    0 -0.73963522550E+00  0.16902666184E+01 -0.70549587520E+01  0.75056134659E+01  0.17770000000E+01 0.  1.
</event>
<event>
 6    1  0.1023771E-002  0.1652285E+03  0.7546771E-02  0.1083100E+00
        -11   -1    0    0    0    0  0.00000000000E+00  0.00000000000E+00  0.18250000000E+03  0.18250000000E+03  0.00000000000E+00 0.  1.
         11   -1    0    0    0    0 -0.00000000000E+00 -0.00000000000E+00 -0.18250000000E+03  0.18250000000E+03  0.00000000000E+00 0.  1.
        -11    1    1    2    0    0  0.14191130181E+02  0.64510351629E+01  0.16761144072E+03  0.16833478277E+03  0.00000000000E+00 0.  1.
         11    1    1    2    0    0  0.56934885110E+01  0.11299699388E+01 -0.16273905944E+03  0.16284254392E+03  0.00000000000E+00 0.  1.
        -15    1    1    2    0    0  0.22951824032E+01 -0.69220706995E+01 -0.84213180130E+01  0.11280924213E+02  0.17770000000E+01 0.  1.
         15    1    1    2    0    0 -0.22179801095E+02 -0.65893440221E+00  0.35489367367E+01  0.22541749092E+02  0.17770000000E+01 0. -1.
</event>
<event>
 6    1  0.1023771E-002  0.1827174E+03  0.7546771E-02  0.1068282E+00
        -11   -1    0    0    0    0  0.00000000000E+00  0.00000000000E+00  0.18250000000E+03  0.18250000000E+03  0.00000000000E+00 0.  1.
         11   -1    0    0    0    0 -0.00000000000E+00 -0.00000000000E+00 -0.18250000000E+03  0.18250000000E+03  0.00000000000E+00 0. -1.
        -11    1    1    2    0    0  0.22584932820E+01  0.16483720267E+01  0.14965714626E+03  0.14968326342E+03  0.00000000000E+00 0.  1.
         11    1    1    2    0    0 -0.26193096495E+01 -0.54007839738E+01 -0.18218376668E+03  0.18228262148E+03  0.00000000000E+00 0. -1.
        -15    1    1    2    0    0 -0.88274036960E+00  0.26644226867E+01  0.20123913848E+02  0.20396274571E+02  0.17770000000E+01 0.  1.
         15    1    1    2    0    0  0.12435567372E+01  0.10879892603E+01  0.12402706576E+02  0.12637840536E+02  0.17770000000E+01 0. -1.
</event>
<event>
 6    1  0.1023771E-002  0.1826344E+03  0.7546771E-02  0.1068348E+00
        -11   -1    0    0    0    0  0.00000000000E+00  0.00000000000E+00  0.18250000000E+03  0.18250000000E+03  0.00000000000E+00 0.  1.
         11   -1    0    0    0    0 -0.00000000000E+00 -0.00000000000E+00 -0.18250000000E+03  0.18250000000E+03  0.00000000000E+00 0. -1.
        -11    1    1    2    0    0  0.41305137626E+01  0.27303501143E+01  0.18229835401E+03  0.18236558291E+03  0.00000000000E+00 0.  1.
         11    1    1    2    0    0 -0.39998610838E+01 -0.30706285187E+01 -0.12752414499E+03  0.12762380343E+03  0.00000000000E+00 0. -1.
        -15    1    1    2    0    0  0.15899588800E+01 -0.57788914581E+00 -0.27263484414E+02  0.27373659538E+02  0.17770000000E+01 0. -1.
         15    1    1    2    0    0 -0.17206115588E+01  0.91816755014E+00 -0.27510724607E+02  0.27636954123E+02  0.17770000000E+01 0.  1.
</event>
<event>
 6    1  0.1023771E-002  0.1826943E+03  0.7546771E-02  0.1068300E+00
        -11   -1    0    0    0    0  0.00000000000E+00  0.00000000000E+00  0.18250000000E+03  0.18250000000E+03  0.00000000000E+00 0. -1.
         11   -1    0    0    0    0 -0.00000000000E+00 -0.00000000000E+00 -0.18250000000E+03  0.18250000000E+03  0.00000000000E+00 0. -1.
        -11    1    1    2    0    0 -0.14566905895E+01 -0.29327436702E+01  0.61340008848E+02  0.61427352364E+02  0.00000000000E+00 0. -1.
         11    1    1    2    0    0 -0.22917314798E+01 -0.12106451153E+01 -0.18228732153E+03  0.18230574672E+03  0.00000000000E+00 0. -1.
        -15    1    1    2    0    0  0.51472637627E+00  0.20550815001E+01  0.16235455086E+02  0.16469245097E+02  0.17770000000E+01 0. -1.
         15    1    1    2    0    0  0.32336956930E+01  0.20883072854E+01  0.10471185760E+03  0.10479765582E+03  0.17770000000E+01 0.  1.
</event>
<event>
 6    1  0.1023771E-002  0.1827572E+03  0.7546771E-02  0.1068250E+00
        -11   -1    0    0    0    0  0.00000000000E+00  0.00000000000E+00  0.18250000000E+03  0.18250000000E+03  0.00000000000E+00 0.  1.
         11   -1    0    0    0    0 -0.00000000000E+00 -0.00000000000E+00 -0.18250000000E+03  0.18250000000E+03  0.00000000000E+00 0. -1.
        -11    1    1    2    0    0 -0.48654292072E+01 -0.35832916136E+01  0.18214258442E+03  0.18224278708E+03  0.00000000000E+00 0.  1.
         11    1    1    2    0    0  0.59488379174E+01 -0.59692940204E+00 -0.47000552566E+02  0.47379288078E+02  0.00000000000E+00 0. -1.
        -15    1    1    2    0    0 -0.15672029641E+01  0.20541869660E+01 -0.11474720003E+03  0.11479004074E+03  0.17770000000E+01 0. -1.
         15    1    1    2    0    0  0.48379425386E+00  0.21260340497E+01 -0.20394831826E+02  0.20587884104E+02  0.17770000000E+01 0. -1.
</event>
<event>
 6    1  0.1023771E-002  0.1827283E+03  0.7546771E-02  0.1068273E+00
        -11   -1    0    0    0    0  0.00000000000E+00  0.00000000000E+00  0.18250000000E+03  0.18250000000E+03  0.00000000000E+00 0.  1.
         11   -1    0    0    0    0 -0.00000000000E+00 -0.00000000000E+00 -0.18250000000E+03  0.18250000000E+03  0.00000000000E+00 0.  1.
        -11    1    1    2    0    0  0.45664083240E+01  0.71990155444E+00  0.18221306249E+03  0.18227169415E+03  0.00000000000E+00 0.  1.
         11    1    1    2    0    0  0.44525111889E+00 -0.29287435383E+01 -0.13374825530E+03  0.13378105839E+03  0.00000000000E+00 0.  1.
        -15    1    1    2    0    0 -0.35188403158E+01  0.12704378096E+01 -0.24006146618E+02  0.24360809795E+02  0.17770000000E+01 0.  1.
         15    1    1    2    0    0 -0.14928191271E+01  0.93840417425E+00 -0.24458660571E+02  0.24586437670E+02  0.17770000000E+01 0. -1.
</event>
<event>
 6    1  0.1023771E-002  0.1742409E+03  0.7546771E-02  0.1075226E+00
        -11   -1    0    0    0    0  0.00000000000E+00  0.00000000000E+00  0.18250000000E+03  0.18250000000E+03  0.00000000000E+00 0. -1.
         11   -1    0    0    0    0 -0.00000000000E+00 -0.00000000000E+00 -0.18250000000E+03  0.18250000000E+03  0.00000000000E+00 0.  1.
        -11    1    1    2    0    0 -0.65772515647E+01  0.60367595198E+01  0.17077517622E+03  0.17100837265E+03  0.00000000000E+00 0. -1.
         11    1    1    2    0    0 -0.34359358081E+01  0.17370088012E+01 -0.17773151958E+03  0.17777321482E+03  0.00000000000E+00 0.  1.
        -15    1    1    2    0    0  0.33505624601E+00 -0.30671298734E+01  0.65127137589E+00  0.36195899980E+01  0.17770000000E+01 0.  1.
         15    1    1    2    0    0  0.96781311267E+01 -0.47066384475E+01  0.63050719830E+01  0.12598822536E+02  0.17770000000E+01 0. -1.
</event>
<event>
 6    1  0.1023771E-002  0.1844666E+03  0.7546771E-02  0.1066900E+00
        -11   -1    0    0    0    0  0.00000000000E+00  0.00000000000E+00  0.18250000000E+03  0.18250000000E+03  0.00000000000E+00 0. -1.
         11   -1    0    0    0    0 -0.00000000000E+00 -0.00000000000E+00 -0.18250000000E+03  0.18250000000E+03  0.00000000000E+00 0. -1.
        -11    1    1    2    0    0 -0.74929924384E+01 -0.64657256016E+01  0.15667358022E+03  0.15698586332E+03  0.00000000000E+00 0. -1.
         11    1    1    2    0    0  0.65518727378E+01 -0.45804228777E+01 -0.18035628471E+03  0.18053336740E+03  0.00000000000E+00 0. -1.
        -15    1    1    2    0    0 -0.33331276856E+01  0.56608614437E+01  0.12539715297E+02  0.14267350181E+02  0.17770000000E+01 0. -1.
         15    1    1    2    0    0  0.42742473863E+01  0.53852870356E+01  0.11142989195E+02  0.13213419102E+02  0.17770000000E+01 0.  1.
</event>
<event>
 6    1  0.1023771E-002  0.1840617E+03  0.7546771E-02  0.1067218E+00
        -11   -1    0    0    0    0  0.00000000000E+00  0.00000000000E+00  0.18250000000E+03  0.18250000000E+03  0.00000000000E+00 0. -1.
         11   -1    0    0    0    0 -0.00000000000E+00 -0.00000000000E+00 -0.18250000000E+03  0.18250000000E+03  0.00000000000E+00 0. -1.
        -11    1    1    2    0    0  0.82304005529E+00 -0.53754381591E+01  0.16983035006E+03  0.16991739326E+03  0.00000000000E+00 0. -1.
         11    1    1    2    0    0 -0.35449454841E+01  0.44536595394E+00 -0.18090303628E+03  0.18093831414E+03  0.00000000000E+00 0. -1.
        -15    1    1    2    0    0  0.35628777166E+01  0.11780763644E+01  0.33451310639E+01  0.53319407703E+01  0.17770000000E+01 0.  1.
         15    1    1    2    0    0 -0.84097228780E+00  0.37519958407E+01  0.77275551545E+01  0.88123518338E+01  0.17770000000E+01 0. -1.
</event>
<event>
 6    1  0.1023771E-002  0.1829746E+03  0.7546771E-02  0.1068078E+00
        -11   -1    0    0    0    0  0.00000000000E+00  0.00000000000E+00  0.18250000000E+03  0.18250000000E+03  0.00000000000E+00 0.  1.
         11   -1    0    0    0    0 -0.00000000000E+00 -0.00000000000E+00 -0.18250000000E+03  0.18250000000E+03  0.00000000000E+00 0.  1.
        -11    1    1    2    0    0  0.10731296098E+02 -0.13292318534E+01  0.18170391655E+03  0.18202538522E+03  0.00000000000E+00 0.  1.
         11    1    1    2    0    0 -0.57113930578E+00  0.25120854330E+01 -0.13225729209E+03  0.13228238010E+03  0.00000000000E+00 0.  1.
        -15    1    1    2    0    0 -0.51651440407E+01  0.11405363508E+00 -0.30035821891E+02  0.30528675813E+02  0.17770000000E+01 0.  1.
         15    1    1    2    0    0 -0.49950127513E+01 -0.12969072147E+01 -0.19410802570E+02  0.20163558865E+02  0.17770000000E+01 0. -1.
</event>
<event>
 6    1  0.1023771E-002  0.1834743E+03  0.7546771E-02  0.1067682E+00
        -11   -1    0    0    0    0  0.00000000000E+00  0.00000000000E+00  0.18250000000E+03  0.18250000000E+03  0.00000000000E+00 0. -1.
         11   -1    0    0    0    0 -0.00000000000E+00 -0.00000000000E+00 -0.18250000000E+03  0.18250000000E+03  0.00000000000E+00 0.  1.
        -11    1    1    2    0    0 -0.10361564404E+02 -0.89570003016E+01  0.13648072921E+03  0.13716624701E+03  0.00000000000E+00 0. -1.
         11    1    1    2    0    0  0.33730938739E+01  0.39262856578E+01 -0.18145187154E+03  0.18152568734E+03  0.00000000000E+00 0.  1.
        -15    1    1    2    0    0  0.74121916554E+01  0.47098535786E+01  0.40259398328E+02  0.41244395845E+02  0.17770000000E+01 0. -1.
         15    1    1    2    0    0 -0.42372112539E+00  0.32086106527E+00  0.47117439956E+01  0.50636698051E+01  0.17770000000E+01 0.  1.
</event>
<event>
 6    1  0.1023771E-002  0.1839169E+03  0.7546771E-02  0.1067332E+00
        -11   -1    0    0    0    0  0.00000000000E+00  0.00000000000E+00  0.18250000000E+03  0.18250000000E+03  0.00000000000E+00 0.  1.
         11   -1    0    0    0    0 -0.00000000000E+00 -0.00000000000E+00 -0.18250000000E+03  0.18250000000E+03  0.00000000000E+00 0.  1.
        -11    1    1    2    0    0  0.10808981018E+02  0.14254400360E+02  0.18019726569E+03  0.18108306537E+03  0.00000000000E+00 0.  1.
         11    1    1    2    0    0  0.21062478000E+01  0.35377389318E+01 -0.85220056966E+02  0.85319458424E+02  0.00000000000E+00 0.  1.
        -15    1    1    2    0    0 -0.96667420407E+01 -0.17594542930E+02 -0.57352032117E+02  0.60790025165E+02  0.17770000000E+01 0.  1.
         15    1    1    2    0    0 -0.32484867769E+01 -0.19759636124E+00 -0.37625176607E+02  0.37807451043E+02  0.17770000000E+01 0.  1.
</event>
<event>
 6    1  0.1023771E-002  0.1826926E+03  0.7546771E-02  0.1068302E+00
        -11   -1    0    0    0    0  0.00000000000E+00  0.00000000000E+00  0.18250000000E+03  0.18250000000E+03  0.00000000000E+00 0.  1.
         11   -1    0    0    0    0 -0.00000000000E+00 -0.00000000000E+00 -0.18250000000E+03  0.18250000000E+03  0.00000000000E+00 0. -1.
        -11    1    1    2    0    0 -0.12538739481E+01 -0.52623106511E+00  0.14230830259E+02  0.14295651397E+02  0.00000000000E+00 0.  1.
         11    1    1    2    0    0  0.55451225770E+00 -0.81216679069E+01 -0.18212556167E+03  0.18230740299E+03  0.00000000000E+00 0. -1.
        -15    1    1    2    0    0 -0.22735706063E+01  0.37103974485E+01  0.29610513383E+02  0.29981267557E+02  0.17770000000E+01 0. -1.
         15    1    1    2    0    0  0.29729322967E+01  0.49375015235E+01  0.13828421802E+03  0.13841567805E+03  0.17770000000E+01 0.  1.
</event>
<event>
 6    1  0.1023771E-002  0.1829785E+03  0.7546771E-02  0.1068075E+00
        -11   -1    0    0    0    0  0.00000000000E+00  0.00000000000E+00  0.18250000000E+03  0.18250000000E+03  0.00000000000E+00 0. -1.
         11   -1    0    0    0    0 -0.00000000000E+00 -0.00000000000E+00 -0.18250000000E+03  0.18250000000E+03  0.00000000000E+00 0. -1.
        -11    1    1    2    0    0  0.31499686162E+01  0.40628096448E+01  0.11231873344E+02  0.12352477618E+02  0.00000000000E+00 0. -1.
         11    1    1    2    0    0 -0.21261497813E+01 -0.12816164192E+02 -0.18155728947E+03  0.18202149306E+03  0.00000000000E+00 0. -1.
        -15    1    1    2    0    0  0.17067152459E+00  0.69407616721E+01  0.13458795097E+03  0.13477862433E+03  0.17770000000E+01 0. -1.
         15    1    1    2    0    0 -0.11944903595E+01  0.18125928749E+01  0.35737465153E+02  0.35847404992E+02  0.17770000000E+01 0.  1.
</event>
<event>
 6    1  0.1023771E-002  0.1828025E+03  0.7546771E-02  0.1068214E+00
        -11   -1    0    0    0    0  0.00000000000E+00  0.00000000000E+00  0.18250000000E+03  0.18250000000E+03  0.00000000000E+00 0. -1.
         11   -1    0    0    0    0 -0.00000000000E+00 -0.00000000000E+00 -0.18250000000E+03  0.18250000000E+03  0.00000000000E+00 0.  1.
        -11    1    1    2    0    0 -0.33305915398E+01 -0.50279460522E+01  0.18209768874E+03  0.18219753381E+03  0.00000000000E+00 0. -1.
         11    1    1    2    0    0  0.20998736313E+01 -0.17700808803E+01 -0.93465334539E+02  0.93505675850E+02  0.00000000000E+00 0.  1.
        -15    1    1    2    0    0  0.26679721791E+01  0.63942728535E+01 -0.81104210584E+02  0.81419011934E+02  0.17770000000E+01 0.  1.
         15    1    1    2    0    0 -0.14372542706E+01  0.40375407900E+00 -0.75281436212E+01  0.78777784036E+01  0.17770000000E+01 0. -1.
</event>
<event>
 6    1  0.1023771E-002  0.1764618E+03  0.7546771E-02  0.1073365E+00
        -11   -1    0    0    0    0  0.00000000000E+00  0.00000000000E+00  0.18250000000E+03  0.18250000000E+03  0.00000000000E+00 0.  1.
         11   -1    0    0    0    0 -0.00000000000E+00 -0.00000000000E+00 -0.18250000000E+03  0.18250000000E+03  0.00000000000E+00 0. -1.
        -11    1    1    2    0    0  0.86856934813E+01 -0.43828826956E+01  0.17388402398E+03  0.17415597815E+03  0.00000000000E+00 0.  1.
         11    1    1    2    0    0 -0.14324154386E+00  0.52990449993E+01 -0.17882816693E+03  0.17890671783E+03  0.00000000000E+00 0. -1.
        -15    1    1    2    0    0 -0.41456857379E+01  0.61418737172E+00  0.52452814405E+01  0.69451164681E+01  0.17770000000E+01 0.  1.
         15    1    1    2    0    0 -0.43967661995E+01 -0.15303496754E+01 -0.30113848076E+00  0.49921875492E+01  0.17770000000E+01 0. -1.
</event>
<event>
 6    1  0.1023771E-002  0.1836117E+03  0.7546771E-02  0.1067573E+00
        -11   -1    0    0    0    0  0.00000000000E+00  0.00000000000E+00  0.18250000000E+03  0.18250000000E+03  0.00000000000E+00 0.  1.
         11   -1    0    0    0    0 -0.00000000000E+00 -0.00000000000E+00 -0.18250000000E+03  0.18250000000E+03  0.00000000000E+00 0. -1.
        -11    1    1    2    0    0 -0.13569822150E+00  0.75382498070E+01  0.15950888689E+02  0.17642972373E+02  0.00000000000E+00 0.  1.
         11    1    1    2    0    0  0.90336608087E+01  0.42489419956E+01 -0.18111339154E+03  0.18138831586E+03  0.00000000000E+00 0. -1.
        -15    1    1    2    0    0 -0.76112176077E+01 -0.69409172961E+01  0.12818688840E+03  0.12861237520E+03  0.17770000000E+01 0.  1.
         15    1    1    2    0    0 -0.12867449794E+01 -0.48462745066E+01  0.36975614446E+02  0.37356336569E+02  0.17770000000E+01 0.  1.
</event>
<event>
 6    1  0.1023771E-002  0.1858286E+03  0.7546771E-02  0.1065836E+00
        -11   -1    0    0    0    0  0.00000000000E+00  0.00000000000E+00  0.18250000000E+03  0.18250000000E+03  0.00000000000E+00 0.  1.
         11   -1    0    0    0    0 -0.00000000000E+00 -0.00000000000E+00 -0.18250000000E+03  0.18250000000E+03  0.00000000000E+00 0. -1.
        -11    1    1    2    0    0  0.41734018558E+01  0.49601164401E+00  0.17912213365E+03  0.17917143208E+03  0.00000000000E+00 0.  1.
         11    1    1    2    0    0  0.37933050099E+01  0.63535995178E+00 -0.17348347265E+03  0.17352610216E+03  0.00000000000E+00 0. -1.
        -15    1    1    2    0    0 -0.84786332588E+01 -0.10477775573E+01 -0.57464365563E+01  0.10448173134E+02  0.17770000000E+01 0. -1.
         15    1    1    2    0    0  0.51192639304E+00 -0.83594038531E-01  0.10777556492E+00  0.18542926327E+01  0.17770000000E+01 0. -1.
</event>
<event>
 6    1  0.1023771E-002  0.1826893E+03  0.7546771E-02  0.1068304E+00
        -11   -1    0    0    0    0  0.00000000000E+00  0.00000000000E+00  0.18250000000E+03  0.18250000000E+03  0.00000000000E+00 0. -1.
         11   -1    0    0    0    0 -0.00000000000E+00 -0.00000000000E+00 -0.18250000000E+03  0.18250000000E+03  0.00000000000E+00 0.  1.
        -11    1    1    2    0    0  0.88753692754E+00  0.20335986919E+01  0.77017766395E+01  0.80150239452E+01  0.00000000000E+00 0. -1.
         11    1    1    2    0    0 -0.26219714475E+01  0.19239592306E+00 -0.18229178353E+03  0.18231074047E+03  0.00000000000E+00 0.  1.
        -15    1    1    2    0    0  0.81765369777E+00 -0.10168624246E+00  0.35778895052E+02  0.35832470719E+02  0.17770000000E+01 0. -1.
         15    1    1    2    0    0  0.91678082221E+00 -0.21243083725E+01  0.13881111183E+03  0.13884176486E+03  0.17770000000E+01 0. -1.
</event>
<event>
 6    1  0.1023771E-002  0.1828208E+03  0.7546771E-02  0.1068200E+00
        -11   -1    0    0    0    0  0.00000000000E+00  0.00000000000E+00  0.18250000000E+03  0.18250000000E+03  0.00000000000E+00 0. -1.
         11   -1    0    0    0    0 -0.00000000000E+00 -0.00000000000E+00 -0.18250000000E+03  0.18250000000E+03  0.00000000000E+00 0. -1.
        -11    1    1    2    0    0  0.74192944039E+00 -0.51636866585E+01  0.26045375785E+02  0.26562675298E+02  0.00000000000E+00 0. -1.
         11    1    1    2    0    0 -0.10454801806E+01  0.33910408929E+01 -0.18214467134E+03  0.18217923451E+03  0.00000000000E+00 0. -1.
        -15    1    1    2    0    0 -0.15579164912E+01 -0.83619899198E+00  0.29674258065E+02  0.29779953883E+02  0.17770000000E+01 0.  1.
         15    1    1    2    0    0  0.18614672314E+01  0.26088447576E+01  0.12642503749E+03  0.12647813631E+03  0.17770000000E+01 0. -1.
</event>
<event>
 6    1  0.1023771E-002  0.1850890E+03  0.7546771E-02  0.1066412E+00
        -11   -1    0    0    0    0  0.00000000000E+00  0.00000000000E+00  0.18250000000E+03  0.18250000000E+03  0.00000000000E+00 0.  1.
         11   -1    0    0    0    0 -0.00000000000E+00 -0.00000000000E+00 -0.18250000000E+03  0.18250000000E+03  0.00000000000E+00 0.  1.
        -11    1    1    2    0    0  0.52590722100E+01  0.66302045489E+01  0.17971180969E+03  0.17991095573E+03  0.00000000000E+00 0.  1.
         11    1    1    2    0    0 -0.33167477189E+01  0.12896287270E+01 -0.16224622029E+03  0.16228524257E+03  0.00000000000E+00 0.  1.
        -15    1    1    2    0    0 -0.30843891998E+01 -0.28791337850E+00  0.60441717159E-01  0.35717968938E+01  0.17770000000E+01 0.  1.
         15    1    1    2    0    0  0.11420647088E+01 -0.76319198974E+01 -0.17526031109E+02  0.19232004798E+02  0.17770000000E+01 0. -1.
</event>
<event>
 6    1  0.1023771E-002  0.1925710E+03  0.7546771E-02  0.1060709E+00
        -11   -1    0    0    0    0  0.00000000000E+00  0.00000000000E+00  0.18250000000E+03  0.18250000000E+03  0.00000000000E+00 0. -1.
         11   -1    0    0    0    0 -0.00000000000E+00 -0.00000000000E+00 -0.18250000000E+03  0.18250000000E+03  0.00000000000E+00 0. -1.
        -11    1    1    2    0    0  0.35495439100E+02 -0.18764751568E+02  0.16768934449E+03  0.17242899511E+03  0.00000000000E+00 0. -1.
         11    1    1    2    0    0  0.81173144092E+00 -0.33504469016E+01 -0.13194452147E+03  0.13198954940E+03  0.00000000000E+00 0. -1.
        -15    1    1    2    0    0 -0.14839613559E+02  0.18954866081E+02 -0.82471031348E+01  0.25508302920E+02  0.17770000000E+01 0. -1.
         15    1    1    2    0    0 -0.21467556982E+02  0.31603323883E+01 -0.27497719885E+02  0.35073152573E+02  0.17770000000E+01 0.  1.
</event>
<event>
 6    1  0.1023771E-002  0.1839408E+03  0.7546771E-02  0.1067314E+00
        -11   -1    0    0    0    0  0.00000000000E+00  0.00000000000E+00  0.18250000000E+03  0.18250000000E+03  0.00000000000E+00 0.  1.
         11   -1    0    0    0    0 -0.00000000000E+00 -0.00000000000E+00 -0.18250000000E+03  0.18250000000E+03  0.00000000000E+00 0. -1.
        -11    1    1    2    0    0  0.72940577264E+01 -0.58541956338E+01  0.16717213338E+03  0.16743356015E+03  0.00000000000E+00 0.  1.
         11    1    1    2    0    0 -0.37179675874E+01 -0.13014419561E+01 -0.18101638053E+03  0.18105923631E+03  0.00000000000E+00 0. -1.
        -15    1    1    2    0    0 -0.29507644012E+01  0.44127015350E+01  0.96147630477E+01  0.11125661457E+02  0.17770000000E+01 0.  1.
         15    1    1    2    0    0 -0.62532573784E+00  0.27429360549E+01  0.42294840996E+01  0.53815420865E+01  0.17770000000E+01 0. -1.
</event>
<event>
 6    1  0.1023771E-002  0.1838523E+03  0.7546771E-02  0.1067383E+00
        -11   -1    0    0    0    0  0.00000000000E+00  0.00000000000E+00  0.18250000000E+03  0.18250000000E+03  0.00000000000E+00 0.  1.
         11   -1    0    0    0    0 -0.00000000000E+00 -0.00000000000E+00 -0.18250000000E+03  0.18250000000E+03  0.00000000000E+00 0.  1.
        -11    1    1    2    0    0  0.82682349214E+01 -0.48839760677E+01  0.13217519642E+03  0.13252358084E+03  0.00000000000E+00 0.  1.
         11    1    1    2    0    0 -0.15322262035E+01 -0.23095852561E+01 -0.18112652006E+03  0.18114772472E+03  0.00000000000E+00 0.  1.
        -15    1    1    2    0    0 -0.52909510400E+01  0.79997007225E+01  0.47518522425E+02  0.48509350408E+02  0.17770000000E+01 0. -1.
         15    1    1    2    0    0 -0.14450576778E+01 -0.80613939869E+00  0.14328012174E+01  0.28193440285E+01  0.17770000000E+01 0.  1.
</event>
<event>
 6    1  0.1023771E-002  0.1829733E+03  0.7546771E-02  0.1068079E+00
        -11   -1    0    0    0    0  0.00000000000E+00  0.00000000000E+00  0.18250000000E+03  0.18250000000E+03  0.00000000000E+00 0.  1.
         11   -1    0    0    0    0 -0.00000000000E+00 -0.00000000000E+00 -0.18250000000E+03  0.18250000000E+03  0.00000000000E+00 0. -1.
        -11    1    1    2    0    0  0.61214502768E+00 -0.44757741287E+01  0.62822435566E+02  0.62984646431E+02  0.00000000000E+00 0.  1.
         11    1    1    2    0    0  0.45152923624E+01  0.96917714395E+00 -0.18196812292E+03  0.18202671488E+03  0.00000000000E+00 0. -1.
        -15    1    1    2    0    0  0.25948345050E+01  0.12416077319E+01  0.75253623670E+02  0.75329545070E+02  0.17770000000E+01 0.  1.
         15    1    1    2    0    0 -0.77222718951E+01  0.22649892529E+01  0.43892063685E+02  0.44659093622E+02  0.17770000000E+01 0. -1.
</event>
<event>
 6    1  0.1023771E-002  0.1858080E+03  0.7546771E-02  0.1065852E+00
        -11   -1    0    0    0    0  0.00000000000E+00  0.00000000000E+00  0.18250000000E+03  0.18250000000E+03  0.00000000000E+00 0. -1.
         11   -1    0    0    0    0 -0.00000000000E+00 -0.00000000000E+00 -0.18250000000E+03  0.18250000000E+03  0.00000000000E+00 0.  1.
        -11    1    1    2    0    0 -0.15803971409E+01  0.12344233829E+02  0.16794850182E+03  0.16840895768E+03  0.00000000000E+00 0. -1.
         11    1    1    2    0    0  0.21574985632E+01 -0.14962190790E+01 -0.17917277351E+03  0.17919200942E+03  0.00000000000E+00 0.  1.
        -15    1    1    2    0    0 -0.71820623240E+00 -0.95702116464E+01  0.11614846200E+02  0.15171260739E+02  0.17770000000E+01 0.  1.
         15    1    1    2    0    0  0.14110481010E+00 -0.12778031037E+01 -0.39057451117E+00  0.22277721580E+01  0.17770000000E+01 0.  1.
</event>
<event>
 6    1  0.1023771E-002  0.1835834E+03  0.7546771E-02  0.1067596E+00
        -11   -1    0    0    0    0  0.00000000000E+00  0.00000000000E+00  0.18250000000E+03  0.18250000000E+03  0.00000000000E+00 0. -1.
         11   -1    0    0    0    0 -0.00000000000E+00 -0.00000000000E+00 -0.18250000000E+03  0.18250000000E+03  0.00000000000E+00 0. -1.
        -11    1    1    2    0    0 -0.22483273913E+01 -0.12132192373E+01  0.17595215606E+03  0.17597070239E+03  0.00000000000E+00 0. -1.
         11    1    1    2    0    0 -0.60568194962E+00  0.25503054694E+01 -0.18139767297E+03  0.18141661078E+03  0.00000000000E+00 0. -1.
        -15    1    1    2    0    0  0.14954584200E+01 -0.48519808829E+00  0.10226197832E+01  0.25836588962E+01  0.17770000000E+01 0.  1.
         15    1    1    2    0    0  0.13585509209E+01 -0.85188814387E+00  0.44228971210E+01  0.50290279337E+01  0.17770000000E+01 0. -1.
</event>
<event>
 6    1  0.1023771E-002  0.1832992E+03  0.7546771E-02  0.1067820E+00
        -11   -1    0    0    0    0  0.00000000000E+00  0.00000000000E+00  0.18250000000E+03  0.18250000000E+03  0.00000000000E+00 0.  1.
         11   -1    0    0    0    0 -0.00000000000E+00 -0.00000000000E+00 -0.18250000000E+03  0.18250000000E+03  0.00000000000E+00 0. -1.
        -11    1    1    2    0    0 -0.86974046434E+01  0.25785890541E+01  0.14303909209E+03  0.14332646593E+03  0.00000000000E+00 0.  1.
         11    1    1    2    0    0  0.32531663157E+01 -0.13945042826E+01 -0.18166636566E+03  0.18170084244E+03  0.00000000000E+00 0. -1.
        -15    1    1    2    0    0 -0.10835224066E+01  0.26578448674E+00  0.28872997743E+01  0.35691583301E+01  0.17770000000E+01 0. -1.
         15    1    1    2    0    0  0.65277607344E+01 -0.14498692583E+01  0.35739973789E+02  0.36403533297E+02  0.17770000000E+01 0.  1.
</event>
<event>
 6    1  0.1023771E-002  0.1836345E+03  0.7546771E-02  0.1067555E+00
        -11   -1    0    0    0    0  0.00000000000E+00  0.00000000000E+00  0.18250000000E+03  0.18250000000E+03  0.00000000000E+00 0.  1.
         11   -1    0    0    0    0 -0.00000000000E+00 -0.00000000000E+00 -0.18250000000E+03  0.18250000000E+03  0.00000000000E+00 0.  1.
        -11    1    1    2    0    0 -0.34772432176E+01  0.27423284628E+01  0.17035610159E+03  0.17041365243E+03  0.00000000000E+00 0.  1.
         11    1    1    2    0    0  0.21885927113E+01 -0.22650912384E+01 -0.18133816791E+03  0.18136551965E+03  0.00000000000E+00 0.  1.
        -15    1    1    2    0    0  0.28943529827E+01 -0.24764180676E+01  0.69585701076E+01  0.81295358156E+01  0.17770000000E+01 0.  1.
         15    1    1    2    0    0 -0.16057024764E+01  0.19991808432E+01  0.40234962115E+01  0.50912921003E+01  0.17770000000E+01 0.  1.
</event>
<event>
 6    1  0.1023771E-002  0.1826111E+03  0.7546771E-02  0.1068366E+00
        -11   -1    0    0    0    0  0.00000000000E+00  0.00000000000E+00  0.18250000000E+03  0.18250000000E+03  0.00000000000E+00 0.  1.
         11   -1    0    0    0    0 -0.00000000000E+00 -0.00000000000E+00 -0.18250000000E+03  0.18250000000E+03  0.00000000000E+00 0. -1.
        -11    1    1    2    0    0  0.76421527217E-01 -0.17734920473E+01  0.79612124366E+01  0.81567161133E+01  0.00000000000E+00 0.  1.
         11    1    1    2    0    0 -0.29235293667E+01  0.50756193360E+01 -0.18229486345E+03  0.18238894204E+03  0.00000000000E+00 0. -1.
        -15    1    1    2    0    0  0.90903187913E+00  0.26413569380E+00  0.45510774499E+02  0.45555289826E+02  0.17770000000E+01 0.  1.
         15    1    1    2    0    0  0.19380759604E+01 -0.35662629824E+01  0.12882287652E+03  0.12889905203E+03  0.17770000000E+01 0.  1.
</event>
<event>
 6    1  0.1023771E-002  0.1825873E+03  0.7546771E-02  0.1068385E+00
        -11   -1    0    0    0    0  0.00000000000E+00  0.00000000000E+00  0.18250000000E+03  0.18250000000E+03  0.00000000000E+00 0.  1.
         11   -1    0    0    0    0 -0.00000000000E+00 -0.00000000000E+00 -0.18250000000E+03  0.18250000000E+03  0.00000000000E+00 0.  1.
        -11    1    1    2    0    0 -0.12692629410E+01 -0.58184104471E+00  0.70229931850E+01  0.71604469616E+01  0.00000000000E+00 0.  1.
         11    1    1    2    0    0  0.61588533600E+00  0.42813851846E+01 -0.18236143185E+03  0.18241272269E+03  0.00000000000E+00 0.  1.
        -15    1    1    2    0    0 -0.44610866785E+00 -0.19278978842E+01  0.10789159828E+03  0.10792437403E+03  0.17770000000E+01 0. -1.
         15    1    1    2    0    0  0.10994862728E+01 -0.17716462557E+01  0.67446840389E+02  0.67502456311E+02  0.17770000000E+01 0.  1.
</event>
<event>
 6    1  0.1023771E-002  0.1890711E+03  0.7546771E-02  0.1063341E+00
        -11   -1    0    0    0    0  0.00000000000E+00  0.00000000000E+00  0.18250000000E+03  0.18250000000E+03  0.00000000000E+00 0.  1.
         11   -1    0    0    0    0 -0.00000000000E+00 -0.00000000000E+00 -0.18250000000E+03  0.18250000000E+03  0.00000000000E+00 0.  1.
        -11    1    1    2    0    0  0.30009317792E+02  0.20687681775E+02  0.17211167592E+03  0.17592887290E+03  0.00000000000E+00 0.  1.
         11    1    1    2    0    0 -0.20232701099E+00  0.13333193242E+02 -0.10003562048E+03  0.10092046544E+03  0.00000000000E+00 0.  1.
        -15    1    1    2    0    0 -0.32215084803E+02 -0.25364030854E+02 -0.63467920386E+02  0.75580952608E+02  0.17770000000E+01 0.  1.
         15    1    1    2    0    0  0.24080940222E+01 -0.86568441634E+01 -0.86081350500E+01  0.12569709055E+02  0.17770000000E+01 0. -1.
</event>
<event>
 6    1  0.1023771E-002  0.1826253E+03  0.7546771E-02  0.1068355E+00
        -11   -1    0    0    0    0  0.00000000000E+00  0.00000000000E+00  0.18250000000E+03  0.18250000000E+03  0.00000000000E+00 0.  1.
         11   -1    0    0    0    0 -0.00000000000E+00 -0.00000000000E+00 -0.18250000000E+03  0.18250000000E+03  0.00000000000E+00 0.  1.
        -11    1    1    2    0    0  0.34490338101E+00 -0.35225122507E+01  0.18234039415E+03  0.18237474164E+03  0.00000000000E+00 0.  1.
         11    1    1    2    0    0  0.19695103028E+01  0.15470416606E+00 -0.92596621265E+02  0.92617693633E+02  0.00000000000E+00 0.  1.
        -15    1    1    2    0    0  0.68434283813E+00  0.24181471219E+01 -0.52095877219E+02  0.52186721615E+02  0.17770000000E+01 0.  1.
         15    1    1    2    0    0 -0.29987565220E+01  0.94966096270E+00 -0.37647895664E+02  0.37820843110E+02  0.17770000000E+01 0. -1.
</event>
<event>
 6    1  0.1023771E-002  0.1840813E+03  0.7546771E-02  0.1067203E+00
        -11   -1    0    0    0    0  0.00000000000E+00  0.00000000000E+00  0.18250000000E+03  0.18250000000E+03  0.00000000000E+00 0.  1.
         11   -1    0    0    0    0 -0.00000000000E+00 -0.00000000000E+00 -0.18250000000E+03  0.18250000000E+03  0.00000000000E+00 0. -1.
        -11    1    1    2    0    0  0.98882553490E+01 -0.27796594893E+00  0.18064808046E+03  0.18091872162E+03  0.00000000000E+00 0.  1.
         11    1    1    2    0    0  0.96565450742E+00 -0.18406898448E+01 -0.15421026200E+03  0.15422427025E+03  0.00000000000E+00 0. -1.
        -15    1    1    2    0    0 -0.97293418239E+01  0.42747883808E+01 -0.19182210350E+02  0.22001109766E+02  0.17770000000E+01 0. -1.
         15    1    1    2    0    0 -0.11245680324E+01 -0.21561325871E+01 -0.72556081081E+01  0.78558983580E+01  0.17770000000E+01 0. -1.
</event>
<event>
 6    1  0.1023771E-002  0.1836569E+03  0.7546771E-02  0.1067538E+00
        -11   -1    0    0    0    0  0.00000000000E+00  0.00000000000E+00  0.18250000000E+03  0.18250000000E+03  0.00000000000E+00 0. -1.
         11   -1    0    0    0    0 -0.00000000000E+00 -0.00000000000E+00 -0.18250000000E+03  0.18250000000E+03  0.00000000000E+00 0. -1.
        -11    1    1    2    0    0 -0.10663368439E+02 -0.53952734165E+01  0.18094893612E+03  0.18134313851E+03  0.00000000000E+00 0. -1.
         11    1    1    2    0    0 -0.46696362641E+01 -0.46764216781E+00 -0.11434830182E+03  0.11444456440E+03  0.00000000000E+00 0. -1.
        -15    1    1    2    0    0  0.53480252701E+01 -0.50394400082E+00 -0.11389186652E+02  0.12717178753E+02  0.17770000000E+01 0.  1.
         15    1    1    2    0    0  0.99849794331E+01  0.63668595851E+01 -0.55211447652E+02  0.56495118339E+02  0.17770000000E+01 0. -1.
</event>
<event>
 6    1  0.1023771E-002  0.1845274E+03  0.7546771E-02  0.1066852E+00
        -11   -1    0    0    0    0  0.00000000000E+00  0.00000000000E+00  0.18250000000E+03  0.18250000000E+03  0.00000000000E+00 0.  1.
         11   -1    0    0    0    0 -0.00000000000E+00 -0.00000000000E+00 -0.18250000000E+03  0.18250000000E+03  0.00000000000E+00 0.  1.
        -11    1    1    2    0    0 -0.89860423169E+01  0.60767085015E+01  0.11246079070E+03  0.11298276323E+03  0.00000000000E+00 0.  1.
         11    1    1    2    0    0  0.28222871314E+01 -0.18962726185E+01 -0.18044059638E+03  0.18047262944E+03  0.00000000000E+00 0.  1.
        -15    1    1    2    0    0 -0.56758902939E+01  0.30545663294E+00  0.67823190050E+01  0.90258857996E+01  0.17770000000E+01 0. -1.
         15    1    1    2    0    0  0.11839645479E+02 -0.44858925159E+01  0.61197486679E+02  0.62518721529E+02  0.17770000000E+01 0.  1.
</event>
<event>
 6    1  0.1023771E-002  0.1444737E+03  0.7546771E-02  0.1103535E+00
        -11   -1    0    0    0    0  0.00000000000E+00  0.00000000000E+00  0.18250000000E+03  0.18250000000E+03  0.00000000000E+00 0. -1.
         11   -1    0    0    0    0 -0.00000000000E+00 -0.00000000000E+00 -0.18250000000E+03  0.18250000000E+03  0.00000000000E+00 0.  1.
        -11    1    1    2    0    0 -0.24523629271E+02 -0.22739234180E+02  0.13196508573E+03  0.13613693480E+03  0.00000000000E+00 0. -1.
         11    1    1    2    0    0  0.33846685534E+01 -0.12461701903E+01 -0.15548155368E+03  0.15552338235E+03  0.00000000000E+00 0.  1.
        -15    1    1    2    0    0 -0.35001753309E+01 -0.24069084493E+01 -0.17832088860E+02  0.18416991006E+02  0.17770000000E+01 0. -1.
         15    1    1    2    0    0  0.24639136049E+02  0.26392312819E+02  0.41348556808E+02  0.54922691852E+02  0.17770000000E+01 0.  1.
</event>
<event>
 6    1  0.1023771E-002  0.1864790E+03  0.7546771E-02  0.1065331E+00
        -11   -1    0    0    0    0  0.00000000000E+00  0.00000000000E+00  0.18250000000E+03  0.18250000000E+03  0.00000000000E+00 0. -1.
         11   -1    0    0    0    0 -0.00000000000E+00 -0.00000000000E+00 -0.18250000000E+03  0.18250000000E+03  0.00000000000E+00 0. -1.
        -11    1    1    2    0    0  0.16835033710E+01  0.78032032482E+01  0.17834238689E+03  0.17852095430E+03  0.00000000000E+00 0. -1.
         11    1    1    2    0    0  0.27829934045E+01  0.37436004890E+01 -0.16924667132E+03  0.16931094279E+03  0.00000000000E+00 0. -1.
        -15    1    1    2    0    0  0.24620332189E+00 -0.16616289957E+01 -0.45761934421E+01  0.51885356715E+01  0.17770000000E+01 0.  1.
         15    1    1    2    0    0 -0.47127000974E+01 -0.98851747414E+01 -0.45195221294E+01  0.11979567236E+02  0.17770000000E+01 0. -1.
</event>
<event>
 6    1  0.1023771E-002  0.1830262E+03  0.7546771E-02  0.1068037E+00
        -11   -1    0    0    0    0  0.00000000000E+00  0.00000000000E+00  0.18250000000E+03  0.18250000000E+03  0.00000000000E+00 0. -1.
         11   -1    0    0    0    0 -0.00000000000E+00 -0.00000000000E+00 -0.18250000000E+03  0.18250000000E+03  0.00000000000E+00 0. -1.
        -11    1    1    2    0    0 -0.39185517057E+01 -0.23226550491E+01  0.16257254964E+03  0.16263635409E+03  0.00000000000E+00 0. -1.
         11    1    1    2    0    0  0.50905252139E-01  0.36539834975E+01 -0.18193715106E+03  0.18197384736E+03  0.00000000000E+00 0. -1.
        -15    1    1    2    0    0  0.12064094310E+01 -0.16693163398E+01  0.52481144873E+01  0.59112160702E+01  0.17770000000E+01 0. -1.
         15    1    1    2    0    0  0.26612370225E+01  0.33798789141E+00  0.14116486931E+02  0.14478582478E+02  0.17770000000E+01 0.  1.
</event>
<event>
 6    1  0.1023771E-002  0.1825975E+03  0.7546771E-02  0.1068377E+00
        -11   -1    0    0    0    0  0.00000000000E+00  0.00000000000E+00  0.18250000000E+03  0.18250000000E+03  0.00000000000E+00 0. -1.
         11   -1    0    0    0    0 -0.00000000000E+00 -0.00000000000E+00 -0.18250000000E+03  0.18250000000E+03  0.00000000000E+00 0.  1.
        -11    1    1    2    0    0  0.26825832020E+01  0.64906788790E+00  0.70189438501E+02  0.70243681700E+02  0.00000000000E+00 0. -1.
         11    1    1    2    0    0 -0.25018098895E+01  0.48876592500E+01 -0.18231988321E+03  0.18240254406E+03  0.00000000000E+00 0.  1.
        -15    1    1    2    0    0  0.86870871836E+00 -0.18977803153E+01  0.33417128529E+02  0.33529366727E+02  0.17770000000E+01 0. -1.
         15    1    1    2    0    0 -0.10494820309E+01 -0.36389468226E+01  0.78713316181E+02  0.78824407513E+02  0.17770000000E+01 0.  1.
</event>
<event>
 6    1  0.1023771E-002  0.1826086E+03  0.7546771E-02  0.1068368E+00
        -11   -1    0    0    0    0  0.00000000000E+00  0.00000000000E+00  0.18250000000E+03  0.18250000000E+03  0.00000000000E+00 0.  1.
         11   -1    0    0    0    0 -0.00000000000E+00 -0.00000000000E+00 -0.18250000000E+03  0.18250000000E+03  0.00000000000E+00 0.  1.
        -11    1    1    2    0    0 -0.59308708072E+00 -0.12222662433E+01  0.71056094643E+01  0.72343191051E+01  0.00000000000E+00 0.  1.
         11    1    1    2    0    0 -0.15297321496E+01  0.31418503746E+01 -0.18235789614E+03  0.18239137477E+03  0.00000000000E+00 0.  1.
        -15    1    1    2    0    0 -0.90406560975E+00 -0.11628059319E+01  0.34975438572E+02  0.35051511872E+02  0.17770000000E+01 0. -1.
         15    1    1    2    0    0  0.30268848401E+01 -0.75677819938E+00  0.14027684810E+03  0.14032279426E+03  0.17770000000E+01 0.  1.
</event>
<event>
 6    1  0.1023771E-002  0.1878710E+03  0.7546771E-02  0.1064258E+00
        -11   -1    0    0    0    0  0.00000000000E+00  0.00000000000E+00  0.18250000000E+03  0.18250000000E+03  0.00000000000E+00 0.  1.
         11   -1    0    0    0    0 -0.00000000000E+00 -0.00000000000E+00 -0.18250000000E+03  0.18250000000E+03  0.00000000000E+00 0. -1.
        -11    1    1    2    0    0  0.18618192326E+02  0.12347289240E+02  0.21434188889E+02  0.30959927170E+02  0.00000000000E+00 0.  1.
         11    1    1    2    0    0 -0.54829862228E+00 -0.68558732226E+01 -0.17699545696E+03  0.17712903605E+03  0.00000000000E+00 0. -1.
        -15    1    1    2    0    0 -0.13608731585E+02 -0.66598012652E+01  0.10389709279E+03  0.10501101918E+03  0.17770000000E+01 0.  1.
         15    1    1    2    0    0 -0.44611621182E+01  0.11683852481E+01  0.51664175273E+02  0.51900017603E+02  0.17770000000E+01 0. -1.
</event>
<event>
 6    1  0.1023771E-002  0.1851837E+03  0.7546771E-02  0.1066338E+00
        -11   -1    0    0    0    0  0.00000000000E+00  0.00000000000E+00  0.18250000000E+03  0.18250000000E+03  0.00000000000E+00 0. -1.
         11   -1    0    0    0    0 -0.00000000000E+00 -0.00000000000E+00 -0.18250000000E+03  0.18250000000E+03  0.00000000000E+00 0. -1.
        -11    1    1    2    0    0 -0.74133157539E+00  0.27061344150E+01  0.17979445272E+03  0.17981634510E+03  0.00000000000E+00 0. -1.
         11    1    1    2    0    0  0.43222503441E+01  0.23748286755E+01 -0.17571981326E+03  0.17578900544E+03  0.00000000000E+00 0. -1.
        -15    1    1    2    0    0 -0.11042188036E+01 -0.22757106079E+01 -0.42417741500E+01  0.52486698198E+01  0.17770000000E+01 0.  1.
         15    1    1    2    0    0 -0.24766999650E+01 -0.28052524825E+01  0.16713469078E+00  0.41459796445E+01  0.17770000000E+01 0. -1.
</event>
<event>
 6    1  0.1023771E-002  0.1828186E+03  0.7546771E-02  0.1068201E+00
        -11   -1    0    0    0    0  0.00000000000E+00  0.00000000000E+00  0.18250000000E+03  0.18250000000E+03  0.00000000000E+00 0. -1.
         11   -1    0    0    0    0 -0.00000000000E+00 -0.00000000000E+00 -0.18250000000E+03  0.18250000000E+03  0.00000000000E+00 0.  1.
        -11    1    1    2    0    0  0.14277878725E+01 -0.42201239926E+01  0.18212689243E+03  0.18218137383E+03  0.00000000000E+00 0. -1.
         11    1    1    2    0    0 -0.89067184627E+00  0.22451282715E+01 -0.15325597378E+03  0.15327500578E+03  0.00000000000E+00 0.  1.
        -15    1    1    2    0    0  0.12674724609E+01 -0.57376980050E+00 -0.16749554818E+02  0.16900917544E+02  0.17770000000E+01 0.  1.
         15    1    1    2    0    0 -0.18045884872E+01  0.25487655215E+01 -0.12121363827E+02  0.12642702849E+02  0.17770000000E+01 0.  1.
</event>
<event>
 6    1  0.1023771E-002  0.1811759E+03  0.7546771E-02  0.1069514E+00
        -11   -1    0    0    0    0  0.00000000000E+00  0.00000000000E+00  0.18250000000E+03  0.18250000000E+03  0.00000000000E+00 0. -1.
         11   -1    0    0    0    0 -0.00000000000E+00 -0.00000000000E+00 -0.18250000000E+03  0.18250000000E+03  0.00000000000E+00 0. -1.
        -11    1    1    2    0    0 -0.10173002302E+01  0.17171737920E+01  0.18124771220E+01  0.26960450493E+01  0.00000000000E+00 0. -1.
         11    1    1    2    0    0  0.24720687132E+01 -0.18593801546E+01 -0.18201304760E+03  0.18203933068E+03  0.00000000000E+00 0. -1.
        -15    1    1    2    0    0 -0.10731858591E+01 -0.13303768721E+01  0.91486400968E+02  0.91519620419E+02  0.17770000000E+01 0. -1.
         15    1    1    2    0    0 -0.38158262395E+00  0.14725832346E+01  0.88714169513E+02  0.88745003848E+02  0.17770000000E+01 0. -1.
</event>
<event>
 6    1  0.1023771E-002  0.1521615E+03  0.7546771E-02  0.1095550E+00
        -11   -1    0    0    0    0  0.00000000000E+00  0.00000000000E+00  0.18250000000E+03  0.18250000000E+03  0.00000000000E+00 0.  1.
         11   -1    0    0    0    0 -0.00000000000E+00 -0.00000000000E+00 -0.18250000000E+03  0.18250000000E+03  0.00000000000E+00 0.  1.
        -11    1    1    2    0    0 -0.45971486542E+02  0.43718012202E+01  0.31437635441E+02  0.55864256398E+02  0.00000000000E+00 0.  1.
         11    1    1    2    0    0 -0.34814942116E+01  0.76667151917E+00 -0.16566444705E+03  0.16570279902E+03  0.00000000000E+00 0.  1.
        -15    1    1    2    0    0  0.88349573699E+01  0.17974899184E+01  0.20771208516E+02  0.22713174017E+02  0.17770000000E+01 0. -1.
         15    1    1    2    0    0  0.40618023384E+02 -0.69359626578E+01  0.11345560310E+03  0.12071977056E+03  0.17770000000E+01 0.  1.
</event>
<event>
 6    1  0.1023771E-002  0.1840877E+03  0.7546771E-02  0.1067198E+00
        -11   -1    0    0    0    0  0.00000000000E+00  0.00000000000E+00  0.18250000000E+03  0.18250000000E+03  0.00000000000E+00 0.  1.
         11   -1    0    0    0    0 -0.00000000000E+00 -0.00000000000E+00 -0.18250000000E+03  0.18250000000E+03  0.00000000000E+00 0. -1.
        -11    1    1    2    0    0  0.59510225469E+00 -0.43600313160E+01  0.48812319502E+02  0.49010269893E+02  0.00000000000E+00 0.  1.
         11    1    1    2    0    0 -0.22096051606E+02  0.21850847490E+02 -0.17822335569E+03  0.18091229794E+03  0.00000000000E+00 0. -1.
        -15    1    1    2    0    0 -0.21150336581E+01  0.50677981455E+01  0.14632060515E+02  0.15729299709E+02  0.17770000000E+01 0. -1.
         15    1    1    2    0    0  0.23615983010E+02 -0.22558614319E+02  0.11477897568E+03  0.11934813245E+03  0.17770000000E+01 0.  1.
</event>
<event>
 6    1  0.1023771E-002  0.1830025E+03  0.7546771E-02  0.1068056E+00
        -11   -1    0    0    0    0  0.00000000000E+00  0.00000000000E+00  0.18250000000E+03  0.18250000000E+03  0.00000000000E+00 0.  1.
         11   -1    0    0    0    0 -0.00000000000E+00 -0.00000000000E+00 -0.18250000000E+03  0.18250000000E+03  0.00000000000E+00 0.  1.
        -11    1    1    2    0    0  0.23766005387E+01  0.22956097139E+01  0.16522289153E+03  0.16525592861E+03  0.00000000000E+00 0.  1.
         11    1    1    2    0    0 -0.26182598550E+01  0.89120723835E+00 -0.18197649477E+03  0.18199751148E+03  0.00000000000E+00 0.  1.
        -15    1    1    2    0    0 -0.43292542426E+00 -0.21269598549E+01  0.45113637721E+01  0.53123925619E+01  0.17770000000E+01 0. -1.
         15    1    1    2    0    0  0.67458474056E+00 -0.10598570974E+01  0.12242239465E+02  0.12434167353E+02  0.17770000000E+01 0.  1.
</event>
<event>
 6    1  0.1023771E-002  0.1821208E+03  0.7546771E-02  0.1068757E+00
        -11   -1    0    0    0    0  0.00000000000E+00  0.00000000000E+00  0.18250000000E+03  0.18250000000E+03  0.00000000000E+00 0.  1.
         11   -1    0    0    0    0 -0.00000000000E+00 -0.00000000000E+00 -0.18250000000E+03  0.18250000000E+03  0.00000000000E+00 0.  1.
        -11    1    1    2    0    0 -0.18069781016E+00 -0.90673834610E+00 -0.29462988680E+00  0.97037770847E+00  0.00000000000E+00 0.  1.
         11    1    1    2    0    0  0.10494608242E+01  0.58973707182E+01 -0.18167628699E+03  0.18177500819E+03  0.00000000000E+00 0.  1.
        -15    1    1    2    0    0 -0.12043416687E+01  0.11244723888E+01  0.10236896755E+03  0.10239764706E+03  0.17770000000E+01 0.  1.
         15    1    1    2    0    0  0.33557865474E+00 -0.61151047608E+01  0.79601949328E+02  0.79856967042E+02  0.17770000000E+01 0. -1.
</event>
<event>
 6    1  0.1023771E-002  0.1785250E+03  0.7546771E-02  0.1071664E+00
        -11   -1    0    0    0    0  0.00000000000E+00  0.00000000000E+00  0.18250000000E+03  0.18250000000E+03  0.00000000000E+00 0.  1.
         11   -1    0    0    0    0 -0.00000000000E+00 -0.00000000000E+00 -0.18250000000E+03  0.18250000000E+03  0.00000000000E+00 0.  1.
        -11    1    1    2    0    0  0.36508961571E+01  0.73826437336E+00  0.17871166270E+03  0.17875047542E+03  0.00000000000E+00 0.  1.
         11    1    1    2    0    0 -0.11403982075E+01  0.30604381836E+01 -0.17829881509E+03  0.17832872526E+03  0.00000000000E+00 0.  1.
        -15    1    1    2    0    0  0.42543804037E+00 -0.12337745541E+01  0.20230964618E+01  0.29922976908E+01  0.17770000000E+01 0.  1.
         15    1    1    2    0    0 -0.29359359900E+01 -0.25649280028E+01 -0.24359440719E+01  0.49285016301E+01  0.17770000000E+01 0. -1.
</event>
<event>
 6    1  0.1023771E-002  0.1762226E+03  0.7546771E-02  0.1073564E+00
        -11   -1    0    0    0    0  0.00000000000E+00  0.00000000000E+00  0.18250000000E+03  0.18250000000E+03  0.00000000000E+00 0. -1.
         11   -1    0    0    0    0 -0.00000000000E+00 -0.00000000000E+00 -0.18250000000E+03  0.18250000000E+03  0.00000000000E+00 0.  1.
        -11    1    1    2    0    0 -0.70809927124E+01  0.45146671858E+01  0.17672680551E+03  0.17692621757E+03  0.00000000000E+00 0. -1.
         11    1    1    2    0    0 -0.18741521951E+01  0.25114820939E+01 -0.17567631276E+03  0.17570425964E+03  0.00000000000E+00 0.  1.
        -15    1    1    2    0    0  0.19653607939E+01 -0.16285682288E+01 -0.12680128976E+01  0.33586400871E+01  0.17770000000E+01 0. -1.
         15    1    1    2    0    0  0.69897841137E+01 -0.53975810509E+01  0.21752014784E+00  0.90108827077E+01  0.17770000000E+01 0.  1.
</event>
<event>
 6    1  0.1023771E-002  0.1838725E+03  0.7546771E-02  0.1067368E+00
        -11   -1    0    0    0    0  0.00000000000E+00  0.00000000000E+00  0.18250000000E+03  0.18250000000E+03  0.00000000000E+00 0. -1.
         11   -1    0    0    0    0 -0.00000000000E+00 -0.00000000000E+00 -0.18250000000E+03  0.18250000000E+03  0.00000000000E+00 0.  1.
        -11    1    1    2    0    0  0.58395021770E+01  0.94602071877E+00  0.18103087737E+03  0.18112750565E+03  0.00000000000E+00 0. -1.
         11    1    1    2    0    0  0.20241543144E+01 -0.33100951942E+01 -0.16303585164E+03  0.16308201266E+03  0.00000000000E+00 0.  1.
        -15    1    1    2    0    0 -0.28779693175E+01  0.12779783918E+01 -0.25415154185E+01  0.44196114971E+01  0.17770000000E+01 0. -1.
         15    1    1    2    0    0 -0.49856871739E+01  0.10860960836E+01 -0.15453510306E+02  0.16370870199E+02  0.17770000000E+01 0.  1.
</event>
<event>
 6    1  0.1023771E-002  0.1871873E+03  0.7546771E-02  0.1064784E+00
        -11   -1    0    0    0    0  0.00000000000E+00  0.00000000000E+00  0.18250000000E+03  0.18250000000E+03  0.00000000000E+00 0. -1.
         11   -1    0    0    0    0 -0.00000000000E+00 -0.00000000000E+00 -0.18250000000E+03  0.18250000000E+03  0.00000000000E+00 0. -1.
        -11    1    1    2    0    0  0.43138578873E+01  0.85215796012E+01  0.17755596288E+03  0.17781267290E+03  0.00000000000E+00 0. -1.
         11    1    1    2    0    0 -0.85318447205E+01  0.36813656976E+01 -0.16883932119E+03  0.16909482904E+03  0.00000000000E+00 0. -1.
        -15    1    1    2    0    0  0.61018591319E+00 -0.81774465573E+01 -0.92080991041E+00  0.84408873311E+01  0.17770000000E+01 0. -1.
         15    1    1    2    0    0  0.36078009199E+01 -0.40254987416E+01 -0.77958317762E+01  0.96516107297E+01  0.17770000000E+01 0.  1.
</event>
<event>
 6    1  0.1023771E-002  0.1846869E+03  0.7546771E-02  0.1066727E+00
        -11   -1    0    0    0    0  0.00000000000E+00  0.00000000000E+00  0.18250000000E+03  0.18250000000E+03  0.00000000000E+00 0.  1.
         11   -1    0    0    0    0 -0.00000000000E+00 -0.00000000000E+00 -0.18250000000E+03  0.18250000000E+03  0.00000000000E+00 0. -1.
        -11    1    1    2    0    0  0.52090231456E+01  0.15223836544E+02  0.35430142027E+02  0.38912646855E+02  0.00000000000E+00 0.  1.
         11    1    1    2    0    0 -0.19762292853E+01 -0.19589439788E+01 -0.18029165045E+03  0.18031312256E+03  0.00000000000E+00 0. -1.
        -15    1    1    2    0    0  0.46150670349E+00  0.43994586972E+00  0.22600597775E+02  0.22679314134E+02  0.17770000000E+01 0. -1.
         15    1    1    2    0    0 -0.36943005638E+01 -0.13704838435E+02  0.12226091065E+03  0.12309491645E+03  0.17770000000E+01 0.  1.
</event>
<event>
 6    1  0.1023771E-002  0.1833871E+03  0.7546771E-02  0.1067751E+00
        -11   -1    0    0    0    0  0.00000000000E+00  0.00000000000E+00  0.18250000000E+03  0.18250000000E+03  0.00000000000E+00 0.  1.
         11   -1    0    0    0    0 -0.00000000000E+00 -0.00000000000E+00 -0.18250000000E+03  0.18250000000E+03  0.00000000000E+00 0. -1.
        -11    1    1    2    0    0 -0.57435677255E+00  0.50052400215E+01  0.15546782960E+03  0.15554944023E+03  0.00000000000E+00 0.  1.
         11    1    1    2    0    0  0.50904119819E+01  0.24374420129E+01 -0.18152513784E+03  0.18161285496E+03  0.00000000000E+00 0. -1.
        -15    1    1    2    0    0 -0.25521410800E+01 -0.20718673855E+01  0.11677508297E+02  0.12260831439E+02  0.17770000000E+01 0. -1.
         15    1    1    2    0    0 -0.19639141293E+01 -0.53708146489E+01  0.14379799944E+02  0.15576873374E+02  0.17770000000E+01 0.  1.
</event>
<event>
 6    1  0.1023771E-002  0.1832279E+03  0.7546771E-02  0.1067877E+00
        -11   -1    0    0    0    0  0.00000000000E+00  0.00000000000E+00  0.18250000000E+03  0.18250000000E+03  0.00000000000E+00 0.  1.
         11   -1    0    0    0    0 -0.00000000000E+00 -0.00000000000E+00 -0.18250000000E+03  0.18250000000E+03  0.00000000000E+00 0.  1.
        -11    1    1    2    0    0 -0.90238874180E+01 -0.19290734198E+01  0.18153769941E+03  0.18177207754E+03  0.00000000000E+00 0.  1.
         11    1    1    2    0    0  0.10512339211E+01  0.38049223461E+01 -0.15050526973E+03  0.15055702821E+03  0.00000000000E+00 0.  1.
        -15    1    1    2    0    0  0.31673398033E+01 -0.30923321416E+01 -0.11721216090E+02  0.12654611615E+02  0.17770000000E+01 0. -1.
         15    1    1    2    0    0  0.48053136936E+01  0.12164832153E+01 -0.19311213584E+02  0.20016282627E+02  0.17770000000E+01 0.  1.
</event>
<event>
 6    1  0.1023771E-002  0.1858645E+03  0.7546771E-02  0.1065808E+00
        -11   -1    0    0    0    0  0.00000000000E+00  0.00000000000E+00  0.18250000000E+03  0.18250000000E+03  0.00000000000E+00 0. -1.
         11   -1    0    0    0    0 -0.00000000000E+00 -0.00000000000E+00 -0.18250000000E+03  0.18250000000E+03  0.00000000000E+00 0. -1.
        -11    1    1    2    0    0 -0.62319639940E+01  0.81787674435E+00  0.17228552103E+03  0.17240013646E+03  0.00000000000E+00 0. -1.
         11    1    1    2    0    0  0.13955052307E+01 -0.64640314049E+01 -0.17901343661E+03  0.17913553981E+03  0.00000000000E+00 0. -1.
        -15    1    1    2    0    0  0.11097742210E+01  0.65736319337E+00 -0.17417818825E+01  0.28027233748E+01  0.17770000000E+01 0. -1.
         15    1    1    2    0    0  0.37266845423E+01  0.49887914672E+01  0.84696974620E+01  0.10661600353E+02  0.17770000000E+01 0.  1.
</event>
<event>
 6    1  0.1023771E-002  0.1741864E+03  0.7546771E-02  0.1075272E+00
        -11   -1    0    0    0    0  0.00000000000E+00  0.00000000000E+00  0.18250000000E+03  0.18250000000E+03  0.00000000000E+00 0. -1.
         11   -1    0    0    0    0 -0.00000000000E+00 -0.00000000000E+00 -0.18250000000E+03  0.18250000000E+03  0.00000000000E+00 0.  1.
        -11    1    1    2    0    0  0.68874380502E+01 -0.92098761427E+01  0.17627205083E+03  0.17664680729E+03  0.00000000000E+00 0. -1.
         11    1    1    2    0    0  0.15608848378E+01 -0.21339026701E+01 -0.17201869132E+03  0.17203900739E+03  0.00000000000E+00 0.  1.
        -15    1    1    2    0    0 -0.37320136089E+00  0.16855208520E+01 -0.24295698652E+01  0.34699853786E+01  0.17770000000E+01 0.  1.
         15    1    1    2    0    0 -0.80751215271E+01  0.96582579608E+01 -0.18237896442E+01  0.12844199943E+02  0.17770000000E+01 0.  1.
</event>
<event>
 6    1  0.1023771E-002  0.1825696E+03  0.7546771E-02  0.1068399E+00
        -11   -1    0    0    0    0  0.00000000000E+00  0.00000000000E+00  0.18250000000E+03  0.18250000000E+03  0.00000000000E+00 0. -1.
         11   -1    0    0    0    0 -0.00000000000E+00 -0.00000000000E+00 -0.18250000000E+03  0.18250000000E+03  0.00000000000E+00 0. -1.
        -11    1    1    2    0    0 -0.21572031708E+01  0.28140968821E+01  0.18239594519E+03  0.18243040725E+03  0.00000000000E+00 0. -1.
         11    1    1    2    0    0 -0.80530024626E-01 -0.13458270455E+01 -0.49937285209E+02  0.49955482077E+02  0.00000000000E+00 0. -1.
        -15    1    1    2    0    0  0.16052456368E+01 -0.27757603252E+01 -0.10339693967E+03  0.10346190855E+03  0.17770000000E+01 0. -1.
         15    1    1    2    0    0  0.63248755868E+00  0.13074904887E+01 -0.29061720314E+02  0.29152202121E+02  0.17770000000E+01 0. -1.
</event>
<event>
 6    1  0.1023771E-002  0.1791446E+03  0.7546771E-02  0.1071157E+00
        -11   -1    0    0    0    0  0.00000000000E+00  0.00000000000E+00  0.18250000000E+03  0.18250000000E+03  0.00000000000E+00 0. -1.
         11   -1    0    0    0    0 -0.00000000000E+00 -0.00000000000E+00 -0.18250000000E+03  0.18250000000E+03  0.00000000000E+00 0.  1.
        -11    1    1    2    0    0 -0.57277388004E+01  0.13665083321E+01  0.32335776040E+01  0.67179134341E+01  0.00000000000E+00 0. -1.
         11    1    1    2    0    0  0.26569161148E+01 -0.15801573067E+01 -0.18069585636E+03  0.18072229692E+03  0.00000000000E+00 0.  1.
        -15    1    1    2    0    0  0.32437525843E+00  0.14853052351E+01  0.80715978311E+02  0.80749849750E+02  0.17770000000E+01 0.  1.
         15    1    1    2    0    0  0.27464474272E+01 -0.12716562604E+01  0.96746300444E+02  0.96809939891E+02  0.17770000000E+01 0. -1.
</event>
<event>
 6    1  0.1023771E-002  0.1829058E+03  0.7546771E-02  0.1068132E+00
        -11   -1    0    0    0    0  0.00000000000E+00  0.00000000000E+00  0.18250000000E+03  0.18250000000E+03  0.00000000000E+00 0.  1.
         11   -1    0    0    0    0 -0.00000000000E+00 -0.00000000000E+00 -0.18250000000E+03  0.18250000000E+03  0.00000000000E+00 0. -1.
        -11    1    1    2    0    0 -0.19731223313E+02 -0.35262203781E-01  0.18102203560E+03  0.18209420581E+03  0.00000000000E+00 0.  1.
         11    1    1    2    0    0  0.95840066099E+01 -0.14390836720E+01 -0.31471074203E+02  0.32929510412E+02  0.00000000000E+00 0. -1.
        -15    1    1    2    0    0  0.29291472234E+01  0.10345372850E+00 -0.64127926099E+02  0.64219461544E+02  0.17770000000E+01 0. -1.
         15    1    1    2    0    0  0.72180694799E+01  0.13708921473E+01 -0.85423035294E+02  0.85756822237E+02  0.17770000000E+01 0. -1.
</event>
<event>
 6    1  0.1023771E-002  0.1827170E+03  0.7546771E-02  0.1068282E+00
        -11   -1    0    0    0    0  0.00000000000E+00  0.00000000000E+00  0.18250000000E+03  0.18250000000E+03  0.00000000000E+00 0. -1.
         11   -1    0    0    0    0 -0.00000000000E+00 -0.00000000000E+00 -0.18250000000E+03  0.18250000000E+03  0.00000000000E+00 0. -1.
        -11    1    1    2    0    0  0.47285434829E+00 -0.16468030596E+01  0.48119535081E+01  0.51078809810E+01  0.00000000000E+00 0. -1.
         11    1    1    2    0    0 -0.28113364077E+01 -0.85198985489E+00 -0.18225929199E+03  0.18228296414E+03  0.00000000000E+00 0. -1.
        -15    1    1    2    0    0  0.28224512916E+01 -0.86741640061E+00  0.59763944059E+02  0.59863222274E+02  0.17770000000E+01 0.  1.
         15    1    1    2    0    0 -0.48396923222E+00  0.33662093151E+01  0.11768339443E+03  0.11774593260E+03  0.17770000000E+01 0. -1.
</event>
<event>
 6    1  0.1023771E-002  0.1841178E+03  0.7546771E-02  0.1067174E+00
        -11   -1    0    0    0    0  0.00000000000E+00  0.00000000000E+00  0.18250000000E+03  0.18250000000E+03  0.00000000000E+00 0.  1.
         11   -1    0    0    0    0 -0.00000000000E+00 -0.00000000000E+00 -0.18250000000E+03  0.18250000000E+03  0.00000000000E+00 0. -1.
        -11    1    1    2    0    0  0.12832087344E+02  0.37690242517E+01  0.19463333646E+02  0.23615447614E+02  0.00000000000E+00 0.  1.
         11    1    1    2    0    0 -0.21361447690E+02 -0.73171916930E-01 -0.17961636783E+03  0.18088216163E+03  0.00000000000E+00 0. -1.
        -15    1    1    2    0    0  0.69202769113E+01 -0.14478816337E+01  0.11317941808E+03  0.11341395417E+03  0.17770000000E+01 0.  1.
         15    1    1    2    0    0  0.16090834346E+01 -0.22479707010E+01  0.46973616102E+02  0.47088436590E+02  0.17770000000E+01 0.  1.
</event>
<event>
 6    1  0.1023771E-002  0.1836801E+03  0.7546771E-02  0.1067519E+00
        -11   -1    0    0    0    0  0.00000000000E+00  0.00000000000E+00  0.18250000000E+03  0.18250000000E+03  0.00000000000E+00 0.  1.
         11   -1    0    0    0    0 -0.00000000000E+00 -0.00000000000E+00 -0.18250000000E+03  0.18250000000E+03  0.00000000000E+00 0.  1.
        -11    1    1    2    0    0 -0.12257643117E+02 -0.39329733527E+01  0.31369156964E+02  0.33907847216E+02  0.00000000000E+00 0.  1.
         11    1    1    2    0    0  0.10551896625E+02 -0.62140577551E+00 -0.18101153478E+03  0.18131989519E+03  0.00000000000E+00 0.  1.
        -15    1    1    2    0    0  0.92773086729E+00  0.14806462219E+01  0.75069953698E+02  0.75111308569E+02  0.17770000000E+01 0.  1.
         15    1    1    2    0    0  0.77801562459E+00  0.30737329062E+01  0.74572424116E+02  0.74660949029E+02  0.17770000000E+01 0.  1.
</event>
<event>
 6    1  0.1023771E-002  0.1894877E+03  0.7546771E-02  0.1063025E+00
        -11   -1    0    0    0    0  0.00000000000E+00  0.00000000000E+00  0.18250000000E+03  0.18250000000E+03  0.00000000000E+00 0. -1.
         11   -1    0    0    0    0 -0.00000000000E+00 -0.00000000000E+00 -0.18250000000E+03  0.18250000000E+03  0.00000000000E+00 0.  1.
        -11    1    1    2    0    0  0.25259432216E+01  0.77874554533E+02  0.11484161230E+03  0.13877832161E+03  0.00000000000E+00 0. -1.
         11    1    1    2    0    0  0.16492342767E+02 -0.81526833114E+02 -0.15455079526E+03  0.17551230784E+03  0.00000000000E+00 0.  1.
        -15    1    1    2    0    0 -0.14812002758E+02  0.11958980278E+02  0.35534358933E+02  0.40351716553E+02  0.17770000000E+01 0. -1.
         15    1    1    2    0    0 -0.42062832309E+01 -0.83067016971E+01  0.41748240278E+01  0.10357653999E+02  0.17770000000E+01 0.  1.
</event>
<event>
 6    1  0.1023771E-002  0.1858637E+03  0.7546771E-02  0.1065808E+00
        -11   -1    0    0    0    0  0.00000000000E+00  0.00000000000E+00  0.18250000000E+03  0.18250000000E+03  0.00000000000E+00 0.  1.
         11   -1    0    0    0    0 -0.00000000000E+00 -0.00000000000E+00 -0.18250000000E+03  0.18250000000E+03  0.00000000000E+00 0. -1.
        -11    1    1    2    0    0  0.11344731443E+02  0.77989482574E+01  0.11572263480E+03  0.11653864051E+03  0.00000000000E+00 0.  1.
         11    1    1    2    0    0  0.38414166544E+00 -0.48048648026E+01 -0.17907139589E+03  0.17913625852E+03  0.00000000000E+00 0. -1.
        -15    1    1    2    0    0  0.23239136270E+00 -0.10568395072E+01 -0.19717625504E+01  0.28664424021E+01  0.17770000000E+01 0.  1.
         15    1    1    2    0    0 -0.11961264471E+02 -0.19372439476E+01  0.65320523636E+02  0.66458658570E+02  0.17770000000E+01 0. -1.
</event>
<event>
 6    1  0.1023771E-002  0.1828280E+03  0.7546771E-02  0.1068194E+00
        -11   -1    0    0    0    0  0.00000000000E+00  0.00000000000E+00  0.18250000000E+03  0.18250000000E+03  0.00000000000E+00 0.  1.
         11   -1    0    0    0    0 -0.00000000000E+00 -0.00000000000E+00 -0.18250000000E+03  0.18250000000E+03  0.00000000000E+00 0. -1.
        -11    1    1    2    0    0 -0.45301422751E+01 -0.40995587746E+01  0.18206954413E+03  0.18217202714E+03  0.00000000000E+00 0.  1.
         11    1    1    2    0    0  0.37665751058E+01 -0.20336943794E+01 -0.14262517871E+03  0.14268939906E+03  0.00000000000E+00 0. -1.
        -15    1    1    2    0    0  0.16487259885E+00  0.48162101407E+01 -0.26574202087E+02  0.27066012057E+02  0.17770000000E+01 0. -1.
         15    1    1    2    0    0  0.59869457050E+00  0.13170430134E+01 -0.12870163331E+02  0.13072561748E+02  0.17770000000E+01 0.  1.
</event>
<event>
 6    1  0.1023771E-002  0.1847438E+03  0.7546771E-02  0.1066683E+00
        -11   -1    0    0    0    0  0.00000000000E+00  0.00000000000E+00  0.18250000000E+03  0.18250000000E+03  0.00000000000E+00 0. -1.
         11   -1    0    0    0    0 -0.00000000000E+00 -0.00000000000E+00 -0.18250000000E+03  0.18250000000E+03  0.00000000000E+00 0.  1.
        -11    1    1    2    0    0 -0.44715475804E+01  0.48657099862E+01  0.18013507534E+03  0.18025624882E+03  0.00000000000E+00 0. -1.
         11    1    1    2    0    0  0.14664644950E+01 -0.19886513350E+01 -0.17372118714E+03  0.17373875823E+03  0.00000000000E+00 0.  1.
        -15    1    1    2    0    0 -0.15967338311E+01 -0.18620859957E+01 -0.48739899268E+01  0.57385041595E+01  0.17770000000E+01 0. -1.
         15    1    1    2    0    0  0.46018169165E+01 -0.10149726555E+01 -0.15398982751E+01  0.52664887849E+01  0.17770000000E+01 0.  1.
</event>
<event>
 6    1  0.1023771E-002  0.1528080E+03  0.7546771E-02  0.1094902E+00
        -11   -1    0    0    0    0  0.00000000000E+00  0.00000000000E+00  0.18250000000E+03  0.18250000000E+03  0.00000000000E+00 0.  1.
         11   -1    0    0    0    0 -0.00000000000E+00 -0.00000000000E+00 -0.18250000000E+03  0.18250000000E+03  0.00000000000E+00 0.  1.
        -11    1    1    2    0    0 -0.75294549854E+01 -0.35938405153E+02  0.15289624050E+03  0.15724351184E+03  0.00000000000E+00 0.  1.
         11    1    1    2    0    0 -0.38434111805E+01  0.16908901128E+00 -0.15062801750E+03  0.15067713847E+03  0.00000000000E+00 0.  1.
        -15    1    1    2    0    0  0.15440353536E+02  0.24214704230E+02  0.17557244459E+02  0.33707135450E+02  0.17770000000E+01 0.  1.
         15    1    1    2    0    0 -0.40674873699E+01  0.11554611912E+02 -0.19825467454E+02  0.23372214245E+02  0.17770000000E+01 0. -1.
</event>
<event>
 6    1  0.1023771E-002  0.1913874E+03  0.7546771E-02  0.1061593E+00
        -11   -1    0    0    0    0  0.00000000000E+00  0.00000000000E+00  0.18250000000E+03  0.18250000000E+03  0.00000000000E+00 0.  1.
         11   -1    0    0    0    0 -0.00000000000E+00 -0.00000000000E+00 -0.18250000000E+03  0.18250000000E+03  0.00000000000E+00 0. -1.
        -11    1    1    2    0    0  0.15148505265E+02 -0.18636687113E+02  0.11812514284E+03  0.12054191259E+03  0.00000000000E+00 0.  1.
         11    1    1    2    0    0 -0.81663517082E+00  0.21932861332E+02 -0.17221963993E+03  0.17361256198E+03  0.00000000000E+00 0. -1.
        -15    1    1    2    0    0 -0.11755600338E+02 -0.52402541793E+01 -0.32417044271E+01  0.13391070897E+02  0.17770000000E+01 0. -1.
         15    1    1    2    0    0 -0.25762697566E+01  0.19440799602E+01  0.57336201516E+02  0.57454454536E+02  0.17770000000E+01 0.  1.
</event>
<event>
 6    1  0.1023771E-002  0.1828129E+03  0.7546771E-02  0.1068206E+00
        -11   -1    0    0    0    0  0.00000000000E+00  0.00000000000E+00  0.18250000000E+03  0.18250000000E+03  0.00000000000E+00 0.  1.
         11   -1    0    0    0    0 -0.00000000000E+00 -0.00000000000E+00 -0.18250000000E+03  0.18250000000E+03  0.00000000000E+00 0.  1.
        -11    1    1    2    0    0 -0.17537110961E+01  0.28887885611E+01  0.13745775223E+03  0.13749928818E+03  0.00000000000E+00 0.  1.
         11    1    1    2    0    0 -0.15326346832E+01 -0.20399137356E+01 -0.18216919310E+03  0.18218706083E+03  0.00000000000E+00 0.  1.
        -15    1    1    2    0    0  0.17396058981E+01  0.23269497953E+01  0.21346439060E+02  0.21616408434E+02  0.17770000000E+01 0. -1.
         15    1    1    2    0    0  0.15467398812E+01 -0.31758246208E+01  0.23365001816E+02  0.23697242564E+02  0.17770000000E+01 0.  1.
</event>
<event>
 6    1  0.1023771E-002  0.1837523E+03  0.7546771E-02  0.1067462E+00
        -11   -1    0    0    0    0  0.00000000000E+00  0.00000000000E+00  0.18250000000E+03  0.18250000000E+03  0.00000000000E+00 0. -1.
         11   -1    0    0    0    0 -0.00000000000E+00 -0.00000000000E+00 -0.18250000000E+03  0.18250000000E+03  0.00000000000E+00 0. -1.
        -11    1    1    2    0    0  0.12415378515E+02 -0.10029767675E+02  0.18054358594E+03  0.18124768767E+03  0.00000000000E+00 0. -1.
         11    1    1    2    0    0  0.34681289887E-01  0.24468259521E+01 -0.14123152605E+03  0.14125272426E+03  0.00000000000E+00 0. -1.
        -15    1    1    2    0    0 -0.95014512856E+01  0.76160113416E+01 -0.26249670999E+02  0.28991104874E+02  0.17770000000E+01 0. -1.
         15    1    1    2    0    0 -0.29486085190E+01 -0.33069618245E-01 -0.13062388890E+02  0.13508483198E+02  0.17770000000E+01 0.  1.
</event>
<event>
 6    1  0.1023771E-002  0.1910953E+03  0.7546771E-02  0.1061812E+00
        -11   -1    0    0    0    0  0.00000000000E+00  0.00000000000E+00  0.18250000000E+03  0.18250000000E+03  0.00000000000E+00 0. -1.
         11   -1    0    0    0    0 -0.00000000000E+00 -0.00000000000E+00 -0.18250000000E+03  0.18250000000E+03  0.00000000000E+00 0. -1.
        -11    1    1    2    0    0  0.39681371930E+02 -0.23651168964E+01  0.10003963831E+03  0.10764819687E+03  0.00000000000E+00 0. -1.
         11    1    1    2    0    0 -0.20508378236E+01 -0.22088637294E+01 -0.17387854686E+03  0.17390466950E+03  0.00000000000E+00 0. -1.
        -15    1    1    2    0    0 -0.25691443200E+02  0.20225204396E+01  0.56922346388E+02  0.62509615980E+02  0.17770000000E+01 0. -1.
         15    1    1    2    0    0 -0.11939090906E+02  0.25514601863E+01  0.16916562161E+02  0.20937517644E+02  0.17770000000E+01 0. -1.
</event>
<event>
 6    1  0.1023771E-002  0.1827136E+03  0.7546771E-02  0.1068285E+00
        -11   -1    0    0    0    0  0.00000000000E+00  0.00000000000E+00  0.18250000000E+03  0.18250000000E+03  0.00000000000E+00 0. -1.
         11   -1    0    0    0    0 -0.00000000000E+00 -0.00000000000E+00 -0.18250000000E+03  0.18250000000E+03  0.00000000000E+00 0. -1.
        -11    1    1    2    0    0 -0.14616420739E+02 -0.12851770259E+02  0.18124440781E+03  0.18228643152E+03  0.00000000000E+00 0. -1.
         11    1    1    2    0    0 -0.95270555464E+00  0.43806042390E+00 -0.23158378725E+02  0.23182106246E+02  0.00000000000E+00 0. -1.
        -15    1    1    2    0    0  0.11549025812E+02  0.11476323989E+02 -0.10675182482E+03  0.10800090667E+03  0.17770000000E+01 0. -1.
         15    1    1    2    0    0  0.40201004825E+01  0.93738584676E+00 -0.51334204264E+02  0.51530555562E+02  0.17770000000E+01 0.  1.
</event>
<event>
 6    1  0.1023771E-002  0.1829562E+03  0.7546771E-02  0.1068092E+00
        -11   -1    0    0    0    0  0.00000000000E+00  0.00000000000E+00  0.18250000000E+03  0.18250000000E+03  0.00000000000E+00 0.  1.
         11   -1    0    0    0    0 -0.00000000000E+00 -0.00000000000E+00 -0.18250000000E+03  0.18250000000E+03  0.00000000000E+00 0.  1.
        -11    1    1    2    0    0  0.10149060215E+01  0.76132328382E+01  0.14751751249E+03  0.14771732411E+03  0.00000000000E+00 0.  1.
         11    1    1    2    0    0  0.25506607058E+01 -0.48686405423E+01 -0.18196078096E+03  0.18204377314E+03  0.00000000000E+00 0.  1.
        -15    1    1    2    0    0 -0.38901732064E+01 -0.31632961347E+01  0.20766497290E+02  0.21437001393E+02  0.17770000000E+01 0.  1.
         15    1    1    2    0    0  0.32460647911E+00  0.41870383884E+00  0.13676771179E+02  0.13801901360E+02  0.17770000000E+01 0. -1.
</event>
<event>
 6    1  0.1023771E-002  0.1882600E+03  0.7546771E-02  0.1063960E+00
        -11   -1    0    0    0    0  0.00000000000E+00  0.00000000000E+00  0.18250000000E+03  0.18250000000E+03  0.00000000000E+00 0. -1.
         11   -1    0    0    0    0 -0.00000000000E+00 -0.00000000000E+00 -0.18250000000E+03  0.18250000000E+03  0.00000000000E+00 0.  1.
        -11    1    1    2    0    0 -0.19833296382E+02 -0.28020801785E+01  0.17560132330E+03  0.17674002389E+03  0.00000000000E+00 0. -1.
         11    1    1    2    0    0  0.13122351804E+01  0.17026672500E+01 -0.15831660285E+03  0.15833119647E+03  0.00000000000E+00 0.  1.
        -15    1    1    2    0    0  0.14826532609E+02  0.66376178206E+01 -0.75476041504E+01  0.18000224914E+02  0.17770000000E+01 0.  1.
         15    1    1    2    0    0  0.36945285930E+01 -0.55382048920E+01 -0.97371163057E+01  0.11928554728E+02  0.17770000000E+01 0. -1.
</event>
<event>
 6    1  0.1023771E-002  0.1845056E+03  0.7546771E-02  0.1066870E+00
        -11   -1    0    0    0    0  0.00000000000E+00  0.00000000000E+00  0.18250000000E+03  0.18250000000E+03  0.00000000000E+00 0. -1.
         11   -1    0    0    0    0 -0.00000000000E+00 -0.00000000000E+00 -0.18250000000E+03  0.18250000000E+03  0.00000000000E+00 0.  1.
        -11    1    1    2    0    0  0.12387185661E+02 -0.69317217869E+01  0.17993541182E+03  0.18049444192E+03  0.00000000000E+00 0. -1.
         11    1    1    2    0    0  0.19551050456E+01  0.21727169994E+01 -0.13661549567E+03  0.13664675918E+03  0.00000000000E+00 0.  1.
        -15    1    1    2    0    0 -0.11544565262E+02 -0.28416371123E+01 -0.24342907356E+02  0.27149341725E+02  0.17770000000E+01 0.  1.
         15    1    1    2    0    0 -0.27977254442E+01  0.76006418998E+01 -0.18977008793E+02  0.20709457180E+02  0.17770000000E+01 0. -1.
</event>
<event>
 6    1  0.1023771E-002  0.1752783E+03  0.7546771E-02  0.1074353E+00
        -11   -1    0    0    0    0  0.00000000000E+00  0.00000000000E+00  0.18250000000E+03  0.18250000000E+03  0.00000000000E+00 0. -1.
         11   -1    0    0    0    0 -0.00000000000E+00 -0.00000000000E+00 -0.18250000000E+03  0.18250000000E+03  0.00000000000E+00 0.  1.
        -11    1    1    2    0    0 -0.30945232968E+01 -0.75663855653E+01  0.17677488258E+03  0.17696379680E+03  0.00000000000E+00 0. -1.
         11    1    1    2    0    0 -0.26943681316E+01  0.24669901221E+01 -0.17365319958E+03  0.17369162152E+03  0.00000000000E+00 0.  1.
        -15    1    1    2    0    0  0.39602593068E+00 -0.25990050404E+01  0.17348326231E+01  0.36164951220E+01  0.17770000000E+01 0.  1.
         15    1    1    2    0    0  0.53928654977E+01  0.76984004836E+01 -0.48565156265E+01  0.10728086563E+02  0.17770000000E+01 0. -1.
</event>
<event>
 6    1  0.1023771E-002  0.1834073E+03  0.7546771E-02  0.1067735E+00
        -11   -1    0    0    0    0  0.00000000000E+00  0.00000000000E+00  0.18250000000E+03  0.18250000000E+03  0.00000000000E+00 0. -1.
         11   -1    0    0    0    0 -0.00000000000E+00 -0.00000000000E+00 -0.18250000000E+03  0.18250000000E+03  0.00000000000E+00 0.  1.
        -11    1    1    2    0    0  0.12575913331E+02  0.66766557491E+01  0.18103367009E+03  0.18159273398E+03  0.00000000000E+00 0. -1.
         11    1    1    2    0    0 -0.12681125746E+02 -0.43802252064E+01 -0.17005853394E+03  0.17058693470E+03  0.00000000000E+00 0.  1.
        -15    1    1    2    0    0 -0.19200695465E+01 -0.11780675724E+00 -0.23248328332E+01  0.35018740979E+01  0.17770000000E+01 0.  1.
         15    1    1    2    0    0  0.20252819614E+01 -0.21786237855E+01 -0.86503033153E+01  0.93184572258E+01  0.17770000000E+01 0. -1.
</event>
<event>
 6    1  0.1023771E-002  0.1877844E+03  0.7546771E-02  0.1064325E+00
        -11   -1    0    0    0    0  0.00000000000E+00  0.00000000000E+00  0.18250000000E+03  0.18250000000E+03  0.00000000000E+00 0.  1.
         11   -1    0    0    0    0 -0.00000000000E+00 -0.00000000000E+00 -0.18250000000E+03  0.18250000000E+03  0.00000000000E+00 0.  1.
        -11    1    1    2    0    0 -0.65499020781E+00  0.15707625957E+02  0.17651688077E+03  0.17721559673E+03  0.00000000000E+00 0.  1.
         11    1    1    2    0    0 -0.16033068689E+01 -0.17945102656E+01 -0.16533921686E+03  0.16535672799E+03  0.00000000000E+00 0.  1.
        -15    1    1    2    0    0  0.31746725675E+00 -0.14610767572E+02 -0.47857915769E+01  0.15480208155E+02  0.17770000000E+01 0. -1.
         15    1    1    2    0    0  0.19408298200E+01  0.69765188091E+00 -0.63918723389E+01  0.69474671308E+01  0.17770000000E+01 0. -1.
</event>
<event>
 6    1  0.1023771E-002  0.1841555E+03  0.7546771E-02  0.1067145E+00
        -11   -1    0    0    0    0  0.00000000000E+00  0.00000000000E+00  0.18250000000E+03  0.18250000000E+03  0.00000000000E+00 0.  1.
         11   -1    0    0    0    0 -0.00000000000E+00 -0.00000000000E+00 -0.18250000000E+03  0.18250000000E+03  0.00000000000E+00 0. -1.
        -11    1    1    2    0    0 -0.41474055137E+01 -0.49680403110E+01  0.18072862996E+03  0.18084446379E+03  0.00000000000E+00 0.  1.
         11    1    1    2    0    0 -0.14028647197E+01 -0.48658302426E+01 -0.15269166620E+03  0.15277561736E+03  0.00000000000E+00 0. -1.
        -15    1    1    2    0    0  0.39844637706E+01  0.81702120808E+01 -0.12399619780E+02  0.15476970526E+02  0.17770000000E+01 0.  1.
         15    1    1    2    0    0  0.15658064628E+01  0.16636584728E+01 -0.15637343982E+02  0.15902948318E+02  0.17770000000E+01 0. -1.
</event>
<event>
 6    1  0.1023771E-002  0.1828611E+03  0.7546771E-02  0.1068168E+00
        -11   -1    0    0    0    0  0.00000000000E+00  0.00000000000E+00  0.18250000000E+03  0.18250000000E+03  0.00000000000E+00 0.  1.
         11   -1    0    0    0    0 -0.00000000000E+00 -0.00000000000E+00 -0.18250000000E+03  0.18250000000E+03  0.00000000000E+00 0.  1.
        -11    1    1    2    0    0  0.15632735896E+01 -0.62191506163E+01  0.18202594720E+03  0.18213886766E+03  0.00000000000E+00 0.  1.
         11    1    1    2    0    0  0.13712054869E+01  0.10963215590E+01 -0.92940651546E+02  0.92957231215E+02  0.00000000000E+00 0.  1.
        -15    1    1    2    0    0 -0.60845223074E+00 -0.24071093416E+01 -0.43595245978E+02  0.43702031879E+02  0.17770000000E+01 0. -1.
         15    1    1    2    0    0 -0.23260268458E+01  0.75299383988E+01 -0.45490049676E+02  0.46201869244E+02  0.17770000000E+01 0. -1.
</event>
<event>
 6    1  0.1023771E-002  0.1838344E+03  0.7546771E-02  0.1067398E+00
        -11   -1    0    0    0    0  0.00000000000E+00  0.00000000000E+00  0.18250000000E+03  0.18250000000E+03  0.00000000000E+00 0. -1.
         11   -1    0    0    0    0 -0.00000000000E+00 -0.00000000000E+00 -0.18250000000E+03  0.18250000000E+03  0.00000000000E+00 0.  1.
        -11    1    1    2    0    0  0.65183409012E+01 -0.22049642503E+01  0.15383690525E+03  0.15399072717E+03  0.00000000000E+00 0. -1.
         11    1    1    2    0    0  0.33780805834E+01 -0.33413832930E+01 -0.18110331178E+03  0.18116563087E+03  0.00000000000E+00 0.  1.
        -15    1    1    2    0    0 -0.64342359283E+01  0.23246128587E+01  0.16539662967E+02  0.17986700558E+02  0.17770000000E+01 0.  1.
         15    1    1    2    0    0 -0.34621855563E+01  0.32217346845E+01  0.10726743557E+02  0.11856941407E+02  0.17770000000E+01 0. -1.
</event>
<event>
 6    1  0.1023771E-002  0.1837259E+03  0.7546771E-02  0.1067483E+00
        -11   -1    0    0    0    0  0.00000000000E+00  0.00000000000E+00  0.18250000000E+03  0.18250000000E+03  0.00000000000E+00 0. -1.
         11   -1    0    0    0    0 -0.00000000000E+00 -0.00000000000E+00 -0.18250000000E+03  0.18250000000E+03  0.00000000000E+00 0. -1.
        -11    1    1    2    0    0 -0.10221718727E+01  0.60897133793E+01  0.16355988245E+03  0.16367640206E+03  0.00000000000E+00 0. -1.
         11    1    1    2    0    0  0.70408348896E+01 -0.10092520681E+02 -0.18085592288E+03  0.18127409404E+03  0.00000000000E+00 0. -1.
        -15    1    1    2    0    0 -0.46773134965E+01  0.31045004979E+00  0.52683113467E+01  0.72723087272E+01  0.17770000000E+01 0. -1.
         15    1    1    2    0    0 -0.13413495204E+01  0.36923572522E+01  0.12027729080E+02  0.12777195171E+02  0.17770000000E+01 0.  1.
</event>
<event>
 6    1  0.1023771E-002  0.1828546E+03  0.7546771E-02  0.1068173E+00
        -11   -1    0    0    0    0  0.00000000000E+00  0.00000000000E+00  0.18250000000E+03  0.18250000000E+03  0.00000000000E+00 0.  1.
         11   -1    0    0    0    0 -0.00000000000E+00 -0.00000000000E+00 -0.18250000000E+03  0.18250000000E+03  0.00000000000E+00 0.  1.
        -11    1    1    2    0    0 -0.67257225614E+01  0.83048126011E+00  0.18201930754E+03  0.18214541817E+03  0.00000000000E+00 0.  1.
         11    1    1    2    0    0 -0.15336059210E+01  0.20451207683E+01 -0.12366558474E+03  0.12369200183E+03  0.00000000000E+00 0.  1.
        -15    1    1    2    0    0  0.56057264249E+01 -0.22266254750E+01 -0.32351611620E+02  0.32957040723E+02  0.17770000000E+01 0.  1.
         15    1    1    2    0    0  0.26536020575E+01 -0.64897655340E+00 -0.26002111175E+02  0.26205539281E+02  0.17770000000E+01 0.  1.
</event>
<event>
 6    1  0.1023771E-002  0.1740765E+03  0.7546771E-02  0.1075365E+00
        -11   -1    0    0    0    0  0.00000000000E+00  0.00000000000E+00  0.18250000000E+03  0.18250000000E+03  0.00000000000E+00 0. -1.
         11   -1    0    0    0    0 -0.00000000000E+00 -0.00000000000E+00 -0.18250000000E+03  0.18250000000E+03  0.00000000000E+00 0. -1.
        -11    1    1    2    0    0  0.15338566498E+02  0.80263066722E+01  0.17518402460E+03  0.17603731337E+03  0.00000000000E+00 0. -1.
         11    1    1    2    0    0 -0.23323951027E+01 -0.18602204692E+01 -0.17239848635E+03  0.17242429812E+03  0.00000000000E+00 0. -1.
        -15    1    1    2    0    0 -0.12022711942E+02 -0.29750181006E+01 -0.23485244709E+01  0.12730657145E+02  0.17770000000E+01 0. -1.
         15    1    1    2    0    0 -0.98345945294E+00 -0.31910681024E+01 -0.43701378547E+00  0.38077313690E+01  0.17770000000E+01 0.  1.
</event>
<event>
 6    1  0.1023771E-002  0.1838215E+03  0.7546771E-02  0.1067408E+00
        -11   -1    0    0    0    0  0.00000000000E+00  0.00000000000E+00  0.18250000000E+03  0.18250000000E+03  0.00000000000E+00 0. -1.
         11   -1    0    0    0    0 -0.00000000000E+00 -0.00000000000E+00 -0.18250000000E+03  0.18250000000E+03  0.00000000000E+00 0.  1.
        -11    1    1    2    0    0  0.60787257121E+01 -0.32125599040E+01  0.15931903182E+03  0.15946731749E+03  0.00000000000E+00 0. -1.
         11    1    1    2    0    0  0.21138754688E+01 -0.22290034485E+01 -0.18115248223E+03  0.18117852727E+03  0.00000000000E+00 0.  1.
        -15    1    1    2    0    0 -0.43731579640E+01  0.16640979931E+01  0.84064062018E+01  0.97836152285E+01  0.17770000000E+01 0. -1.
         15    1    1    2    0    0 -0.38194432170E+01  0.37774653594E+01  0.13427044213E+02  0.14570540015E+02  0.17770000000E+01 0.  1.
</event>
<event>
 6    1  0.1023771E-002  0.1739045E+03  0.7546771E-02  0.1075510E+00
        -11   -1    0    0    0    0  0.00000000000E+00  0.00000000000E+00  0.18250000000E+03  0.18250000000E+03  0.00000000000E+00 0.  1.
         11   -1    0    0    0    0 -0.00000000000E+00 -0.00000000000E+00 -0.18250000000E+03  0.18250000000E+03  0.00000000000E+00 0.  1.
        -11    1    1    2    0    0  0.10111440230E+02  0.83068171023E+01  0.17407786356E+03  0.17456903224E+03  0.00000000000E+00 0.  1.
         11    1    1    2    0    0  0.46618446286E+01 -0.43239021811E+01 -0.17346045867E+03  0.17357695598E+03  0.00000000000E+00 0.  1.
        -15    1    1    2    0    0 -0.10409927859E+02 -0.23381847568E+01  0.23217053462E+01  0.11062628562E+02  0.17770000000E+01 0.  1.
         15    1    1    2    0    0 -0.43633569995E+01 -0.16447301644E+01 -0.29391102378E+01  0.57913832207E+01  0.17770000000E+01 0. -1.
</event>
<event>
 6    1  0.1023771E-002  0.1838077E+03  0.7546771E-02  0.1067419E+00
        -11   -1    0    0    0    0  0.00000000000E+00  0.00000000000E+00  0.18250000000E+03  0.18250000000E+03  0.00000000000E+00 0. -1.
         11   -1    0    0    0    0 -0.00000000000E+00 -0.00000000000E+00 -0.18250000000E+03  0.18250000000E+03  0.00000000000E+00 0. -1.
        -11    1    1    2    0    0  0.41442640321E+01 -0.43066276960E+01  0.18109373807E+03  0.18119233961E+03  0.00000000000E+00 0. -1.
         11    1    1    2    0    0 -0.36827798641E+01 -0.11981543845E+01 -0.14782771416E+03  0.14787843492E+03  0.00000000000E+00 0. -1.
        -15    1    1    2    0    0 -0.16877270527E+01  0.35844505922E+01 -0.24651900973E+01  0.49931553018E+01  0.17770000000E+01 0.  1.
         15    1    1    2    0    0  0.12262428847E+01  0.19203314883E+01 -0.30800833812E+02  0.30936070164E+02  0.17770000000E+01 0. -1.
</event>
<event>
 6    1  0.1023771E-002  0.1844685E+03  0.7546771E-02  0.1066899E+00
        -11   -1    0    0    0    0  0.00000000000E+00  0.00000000000E+00  0.18250000000E+03  0.18250000000E+03  0.00000000000E+00 0.  1.
         11   -1    0    0    0    0 -0.00000000000E+00 -0.00000000000E+00 -0.18250000000E+03  0.18250000000E+03  0.00000000000E+00 0. -1.
        -11    1    1    2    0    0  0.41336883850E+01 -0.25418856343E+01  0.17129929255E+03  0.17136801390E+03  0.00000000000E+00 0.  1.
         11    1    1    2    0    0  0.22673673779E+01 -0.12482494613E+01 -0.18051293559E+03  0.18053149032E+03  0.00000000000E+00 0. -1.
        -15    1    1    2    0    0 -0.58939282582E+00  0.24227045817E+01  0.26207211340E+01  0.40302344418E+01  0.17770000000E+01 0. -1.
         15    1    1    2    0    0 -0.58116629370E+01  0.13674305139E+01  0.65929219126E+01  0.90702613331E+01  0.17770000000E+01 0.  1.
</event>
<event>
 6    1  0.1023771E-002  0.1832563E+03  0.7546771E-02  0.1067854E+00
        -11   -1    0    0    0    0  0.00000000000E+00  0.00000000000E+00  0.18250000000E+03  0.18250000000E+03  0.00000000000E+00 0.  1.
         11   -1    0    0    0    0 -0.00000000000E+00 -0.00000000000E+00 -0.18250000000E+03  0.18250000000E+03  0.00000000000E+00 0.  1.
        -11    1    1    2    0    0 -0.14076226477E+02  0.74516214164E+01  0.18104451651E+03  0.18174373104E+03  0.00000000000E+00 0.  1.
         11    1    1    2    0    0  0.65634885230E-01 -0.29900449616E+01 -0.12353504189E+03  0.12357123958E+03  0.00000000000E+00 0.  1.
        -15    1    1    2    0    0  0.13271081452E+01 -0.47469806472E+00 -0.13068917828E+02  0.13264271426E+02  0.17770000000E+01 0.  1.
         15    1    1    2    0    0  0.12683483446E+02 -0.39868783900E+01 -0.44440556799E+02  0.46420757956E+02  0.17770000000E+01 0.  1.
</event>
<event>
 6    1  0.1023771E-002  0.1840734E+03  0.7546771E-02  0.1067209E+00
        -11   -1    0    0    0    0  0.00000000000E+00  0.00000000000E+00  0.18250000000E+03  0.18250000000E+03  0.00000000000E+00 0. -1.
         11   -1    0    0    0    0 -0.00000000000E+00 -0.00000000000E+00 -0.18250000000E+03  0.18250000000E+03  0.00000000000E+00 0.  1.
        -11    1    1    2    0    0 -0.39504802204E+01  0.80808284522E+01  0.18070290711E+03  0.18092663353E+03  0.00000000000E+00 0. -1.
         11    1    1    2    0    0  0.25592122362E+01  0.15298792248E+01 -0.14849583502E+03  0.14852576583E+03  0.00000000000E+00 0.  1.
        -15    1    1    2    0    0  0.29377147280E+01 -0.85895239273E+01 -0.11868255068E+02  0.15047368424E+02  0.17770000000E+01 0.  1.
         15    1    1    2    0    0 -0.15464467438E+01 -0.10211837498E+01 -0.20338817023E+02  0.20500232210E+02  0.17770000000E+01 0.  1.
</event>
<event>
 6    1  0.1023771E-002  0.1829125E+03  0.7546771E-02  0.1068127E+00
        -11   -1    0    0    0    0  0.00000000000E+00  0.00000000000E+00  0.18250000000E+03  0.18250000000E+03  0.00000000000E+00 0. -1.
         11   -1    0    0    0    0 -0.00000000000E+00 -0.00000000000E+00 -0.18250000000E+03  0.18250000000E+03  0.00000000000E+00 0. -1.
        -11    1    1    2    0    0 -0.33623333524E+01  0.30947762842E+01  0.12935957245E+03  0.12944026387E+03  0.00000000000E+00 0. -1.
         11    1    1    2    0    0 -0.24803802909E+01 -0.36500427980E+01 -0.18203405196E+03  0.18208753711E+03  0.00000000000E+00 0. -1.
        -15    1    1    2    0    0  0.51317165590E+01 -0.19386733268E+01  0.27202407456E+02  0.27806863712E+02  0.17770000000E+01 0.  1.
         15    1    1    2    0    0  0.71099708425E+00  0.24939398406E+01  0.25472072052E+02  0.25665335306E+02  0.17770000000E+01 0. -1.
</event>
<event>
 6    1  0.1023771E-002  0.1853801E+03  0.7546771E-02  0.1066185E+00
        -11   -1    0    0    0    0  0.00000000000E+00  0.00000000000E+00  0.18250000000E+03  0.18250000000E+03  0.00000000000E+00 0.  1.
         11   -1    0    0    0    0 -0.00000000000E+00 -0.00000000000E+00 -0.18250000000E+03  0.18250000000E+03  0.00000000000E+00 0. -1.
        -11    1    1    2    0    0 -0.84031399226E+01  0.70054863468E+01  0.17928645258E+03  0.17961993675E+03  0.00000000000E+00 0.  1.
         11    1    1    2    0    0 -0.24791746907E+01  0.25391644988E+00 -0.16524465559E+03  0.16526344720E+03  0.00000000000E+00 0. -1.
        -15    1    1    2    0    0  0.17492027704E+01 -0.36244720754E+01 -0.47435022745E+01  0.64695479738E+01  0.17770000000E+01 0.  1.
         15    1    1    2    0    0  0.91331118430E+01 -0.36349307213E+01 -0.92982947157E+01  0.13647068070E+02  0.17770000000E+01 0. -1.
</event>
<event>
 6    1  0.1023771E-002  0.1839809E+03  0.7546771E-02  0.1067282E+00
        -11   -1    0    0    0    0  0.00000000000E+00  0.00000000000E+00  0.18250000000E+03  0.18250000000E+03  0.00000000000E+00 0. -1.
         11   -1    0    0    0    0 -0.00000000000E+00 -0.00000000000E+00 -0.18250000000E+03  0.18250000000E+03  0.00000000000E+00 0.  1.
        -11    1    1    2    0    0 -0.38918797109E+01 -0.18882454040E+01  0.16940884137E+03  0.16946406030E+03  0.00000000000E+00 0. -1.
         11    1    1    2    0    0 -0.30160413519E+00 -0.41328801988E+01 -0.18097167710E+03  0.18101911384E+03  0.00000000000E+00 0.  1.
        -15    1    1    2    0    0  0.11230493131E+01  0.41552751916E+00  0.27551323454E+01  0.34903275089E+01  0.17770000000E+01 0.  1.
         15    1    1    2    0    0  0.30704345329E+01  0.56055980837E+01  0.88077033788E+01  0.11026498352E+02  0.17770000000E+01 0.  1.
</event>
<event>
 6    1  0.1023771E-002  0.1900933E+03  0.7546771E-02  0.1062566E+00
        -11   -1    0    0    0    0  0.00000000000E+00  0.00000000000E+00  0.18250000000E+03  0.18250000000E+03  0.00000000000E+00 0. -1.
         11   -1    0    0    0    0 -0.00000000000E+00 -0.00000000000E+00 -0.18250000000E+03  0.18250000000E+03  0.00000000000E+00 0. -1.
        -11    1    1    2    0    0 -0.75955529427E+01  0.22768181837E+02  0.17325201897E+03  0.17490667399E+03  0.00000000000E+00 0. -1.
         11    1    1    2    0    0  0.98775289432E+00 -0.30746108507E+01 -0.16024733175E+03  0.16027986842E+03  0.00000000000E+00 0. -1.
        -15    1    1    2    0    0 -0.11532659273E+01  0.16068769497E+01  0.12884741726E+01  0.29546523525E+01  0.17770000000E+01 0.  1.
         15    1    1    2    0    0  0.77610659757E+01 -0.21300447936E+02 -0.14293161387E+02  0.26858805237E+02  0.17770000000E+01 0. -1.
</event>
<event>
 6    1  0.1023771E-002  0.1857269E+03  0.7546771E-02  0.1065915E+00
        -11   -1    0    0    0    0  0.00000000000E+00  0.00000000000E+00  0.18250000000E+03  0.18250000000E+03  0.00000000000E+00 0.  1.
         11   -1    0    0    0    0 -0.00000000000E+00 -0.00000000000E+00 -0.18250000000E+03  0.18250000000E+03  0.00000000000E+00 0. -1.
        -11    1    1    2    0    0  0.99725195810E+01  0.59235294132E+01  0.16896054894E+03  0.16935821930E+03  0.00000000000E+00 0.  1.
         11    1    1    2    0    0 -0.28040099211E+01 -0.10747497274E+01 -0.17924795510E+03  0.17927310720E+03  0.00000000000E+00 0. -1.
        -15    1    1    2    0    0 -0.33390415750E+01 -0.45155494779E+01  0.10595389722E+02  0.12122681143E+02  0.17770000000E+01 0.  1.
         15    1    1    2    0    0 -0.38294680849E+01 -0.33323020787E+00 -0.30798356352E+00  0.42459923528E+01  0.17770000000E+01 0. -1.
</event>
<event>
 6    1  0.1023771E-002  0.1772192E+03  0.7546771E-02  0.1072738E+00
        -11   -1    0    0    0    0  0.00000000000E+00  0.00000000000E+00  0.18250000000E+03  0.18250000000E+03  0.00000000000E+00 0.  1.
         11   -1    0    0    0    0 -0.00000000000E+00 -0.00000000000E+00 -0.18250000000E+03  0.18250000000E+03  0.00000000000E+00 0. -1.
        -11    1    1    2    0    0 -0.72707815784E+01 -0.76621199516E+00  0.17538954167E+03  0.17554185447E+03  0.00000000000E+00 0.  1.
         11    1    1    2    0    0  0.21605819813E+00  0.47060562101E+01 -0.17894440508E+03  0.17900640702E+03  0.00000000000E+00 0. -1.
        -15    1    1    2    0    0  0.54336732335E+01 -0.69637245936E+00  0.24991201459E+01  0.62779829495E+01  0.17770000000E+01 0. -1.
         15    1    1    2    0    0  0.16210501467E+01 -0.32434717555E+01  0.10557432622E+01  0.41737555562E+01  0.17770000000E+01 0.  1.
</event>
<event>
 6    1  0.1023771E-002  0.1760290E+03  0.7546771E-02  0.1073726E+00
        -11   -1    0    0    0    0  0.00000000000E+00  0.00000000000E+00  0.18250000000E+03  0.18250000000E+03  0.00000000000E+00 0.  1.
         11   -1    0    0    0    0 -0.00000000000E+00 -0.00000000000E+00 -0.18250000000E+03  0.18250000000E+03  0.00000000000E+00 0. -1.
        -11    1    1    2    0    0  0.73900902741E+01 -0.69205074629E+01  0.17819773361E+03  0.17848512297E+03  0.00000000000E+00 0.  1.
         11    1    1    2    0    0 -0.34221463429E+01 -0.55376964307E+00 -0.17366915063E+03  0.17370374672E+03  0.00000000000E+00 0. -1.
        -15    1    1    2    0    0  0.21395777216E+00 -0.11415259683E+01 -0.13965512084E+00  0.21274614021E+01  0.17770000000E+01 0. -1.
         15    1    1    2    0    0 -0.41819017034E+01  0.86158030743E+01 -0.43889278624E+01  0.10683668904E+02  0.17770000000E+01 0.  1.
</event>
<event>
 6    1  0.1023771E-002  0.1831684E+03  0.7546771E-02  0.1067924E+00
        -11   -1    0    0    0    0  0.00000000000E+00  0.00000000000E+00  0.18250000000E+03  0.18250000000E+03  0.00000000000E+00 0. -1.
         11   -1    0    0    0    0 -0.00000000000E+00 -0.00000000000E+00 -0.18250000000E+03  0.18250000000E+03  0.00000000000E+00 0.  1.
        -11    1    1    2    0    0  0.60434222536E+01 -0.64243253365E+00  0.18173003959E+03  0.18183163355E+03  0.00000000000E+00 0. -1.
         11    1    1    2    0    0 -0.18328701809E-01  0.26950882024E+01 -0.14511270665E+03  0.14513773275E+03  0.00000000000E+00 0.  1.
        -15    1    1    2    0    0 -0.69380864211E+00 -0.62836488912E+00 -0.24663954491E+02  0.24745597447E+02  0.17770000000E+01 0.  1.
         15    1    1    2    0    0 -0.53312849096E+01 -0.14242907797E+01 -0.11953378441E+02  0.13285036250E+02  0.17770000000E+01 0. -1.
</event>
<event>
 6    1  0.1023771E-002  0.1877406E+03  0.7546771E-02  0.1064358E+00
        -11   -1    0    0    0    0  0.00000000000E+00  0.00000000000E+00  0.18250000000E+03  0.18250000000E+03  0.00000000000E+00 0.  1.
         11   -1    0    0    0    0 -0.00000000000E+00 -0.00000000000E+00 -0.18250000000E+03  0.18250000000E+03  0.00000000000E+00 0.  1.
        -11    1    1    2    0    0  0.11956527822E+02  0.51499152881E-01  0.14851621367E+03  0.14899673464E+03  0.00000000000E+00 0.  1.
         11    1    1    2    0    0  0.95361344990E+01  0.56062118580E+01 -0.17691388185E+03  0.17725938357E+03  0.00000000000E+00 0.  1.
        -15    1    1    2    0    0 -0.41200148864E+01  0.20260180530E+01  0.50314479043E+00  0.49487529233E+01  0.17770000000E+01 0. -1.
         15    1    1    2    0    0 -0.17372647435E+02 -0.76837290639E+01  0.27894523384E+02  0.33795128866E+02  0.17770000000E+01 0.  1.
</event>
<event>
 6    1  0.1023771E-002  0.1830185E+03  0.7546771E-02  0.1068043E+00
        -11   -1    0    0    0    0  0.00000000000E+00  0.00000000000E+00  0.18250000000E+03  0.18250000000E+03  0.00000000000E+00 0. -1.
         11   -1    0    0    0    0 -0.00000000000E+00 -0.00000000000E+00 -0.18250000000E+03  0.18250000000E+03  0.00000000000E+00 0.  1.
        -11    1    1    2    0    0 -0.18754599882E+01  0.42561437784E+01  0.10715583686E+03  0.10725672699E+03  0.00000000000E+00 0. -1.
         11    1    1    2    0    0 -0.35493168430E+01  0.33491464908E+01 -0.18191605106E+03  0.18198149374E+03  0.00000000000E+00 0.  1.
        -15    1    1    2    0    0 -0.68502603589E+00 -0.13993430105E+01  0.32022730004E+02  0.32109817617E+02  0.17770000000E+01 0. -1.
         15    1    1    2    0    0  0.61098028672E+01 -0.62059472587E+01  0.42737484190E+02  0.43651961655E+02  0.17770000000E+01 0.  1.
</event>
<event>
 6    1  0.1023771E-002  0.1454157E+03  0.7546771E-02  0.1102528E+00
        -11   -1    0    0    0    0  0.00000000000E+00  0.00000000000E+00  0.18250000000E+03  0.18250000000E+03  0.00000000000E+00 0. -1.
         11   -1    0    0    0    0 -0.00000000000E+00 -0.00000000000E+00 -0.18250000000E+03  0.18250000000E+03  0.00000000000E+00 0. -1.
        -11    1    1    2    0    0  0.23639472744E+02  0.45463961061E+02  0.14865590983E+03  0.15723986758E+03  0.00000000000E+00 0. -1.
         11    1    1    2    0    0 -0.13636642950E+01  0.53980225834E+01 -0.13889396427E+03  0.13900550903E+03  0.00000000000E+00 0. -1.
        -15    1    1    2    0    0 -0.23569075080E+02 -0.44810638701E+02  0.66767124597E+01  0.51100204101E+02  0.17770000000E+01 0. -1.
         15    1    1    2    0    0  0.12932666310E+01 -0.60513449439E+01 -0.16438658021E+02  0.17654419297E+02  0.17770000000E+01 0.  1.
</event>
<event>
 6    1  0.1023771E-002  0.1848338E+03  0.7546771E-02  0.1066612E+00
        -11   -1    0    0    0    0  0.00000000000E+00  0.00000000000E+00  0.18250000000E+03  0.18250000000E+03  0.00000000000E+00 0. -1.
         11   -1    0    0    0    0 -0.00000000000E+00 -0.00000000000E+00 -0.18250000000E+03  0.18250000000E+03  0.00000000000E+00 0.  1.
        -11    1    1    2    0    0  0.45890921822E+01 -0.10681739147E+00  0.17491562167E+03  0.17497584371E+03  0.00000000000E+00 0. -1.
         11    1    1    2    0    0  0.25646225168E+01  0.87568575677E+00 -0.18014585494E+03  0.18016623759E+03  0.00000000000E+00 0.  1.
        -15    1    1    2    0    0 -0.26702040241E+01 -0.10263054835E+01  0.31075567210E+01  0.45823498612E+01  0.17770000000E+01 0.  1.
         15    1    1    2    0    0 -0.44835106749E+01  0.25743711818E+00  0.21226765560E+01  0.52755688417E+01  0.17770000000E+01 0. -1.
</event>
<event>
 6    1  0.1023771E-002  0.1845029E+03  0.7546771E-02  0.1066872E+00
        -11   -1    0    0    0    0  0.00000000000E+00  0.00000000000E+00  0.18250000000E+03  0.18250000000E+03  0.00000000000E+00 0.  1.
         11   -1    0    0    0    0 -0.00000000000E+00 -0.00000000000E+00 -0.18250000000E+03  0.18250000000E+03  0.00000000000E+00 0. -1.
        -11    1    1    2    0    0 -0.89663956256E+01  0.74304096505E+01  0.13331681714E+03  0.13382444085E+03  0.00000000000E+00 0.  1.
         11    1    1    2    0    0 -0.37489721542E+00  0.76303122141E+01 -0.18033539887E+03  0.18049714208E+03  0.00000000000E+00 0. -1.
        -15    1    1    2    0    0  0.91678822215E+01 -0.11940204410E+02  0.40333662844E+02  0.43088056735E+02  0.17770000000E+01 0.  1.
         15    1    1    2    0    0  0.17341061950E+00 -0.31205174548E+01  0.66849188887E+01  0.75903603326E+01  0.17770000000E+01 0.  1.
</event>
<event>
 6    1  0.2657648E-002  0.1830382E+03  0.7546771E-02  0.1068027E+00
        -11   -1    0    0    0    0  0.00000000000E+00  0.00000000000E+00  0.18250000000E+03  0.18250000000E+03  0.00000000000E+00 0.  1.
         11   -1    0    0    0    0 -0.00000000000E+00 -0.00000000000E+00 -0.18250000000E+03  0.18250000000E+03  0.00000000000E+00 0.  1.
        -11    1    1    2    0    0 -0.86920412849E+01 -0.41571318316E+01  0.18170652772E+03  0.18196179693E+03  0.00000000000E+00 0.  1.
         11    1    1    2    0    0 -0.94696758962E+00 -0.12980983064E+01 -0.11510131031E+03  0.11511252513E+03  0.00000000000E+00 0.  1.
        -15    1    1    2    0    0  0.13784982171E+01 -0.65231400133E+00 -0.62028048783E+01  0.66301046937E+01  0.17770000000E+01 0. -1.
         15    1    1    2    0    0  0.82605106575E+01  0.61075441393E+01 -0.60402412531E+02  0.61295573252E+02  0.17770000000E+01 0.  1.
</event>
<event>
 6    1  0.1023771E-002  0.1837715E+03  0.7546771E-02  0.1067447E+00
        -11   -1    0    0    0    0  0.00000000000E+00  0.00000000000E+00  0.18250000000E+03  0.18250000000E+03  0.00000000000E+00 0.  1.
         11   -1    0    0    0    0 -0.00000000000E+00 -0.00000000000E+00 -0.18250000000E+03  0.18250000000E+03  0.00000000000E+00 0.  1.
        -11    1    1    2    0    0  0.44948266277E+01 -0.39469282964E+00  0.18117230682E+03  0.18122848564E+03  0.00000000000E+00 0.  1.
         11    1    1    2    0    0  0.34197768112E+01  0.17407568509E+01 -0.16539050952E+03  0.16543501971E+03  0.00000000000E+00 0.  1.
        -15    1    1    2    0    0 -0.41648993092E+01  0.70287421247E+00 -0.93537581396E+01  0.10415898365E+02  0.17770000000E+01 0.  1.
         15    1    1    2    0    0 -0.37497041297E+01 -0.20489382337E+01 -0.64280391681E+01  0.79205962839E+01  0.17770000000E+01 0. -1.
</event>
<event>
 6    1  0.1023771E-002  0.1865923E+03  0.7546771E-02  0.1065243E+00
        -11   -1    0    0    0    0  0.00000000000E+00  0.00000000000E+00  0.18250000000E+03  0.18250000000E+03  0.00000000000E+00 0. -1.
         11   -1    0    0    0    0 -0.00000000000E+00 -0.00000000000E+00 -0.18250000000E+03  0.18250000000E+03  0.00000000000E+00 0. -1.
        -11    1    1    2    0    0 -0.18421829614E+02 -0.30737827572E+02  0.57844551433E+02  0.68045352381E+02  0.00000000000E+00 0. -1.
         11    1    1    2    0    0  0.13128054219E+02  0.27095655111E+02 -0.17584879353E+03  0.17840773111E+03  0.00000000000E+00 0. -1.
        -15    1    1    2    0    0  0.66445612814E+01  0.52580467518E+00  0.92422335574E+02  0.92679407137E+02  0.17770000000E+01 0.  1.
         15    1    1    2    0    0 -0.13507858866E+01  0.31163677860E+01  0.25581906524E+02  0.25867509372E+02  0.17770000000E+01 0. -1.
</event>
<event>
 6    1  0.1023771E-002  0.1838059E+03  0.7546771E-02  0.1067420E+00
        -11   -1    0    0    0    0  0.00000000000E+00  0.00000000000E+00  0.18250000000E+03  0.18250000000E+03  0.00000000000E+00 0. -1.
         11   -1    0    0    0    0 -0.00000000000E+00 -0.00000000000E+00 -0.18250000000E+03  0.18250000000E+03  0.00000000000E+00 0.  1.
        -11    1    1    2    0    0  0.10627339813E+02 -0.55284322327E+01  0.40483137852E+02  0.42218341569E+02  0.00000000000E+00 0. -1.
         11    1    1    2    0    0 -0.34760620556E+01  0.37026002492E+01 -0.18112296180E+03  0.18119414877E+03  0.00000000000E+00 0.  1.
        -15    1    1    2    0    0 -0.10411076695E+02 -0.22941767544E+01  0.92525192148E+02  0.93154294995E+02  0.17770000000E+01 0.  1.
         15    1    1    2    0    0  0.32597989378E+01  0.41200087379E+01  0.48114631800E+02  0.48433214671E+02  0.17770000000E+01 0. -1.
</event>
<event>
 6    1  0.1023771E-002  0.1826459E+03  0.7546771E-02  0.1068339E+00
        -11   -1    0    0    0    0  0.00000000000E+00  0.00000000000E+00  0.18250000000E+03  0.18250000000E+03  0.00000000000E+00 0.  1.
         11   -1    0    0    0    0 -0.00000000000E+00 -0.00000000000E+00 -0.18250000000E+03  0.18250000000E+03  0.00000000000E+00 0.  1.
        -11    1    1    2    0    0 -0.89349370022E+00  0.96167063421E+00  0.15676440781E+02  0.15731304363E+02  0.00000000000E+00 0.  1.
         11    1    1    2    0    0  0.25173991957E+01 -0.45252402848E+00 -0.18233619867E+03  0.18235413739E+03  0.00000000000E+00 0.  1.
        -15    1    1    2    0    0 -0.27685685965E+01  0.26988581868E+01  0.12647854853E+03  0.12655010777E+03  0.17770000000E+01 0.  1.
         15    1    1    2    0    0  0.11446631010E+01 -0.32080047925E+01  0.40181209355E+02  0.40364450481E+02  0.17770000000E+01 0.  1.
</event>
<event>
 6    1  0.1023771E-002  0.1828563E+03  0.7546771E-02  0.1068172E+00
        -11   -1    0    0    0    0  0.00000000000E+00  0.00000000000E+00  0.18250000000E+03  0.18250000000E+03  0.00000000000E+00 0. -1.
         11   -1    0    0    0    0 -0.00000000000E+00 -0.00000000000E+00 -0.18250000000E+03  0.18250000000E+03  0.00000000000E+00 0. -1.
        -11    1    1    2    0    0 -0.42756142365E+01  0.24290587371E+01  0.60637367094E+02  0.60836432271E+02  0.00000000000E+00 0. -1.
         11    1    1    2    0    0  0.44947725536E+01 -0.50825116279E+01 -0.18201724547E+03  0.18214365911E+03  0.00000000000E+00 0. -1.
        -15    1    1    2    0    0  0.18729145613E+01  0.24431466876E+01  0.11519720244E+03  0.11525202798E+03  0.17770000000E+01 0. -1.
         15    1    1    2    0    0 -0.20920728784E+01  0.21030620325E+00  0.61826759370E+01  0.67678806409E+01  0.17770000000E+01 0.  1.
</event>
<event>
 6    1  0.1023771E-002  0.1833513E+03  0.7546771E-02  0.1067779E+00
        -11   -1    0    0    0    0  0.00000000000E+00  0.00000000000E+00  0.18250000000E+03  0.18250000000E+03  0.00000000000E+00 0. -1.
         11   -1    0    0    0    0 -0.00000000000E+00 -0.00000000000E+00 -0.18250000000E+03  0.18250000000E+03  0.00000000000E+00 0. -1.
        -11    1    1    2    0    0  0.76845277782E+01  0.86513581069E+01  0.18127973549E+03  0.18164867317E+03  0.00000000000E+00 0. -1.
         11    1    1    2    0    0  0.15327890058E+01 -0.98053475926E+00 -0.11614110887E+03  0.11615536174E+03  0.00000000000E+00 0. -1.
        -15    1    1    2    0    0 -0.12815530098E+01 -0.43727458665E+01 -0.44515322830E+02  0.44783199754E+02  0.17770000000E+01 0. -1.
         15    1    1    2    0    0 -0.79357637741E+01 -0.32980774811E+01 -0.20623303789E+02  0.22412765334E+02  0.17770000000E+01 0.  1.
</event>
<event>
 6    1  0.1023771E-002  0.1831909E+03  0.7546771E-02  0.1067906E+00
        -11   -1    0    0    0    0  0.00000000000E+00  0.00000000000E+00  0.18250000000E+03  0.18250000000E+03  0.00000000000E+00 0. -1.
         11   -1    0    0    0    0 -0.00000000000E+00 -0.00000000000E+00 -0.18250000000E+03  0.18250000000E+03  0.00000000000E+00 0.  1.
        -11    1    1    2    0    0  0.54490066046E+01  0.10095883463E+01  0.13921923402E+03  0.13932948741E+03  0.00000000000E+00 0. -1.
         11    1    1    2    0    0 -0.90674396433E+00  0.24119727744E+01 -0.18179086855E+03  0.18180912982E+03  0.00000000000E+00 0.  1.
        -15    1    1    2    0    0  0.11442716497E+01  0.39679642488E+00  0.31778944560E+01  0.38371274652E+01  0.17770000000E+01 0.  1.
         15    1    1    2    0    0 -0.56865342900E+01 -0.38183575456E+01  0.39393740078E+02  0.40024255308E+02  0.17770000000E+01 0. -1.
</event>
<event>
 6    1  0.1023771E-002  0.1836929E+03  0.7546771E-02  0.1067509E+00
        -11   -1    0    0    0    0  0.00000000000E+00  0.00000000000E+00  0.18250000000E+03  0.18250000000E+03  0.00000000000E+00 0. -1.
         11   -1    0    0    0    0 -0.00000000000E+00 -0.00000000000E+00 -0.18250000000E+03  0.18250000000E+03  0.00000000000E+00 0.  1.
        -11    1    1    2    0    0 -0.28092930877E+01  0.78526719301E+00  0.18128366029E+03  0.18130712689E+03  0.00000000000E+00 0. -1.
         11    1    1    2    0    0  0.41693116080E+01 -0.32119979067E+01 -0.17372085367E+03  0.17380056125E+03  0.00000000000E+00 0.  1.
        -15    1    1    2    0    0 -0.13976550635E+01  0.29449996962E+01 -0.24336485585E+01  0.44392383573E+01  0.17770000000E+01 0. -1.
         15    1    1    2    0    0  0.37636543168E-01 -0.51826898255E+00 -0.51291580598E+01  0.54530735050E+01  0.17770000000E+01 0. -1.
</event>
<event>
 6    1  0.1023771E-002  0.1887971E+03  0.7546771E-02  0.1063550E+00
        -11   -1    0    0    0    0  0.00000000000E+00  0.00000000000E+00  0.18250000000E+03  0.18250000000E+03  0.00000000000E+00 0.  1.
         11   -1    0    0    0    0 -0.00000000000E+00 -0.00000000000E+00 -0.18250000000E+03  0.18250000000E+03  0.00000000000E+00 0. -1.
        -11    1    1    2    0    0  0.17161211518E+02 -0.25475919556E+02  0.28946030513E+02  0.42206662276E+02  0.00000000000E+00 0.  1.
         11    1    1    2    0    0 -0.35479682951E+01  0.24266261892E+02 -0.17448790026E+03  0.17620291394E+03  0.00000000000E+00 0. -1.
        -15    1    1    2    0    0  0.42413280922E+00  0.16431303502E+01  0.43749037544E+02  0.43817984675E+02  0.17770000000E+01 0. -1.
         15    1    1    2    0    0 -0.14037376032E+02 -0.43347268605E+00  0.10179283220E+03  0.10277243911E+03  0.17770000000E+01 0.  1.
</event>
<event>
 6    1  0.1023771E-002  0.1828003E+03  0.7546771E-02  0.1068216E+00
        -11   -1    0    0    0    0  0.00000000000E+00  0.00000000000E+00  0.18250000000E+03  0.18250000000E+03  0.00000000000E+00 0.  1.
         11   -1    0    0    0    0 -0.00000000000E+00 -0.00000000000E+00 -0.18250000000E+03  0.18250000000E+03  0.00000000000E+00 0.  1.
        -11    1    1    2    0    0 -0.31511436337E+00  0.31302599230E+01  0.14058654790E+02  0.14406373546E+02  0.00000000000E+00 0.  1.
         11    1    1    2    0    0 -0.45231400819E+01 -0.29396379995E+01 -0.18211980976E+03  0.18219968544E+03  0.00000000000E+00 0.  1.
        -15    1    1    2    0    0  0.49722837416E+01 -0.29565047181E+01  0.65217812382E+02  0.65497979409E+02  0.17770000000E+01 0.  1.
         15    1    1    2    0    0 -0.13402929631E+00  0.27658827946E+01  0.10284334259E+03  0.10289596161E+03  0.17770000000E+01 0. -1.
</event>
<event>
 6    1  0.1023771E-002  0.1860539E+03  0.7546771E-02  0.1065661E+00
        -11   -1    0    0    0    0  0.00000000000E+00  0.00000000000E+00  0.18250000000E+03  0.18250000000E+03  0.00000000000E+00 0. -1.
         11   -1    0    0    0    0 -0.00000000000E+00 -0.00000000000E+00 -0.18250000000E+03  0.18250000000E+03  0.00000000000E+00 0. -1.
        -11    1    1    2    0    0  0.12641402372E+02 -0.14164696832E+01  0.16798949272E+03  0.16847041611E+03  0.00000000000E+00 0. -1.
         11    1    1    2    0    0 -0.13741958950E+01 -0.29366715483E+01 -0.17891668514E+03  0.17894606080E+03  0.00000000000E+00 0. -1.
        -15    1    1    2    0    0 -0.53613637258E+01  0.92949708072E+00  0.82441996247E+01  0.10036570245E+02  0.17770000000E+01 0. -1.
         15    1    1    2    0    0 -0.59058427510E+01  0.34236441507E+01  0.26829927969E+01  0.75469528433E+01  0.17770000000E+01 0.  1.
</event>
<event>
 6    1  0.1023771E-002  0.1182521E+03  0.7546771E-02  0.1135534E+00
        -11   -1    0    0    0    0  0.00000000000E+00  0.00000000000E+00  0.18250000000E+03  0.18250000000E+03  0.00000000000E+00 0.  1.
         11   -1    0    0    0    0 -0.00000000000E+00 -0.00000000000E+00 -0.18250000000E+03  0.18250000000E+03  0.00000000000E+00 0. -1.
        -11    1    1    2    0    0  0.23057671173E+02  0.36177910847E+02 -0.37612342026E+02  0.57054234776E+02  0.00000000000E+00 0. -1.
         11    1    1    2    0    0 -0.12801211985E+02 -0.32089687670E+02 -0.12267000708E+03  0.12744233881E+03  0.00000000000E+00 0.  1.
        -15    1    1    2    0    0  0.30087288075E+02  0.17397862876E+02  0.48235958638E+02  0.59479374334E+02  0.17770000000E+01 0. -1.
         15    1    1    2    0    0 -0.40343747263E+02 -0.21486086052E+02  0.11204639047E+03  0.12102405208E+03  0.17770000000E+01 0.  1.
</event>
<event>
 6    1  0.1023771E-002  0.1845742E+03  0.7546771E-02  0.1066816E+00
        -11   -1    0    0    0    0  0.00000000000E+00  0.00000000000E+00  0.18250000000E+03  0.18250000000E+03  0.00000000000E+00 0. -1.
         11   -1    0    0    0    0 -0.00000000000E+00 -0.00000000000E+00 -0.18250000000E+03  0.18250000000E+03  0.00000000000E+00 0.  1.
        -11    1    1    2    0    0 -0.69269874950E+01 -0.89254411030E+01  0.71591452180E+02  0.72477463255E+02  0.00000000000E+00 0. -1.
         11    1    1    2    0    0 -0.69243489507E+01 -0.78930281791E+00 -0.18029116748E+03  0.18042581489E+03  0.00000000000E+00 0.  1.
        -15    1    1    2    0    0  0.10724637042E+02  0.99225156601E+01  0.10718170179E+03  0.10818756437E+03  0.17770000000E+01 0. -1.
         15    1    1    2    0    0  0.31266994040E+01 -0.20777173912E+00  0.15180135028E+01  0.39091574863E+01  0.17770000000E+01 0.  1.
</event>
<event>
 6    1  0.1023771E-002  0.1821755E+03  0.7546771E-02  0.1068713E+00
        -11   -1    0    0    0    0  0.00000000000E+00  0.00000000000E+00  0.18250000000E+03  0.18250000000E+03  0.00000000000E+00 0. -1.
         11   -1    0    0    0    0 -0.00000000000E+00 -0.00000000000E+00 -0.18250000000E+03  0.18250000000E+03  0.00000000000E+00 0.  1.
        -11    1    1    2    0    0  0.88950914152E+00 -0.71382392711E+00 -0.48713218918E-02  0.11405239329E+01  0.00000000000E+00 0. -1.
         11    1    1    2    0    0 -0.51387358407E+01 -0.20988885091E+01 -0.18160251868E+03  0.18168733233E+03  0.00000000000E+00 0.  1.
        -15    1    1    2    0    0  0.26144729630E+01  0.22136636451E+01  0.17594536984E+03  0.17598768898E+03  0.17770000000E+01 0. -1.
         15    1    1    2    0    0  0.16347537362E+01  0.59904879105E+00  0.56620201669E+01  0.61844547539E+01  0.17770000000E+01 0.  1.
</event>
<event>
 6    1  0.1023771E-002  0.1789124E+03  0.7546771E-02  0.1071347E+00
        -11   -1    0    0    0    0  0.00000000000E+00  0.00000000000E+00  0.18250000000E+03  0.18250000000E+03  0.00000000000E+00 0. -1.
         11   -1    0    0    0    0 -0.00000000000E+00 -0.00000000000E+00 -0.18250000000E+03  0.18250000000E+03  0.00000000000E+00 0.  1.
        -11    1    1    2    0    0  0.31347052956E+01  0.88869771746E-01  0.17755898991E+03  0.17758668073E+03  0.00000000000E+00 0. -1.
         11    1    1    2    0    0  0.12671051981E+01 -0.30994482357E+01 -0.18025684884E+03  0.18028794660E+03  0.00000000000E+00 0.  1.
        -15    1    1    2    0    0 -0.18749776364E+01  0.19027968449E+01  0.19665502009E+01  0.37631403990E+01  0.17770000000E+01 0. -1.
         15    1    1    2    0    0 -0.25268328573E+01  0.11077816190E+01  0.73130873412E+00  0.33622322747E+01  0.17770000000E+01 0.  1.
</event>
<event>
 6    1  0.1023771E-002  0.1825905E+03  0.7546771E-02  0.1068383E+00
        -11   -1    0    0    0    0  0.00000000000E+00  0.00000000000E+00  0.18250000000E+03  0.18250000000E+03  0.00000000000E+00 0.  1.
         11   -1    0    0    0    0 -0.00000000000E+00 -0.00000000000E+00 -0.18250000000E+03  0.18250000000E+03  0.00000000000E+00 0. -1.
        -11    1    1    2    0    0 -0.59530368673E+01  0.16905097255E+01  0.18230448233E+03  0.18240948645E+03  0.00000000000E+00 0.  1.
         11    1    1    2    0    0  0.21532159598E+01  0.14487657390E+01 -0.99347939421E+02  0.99381830977E+02  0.00000000000E+00 0. -1.
        -15    1    1    2    0    0  0.24797898281E+01 -0.25989525097E+01 -0.42685680879E+02  0.42873406592E+02  0.17770000000E+01 0.  1.
         15    1    1    2    0    0  0.13200310794E+01 -0.54032295476E+00 -0.40270862027E+02  0.40335275979E+02  0.17770000000E+01 0. -1.
</event>
<event>
 6    1  0.1023771E-002  0.1835013E+03  0.7546771E-02  0.1067661E+00
        -11   -1    0    0    0    0  0.00000000000E+00  0.00000000000E+00  0.18250000000E+03  0.18250000000E+03  0.00000000000E+00 0.  1.
         11   -1    0    0    0    0 -0.00000000000E+00 -0.00000000000E+00 -0.18250000000E+03  0.18250000000E+03  0.00000000000E+00 0. -1.
        -11    1    1    2    0    0 -0.28085311621E+01 -0.11146531333E+02  0.13499201944E+03  0.13548054591E+03  0.00000000000E+00 0.  1.
         11    1    1    2    0    0  0.71698670748E+01  0.32201750257E+01 -0.18132838713E+03  0.18149865151E+03  0.00000000000E+00 0. -1.
        -15    1    1    2    0    0 -0.32975522485E+01  0.10050101782E+01  0.67868487975E+01  0.78168370771E+01  0.17770000000E+01 0. -1.
         15    1    1    2    0    0 -0.10637836642E+01  0.69213461290E+01  0.39549518900E+02  0.40203965502E+02  0.17770000000E+01 0.  1.
</event>
<event>
 6    1  0.1023771E-002  0.1871319E+03  0.7546771E-02  0.1064826E+00
        -11   -1    0    0    0    0  0.00000000000E+00  0.00000000000E+00  0.18250000000E+03  0.18250000000E+03  0.00000000000E+00 0.  1.
         11   -1    0    0    0    0 -0.00000000000E+00 -0.00000000000E+00 -0.18250000000E+03  0.18250000000E+03  0.00000000000E+00 0.  1.
        -11    1    1    2    0    0  0.36882829537E+02  0.23159040453E+01  0.17398667728E+03  0.17786812642E+03  0.00000000000E+00 0.  1.
         11    1    1    2    0    0 -0.92065784930E+01  0.58894713704E+01 -0.11396125465E+03  0.11448412345E+03  0.00000000000E+00 0.  1.
        -15    1    1    2    0    0 -0.32140499684E+02 -0.19925636585E+01 -0.41749636630E+02  0.52755776154E+02  0.17770000000E+01 0.  1.
         15    1    1    2    0    0  0.44642486406E+01 -0.62128117572E+01 -0.18275785993E+02  0.19891973972E+02  0.17770000000E+01 0. -1.
</event>
<event>
 6    1  0.1023771E-002  0.1512014E+03  0.7546771E-02  0.1096518E+00
        -11   -1    0    0    0    0  0.00000000000E+00  0.00000000000E+00  0.18250000000E+03  0.18250000000E+03  0.00000000000E+00 0. -1.
         11   -1    0    0    0    0 -0.00000000000E+00 -0.00000000000E+00 -0.18250000000E+03  0.18250000000E+03  0.00000000000E+00 0. -1.
        -11    1    1    2    0    0  0.35005748412E+00  0.34261878686E+02  0.15696556757E+03  0.16066172000E+03  0.00000000000E+00 0. -1.
         11    1    1    2    0    0 -0.82598139750E+01  0.86468859396E+01 -0.14462798645E+03  0.14512149265E+03  0.00000000000E+00 0. -1.
        -15    1    1    2    0    0  0.27336737132E+01 -0.74099131014E+00 -0.16180231806E+02  0.16522096428E+02  0.17770000000E+01 0.  1.
         15    1    1    2    0    0  0.51760827778E+01 -0.42167773316E+02  0.38426506885E+01  0.42694690919E+02  0.17770000000E+01 0. -1.
</event>
<event>
 6    1  0.1023771E-002  0.1829496E+03  0.7546771E-02  0.1068098E+00
        -11   -1    0    0    0    0  0.00000000000E+00  0.00000000000E+00  0.18250000000E+03  0.18250000000E+03  0.00000000000E+00 0.  1.
         11   -1    0    0    0    0 -0.00000000000E+00 -0.00000000000E+00 -0.18250000000E+03  0.18250000000E+03  0.00000000000E+00 0. -1.
        -11    1    1    2    0    0 -0.32021761989E+01 -0.11266532547E+01  0.40056644170E+02  0.40200224155E+02  0.00000000000E+00 0.  1.
         11    1    1    2    0    0  0.32625062129E+00  0.32173759115E+01 -0.18202169755E+03  0.18205042249E+03  0.00000000000E+00 0. -1.
        -15    1    1    2    0    0  0.17973593271E+01 -0.19626784854E-02  0.13663934005E+03  0.13666271431E+03  0.17770000000E+01 0.  1.
         15    1    1    2    0    0  0.10785662505E+01 -0.20887599783E+01  0.53257133302E+01  0.60866390462E+01  0.17770000000E+01 0. -1.
</event>
<event>
 6    1  0.1023771E-002  0.1842516E+03  0.7546771E-02  0.1067069E+00
        -11   -1    0    0    0    0  0.00000000000E+00  0.00000000000E+00  0.18250000000E+03  0.18250000000E+03  0.00000000000E+00 0. -1.
         11   -1    0    0    0    0 -0.00000000000E+00 -0.00000000000E+00 -0.18250000000E+03  0.18250000000E+03  0.00000000000E+00 0. -1.
        -11    1    1    2    0    0 -0.15578814290E+01  0.49905673262E+01  0.17812991070E+03  0.17820661560E+03  0.00000000000E+00 0. -1.
         11    1    1    2    0    0  0.33637888851E+01 -0.16075165284E+01 -0.18070990865E+03  0.18074836174E+03  0.00000000000E+00 0. -1.
        -15    1    1    2    0    0 -0.13797111267E+01 -0.11671599689E+01  0.76502454753E+00  0.26474245494E+01  0.17770000000E+01 0.  1.
         15    1    1    2    0    0 -0.42619632940E+00 -0.22158908289E+01  0.18149734027E+01  0.33975981118E+01  0.17770000000E+01 0. -1.
</event>
<event>
 6    1  0.1023771E-002  0.1581967E+03  0.7546771E-02  0.1089636E+00
        -11   -1    0    0    0    0  0.00000000000E+00  0.00000000000E+00  0.18250000000E+03  0.18250000000E+03  0.00000000000E+00 0.  1.
         11   -1    0    0    0    0 -0.00000000000E+00 -0.00000000000E+00 -0.18250000000E+03  0.18250000000E+03  0.00000000000E+00 0. -1.
        -11    1    1    2    0    0 -0.35589355479E+02  0.29177959842E+01  0.16287742792E+03  0.16674583138E+03  0.00000000000E+00 0.  1.
         11    1    1    2    0    0  0.43281479487E+01  0.97360152109E+01 -0.15127648426E+03  0.15165123655E+03  0.00000000000E+00 0. -1.
        -15    1    1    2    0    0  0.29598710101E+02 -0.58815385919E+01  0.29464718735E+01  0.30372941270E+02  0.17770000000E+01 0.  1.
         15    1    1    2    0    0  0.16624974293E+01 -0.67722726032E+01 -0.14547415526E+02  0.16229990801E+02  0.17770000000E+01 0. -1.
</event>
<event>
 6    1  0.1023771E-002  0.1845924E+03  0.7546771E-02  0.1066801E+00
        -11   -1    0    0    0    0  0.00000000000E+00  0.00000000000E+00  0.18250000000E+03  0.18250000000E+03  0.00000000000E+00 0. -1.
         11   -1    0    0    0    0 -0.00000000000E+00 -0.00000000000E+00 -0.18250000000E+03  0.18250000000E+03  0.00000000000E+00 0. -1.
        -11    1    1    2    0    0  0.65259799584E+01 -0.11026833905E+02  0.86855479895E+02  0.87795523053E+02  0.00000000000E+00 0. -1.
         11    1    1    2    0    0  0.88969834149E+00 -0.11899638875E+02 -0.18001256548E+03  0.18040764035E+03  0.00000000000E+00 0. -1.
        -15    1    1    2    0    0 -0.64548787182E+01  0.22968299744E+02  0.89214796669E+02  0.92366909259E+02  0.17770000000E+01 0. -1.
         15    1    1    2    0    0 -0.96079958177E+00 -0.41826964852E-01  0.39422889113E+01  0.44299273348E+01  0.17770000000E+01 0. -1.
</event>
<event>
 6    1  0.1023771E-002  0.1832027E+03  0.7546771E-02  0.1067897E+00
        -11   -1    0    0    0    0  0.00000000000E+00  0.00000000000E+00  0.18250000000E+03  0.18250000000E+03  0.00000000000E+00 0.  1.
         11   -1    0    0    0    0 -0.00000000000E+00 -0.00000000000E+00 -0.18250000000E+03  0.18250000000E+03  0.00000000000E+00 0. -1.
        -11    1    1    2    0    0  0.10109539029E+02  0.26967530681E+01  0.18149598227E+03  0.18179732351E+03  0.00000000000E+00 0.  1.
         11    1    1    2    0    0 -0.12020955045E+01  0.28697292711E+01 -0.11525411135E+03  0.11529609952E+03  0.00000000000E+00 0. -1.
        -15    1    1    2    0    0 -0.98371558896E+01 -0.22118085560E+01 -0.36489606191E+02  0.37898691562E+02  0.17770000000E+01 0.  1.
         15    1    1    2    0    0  0.92971236521E+00 -0.33546737831E+01 -0.29752264726E+02  0.30007885407E+02  0.17770000000E+01 0.  1.
</event>
<event>
 6    1  0.1023771E-002  0.1838569E+03  0.7546771E-02  0.1067380E+00
        -11   -1    0    0    0    0  0.00000000000E+00  0.00000000000E+00  0.18250000000E+03  0.18250000000E+03  0.00000000000E+00 0.  1.
         11   -1    0    0    0    0 -0.00000000000E+00 -0.00000000000E+00 -0.18250000000E+03  0.18250000000E+03  0.00000000000E+00 0. -1.
        -11    1    1    2    0    0 -0.41646982087E+02  0.23844269891E+02  0.17467058241E+03  0.18114312762E+03  0.00000000000E+00 0.  1.
         11    1    1    2    0    0 -0.25669147481E+01  0.33449233227E+01 -0.79410456126E+01  0.89909826371E+01  0.00000000000E+00 0. -1.
        -15    1    1    2    0    0  0.40244665657E+02 -0.21832793942E+02 -0.14483659794E+03  0.15191149343E+03  0.17770000000E+01 0. -1.
         15    1    1    2    0    0  0.39692311775E+01 -0.53563992720E+01 -0.21892938861E+02  0.22954396317E+02  0.17770000000E+01 0.  1.
</event>
<event>
 6    1  0.1023771E-002  0.1835770E+03  0.7546771E-02  0.1067601E+00
        -11   -1    0    0    0    0  0.00000000000E+00  0.00000000000E+00  0.18250000000E+03  0.18250000000E+03  0.00000000000E+00 0.  1.
         11   -1    0    0    0    0 -0.00000000000E+00 -0.00000000000E+00 -0.18250000000E+03  0.18250000000E+03  0.00000000000E+00 0.  1.
        -11    1    1    2    0    0  0.52471787181E+01  0.45289685702E+01  0.12729254209E+03  0.12748111904E+03  0.00000000000E+00 0.  1.
         11    1    1    2    0    0 -0.51462579322E+01 -0.47000035292E+01 -0.18128903829E+03  0.18142295722E+03  0.00000000000E+00 0.  1.
        -15    1    1    2    0    0  0.64402175565E+01  0.33244580793E+01  0.32187028495E+02  0.33040746905E+02  0.17770000000E+01 0.  1.
         15    1    1    2    0    0 -0.65411383424E+01 -0.31534231203E+01  0.21809467704E+02  0.23055176831E+02  0.17770000000E+01 0.  1.
</event>
<event>
 6    1  0.1023771E-002  0.1828376E+03  0.7546771E-02  0.1068186E+00
        -11   -1    0    0    0    0  0.00000000000E+00  0.00000000000E+00  0.18250000000E+03  0.18250000000E+03  0.00000000000E+00 0.  1.
         11   -1    0    0    0    0 -0.00000000000E+00 -0.00000000000E+00 -0.18250000000E+03  0.18250000000E+03  0.00000000000E+00 0.  1.
        -11    1    1    2    0    0 -0.25208150432E+01  0.14224712585E+01  0.18213944156E+03  0.18216243878E+03  0.00000000000E+00 0.  1.
         11    1    1    2    0    0  0.52170592357E+01  0.56969104517E+00 -0.14982781165E+03  0.14991969650E+03  0.00000000000E+00 0.  1.
        -15    1    1    2    0    0  0.36588924091E+00 -0.18563400323E+01 -0.17309698614E+02  0.17503235939E+02  0.17770000000E+01 0. -1.
         15    1    1    2    0    0 -0.30621334334E+01 -0.13582227137E+00 -0.15001931294E+02  0.15414628779E+02  0.17770000000E+01 0.  1.
</event>
<event>
 6    1  0.1023771E-002  0.1697562E+03  0.7546771E-02  0.1079077E+00
        -11   -1    0    0    0    0  0.00000000000E+00  0.00000000000E+00  0.18250000000E+03  0.18250000000E+03  0.00000000000E+00 0. -1.
         11   -1    0    0    0    0 -0.00000000000E+00 -0.00000000000E+00 -0.18250000000E+03  0.18250000000E+03  0.00000000000E+00 0.  1.
        -11    1    1    2    0    0  0.94471074295E+01 -0.20983771803E+02  0.16385009010E+03  0.16545820784E+03  0.00000000000E+00 0. -1.
         11    1    1    2    0    0 -0.19011368905E+01  0.43099113071E+01 -0.17465522080E+03  0.17471873343E+03  0.00000000000E+00 0.  1.
        -15    1    1    2    0    0 -0.78146938742E+01  0.17369942967E+02  0.11974876873E+02  0.22568556980E+02  0.17770000000E+01 0. -1.
         15    1    1    2    0    0  0.26872333524E+00 -0.69608247172E+00 -0.11697461711E+01  0.22545017505E+01  0.17770000000E+01 0. -1.
</event>
<event>
 6    1  0.1023771E-002  0.1905466E+03  0.7546771E-02  0.1062224E+00
        -11   -1    0    0    0    0  0.00000000000E+00  0.00000000000E+00  0.18250000000E+03  0.18250000000E+03  0.00000000000E+00 0. -1.
         11   -1    0    0    0    0 -0.00000000000E+00 -0.00000000000E+00 -0.18250000000E+03  0.18250000000E+03  0.00000000000E+00 0. -1.
        -11    1    1    2    0    0  0.86095380590E+01 -0.84346046226E+01  0.14352579819E+03  0.14403097391E+03  0.00000000000E+00 0. -1.
         11    1    1    2    0    0 -0.12931125064E+02 -0.17486868690E+02 -0.17309243388E+03  0.17445341854E+03  0.00000000000E+00 0. -1.
        -15    1    1    2    0    0 -0.33788560485E+01  0.14668214571E+02  0.29036500985E+02  0.32754378414E+02  0.17770000000E+01 0. -1.
         15    1    1    2    0    0  0.77004430530E+01  0.11253258742E+02  0.53013471384E+00  0.13761229136E+02  0.17770000000E+01 0.  1.
</event>
<event>
 6    1  0.1023771E-002  0.1838608E+03  0.7546771E-02  0.1067377E+00
        -11   -1    0    0    0    0  0.00000000000E+00  0.00000000000E+00  0.18250000000E+03  0.18250000000E+03  0.00000000000E+00 0. -1.
         11   -1    0    0    0    0 -0.00000000000E+00 -0.00000000000E+00 -0.18250000000E+03  0.18250000000E+03  0.00000000000E+00 0.  1.
        -11    1    1    2    0    0 -0.24995564356E+01 -0.55449901802E+01  0.15994216455E+03  0.16005777301E+03  0.00000000000E+00 0. -1.
         11    1    1    2    0    0 -0.18048505807E+01  0.18430607023E+01 -0.18112085174E+03  0.18113922074E+03  0.00000000000E+00 0.  1.
        -15    1    1    2    0    0 -0.83822209940E+00  0.48754165647E+01  0.92388682476E+01  0.10629521083E+02  0.17770000000E+01 0.  1.
         15    1    1    2    0    0  0.51426291157E+01 -0.11734870868E+01  0.11939818938E+02  0.13173485167E+02  0.17770000000E+01 0.  1.
</event>
<event>
 6    1  0.1023771E-002  0.1828283E+03  0.7546771E-02  0.1068194E+00
        -11   -1    0    0    0    0  0.00000000000E+00  0.00000000000E+00  0.18250000000E+03  0.18250000000E+03  0.00000000000E+00 0.  1.
         11   -1    0    0    0    0 -0.00000000000E+00 -0.00000000000E+00 -0.18250000000E+03  0.18250000000E+03  0.00000000000E+00 0. -1.
        -11    1    1    2    0    0  0.22839595912E+01 -0.23376025256E+02  0.18065128743E+03  0.18217173952E+03  0.00000000000E+00 0.  1.
         11    1    1    2    0    0 -0.23299464153E+01 -0.99007069392E+00 -0.20499036281E+02  0.20654766489E+02  0.00000000000E+00 0. -1.
        -15    1    1    2    0    0  0.11249215582E+01  0.90913884252E+01 -0.42282248319E+02  0.43299711823E+02  0.17770000000E+01 0.  1.
         15    1    1    2    0    0 -0.10789347342E+01  0.15274707525E+02 -0.11787000283E+03  0.11887378217E+03  0.17770000000E+01 0. -1.
</event>
<event>
 6    1  0.1023771E-002  0.1842330E+03  0.7546771E-02  0.1067084E+00
        -11   -1    0    0    0    0  0.00000000000E+00  0.00000000000E+00  0.18250000000E+03  0.18250000000E+03  0.00000000000E+00 0. -1.
         11   -1    0    0    0    0 -0.00000000000E+00 -0.00000000000E+00 -0.18250000000E+03  0.18250000000E+03  0.00000000000E+00 0.  1.
        -11    1    1    2    0    0  0.88683723023E+01  0.15062505610E+01  0.18054307481E+03  0.18076702874E+03  0.00000000000E+00 0. -1.
         11    1    1    2    0    0  0.24071192980E+01  0.59303667809E+00 -0.15906450759E+03  0.15908382536E+03  0.00000000000E+00 0.  1.
        -15    1    1    2    0    0 -0.74256868600E+01 -0.32510489758E+01 -0.16757781521E+02  0.18700029821E+02  0.17770000000E+01 0.  1.
         15    1    1    2    0    0 -0.38498047403E+01  0.11517617368E+01 -0.47207856991E+01  0.64491160832E+01  0.17770000000E+01 0. -1.
</event>
<event>
 6    1  0.1023771E-002  0.1827419E+03  0.7546771E-02  0.1068262E+00
        -11   -1    0    0    0    0  0.00000000000E+00  0.00000000000E+00  0.18250000000E+03  0.18250000000E+03  0.00000000000E+00 0.  1.
         11   -1    0    0    0    0 -0.00000000000E+00 -0.00000000000E+00 -0.18250000000E+03  0.18250000000E+03  0.00000000000E+00 0.  1.
        -11    1    1    2    0    0 -0.86881194191E+01  0.14081433993E+01  0.58498996057E+02  0.59157407200E+02  0.00000000000E+00 0.  1.
         11    1    1    2    0    0  0.95061724161E+01 -0.78732468209E+01 -0.18183969184E+03  0.18225813797E+03  0.00000000000E+00 0.  1.
        -15    1    1    2    0    0 -0.50089586400E+00  0.44282811176E+01  0.92327540537E+02  0.92452112150E+02  0.17770000000E+01 0.  1.
         15    1    1    2    0    0 -0.31715713297E+00  0.20368223040E+01  0.31013155241E+02  0.31132342680E+02  0.17770000000E+01 0.  1.
</event>
<event>
 6    1  0.1023771E-002  0.1848836E+03  0.7546771E-02  0.1066573E+00
        -11   -1    0    0    0    0  0.00000000000E+00  0.00000000000E+00  0.18250000000E+03  0.18250000000E+03  0.00000000000E+00 0.  1.
         11   -1    0    0    0    0 -0.00000000000E+00 -0.00000000000E+00 -0.18250000000E+03  0.18250000000E+03  0.00000000000E+00 0.  1.
        -11    1    1    2    0    0 -0.61380363693E+01 -0.77298541776E+01  0.16119861866E+03  0.16150052877E+03  0.00000000000E+00 0.  1.
         11    1    1    2    0    0  0.27056525881E+01 -0.45235657147E+01 -0.18003927058E+03  0.18011641278E+03  0.00000000000E+00 0.  1.
        -15    1    1    2    0    0  0.57503570279E+00  0.85459471284E+01  0.13261577653E+02  0.15886819985E+02  0.17770000000E+01 0.  1.
         15    1    1    2    0    0  0.28573480784E+01  0.37074727639E+01  0.55790742670E+01  0.74962384576E+01  0.17770000000E+01 0. -1.
</event>
<event>
 6    1  0.1023771E-002  0.1826377E+03  0.7546771E-02  0.1068345E+00
        -11   -1    0    0    0    0  0.00000000000E+00  0.00000000000E+00  0.18250000000E+03  0.18250000000E+03  0.00000000000E+00 0. -1.
         11   -1    0    0    0    0 -0.00000000000E+00 -0.00000000000E+00 -0.18250000000E+03  0.18250000000E+03  0.00000000000E+00 0.  1.
        -11    1    1    2    0    0 -0.18939292902E+01 -0.18115999385E+01  0.31860972982E+02  0.31968585547E+02  0.00000000000E+00 0. -1.
         11    1    1    2    0    0 -0.21340209937E+01 -0.27712357652E+01 -0.18232873881E+03  0.18236228445E+03  0.00000000000E+00 0.  1.
        -15    1    1    2    0    0  0.18995438629E+00  0.91635963126E+00  0.55707540186E+02  0.55743731129E+02  0.17770000000E+01 0.  1.
         15    1    1    2    0    0  0.38379958976E+01  0.36664760725E+01  0.94760225641E+02  0.94925398877E+02  0.17770000000E+01 0. -1.
</event>
<event>
 6    1  0.1023771E-002  0.1850992E+03  0.7546771E-02  0.1066404E+00
        -11   -1    0    0    0    0  0.00000000000E+00  0.00000000000E+00  0.18250000000E+03  0.18250000000E+03  0.00000000000E+00 0.  1.
         11   -1    0    0    0    0 -0.00000000000E+00 -0.00000000000E+00 -0.18250000000E+03  0.18250000000E+03  0.00000000000E+00 0. -1.
        -11    1    1    2    0    0  0.39707765153E+01 -0.49391145815E+01  0.17978913562E+03  0.17990079268E+03  0.00000000000E+00 0.  1.
         11    1    1    2    0    0  0.20544244401E+01  0.62054075921E+00 -0.15317415637E+03  0.15318918992E+03  0.00000000000E+00 0. -1.
        -15    1    1    2    0    0  0.35360056033E+01  0.63945505068E+01 -0.13476166230E+02  0.15432381445E+02  0.17770000000E+01 0. -1.
         15    1    1    2    0    0 -0.95612065587E+01 -0.20759766845E+01 -0.13138813020E+02  0.16477635954E+02  0.17770000000E+01 0.  1.
</event>
<event>
 6    1  0.1023771E-002  0.1831413E+03  0.7546771E-02  0.1067945E+00
        -11   -1    0    0    0    0  0.00000000000E+00  0.00000000000E+00  0.18250000000E+03  0.18250000000E+03  0.00000000000E+00 0.  1.
         11   -1    0    0    0    0 -0.00000000000E+00 -0.00000000000E+00 -0.18250000000E+03  0.18250000000E+03  0.00000000000E+00 0.  1.
        -11    1    1    2    0    0  0.35324640016E+01  0.29625074616E+01  0.18180027495E+03  0.18185872188E+03  0.00000000000E+00 0.  1.
         11    1    1    2    0    0 -0.14455518904E+00 -0.29646811207E+01 -0.15897368632E+03  0.15900139362E+03  0.00000000000E+00 0.  1.
        -15    1    1    2    0    0 -0.49023083729E+01 -0.10040536879E+01 -0.15243757573E+02  0.16142200133E+02  0.17770000000E+01 0. -1.
         15    1    1    2    0    0  0.15143995604E+01  0.10062273471E+01 -0.75828310536E+01  0.79976843705E+01  0.17770000000E+01 0. -1.
</event>
<event>
 6    1  0.1023771E-002  0.1835156E+03  0.7546771E-02  0.1067649E+00
        -11   -1    0    0    0    0  0.00000000000E+00  0.00000000000E+00  0.18250000000E+03  0.18250000000E+03  0.00000000000E+00 0. -1.
         11   -1    0    0    0    0 -0.00000000000E+00 -0.00000000000E+00 -0.18250000000E+03  0.18250000000E+03  0.00000000000E+00 0. -1.
        -11    1    1    2    0    0 -0.15549726824E+02 -0.15078999431E+02  0.18018719652E+03  0.18148442362E+03  0.00000000000E+00 0. -1.
         11    1    1    2    0    0  0.12923668988E+02  0.18608372058E+02 -0.85083612482E+02  0.88048360824E+02  0.00000000000E+00 0. -1.
        -15    1    1    2    0    0  0.31533746607E+01  0.44410678846E+00 -0.30977802878E+02  0.31191713687E+02  0.17770000000E+01 0. -1.
         15    1    1    2    0    0 -0.52731682394E+00 -0.39734794157E+01 -0.64125781160E+02  0.64275501866E+02  0.17770000000E+01 0. -1.
</event>
<event>
 6    1  0.1023771E-002  0.1845188E+03  0.7546771E-02  0.1066859E+00
        -11   -1    0    0    0    0  0.00000000000E+00  0.00000000000E+00  0.18250000000E+03  0.18250000000E+03  0.00000000000E+00 0.  1.
         11   -1    0    0    0    0 -0.00000000000E+00 -0.00000000000E+00 -0.18250000000E+03  0.18250000000E+03  0.00000000000E+00 0.  1.
        -11    1    1    2    0    0  0.83858371572E+01 -0.56425765099E+01  0.15097089478E+03  0.15130886294E+03  0.00000000000E+00 0.  1.
         11    1    1    2    0    0 -0.17220913970E+01 -0.17457542040E+01 -0.18046456467E+03  0.18048122439E+03  0.00000000000E+00 0.  1.
        -15    1    1    2    0    0  0.23929841070E+01  0.96327244081E+00  0.12089394216E+02  0.12488612743E+02  0.17770000000E+01 0. -1.
         15    1    1    2    0    0 -0.90567298672E+01  0.64250582731E+01  0.17404275673E+02  0.20721299921E+02  0.17770000000E+01 0.  1.
</event>
<event>
 6    1  0.1023771E-002  0.1847762E+03  0.7546771E-02  0.1066657E+00
        -11   -1    0    0    0    0  0.00000000000E+00  0.00000000000E+00  0.18250000000E+03  0.18250000000E+03  0.00000000000E+00 0.  1.
         11   -1    0    0    0    0 -0.00000000000E+00 -0.00000000000E+00 -0.18250000000E+03  0.18250000000E+03  0.00000000000E+00 0. -1.
        -11    1    1    2    0    0 -0.28619479471E+02 -0.11507617894E+02  0.17756443335E+03  0.18022382713E+03  0.00000000000E+00 0.  1.
         11    1    1    2    0    0 -0.45066076721E+01  0.49405168028E+01 -0.74233881700E+02  0.74534471295E+02  0.00000000000E+00 0. -1.
        -15    1    1    2    0    0  0.68948534427E+01  0.23333604129E+01 -0.68450846018E+01  0.10148718491E+02  0.17770000000E+01 0. -1.
         15    1    1    2    0    0  0.26231233700E+02  0.42337406785E+01 -0.96485467049E+02  0.10009298308E+03  0.17770000000E+01 0.  1.
</event>
<event>
 6    1  0.1023771E-002  0.1829263E+03  0.7546771E-02  0.1068116E+00
        -11   -1    0    0    0    0  0.00000000000E+00  0.00000000000E+00  0.18250000000E+03  0.18250000000E+03  0.00000000000E+00 0. -1.
         11   -1    0    0    0    0 -0.00000000000E+00 -0.00000000000E+00 -0.18250000000E+03  0.18250000000E+03  0.00000000000E+00 0. -1.
        -11    1    1    2    0    0 -0.22763305150E+01  0.52602576053E+01  0.18198349388E+03  0.18207373241E+03  0.00000000000E+00 0. -1.
         11    1    1    2    0    0 -0.55697398417E+01 -0.36112044670E+00 -0.92183650359E+02  0.92352465064E+02  0.00000000000E+00 0. -1.
        -15    1    1    2    0    0  0.76523475580E+01 -0.15501423208E+01 -0.62769654372E+02  0.63278342293E+02  0.17770000000E+01 0.  1.
         15    1    1    2    0    0  0.19372279871E+00 -0.33489948377E+01 -0.27030189146E+02  0.27295460231E+02  0.17770000000E+01 0. -1.
</event>
<event>
 6    1  0.1023771E-002  0.1826315E+03  0.7546771E-02  0.1068350E+00
        -11   -1    0    0    0    0  0.00000000000E+00  0.00000000000E+00  0.18250000000E+03  0.18250000000E+03  0.00000000000E+00 0.  1.
         11   -1    0    0    0    0 -0.00000000000E+00 -0.00000000000E+00 -0.18250000000E+03  0.18250000000E+03  0.00000000000E+00 0.  1.
        -11    1    1    2    0    0 -0.56509873615E+01  0.81576392466E+01  0.18209826408E+03  0.18236846909E+03  0.00000000000E+00 0.  1.
         11    1    1    2    0    0  0.69749465531E+00 -0.46366272850E+00 -0.10183868633E+02  0.10218251428E+02  0.00000000000E+00 0.  1.
        -15    1    1    2    0    0 -0.74257694398E+00 -0.10908260956E+01 -0.94677939332E+01  0.97230742592E+01  0.17770000000E+01 0. -1.
         15    1    1    2    0    0  0.56960696502E+01 -0.66031504225E+01 -0.16244660151E+03  0.16269020523E+03  0.17770000000E+01 0.  1.
</event>
<event>
 6    1  0.1023771E-002  0.1843150E+03  0.7546771E-02  0.1067019E+00
        -11   -1    0    0    0    0  0.00000000000E+00  0.00000000000E+00  0.18250000000E+03  0.18250000000E+03  0.00000000000E+00 0. -1.
         11   -1    0    0    0    0 -0.00000000000E+00 -0.00000000000E+00 -0.18250000000E+03  0.18250000000E+03  0.00000000000E+00 0. -1.
        -11    1    1    2    0    0  0.19482010685E+02  0.65816187777E+00  0.14365372704E+03  0.14497025630E+03  0.00000000000E+00 0. -1.
         11    1    1    2    0    0 -0.90182262074E+01  0.75374894572E+01 -0.18030229790E+03  0.18068497663E+03  0.00000000000E+00 0. -1.
        -15    1    1    2    0    0 -0.84573496873E+01 -0.54908912833E+01  0.23021859857E+02  0.25196039591E+02  0.17770000000E+01 0.  1.
         15    1    1    2    0    0 -0.20064347898E+01 -0.27047600517E+01  0.13626711003E+02  0.14148727478E+02  0.17770000000E+01 0.  1.
</event>
<event>
 6    1  0.1023771E-002  0.1837116E+03  0.7546771E-02  0.1067494E+00
        -11   -1    0    0    0    0  0.00000000000E+00  0.00000000000E+00  0.18250000000E+03  0.18250000000E+03  0.00000000000E+00 0. -1.
         11   -1    0    0    0    0 -0.00000000000E+00 -0.00000000000E+00 -0.18250000000E+03  0.18250000000E+03  0.00000000000E+00 0. -1.
        -11    1    1    2    0    0  0.43826927201E+01 -0.57162883314E+01  0.14821521609E+03  0.14839014195E+03  0.00000000000E+00 0. -1.
         11    1    1    2    0    0 -0.34835813494E-01 -0.28952651131E+01 -0.18126525322E+03  0.18128837745E+03  0.00000000000E+00 0. -1.
        -15    1    1    2    0    0 -0.22978477234E+00  0.47573334716E+01  0.23842663421E+02  0.24378583856E+02  0.17770000000E+01 0.  1.
         15    1    1    2    0    0 -0.41180721342E+01  0.38542199729E+01  0.92073737034E+01  0.10942896747E+02  0.17770000000E+01 0. -1.
</event>
<event>
 6    1  0.1023771E-002  0.1898852E+03  0.7546771E-02  0.1062724E+00
        -11   -1    0    0    0    0  0.00000000000E+00  0.00000000000E+00  0.18250000000E+03  0.18250000000E+03  0.00000000000E+00 0.  1.
         11   -1    0    0    0    0 -0.00000000000E+00 -0.00000000000E+00 -0.18250000000E+03  0.18250000000E+03  0.00000000000E+00 0.  1.
        -11    1    1    2    0    0 -0.85025870460E+01 -0.13657695413E+02  0.17437418051E+03  0.17511476653E+03  0.00000000000E+00 0.  1.
         11    1    1    2    0    0 -0.10135178814E+01 -0.42515544932E+01 -0.15824626629E+03  0.15830661303E+03  0.00000000000E+00 0.  1.
        -15    1    1    2    0    0 -0.10686416587E-02  0.39163783367E+01 -0.13738556123E+02  0.14395960328E+02  0.17770000000E+01 0. -1.
         15    1    1    2    0    0  0.95171735691E+01  0.13992871569E+02 -0.23893580959E+01  0.17182660114E+02  0.17770000000E+01 0.  1.
</event>
<event>
 6    1  0.1023771E-002  0.1827832E+03  0.7546771E-02  0.1068230E+00
        -11   -1    0    0    0    0  0.00000000000E+00  0.00000000000E+00  0.18250000000E+03  0.18250000000E+03  0.00000000000E+00 0.  1.
         11   -1    0    0    0    0 -0.00000000000E+00 -0.00000000000E+00 -0.18250000000E+03  0.18250000000E+03  0.00000000000E+00 0.  1.
        -11    1    1    2    0    0  0.23096224106E+01  0.43541005266E+01  0.18215009688E+03  0.18221676745E+03  0.00000000000E+00 0.  1.
         11    1    1    2    0    0 -0.19284451002E+01  0.88686840478E+00 -0.12474836089E+03  0.12476641768E+03  0.00000000000E+00 0.  1.
        -15    1    1    2    0    0 -0.24051869169E+01 -0.33292732997E+01 -0.21342325295E+02  0.21806456907E+02  0.17770000000E+01 0. -1.
         15    1    1    2    0    0  0.20240096065E+01 -0.19116956317E+01 -0.36059410698E+02  0.36210357965E+02  0.17770000000E+01 0. -1.
</event>
<event>
 6    1  0.1023771E-002  0.1829683E+03  0.7546771E-02  0.1068083E+00
        -11   -1    0    0    0    0  0.00000000000E+00  0.00000000000E+00  0.18250000000E+03  0.18250000000E+03  0.00000000000E+00 0.  1.
         11   -1    0    0    0    0 -0.00000000000E+00 -0.00000000000E+00 -0.18250000000E+03  0.18250000000E+03  0.00000000000E+00 0.  1.
        -11    1    1    2    0    0 -0.33276534652E+01  0.40635116090E+01  0.14769296682E+02  0.15675379698E+02  0.00000000000E+00 0.  1.
         11    1    1    2    0    0  0.33139090228E+01 -0.85176620418E+01 -0.18180212049E+03  0.18203171035E+03  0.00000000000E+00 0.  1.
        -15    1    1    2    0    0 -0.29421119303E+01  0.32342916598E+01  0.12854690750E+03  0.12863351749E+03  0.17770000000E+01 0.  1.
         15    1    1    2    0    0  0.29558563728E+01  0.12198587730E+01  0.38485916310E+02  0.38659392462E+02  0.17770000000E+01 0.  1.
</event>
<event>
 6    1  0.1023771E-002  0.1310864E+03  0.7546771E-02  0.1118838E+00
        -11   -1    0    0    0    0  0.00000000000E+00  0.00000000000E+00  0.18250000000E+03  0.18250000000E+03  0.00000000000E+00 0. -1.
         11   -1    0    0    0    0 -0.00000000000E+00 -0.00000000000E+00 -0.18250000000E+03  0.18250000000E+03  0.00000000000E+00 0. -1.
        -11    1    1    2    0    0  0.59396254611E+02  0.23775543362E+02  0.68696027325E+02  0.93874041642E+02  0.00000000000E+00 0. -1.
         11    1    1    2    0    0  0.54581576921E+01  0.10377499150E+00 -0.15314586395E+03  0.15324313328E+03  0.00000000000E+00 0. -1.
        -15    1    1    2    0    0 -0.68368358641E+02 -0.22716342788E+02  0.87060331763E+02  0.11301736056E+03  0.17770000000E+01 0. -1.
         15    1    1    2    0    0  0.35139463378E+01 -0.11629755660E+01 -0.26104951405E+01  0.48654645113E+01  0.17770000000E+01 0.  1.
</event>
<event>
 6    1  0.1023771E-002  0.1827890E+03  0.7546771E-02  0.1068225E+00
        -11   -1    0    0    0    0  0.00000000000E+00  0.00000000000E+00  0.18250000000E+03  0.18250000000E+03  0.00000000000E+00 0. -1.
         11   -1    0    0    0    0 -0.00000000000E+00 -0.00000000000E+00 -0.18250000000E+03  0.18250000000E+03  0.00000000000E+00 0. -1.
        -11    1    1    2    0    0 -0.72188105646E+01 -0.12597357241E+00  0.12485388457E+03  0.12506246275E+03  0.00000000000E+00 0. -1.
         11    1    1    2    0    0  0.50774205839E+01 -0.28580234672E+01 -0.18211780401E+03  0.18221098495E+03  0.00000000000E+00 0. -1.
        -15    1    1    2    0    0  0.90384144083E+00  0.42773762745E+01  0.33906236958E+02  0.34233076268E+02  0.17770000000E+01 0. -1.
         15    1    1    2    0    0  0.12375485398E+01 -0.12933792349E+01  0.23357682483E+02  0.23493476035E+02  0.17770000000E+01 0.  1.
</event>
<event>
 6    1  0.1023771E-002  0.1832195E+03  0.7546771E-02  0.1067884E+00
        -11   -1    0    0    0    0  0.00000000000E+00  0.00000000000E+00  0.18250000000E+03  0.18250000000E+03  0.00000000000E+00 0. -1.
         11   -1    0    0    0    0 -0.00000000000E+00 -0.00000000000E+00 -0.18250000000E+03  0.18250000000E+03  0.00000000000E+00 0. -1.
        -11    1    1    2    0    0 -0.17992076877E+01  0.80291385657E+01  0.15331475573E+03  0.15353539833E+03  0.00000000000E+00 0. -1.
         11    1    1    2    0    0  0.21389721264E+01 -0.47219212973E+01 -0.18170658027E+03  0.18178050791E+03  0.00000000000E+00 0. -1.
        -15    1    1    2    0    0  0.95574251923E+00 -0.14353986543E+01  0.25419717226E+02  0.25540038486E+02  0.17770000000E+01 0.  1.
         15    1    1    2    0    0 -0.12955069579E+01 -0.18718186141E+01  0.29721073149E+01  0.41440552715E+01  0.17770000000E+01 0.  1.
</event>
<event>
 6    1  0.1023771E-002  0.1869152E+03  0.7546771E-02  0.1064994E+00
        -11   -1    0    0    0    0  0.00000000000E+00  0.00000000000E+00  0.18250000000E+03  0.18250000000E+03  0.00000000000E+00 0. -1.
         11   -1    0    0    0    0 -0.00000000000E+00 -0.00000000000E+00 -0.18250000000E+03  0.18250000000E+03  0.00000000000E+00 0. -1.
        -11    1    1    2    0    0  0.42342260383E+01  0.13985877082E+02  0.15605680990E+03  0.15673946964E+03  0.00000000000E+00 0. -1.
         11    1    1    2    0    0  0.51817922152E+01 -0.32924928709E+01 -0.17797894669E+03  0.17808480268E+03  0.00000000000E+00 0. -1.
        -15    1    1    2    0    0 -0.10057573023E+02 -0.70681432758E+01  0.61069439495E+01  0.13840734008E+02  0.17770000000E+01 0. -1.
         15    1    1    2    0    0  0.64155476987E+00 -0.36252409358E+01  0.15815192843E+02  0.16334993665E+02  0.17770000000E+01 0.  1.
</event>
<event>
 6    1  0.1023771E-002  0.1826748E+03  0.7546771E-02  0.1068316E+00
        -11   -1    0    0    0    0  0.00000000000E+00  0.00000000000E+00  0.18250000000E+03  0.18250000000E+03  0.00000000000E+00 0. -1.
         11   -1    0    0    0    0 -0.00000000000E+00 -0.00000000000E+00 -0.18250000000E+03  0.18250000000E+03  0.00000000000E+00 0. -1.
        -11    1    1    2    0    0 -0.37071468508E+01  0.24154716370E+00  0.25921234470E+02  0.26186097060E+02  0.00000000000E+00 0. -1.
         11    1    1    2    0    0  0.24271302481E+01 -0.16208373288E+01 -0.18230187209E+03  0.18232523314E+03  0.00000000000E+00 0. -1.
        -15    1    1    2    0    0 -0.14506012103E+00  0.96227651956E+00  0.23309037483E+02  0.23396922360E+02  0.17770000000E+01 0. -1.
         15    1    1    2    0    0  0.14250767238E+01  0.41701364560E+00  0.13307160013E+03  0.13309174743E+03  0.17770000000E+01 0. -1.
</event>
<event>
 6    1  0.1023771E-002  0.1835349E+03  0.7546771E-02  0.1067634E+00
        -11   -1    0    0    0    0  0.00000000000E+00  0.00000000000E+00  0.18250000000E+03  0.18250000000E+03  0.00000000000E+00 0. -1.
         11   -1    0    0    0    0 -0.00000000000E+00 -0.00000000000E+00 -0.18250000000E+03  0.18250000000E+03  0.00000000000E+00 0. -1.
        -11    1    1    2    0    0 -0.29231238617E+01 -0.48265517316E+01  0.18137730175E+03  0.18146505406E+03  0.00000000000E+00 0. -1.
         11    1    1    2    0    0 -0.54762127037E+01  0.61229544540E+00 -0.15603725736E+03  0.15613452371E+03  0.00000000000E+00 0. -1.
        -15    1    1    2    0    0  0.54164946659E+01  0.14323955589E+01 -0.16242001413E+02  0.17272825779E+02  0.17770000000E+01 0. -1.
         15    1    1    2    0    0  0.29828418994E+01  0.27818607273E+01 -0.90980429777E+01  0.10127596454E+02  0.17770000000E+01 0.  1.
</event>
<event>
 6    1  0.1023771E-002  0.1876405E+03  0.7546771E-02  0.1064435E+00
        -11   -1    0    0    0    0  0.00000000000E+00  0.00000000000E+00  0.18250000000E+03  0.18250000000E+03  0.00000000000E+00 0.  1.
         11   -1    0    0    0    0 -0.00000000000E+00 -0.00000000000E+00 -0.18250000000E+03  0.18250000000E+03  0.00000000000E+00 0.  1.
        -11    1    1    2    0    0  0.97916150087E+01 -0.13176411873E+02  0.17659810228E+03  0.17735947475E+03  0.00000000000E+00 0.  1.
         11    1    1    2    0    0 -0.28927115901E+01  0.68982905358E+01 -0.15064455267E+03  0.15083015428E+03  0.00000000000E+00 0.  1.
        -15    1    1    2    0    0 -0.44236552684E+01  0.15513074098E+02 -0.14281874387E+02  0.21618368553E+02  0.17770000000E+01 0.  1.
         15    1    1    2    0    0 -0.24752481502E+01 -0.92349527599E+01 -0.11671675226E+02  0.15192002418E+02  0.17770000000E+01 0. -1.
</event>
<event>
 6    1  0.1023771E-002  0.1829802E+03  0.7546771E-02  0.1068073E+00
        -11   -1    0    0    0    0  0.00000000000E+00  0.00000000000E+00  0.18250000000E+03  0.18250000000E+03  0.00000000000E+00 0. -1.
         11   -1    0    0    0    0 -0.00000000000E+00 -0.00000000000E+00 -0.18250000000E+03  0.18250000000E+03  0.00000000000E+00 0.  1.
        -11    1    1    2    0    0 -0.54729601994E+01  0.22138690272E+01  0.19489584478E+02  0.20364145269E+02  0.00000000000E+00 0. -1.
         11    1    1    2    0    0  0.55156636194E+01 -0.63812389998E+00 -0.18193513041E+03  0.18201983799E+03  0.00000000000E+00 0.  1.
        -15    1    1    2    0    0 -0.19164319369E+01 -0.33517233295E+01  0.10346174538E+03  0.10354900891E+03  0.17770000000E+01 0. -1.
         15    1    1    2    0    0  0.18737285169E+01  0.17759782023E+01  0.58983800550E+02  0.59067007825E+02  0.17770000000E+01 0.  1.
</event>
