<event>
 6    1  0.3411206E-003  0.5008989E+03  0.7546771E-02  0.9397801E-01
        -11   -1    0    0    0    0  0.00000000000E+00  0.00000000000E+00  0.50000000000E+03  0.50000000000E+03  0.00000000000E+00 0.  1.
         11   -1    0    0    0    0 -0.00000000000E+00 -0.00000000000E+00 -0.50000000000E+03  0.50000000000E+03  0.00000000000E+00 0.  1.
        -11    1    1    2    0    0  0.62760896944E+01 -0.19275244652E+01  0.32246766411E+03  0.32253449281E+03  0.00000000000E+00 0.  1.
         11    1    1    2    0    0 -0.31449260566E+01 -0.91119819755E+01 -0.49900796030E+03  0.49910105512E+03  0.00000000000E+00 0.  1.
        -15    1    1    2    0    0  0.46011272132E+00 -0.48780820508E+01  0.13051095812E+02  0.14053334804E+02  0.17770000000E+01 0. -1.
         15    1    1    2    0    0 -0.35912763591E+01  0.15917588491E+02  0.16348920038E+03  0.16431111727E+03  0.17770000000E+01 0.  1.
</event>
<event>
 6    1  0.3411206E-003  0.5330330E+03  0.7546771E-02  0.9328786E-01
        -11   -1    0    0    0    0  0.00000000000E+00  0.00000000000E+00  0.50000000000E+03  0.50000000000E+03  0.00000000000E+00 0.  1.
         11   -1    0    0    0    0 -0.00000000000E+00 -0.00000000000E+00 -0.50000000000E+03  0.50000000000E+03  0.00000000000E+00 0. -1.
        -11    1    1    2    0    0 -0.13158223594E+02  0.14021527583E+02  0.34459106802E+03  0.34512714503E+03  0.00000000000E+00 0.  1.
         11    1    1    2    0    0 -0.63114113578E+01 -0.75554466871E+02 -0.46077092768E+03  0.46696697867E+03  0.00000000000E+00 0. -1.
        -15    1    1    2    0    0  0.62100865848E+02 -0.11163149309E+02  0.44149249334E+02  0.77028873724E+02  0.17770000000E+01 0. -1.
         15    1    1    2    0    0 -0.42631230896E+02  0.72696088598E+02  0.72030610329E+02  0.11087700257E+03  0.17770000000E+01 0.  1.
</event>
<event>
 6    1  0.3411206E-003  0.5049296E+03  0.7546771E-02  0.9388846E-01
        -11   -1    0    0    0    0  0.00000000000E+00  0.00000000000E+00  0.50000000000E+03  0.50000000000E+03  0.00000000000E+00 0. -1.
         11   -1    0    0    0    0 -0.00000000000E+00 -0.00000000000E+00 -0.50000000000E+03  0.50000000000E+03  0.00000000000E+00 0.  1.
        -11    1    1    2    0    0 -0.18475010175E+02 -0.12193326391E+02  0.49457526450E+03  0.49507039446E+03  0.00000000000E+00 0. -1.
         11    1    1    2    0    0  0.39079377166E+01 -0.70061921173E+01 -0.31205317565E+03  0.31215627999E+03  0.00000000000E+00 0.  1.
        -15    1    1    2    0    0  0.21835566667E+02  0.25399930644E+02 -0.17948458548E+03  0.18259195657E+03  0.17770000000E+01 0.  1.
         15    1    1    2    0    0 -0.72684942086E+01 -0.62004121362E+01 -0.30375033705E+01  0.10181368987E+02  0.17770000000E+01 0. -1.
</event>
<event>
 6    1  0.3411206E-003  0.5050574E+03  0.7546771E-02  0.9388564E-01
        -11   -1    0    0    0    0  0.00000000000E+00  0.00000000000E+00  0.50000000000E+03  0.50000000000E+03  0.00000000000E+00 0.  1.
         11   -1    0    0    0    0 -0.00000000000E+00 -0.00000000000E+00 -0.50000000000E+03  0.50000000000E+03  0.00000000000E+00 0. -1.
        -11    1    1    2    0    0  0.36184233280E+01 -0.26353449385E+01  0.24776843599E+03  0.24780886970E+03  0.00000000000E+00 0.  1.
         11    1    1    2    0    0  0.21851523072E+02  0.29098200963E+00 -0.49445986777E+03  0.49494255683E+03  0.00000000000E+00 0. -1.
        -15    1    1    2    0    0  0.60283219655E+01  0.46316097293E+01  0.20382837199E+03  0.20397783074E+03  0.17770000000E+01 0.  1.
         15    1    1    2    0    0 -0.31498268365E+02 -0.22872468004E+01  0.42863059787E+02  0.53270742732E+02  0.17770000000E+01 0. -1.
</event>
<event>
 6    1  0.3411206E-003  0.5243041E+03  0.7546771E-02  0.9347012E-01
        -11   -1    0    0    0    0  0.00000000000E+00  0.00000000000E+00  0.50000000000E+03  0.50000000000E+03  0.00000000000E+00 0. -1.
         11   -1    0    0    0    0 -0.00000000000E+00 -0.00000000000E+00 -0.50000000000E+03  0.50000000000E+03  0.00000000000E+00 0. -1.
        -11    1    1    2    0    0  0.13345718999E+02  0.16490775732E+02  0.47522264172E+03  0.47569592505E+03  0.00000000000E+00 0. -1.
         11    1    1    2    0    0  0.11216224480E+02 -0.73572001653E+01 -0.42647786774E+03  0.42668876685E+03  0.00000000000E+00 0. -1.
        -15    1    1    2    0    0 -0.27475497858E+02 -0.13920753274E+02 -0.69501806518E+02  0.76041759531E+02  0.17770000000E+01 0.  1.
         15    1    1    2    0    0  0.29135543797E+01  0.47871777073E+01  0.20757032532E+02  0.21573548574E+02  0.17770000000E+01 0. -1.
</event>
<event>
 6    1  0.3411206E-003  0.5447024E+03  0.7546771E-02  0.9304990E-01
        -11   -1    0    0    0    0  0.00000000000E+00  0.00000000000E+00  0.50000000000E+03  0.50000000000E+03  0.00000000000E+00 0.  1.
         11   -1    0    0    0    0 -0.00000000000E+00 -0.00000000000E+00 -0.50000000000E+03  0.50000000000E+03  0.00000000000E+00 0.  1.
        -11    1    1    2    0    0 -0.15910737986E+02 -0.52189892729E+02  0.45201657268E+03  0.45529761526E+03  0.00000000000E+00 0.  1.
         11    1    1    2    0    0 -0.14094479149E+01 -0.40463316500E+01 -0.30081347312E+03  0.30084398773E+03  0.00000000000E+00 0.  1.
        -15    1    1    2    0    0  0.29070390537E+01  0.47075704761E+02  0.33804474524E+02  0.58055775610E+02  0.17770000000E+01 0. -1.
         15    1    1    2    0    0  0.14413146847E+02  0.91605196177E+01 -0.18500757408E+03  0.18580262140E+03  0.17770000000E+01 0.  1.
</event>
<event>
 6    1  0.3411206E-003  0.4900832E+03  0.7546771E-02  0.9422277E-01
        -11   -1    0    0    0    0  0.00000000000E+00  0.00000000000E+00  0.50000000000E+03  0.50000000000E+03  0.00000000000E+00 0.  1.
         11   -1    0    0    0    0 -0.00000000000E+00 -0.00000000000E+00 -0.50000000000E+03  0.50000000000E+03  0.00000000000E+00 0. -1.
        -11    1    1    2    0    0  0.73031540263E+01 -0.94420038854E+00  0.49353116597E+03  0.49358610126E+03  0.00000000000E+00 0.  1.
         11    1    1    2    0    0  0.67631256421E+01 -0.33483178404E+01 -0.48665614816E+03  0.48671465731E+03  0.00000000000E+00 0. -1.
        -15    1    1    2    0    0 -0.11337875008E+02  0.96899720299E+00 -0.14565694385E+00  0.11518042812E+02  0.17770000000E+01 0.  1.
         15    1    1    2    0    0 -0.27284046608E+01  0.33235210259E+01 -0.67293608714E+01  0.81811986127E+01  0.17770000000E+01 0. -1.
</event>
<event>
 6    1  0.3411206E-003  0.5035821E+03  0.7546771E-02  0.9391830E-01
        -11   -1    0    0    0    0  0.00000000000E+00  0.00000000000E+00  0.50000000000E+03  0.50000000000E+03  0.00000000000E+00 0.  1.
         11   -1    0    0    0    0 -0.00000000000E+00 -0.00000000000E+00 -0.50000000000E+03  0.50000000000E+03  0.00000000000E+00 0. -1.
        -11    1    1    2    0    0 -0.24244568661E+01 -0.77283767560E+01  0.49635179560E+03  0.49641787921E+03  0.00000000000E+00 0.  1.
         11    1    1    2    0    0 -0.51758649767E+01 -0.21794381810E+02 -0.33781955551E+03  0.33856142241E+03  0.00000000000E+00 0. -1.
        -15    1    1    2    0    0  0.16331807061E+02  0.31000752298E+02 -0.10433531970E+03  0.11007629732E+03  0.17770000000E+01 0. -1.
         15    1    1    2    0    0 -0.87314852179E+01 -0.14779937318E+01 -0.54196920394E+02  0.54944401069E+02  0.17770000000E+01 0.  1.
</event>
<event>
 6    1  0.3411206E-003  0.5028488E+03  0.7546771E-02  0.9393458E-01
        -11   -1    0    0    0    0  0.00000000000E+00  0.00000000000E+00  0.50000000000E+03  0.50000000000E+03  0.00000000000E+00 0. -1.
         11   -1    0    0    0    0 -0.00000000000E+00 -0.00000000000E+00 -0.50000000000E+03  0.50000000000E+03  0.00000000000E+00 0.  1.
        -11    1    1    2    0    0  0.71718813508E+01  0.17358228176E+01  0.47040597710E+03  0.47046384798E+03  0.00000000000E+00 0. -1.
         11    1    1    2    0    0  0.31248010365E+01 -0.67050371336E+01 -0.49709617093E+03  0.49715120945E+03  0.00000000000E+00 0.  1.
        -15    1    1    2    0    0 -0.34126357316E+00 -0.35223374689E+01  0.11978424448E+02  0.12616009802E+02  0.17770000000E+01 0.  1.
         15    1    1    2    0    0 -0.99554188142E+01  0.84915517850E+01  0.14711769383E+02  0.19768932770E+02  0.17770000000E+01 0. -1.
</event>
<event>
 6    1  0.3411206E-003  0.5015207E+03  0.7546771E-02  0.9396414E-01
        -11   -1    0    0    0    0  0.00000000000E+00  0.00000000000E+00  0.50000000000E+03  0.50000000000E+03  0.00000000000E+00 0.  1.
         11   -1    0    0    0    0 -0.00000000000E+00 -0.00000000000E+00 -0.50000000000E+03  0.50000000000E+03  0.00000000000E+00 0. -1.
        -11    1    1    2    0    0  0.16770854789E+01 -0.13233676744E+02  0.26880261444E+03  0.26913340251E+03  0.00000000000E+00 0.  1.
         11    1    1    2    0    0 -0.67450361817E+01  0.53826633213E+01 -0.49840462689E+03  0.49847932824E+03  0.00000000000E+00 0. -1.
        -15    1    1    2    0    0  0.87469723779E+01 -0.10007182543E+01  0.14445752243E+02  0.17010245433E+02  0.17770000000E+01 0. -1.
         15    1    1    2    0    0 -0.36790216751E+01  0.88517316766E+01  0.21515626020E+03  0.21537702382E+03  0.17770000000E+01 0.  1.
</event>
<event>
 6    1  0.3411206E-003  0.5007055E+03  0.7546771E-02  0.9398232E-01
        -11   -1    0    0    0    0  0.00000000000E+00  0.00000000000E+00  0.50000000000E+03  0.50000000000E+03  0.00000000000E+00 0.  1.
         11   -1    0    0    0    0 -0.00000000000E+00 -0.00000000000E+00 -0.50000000000E+03  0.50000000000E+03  0.00000000000E+00 0. -1.
        -11    1    1    2    0    0 -0.10358230674E+02 -0.42549739427E+01  0.28990433241E+03  0.29012052615E+03  0.00000000000E+00 0.  1.
         11    1    1    2    0    0 -0.85914190278E+01  0.24269322759E+01 -0.49921464686E+03  0.49929446834E+03  0.00000000000E+00 0. -1.
        -15    1    1    2    0    0  0.13560766053E+01  0.42713527943E+01  0.29568844821E+02  0.29959267539E+02  0.17770000000E+01 0.  1.
         15    1    1    2    0    0  0.17593573097E+02 -0.24433111274E+01  0.17974146963E+03  0.18062573797E+03  0.17770000000E+01 0. -1.
</event>
<event>
 6    1  0.3411206E-003  0.5050969E+03  0.7546771E-02  0.9388477E-01
        -11   -1    0    0    0    0  0.00000000000E+00  0.00000000000E+00  0.50000000000E+03  0.50000000000E+03  0.00000000000E+00 0. -1.
         11   -1    0    0    0    0 -0.00000000000E+00 -0.00000000000E+00 -0.50000000000E+03  0.50000000000E+03  0.00000000000E+00 0.  1.
        -11    1    1    2    0    0 -0.87261067036E+01 -0.55624393507E+01  0.49479485244E+03  0.49490305280E+03  0.00000000000E+00 0. -1.
         11    1    1    2    0    0 -0.94063997366E+01 -0.62203120828E+01 -0.43674495496E+03  0.43689052212E+03  0.00000000000E+00 0.  1.
        -15    1    1    2    0    0  0.26637837754E+01  0.10547064637E+02 -0.48851877875E+02  0.50079936276E+02  0.17770000000E+01 0.  1.
         15    1    1    2    0    0  0.15468722665E+02  0.12356867965E+01 -0.91980196049E+01  0.18126488805E+02  0.17770000000E+01 0. -1.
</event>
<event>
 6    1  0.3411206E-003  0.5031058E+03  0.7546771E-02  0.9392887E-01
        -11   -1    0    0    0    0  0.00000000000E+00  0.00000000000E+00  0.50000000000E+03  0.50000000000E+03  0.00000000000E+00 0.  1.
         11   -1    0    0    0    0 -0.00000000000E+00 -0.00000000000E+00 -0.50000000000E+03  0.50000000000E+03  0.00000000000E+00 0.  1.
        -11    1    1    2    0    0 -0.26737888248E+01 -0.69158506930E+01  0.49683883891E+03  0.49689416377E+03  0.00000000000E+00 0.  1.
         11    1    1    2    0    0 -0.12930997059E+02  0.74721687914E+01 -0.16399757129E+03  0.16467618948E+03  0.00000000000E+00 0.  1.
        -15    1    1    2    0    0  0.61190579932E+01 -0.21838909915E+02 -0.27650100061E+03  0.27743529322E+03  0.17770000000E+01 0.  1.
         15    1    1    2    0    0  0.94857278908E+01  0.21282591816E+02 -0.56340267004E+02  0.60994353535E+02  0.17770000000E+01 0. -1.
</event>
<event>
 6    1  0.3411206E-003  0.5005943E+03  0.7546771E-02  0.9398481E-01
        -11   -1    0    0    0    0  0.00000000000E+00  0.00000000000E+00  0.50000000000E+03  0.50000000000E+03  0.00000000000E+00 0.  1.
         11   -1    0    0    0    0 -0.00000000000E+00 -0.00000000000E+00 -0.50000000000E+03  0.50000000000E+03  0.00000000000E+00 0. -1.
        -11    1    1    2    0    0 -0.38875887803E+01  0.29392554204E+01  0.25193300920E+03  0.25198014543E+03  0.00000000000E+00 0.  1.
         11    1    1    2    0    0 -0.59994351949E+01 -0.65114164258E+01 -0.49932721188E+03  0.49940570310E+03  0.00000000000E+00 0. -1.
        -15    1    1    2    0    0  0.61545700641E+01  0.31286433381E+01  0.20912433562E+02  0.22094224320E+02  0.17770000000E+01 0.  1.
         15    1    1    2    0    0  0.37324539111E+01  0.44351766726E+00  0.22648176912E+03  0.22651992714E+03  0.17770000000E+01 0. -1.
</event>
<event>
 6    1  0.3411206E-003  0.5045011E+03  0.7546771E-02  0.9389794E-01
        -11   -1    0    0    0    0  0.00000000000E+00  0.00000000000E+00  0.50000000000E+03  0.50000000000E+03  0.00000000000E+00 0. -1.
         11   -1    0    0    0    0 -0.00000000000E+00 -0.00000000000E+00 -0.50000000000E+03  0.50000000000E+03  0.00000000000E+00 0.  1.
        -11    1    1    2    0    0 -0.12790523167E+02  0.84804047938E+01  0.27768044289E+03  0.27810419471E+03  0.00000000000E+00 0. -1.
         11    1    1    2    0    0 -0.69165025102E+01 -0.15298421245E+02 -0.49521438155E+03  0.49549890352E+03  0.00000000000E+00 0.  1.
        -15    1    1    2    0    0  0.20208619080E+01  0.12355773296E+02  0.20129582340E+03  0.20169262570E+03  0.17770000000E+01 0.  1.
         15    1    1    2    0    0  0.17686163769E+02 -0.55377568457E+01  0.16238115256E+02  0.24704276063E+02  0.17770000000E+01 0. -1.
</event>
<event>
 6    1  0.3411206E-003  0.5014930E+03  0.7546771E-02  0.9396475E-01
        -11   -1    0    0    0    0  0.00000000000E+00  0.00000000000E+00  0.50000000000E+03  0.50000000000E+03  0.00000000000E+00 0. -1.
         11   -1    0    0    0    0 -0.00000000000E+00 -0.00000000000E+00 -0.50000000000E+03  0.50000000000E+03  0.00000000000E+00 0.  1.
        -11    1    1    2    0    0 -0.75099707403E+01 -0.27064478953E+01  0.49844312747E+03  0.49850704693E+03  0.00000000000E+00 0. -1.
         11    1    1    2    0    0 -0.10001857324E+01  0.82276681715E+01 -0.41749428429E+03  0.41757654665E+03  0.00000000000E+00 0.  1.
        -15    1    1    2    0    0  0.60680594665E+01 -0.12541695012E+02 -0.44072707537E+02  0.46256639935E+02  0.17770000000E+01 0. -1.
         15    1    1    2    0    0  0.24420970062E+01  0.70204747359E+01 -0.36876135637E+02  0.37659766487E+02  0.17770000000E+01 0.  1.
</event>
<event>
 6    1  0.3411206E-003  0.5437321E+03  0.7546771E-02  0.9306945E-01
        -11   -1    0    0    0    0  0.00000000000E+00  0.00000000000E+00  0.50000000000E+03  0.50000000000E+03  0.00000000000E+00 0.  1.
         11   -1    0    0    0    0 -0.00000000000E+00 -0.00000000000E+00 -0.50000000000E+03  0.50000000000E+03  0.00000000000E+00 0.  1.
        -11    1    1    2    0    0 -0.34800880234E+02  0.33436795277E+02  0.45370840258E+03  0.45626794224E+03  0.00000000000E+00 0.  1.
         11    1    1    2    0    0 -0.25760806416E+02 -0.83940982820E+01 -0.36558177997E+03  0.36658439394E+03  0.00000000000E+00 0.  1.
        -15    1    1    2    0    0 -0.65817074663E+01 -0.41782749967E+02  0.21510715150E+02  0.47486689327E+02  0.17770000000E+01 0. -1.
         15    1    1    2    0    0  0.67143394116E+02  0.16740052972E+02 -0.10963733776E+03  0.12966097450E+03  0.17770000000E+01 0.  1.
</event>
<event>
 6    1  0.3411206E-003  0.5095128E+03  0.7546771E-02  0.9378772E-01
        -11   -1    0    0    0    0  0.00000000000E+00  0.00000000000E+00  0.50000000000E+03  0.50000000000E+03  0.00000000000E+00 0.  1.
         11   -1    0    0    0    0 -0.00000000000E+00 -0.00000000000E+00 -0.50000000000E+03  0.50000000000E+03  0.00000000000E+00 0.  1.
        -11    1    1    2    0    0  0.50779613657E+01  0.49484381060E+01  0.49043594299E+03  0.49048719342E+03  0.00000000000E+00 0.  1.
         11    1    1    2    0    0 -0.35946252987E+01 -0.10277021180E+02 -0.48566896715E+03  0.48579098813E+03  0.00000000000E+00 0.  1.
        -15    1    1    2    0    0  0.31857744383E+01  0.94691314773E+01 -0.10830129342E+02  0.14841261411E+02  0.17770000000E+01 0.  1.
         15    1    1    2    0    0 -0.46691105054E+01 -0.41405484037E+01  0.60631535003E+01  0.88805570412E+01  0.17770000000E+01 0. -1.
</event>
<event>
 6    1  0.3411206E-003  0.5013598E+03  0.7546771E-02  0.9396772E-01
        -11   -1    0    0    0    0  0.00000000000E+00  0.00000000000E+00  0.50000000000E+03  0.50000000000E+03  0.00000000000E+00 0. -1.
         11   -1    0    0    0    0 -0.00000000000E+00 -0.00000000000E+00 -0.50000000000E+03  0.50000000000E+03  0.00000000000E+00 0.  1.
        -11    1    1    2    0    0  0.66224372122E+00 -0.56483272066E+01  0.35597591986E+03  0.35602134443E+03  0.00000000000E+00 0. -1.
         11    1    1    2    0    0 -0.34714583244E+01 -0.10017568260E+02 -0.49852746692E+03  0.49864018889E+03  0.00000000000E+00 0.  1.
        -15    1    1    2    0    0  0.10444902329E+02  0.12336408869E+01  0.36641168798E+02  0.38162164960E+02  0.17770000000E+01 0. -1.
         15    1    1    2    0    0 -0.76356877255E+01  0.14432254580E+02  0.10591037826E+03  0.10717630172E+03  0.17770000000E+01 0.  1.
</event>
<event>
 6    1  0.3411206E-003  0.5004598E+03  0.7546771E-02  0.9398782E-01
        -11   -1    0    0    0    0  0.00000000000E+00  0.00000000000E+00  0.50000000000E+03  0.50000000000E+03  0.00000000000E+00 0.  1.
         11   -1    0    0    0    0 -0.00000000000E+00 -0.00000000000E+00 -0.50000000000E+03  0.50000000000E+03  0.00000000000E+00 0.  1.
        -11    1    1    2    0    0 -0.97994947131E+01 -0.69237392246E+00  0.49944363922E+03  0.49954024687E+03  0.00000000000E+00 0.  1.
         11    1    1    2    0    0 -0.38813459920E+01  0.79004997857E+00 -0.18324433779E+03  0.18328714182E+03  0.00000000000E+00 0.  1.
        -15    1    1    2    0    0  0.16215627798E+01  0.42693642449E+01 -0.22555048907E+03  0.22560371846E+03  0.17770000000E+01 0.  1.
         15    1    1    2    0    0  0.12059277925E+02 -0.43670403010E+01 -0.90648812368E+02  0.91568892851E+02  0.17770000000E+01 0.  1.
</event>
<event>
 6    1  0.3411206E-003  0.5077540E+03  0.7546771E-02  0.9382625E-01
        -11   -1    0    0    0    0  0.00000000000E+00  0.00000000000E+00  0.50000000000E+03  0.50000000000E+03  0.00000000000E+00 0.  1.
         11   -1    0    0    0    0 -0.00000000000E+00 -0.00000000000E+00 -0.50000000000E+03  0.50000000000E+03  0.00000000000E+00 0. -1.
        -11    1    1    2    0    0 -0.24771478620E+02 -0.84637024043E+00  0.49162163222E+03  0.49224604799E+03  0.00000000000E+00 0.  1.
         11    1    1    2    0    0  0.19902713207E+02 -0.33167316321E+00 -0.45046790176E+03  0.45090748332E+03  0.00000000000E+00 0. -1.
        -15    1    1    2    0    0 -0.98005837173E+01  0.32913749590E+01 -0.40574144683E+02  0.41908275269E+02  0.17770000000E+01 0.  1.
         15    1    1    2    0    0  0.14669349130E+02 -0.21133315553E+01 -0.57958577775E+00  0.14938193426E+02  0.17770000000E+01 0. -1.
</event>
<event>
 6    1  0.3411206E-003  0.5360942E+03  0.7546771E-02  0.9322481E-01
        -11   -1    0    0    0    0  0.00000000000E+00  0.00000000000E+00  0.50000000000E+03  0.50000000000E+03  0.00000000000E+00 0. -1.
         11   -1    0    0    0    0 -0.00000000000E+00 -0.00000000000E+00 -0.50000000000E+03  0.50000000000E+03  0.00000000000E+00 0.  1.
        -11    1    1    2    0    0  0.10902791462E+02  0.86456649205E+01  0.42647470611E+03  0.42670164440E+03  0.00000000000E+00 0. -1.
         11    1    1    2    0    0  0.26372059135E+02 -0.19487875141E+02 -0.46274540926E+03  0.46390578415E+03  0.00000000000E+00 0.  1.
        -15    1    1    2    0    0 -0.16018547139E+02 -0.84463597050E+01  0.65742784281E+02  0.68214413863E+02  0.17770000000E+01 0. -1.
         15    1    1    2    0    0 -0.21256303459E+02  0.19288569926E+02 -0.29472081135E+02  0.41178157583E+02  0.17770000000E+01 0.  1.
</event>
<event>
 6    1  0.3411206E-003  0.5036561E+03  0.7546771E-02  0.9391666E-01
        -11   -1    0    0    0    0  0.00000000000E+00  0.00000000000E+00  0.50000000000E+03  0.50000000000E+03  0.00000000000E+00 0. -1.
         11   -1    0    0    0    0 -0.00000000000E+00 -0.00000000000E+00 -0.50000000000E+03  0.50000000000E+03  0.00000000000E+00 0. -1.
        -11    1    1    2    0    0 -0.16836692333E+02  0.15531949566E+02  0.31535011524E+03  0.31618097800E+03  0.00000000000E+00 0. -1.
         11    1    1    2    0    0  0.34519117008E+02 -0.94274534607E+01 -0.49505230322E+03  0.49634386190E+03  0.00000000000E+00 0. -1.
        -15    1    1    2    0    0 -0.18531716706E+00 -0.86494281996E+01  0.16250918656E+03  0.16274901043E+03  0.17770000000E+01 0. -1.
         15    1    1    2    0    0 -0.17497107509E+02  0.25449320939E+01  0.17193001419E+02  0.24726149667E+02  0.17770000000E+01 0.  1.
</event>
<event>
 6    1  0.3411206E-003  0.5008944E+03  0.7546771E-02  0.9397811E-01
        -11   -1    0    0    0    0  0.00000000000E+00  0.00000000000E+00  0.50000000000E+03  0.50000000000E+03  0.00000000000E+00 0. -1.
         11   -1    0    0    0    0 -0.00000000000E+00 -0.00000000000E+00 -0.50000000000E+03  0.50000000000E+03  0.00000000000E+00 0. -1.
        -11    1    1    2    0    0 -0.55333997497E+01 -0.52505441881E+01  0.35905351888E+03  0.35913453767E+03  0.00000000000E+00 0. -1.
         11    1    1    2    0    0  0.13829820346E+02  0.48717981560E+01 -0.49889015969E+03  0.49910558981E+03  0.00000000000E+00 0. -1.
        -15    1    1    2    0    0  0.58371130989E+01 -0.11832569489E-01  0.80707506341E+02  0.80937823902E+02  0.17770000000E+01 0. -1.
         15    1    1    2    0    0 -0.14133533695E+02  0.39057860159E+00  0.59129134463E+02  0.60822048615E+02  0.17770000000E+01 0.  1.
</event>
<event>
 6    1  0.3411206E-003  0.5018827E+03  0.7546771E-02  0.9395607E-01
        -11   -1    0    0    0    0  0.00000000000E+00  0.00000000000E+00  0.50000000000E+03  0.50000000000E+03  0.00000000000E+00 0.  1.
         11   -1    0    0    0    0 -0.00000000000E+00 -0.00000000000E+00 -0.50000000000E+03  0.50000000000E+03  0.00000000000E+00 0. -1.
        -11    1    1    2    0    0 -0.18178444170E+01  0.10483399969E+02  0.40778847347E+03  0.40792725495E+03  0.00000000000E+00 0.  1.
         11    1    1    2    0    0  0.53999872415E+01  0.42576196908E+01 -0.49806983386E+03  0.49811730204E+03  0.00000000000E+00 0. -1.
        -15    1    1    2    0    0 -0.65620340910E+01  0.24222284491E+01  0.41583305634E+02  0.42204934766E+02  0.17770000000E+01 0. -1.
         15    1    1    2    0    0  0.29798912665E+01 -0.17163248109E+02  0.48698054760E+02  0.51750508248E+02  0.17770000000E+01 0.  1.
</event>
<event>
 6    1  0.3411206E-003  0.5004776E+03  0.7546771E-02  0.9398742E-01
        -11   -1    0    0    0    0  0.00000000000E+00  0.00000000000E+00  0.50000000000E+03  0.50000000000E+03  0.00000000000E+00 0. -1.
         11   -1    0    0    0    0 -0.00000000000E+00 -0.00000000000E+00 -0.50000000000E+03  0.50000000000E+03  0.00000000000E+00 0.  1.
        -11    1    1    2    0    0  0.27054160779E+01  0.50307573139E+01  0.28028326798E+03  0.28034146697E+03  0.00000000000E+00 0. -1.
         11    1    1    2    0    0  0.61815815386E+01 -0.34693186875E+01 -0.49947208170E+03  0.49952238040E+03  0.00000000000E+00 0.  1.
        -15    1    1    2    0    0 -0.41558709656E+01 -0.54994037641E+01  0.19447889594E+03  0.19460912980E+03  0.17770000000E+01 0. -1.
         15    1    1    2    0    0 -0.47311266510E+01  0.39379651377E+01  0.24709917783E+02  0.25527022832E+02  0.17770000000E+01 0.  1.
</event>
<event>
 6    1  0.3411206E-003  0.5136694E+03  0.7546771E-02  0.9369732E-01
        -11   -1    0    0    0    0  0.00000000000E+00  0.00000000000E+00  0.50000000000E+03  0.50000000000E+03  0.00000000000E+00 0. -1.
         11   -1    0    0    0    0 -0.00000000000E+00 -0.00000000000E+00 -0.50000000000E+03  0.50000000000E+03  0.00000000000E+00 0. -1.
        -11    1    1    2    0    0  0.14375074358E-01  0.91243538104E+01  0.46354351883E+03  0.46363331188E+03  0.00000000000E+00 0. -1.
         11    1    1    2    0    0 -0.58998680111E+01  0.11418439251E+02 -0.48616074599E+03  0.48633060786E+03  0.00000000000E+00 0. -1.
        -15    1    1    2    0    0  0.96533171265E+01  0.16393476553E+01  0.25414586240E+02  0.27293459199E+02  0.17770000000E+01 0.  1.
         15    1    1    2    0    0 -0.37678241897E+01 -0.22182140717E+02 -0.27973590771E+01  0.22742621061E+02  0.17770000000E+01 0. -1.
</event>
<event>
 6    1  0.3411206E-003  0.5206881E+03  0.7546771E-02  0.9354672E-01
        -11   -1    0    0    0    0  0.00000000000E+00  0.00000000000E+00  0.50000000000E+03  0.50000000000E+03  0.00000000000E+00 0.  1.
         11   -1    0    0    0    0 -0.00000000000E+00 -0.00000000000E+00 -0.50000000000E+03  0.50000000000E+03  0.00000000000E+00 0.  1.
        -11    1    1    2    0    0  0.19680896457E+02 -0.40733147637E+01  0.16385265939E+03  0.16508065777E+03  0.00000000000E+00 0.  1.
         11    1    1    2    0    0 -0.10788022716E+02 -0.59639343534E+01 -0.47915332291E+03  0.47931185757E+03  0.00000000000E+00 0.  1.
        -15    1    1    2    0    0  0.20948277585E+02  0.42270687793E+02  0.11431149806E+02  0.48574378999E+02  0.17770000000E+01 0.  1.
         15    1    1    2    0    0 -0.29841151325E+02 -0.32233438676E+02  0.30386951372E+03  0.30703310567E+03  0.17770000000E+01 0. -1.
</event>
<event>
 6    1  0.3411206E-003  0.5004667E+03  0.7546771E-02  0.9398766E-01
        -11   -1    0    0    0    0  0.00000000000E+00  0.00000000000E+00  0.50000000000E+03  0.50000000000E+03  0.00000000000E+00 0.  1.
         11   -1    0    0    0    0 -0.00000000000E+00 -0.00000000000E+00 -0.50000000000E+03  0.50000000000E+03  0.00000000000E+00 0. -1.
        -11    1    1    2    0    0  0.95722270304E+00 -0.12128857360E+02  0.49938514618E+03  0.49953333190E+03  0.00000000000E+00 0.  1.
         11    1    1    2    0    0  0.84380425802E+00 -0.47668124201E+01 -0.15306366301E+03  0.15314019537E+03  0.00000000000E+00 0. -1.
        -15    1    1    2    0    0  0.34233312596E+01  0.15917819438E+02 -0.14417594911E+03  0.14510326738E+03  0.17770000000E+01 0. -1.
         15    1    1    2    0    0 -0.52243582206E+01  0.97785034215E+00 -0.20214553406E+03  0.20222320535E+03  0.17770000000E+01 0.  1.
</event>
<event>
 6    1  0.3411206E-003  0.5022024E+03  0.7546771E-02  0.9394895E-01
        -11   -1    0    0    0    0  0.00000000000E+00  0.00000000000E+00  0.50000000000E+03  0.50000000000E+03  0.00000000000E+00 0.  1.
         11   -1    0    0    0    0 -0.00000000000E+00 -0.00000000000E+00 -0.50000000000E+03  0.50000000000E+03  0.00000000000E+00 0.  1.
        -11    1    1    2    0    0  0.30687069497E+01  0.94555883185E+01  0.49769835044E+03  0.49779762267E+03  0.00000000000E+00 0.  1.
         11    1    1    2    0    0 -0.28854752717E+01  0.63337522783E+01 -0.46470337034E+03  0.46475548925E+03  0.00000000000E+00 0.  1.
        -15    1    1    2    0    0  0.18590703406E+01 -0.10555251113E+02 -0.15066993970E+02  0.18575292862E+02  0.17770000000E+01 0. -1.
         15    1    1    2    0    0 -0.20423020186E+01 -0.52340894837E+01 -0.17927986128E+02  0.18871595212E+02  0.17770000000E+01 0.  1.
</event>
<event>
 6    1  0.3411206E-003  0.5040825E+03  0.7546771E-02  0.9390721E-01
        -11   -1    0    0    0    0  0.00000000000E+00  0.00000000000E+00  0.50000000000E+03  0.50000000000E+03  0.00000000000E+00 0.  1.
         11   -1    0    0    0    0 -0.00000000000E+00 -0.00000000000E+00 -0.50000000000E+03  0.50000000000E+03  0.00000000000E+00 0.  1.
        -11    1    1    2    0    0 -0.11884461599E+02  0.38116924059E+02  0.49430764476E+03  0.49591752137E+03  0.00000000000E+00 0.  1.
         11    1    1    2    0    0 -0.46059062327E+01 -0.24575353921E+01 -0.27435004007E+03  0.27439970543E+03  0.00000000000E+00 0.  1.
        -15    1    1    2    0    0  0.13539923783E+02  0.96686908877E+01 -0.29891318096E+02  0.34255827914E+02  0.17770000000E+01 0.  1.
         15    1    1    2    0    0  0.29504440483E+01 -0.45328079555E+02 -0.19006628659E+03  0.19542694529E+03  0.17770000000E+01 0. -1.
</event>
<event>
 6    1  0.3411206E-003  0.5135271E+03  0.7546771E-02  0.9370040E-01
        -11   -1    0    0    0    0  0.00000000000E+00  0.00000000000E+00  0.50000000000E+03  0.50000000000E+03  0.00000000000E+00 0. -1.
         11   -1    0    0    0    0 -0.00000000000E+00 -0.00000000000E+00 -0.50000000000E+03  0.50000000000E+03  0.00000000000E+00 0. -1.
        -11    1    1    2    0    0  0.83051042820E+01  0.92472835415E+01  0.48631407104E+03  0.48647287972E+03  0.00000000000E+00 0. -1.
         11    1    1    2    0    0  0.16588219234E+01 -0.13674938346E+02 -0.37798159347E+03  0.37823252191E+03  0.00000000000E+00 0. -1.
        -15    1    1    2    0    0 -0.85712139283E+01 -0.60026970730E+01  0.11116491975E+02  0.15369847208E+02  0.17770000000E+01 0.  1.
         15    1    1    2    0    0 -0.13927122770E+01  0.10430351877E+02 -0.11944896955E+03  0.11992475117E+03  0.17770000000E+01 0. -1.
</event>
<event>
 6    1  0.3411206E-003  0.5000628E+03  0.7546771E-02  0.9399669E-01
        -11   -1    0    0    0    0  0.00000000000E+00  0.00000000000E+00  0.50000000000E+03  0.50000000000E+03  0.00000000000E+00 0.  1.
         11   -1    0    0    0    0 -0.00000000000E+00 -0.00000000000E+00 -0.50000000000E+03  0.50000000000E+03  0.00000000000E+00 0. -1.
        -11    1    1    2    0    0  0.12126451166E+02 -0.19693169844E+01  0.49978621996E+03  0.49993719075E+03  0.00000000000E+00 0.  1.
         11    1    1    2    0    0  0.97403645442E+00 -0.10118470849E+01 -0.92393397416E+02  0.92404071705E+02  0.00000000000E+00 0. -1.
        -15    1    1    2    0    0 -0.11615477168E+01 -0.88154907246E-01 -0.82314461778E+02  0.82341880664E+02  0.17770000000E+01 0.  1.
         15    1    1    2    0    0 -0.11938939903E+02  0.30693189765E+01 -0.32507836077E+03  0.32531685689E+03  0.17770000000E+01 0. -1.
</event>
<event>
 6    1  0.3411206E-003  0.5001878E+03  0.7546771E-02  0.9399390E-01
        -11   -1    0    0    0    0  0.00000000000E+00  0.00000000000E+00  0.50000000000E+03  0.50000000000E+03  0.00000000000E+00 0.  1.
         11   -1    0    0    0    0 -0.00000000000E+00 -0.00000000000E+00 -0.50000000000E+03  0.50000000000E+03  0.00000000000E+00 0.  1.
        -11    1    1    2    0    0  0.17300616834E+01  0.86395896197E+01  0.49973451137E+03  0.49981218220E+03  0.00000000000E+00 0.  1.
         11    1    1    2    0    0 -0.51306796215E+01 -0.16983628511E+01 -0.17133618660E+03  0.17142140225E+03  0.00000000000E+00 0.  1.
        -15    1    1    2    0    0  0.52821739817E+01  0.16307293282E+01 -0.18338396088E+03  0.18347587165E+03  0.17770000000E+01 0.  1.
         15    1    1    2    0    0 -0.18815560435E+01 -0.85719560968E+01 -0.14501436389E+03  0.14529054390E+03  0.17770000000E+01 0.  1.
</event>
<event>
 6    1  0.3411206E-003  0.5025032E+03  0.7546771E-02  0.9394226E-01
        -11   -1    0    0    0    0  0.00000000000E+00  0.00000000000E+00  0.50000000000E+03  0.50000000000E+03  0.00000000000E+00 0.  1.
         11   -1    0    0    0    0 -0.00000000000E+00 -0.00000000000E+00 -0.50000000000E+03  0.50000000000E+03  0.00000000000E+00 0. -1.
        -11    1    1    2    0    0 -0.17030115467E+02 -0.56644583214E+01  0.31119053614E+03  0.31170765263E+03  0.00000000000E+00 0.  1.
         11    1    1    2    0    0 -0.12889375927E+02  0.17265857599E+01 -0.49732683103E+03  0.49749682810E+03  0.00000000000E+00 0. -1.
        -15    1    1    2    0    0  0.19927141371E+02  0.26786019539E+01  0.17287209995E+03  0.17404650683E+03  0.17770000000E+01 0.  1.
         15    1    1    2    0    0  0.99923500232E+01  0.12592706077E+01  0.13264194933E+02  0.16749012439E+02  0.17770000000E+01 0. -1.
</event>
<event>
 6    1  0.3411206E-003  0.5124761E+03  0.7546771E-02  0.9372318E-01
        -11   -1    0    0    0    0  0.00000000000E+00  0.00000000000E+00  0.50000000000E+03  0.50000000000E+03  0.00000000000E+00 0. -1.
         11   -1    0    0    0    0 -0.00000000000E+00 -0.00000000000E+00 -0.50000000000E+03  0.50000000000E+03  0.00000000000E+00 0.  1.
        -11    1    1    2    0    0  0.12260887662E+02  0.61365046957E+01  0.48273979961E+03  0.48293446780E+03  0.00000000000E+00 0. -1.
         11    1    1    2    0    0 -0.62674593977E+01 -0.46335218564E+01 -0.48746163130E+03  0.48752394050E+03  0.00000000000E+00 0.  1.
        -15    1    1    2    0    0  0.42285113188E+01  0.42659517175E+01 -0.92727392641E+01  0.11190177590E+02  0.17770000000E+01 0. -1.
         15    1    1    2    0    0 -0.10221939583E+02 -0.57689345568E+01  0.13994570953E+02  0.18351414112E+02  0.17770000000E+01 0.  1.
</event>
<event>
 6    1  0.3411206E-003  0.5061126E+03  0.7546771E-02  0.9386235E-01
        -11   -1    0    0    0    0  0.00000000000E+00  0.00000000000E+00  0.50000000000E+03  0.50000000000E+03  0.00000000000E+00 0.  1.
         11   -1    0    0    0    0 -0.00000000000E+00 -0.00000000000E+00 -0.50000000000E+03  0.50000000000E+03  0.00000000000E+00 0. -1.
        -11    1    1    2    0    0 -0.21502041587E+01 -0.99403075802E+00  0.16299703235E+03  0.16301424487E+03  0.00000000000E+00 0.  1.
         11    1    1    2    0    0  0.28840851517E+01  0.13156335738E+02 -0.49370372128E+03  0.49388740774E+03  0.00000000000E+00 0. -1.
        -15    1    1    2    0    0 -0.23061586172E+02  0.29591149630E+02  0.21170405597E+03  0.21500985544E+03  0.17770000000E+01 0.  1.
         15    1    1    2    0    0  0.22327705179E+02 -0.41753454610E+02  0.11900263295E+03  0.12808849195E+03  0.17770000000E+01 0. -1.
</event>
<event>
 6    1  0.3411206E-003  0.5019179E+03  0.7546771E-02  0.9395529E-01
        -11   -1    0    0    0    0  0.00000000000E+00  0.00000000000E+00  0.50000000000E+03  0.50000000000E+03  0.00000000000E+00 0. -1.
         11   -1    0    0    0    0 -0.00000000000E+00 -0.00000000000E+00 -0.50000000000E+03  0.50000000000E+03  0.00000000000E+00 0.  1.
        -11    1    1    2    0    0 -0.70885882291E+01  0.13353538241E+02  0.10158280932E+03  0.10270166608E+03  0.00000000000E+00 0. -1.
         11    1    1    2    0    0  0.89905530016E+00 -0.67927860597E+01 -0.49803500631E+03  0.49808213956E+03  0.00000000000E+00 0.  1.
        -15    1    1    2    0    0  0.19537095531E+02  0.47205466797E+01  0.88830481101E+02  0.91093324477E+02  0.17770000000E+01 0. -1.
         15    1    1    2    0    0 -0.13347562602E+02 -0.11281298861E+02  0.30762171589E+03  0.30812286989E+03  0.17770000000E+01 0. -1.
</event>
<event>
 6    1  0.3411206E-003  0.5216668E+03  0.7546771E-02  0.9352592E-01
        -11   -1    0    0    0    0  0.00000000000E+00  0.00000000000E+00  0.50000000000E+03  0.50000000000E+03  0.00000000000E+00 0.  1.
         11   -1    0    0    0    0 -0.00000000000E+00 -0.00000000000E+00 -0.50000000000E+03  0.50000000000E+03  0.00000000000E+00 0. -1.
        -11    1    1    2    0    0 -0.56737167980E+01 -0.10926513090E+02  0.43525368621E+03  0.43542777944E+03  0.00000000000E+00 0.  1.
         11    1    1    2    0    0  0.64452391024E+01  0.43466930031E+01 -0.47827002583E+03  0.47833320233E+03  0.00000000000E+00 0. -1.
        -15    1    1    2    0    0 -0.31677110513E+02  0.30014165064E+01  0.44853440720E+02  0.55022147404E+02  0.17770000000E+01 0. -1.
         15    1    1    2    0    0  0.30905588209E+02  0.35784035801E+01 -0.18371011024E+01  0.31216870826E+02  0.17770000000E+01 0.  1.
</event>
<event>
 6    1  0.3411206E-003  0.4864173E+03  0.7546771E-02  0.9430726E-01
        -11   -1    0    0    0    0  0.00000000000E+00  0.00000000000E+00  0.50000000000E+03  0.50000000000E+03  0.00000000000E+00 0.  1.
         11   -1    0    0    0    0 -0.00000000000E+00 -0.00000000000E+00 -0.50000000000E+03  0.50000000000E+03  0.00000000000E+00 0. -1.
        -11    1    1    2    0    0 -0.22583977810E+02  0.82857332416E+01  0.49481291842E+03  0.49539732908E+03  0.00000000000E+00 0.  1.
         11    1    1    2    0    0  0.41079290425E+01 -0.18887714743E+01 -0.34987379580E+02  0.35278311589E+02  0.00000000000E+00 0. -1.
        -15    1    1    2    0    0  0.88240262669E+01  0.42197998213E+02 -0.17674023727E+03  0.18193076621E+03  0.17770000000E+01 0.  1.
         15    1    1    2    0    0  0.96520225006E+01 -0.48594959980E+02 -0.28308530157E+03  0.28739359312E+03  0.17770000000E+01 0. -1.
</event>
<event>
 6    1  0.3411206E-003  0.5257155E+03  0.7546771E-02  0.9344039E-01
        -11   -1    0    0    0    0  0.00000000000E+00  0.00000000000E+00  0.50000000000E+03  0.50000000000E+03  0.00000000000E+00 0. -1.
         11   -1    0    0    0    0 -0.00000000000E+00 -0.00000000000E+00 -0.50000000000E+03  0.50000000000E+03  0.00000000000E+00 0. -1.
        -11    1    1    2    0    0  0.11738782112E+01  0.42810350686E+02  0.47234702353E+03  0.47428452932E+03  0.00000000000E+00 0. -1.
         11    1    1    2    0    0  0.17288785932E+02  0.16712606189E+02 -0.31980364283E+03  0.32070638175E+03  0.00000000000E+00 0. -1.
        -15    1    1    2    0    0  0.32709981079E+02 -0.23241275823E+01  0.15226850845E+01  0.32875838089E+02  0.17770000000E+01 0.  1.
         15    1    1    2    0    0 -0.51172645222E+02 -0.57198829292E+02 -0.15406606578E+03  0.17213325084E+03  0.17770000000E+01 0. -1.
</event>
<event>
 6    1  0.3411206E-003  0.5003003E+03  0.7546771E-02  0.9399138E-01
        -11   -1    0    0    0    0  0.00000000000E+00  0.00000000000E+00  0.50000000000E+03  0.50000000000E+03  0.00000000000E+00 0. -1.
         11   -1    0    0    0    0 -0.00000000000E+00 -0.00000000000E+00 -0.50000000000E+03  0.50000000000E+03  0.00000000000E+00 0.  1.
        -11    1    1    2    0    0 -0.41132602534E+01 -0.15724140443E+01  0.14029360286E+03  0.14036269590E+03  0.00000000000E+00 0. -1.
         11    1    1    2    0    0  0.73206058170E+00  0.12545831425E+02 -0.49954164733E+03  0.49969970104E+03  0.00000000000E+00 0.  1.
        -15    1    1    2    0    0 -0.29428717391E+01 -0.46153549906E+01  0.29356447482E+03  0.29362087902E+03  0.17770000000E+01 0. -1.
         15    1    1    2    0    0  0.63240714108E+01 -0.63580623898E+01  0.65683569650E+02  0.66316724041E+02  0.17770000000E+01 0.  1.
</event>
<event>
 6    1  0.3411206E-003  0.5032024E+03  0.7546771E-02  0.9392672E-01
        -11   -1    0    0    0    0  0.00000000000E+00  0.00000000000E+00  0.50000000000E+03  0.50000000000E+03  0.00000000000E+00 0.  1.
         11   -1    0    0    0    0 -0.00000000000E+00 -0.00000000000E+00 -0.50000000000E+03  0.50000000000E+03  0.00000000000E+00 0.  1.
        -11    1    1    2    0    0  0.80508089985E+01  0.49949629825E+01  0.49670721892E+03  0.49679757095E+03  0.00000000000E+00 0.  1.
         11    1    1    2    0    0  0.73457130894E+01 -0.41070206924E+01 -0.45052644715E+03  0.45060504514E+03  0.00000000000E+00 0.  1.
        -15    1    1    2    0    0 -0.39892002898E+01 -0.46234227034E+00 -0.38442382141E+02  0.38692401748E+02  0.17770000000E+01 0.  1.
         15    1    1    2    0    0 -0.11407321798E+02 -0.42560001979E+00 -0.77383896197E+01  0.13904982161E+02  0.17770000000E+01 0. -1.
</event>
<event>
 6    1  0.3411206E-003  0.5179732E+03  0.7546771E-02  0.9360468E-01
        -11   -1    0    0    0    0  0.00000000000E+00  0.00000000000E+00  0.50000000000E+03  0.50000000000E+03  0.00000000000E+00 0. -1.
         11   -1    0    0    0    0 -0.00000000000E+00 -0.00000000000E+00 -0.50000000000E+03  0.50000000000E+03  0.00000000000E+00 0. -1.
        -11    1    1    2    0    0  0.16847700970E+02 -0.32462547726E+01  0.45723187413E+03  0.45755367982E+03  0.00000000000E+00 0. -1.
         11    1    1    2    0    0  0.15386773168E+02 -0.13461157193E+02 -0.48159302523E+03  0.48202676014E+03  0.00000000000E+00 0. -1.
        -15    1    1    2    0    0 -0.26449026042E+02  0.24512120104E+02  0.31754675457E+02  0.48082347623E+02  0.17770000000E+01 0. -1.
         15    1    1    2    0    0 -0.57854480970E+01 -0.78047081385E+01 -0.73935243507E+01  0.12337212413E+02  0.17770000000E+01 0.  1.
</event>
<event>
 6    1  0.3411206E-003  0.5003631E+03  0.7546771E-02  0.9398998E-01
        -11   -1    0    0    0    0  0.00000000000E+00  0.00000000000E+00  0.50000000000E+03  0.50000000000E+03  0.00000000000E+00 0.  1.
         11   -1    0    0    0    0 -0.00000000000E+00 -0.00000000000E+00 -0.50000000000E+03  0.50000000000E+03  0.00000000000E+00 0.  1.
        -11    1    1    2    0    0  0.10354984001E+02 -0.46766783744E+01  0.49950770122E+03  0.49963690875E+03  0.00000000000E+00 0.  1.
         11    1    1    2    0    0  0.27678353078E+01  0.48068550239E+01 -0.17658125351E+03  0.17666834991E+03  0.00000000000E+00 0.  1.
        -15    1    1    2    0    0 -0.19500511079E+01  0.23851510121E+01 -0.23267971602E+03  0.23270689638E+03  0.17770000000E+01 0.  1.
         15    1    1    2    0    0 -0.11172768200E+02 -0.25153276616E+01 -0.90246731679E+02  0.90987844959E+02  0.17770000000E+01 0. -1.
</event>
<event>
 6    1  0.3411206E-003  0.5035306E+03  0.7546771E-02  0.9391944E-01
        -11   -1    0    0    0    0  0.00000000000E+00  0.00000000000E+00  0.50000000000E+03  0.50000000000E+03  0.00000000000E+00 0. -1.
         11   -1    0    0    0    0 -0.00000000000E+00 -0.00000000000E+00 -0.50000000000E+03  0.50000000000E+03  0.00000000000E+00 0. -1.
        -11    1    1    2    0    0 -0.31624986127E+02 -0.22153881559E+02  0.49496558970E+03  0.49646940409E+03  0.00000000000E+00 0. -1.
         11    1    1    2    0    0 -0.34788091925E+01  0.33267944475E+01 -0.34198164377E+03  0.34201551770E+03  0.00000000000E+00 0. -1.
        -15    1    1    2    0    0  0.11482089236E+02  0.87320817634E+01 -0.11317246624E+03  0.11410193893E+03  0.17770000000E+01 0. -1.
         15    1    1    2    0    0  0.23621706084E+02  0.10095005348E+02 -0.39811479693E+02  0.47413139272E+02  0.17770000000E+01 0.  1.
</event>
<event>
 6    1  0.3411206E-003  0.5046379E+03  0.7546771E-02  0.9389491E-01
        -11   -1    0    0    0    0  0.00000000000E+00  0.00000000000E+00  0.50000000000E+03  0.50000000000E+03  0.00000000000E+00 0. -1.
         11   -1    0    0    0    0 -0.00000000000E+00 -0.00000000000E+00 -0.50000000000E+03  0.50000000000E+03  0.00000000000E+00 0. -1.
        -11    1    1    2    0    0 -0.81902349297E+01 -0.33633211325E+01  0.49528298224E+03  0.49536211439E+03  0.00000000000E+00 0. -1.
         11    1    1    2    0    0  0.12868816883E+02 -0.60284630623E+01 -0.48577885312E+03  0.48598666952E+03  0.00000000000E+00 0. -1.
        -15    1    1    2    0    0 -0.78089641921E+01  0.95095722910E+01 -0.70405904010E+01  0.14287740518E+02  0.17770000000E+01 0. -1.
         15    1    1    2    0    0  0.31303822387E+01 -0.11778809628E+00 -0.24635387220E+01  0.43634755678E+01  0.17770000000E+01 0.  1.
</event>
<event>
 6    1  0.3411206E-003  0.5050285E+03  0.7546771E-02  0.9388628E-01
        -11   -1    0    0    0    0  0.00000000000E+00  0.00000000000E+00  0.50000000000E+03  0.50000000000E+03  0.00000000000E+00 0. -1.
         11   -1    0    0    0    0 -0.00000000000E+00 -0.00000000000E+00 -0.50000000000E+03  0.50000000000E+03  0.00000000000E+00 0. -1.
        -11    1    1    2    0    0  0.13571295836E+02  0.53784963528E+01  0.49475621910E+03  0.49497153921E+03  0.00000000000E+00 0. -1.
         11    1    1    2    0    0 -0.83986754827E+00  0.31544431379E+01 -0.75772320606E+02  0.75842603193E+02  0.00000000000E+00 0. -1.
        -15    1    1    2    0    0  0.24346236540E+02  0.22459447119E+02 -0.28145601866E+03  0.28340397698E+03  0.17770000000E+01 0. -1.
         15    1    1    2    0    0 -0.37077664828E+02 -0.30992386609E+02 -0.13752787983E+03  0.14578188062E+03  0.17770000000E+01 0.  1.
</event>
<event>
 6    1  0.3411206E-003  0.5001976E+03  0.7546771E-02  0.9399368E-01
        -11   -1    0    0    0    0  0.00000000000E+00  0.00000000000E+00  0.50000000000E+03  0.50000000000E+03  0.00000000000E+00 0. -1.
         11   -1    0    0    0    0 -0.00000000000E+00 -0.00000000000E+00 -0.50000000000E+03  0.50000000000E+03  0.00000000000E+00 0. -1.
        -11    1    1    2    0    0 -0.10885748519E+01 -0.37792836956E+01  0.20222598220E+03  0.20226422288E+03  0.00000000000E+00 0. -1.
         11    1    1    2    0    0  0.69078317597E+01  0.46532845233E+01 -0.49973295106E+03  0.49980235450E+03  0.00000000000E+00 0. -1.
        -15    1    1    2    0    0 -0.79564776854E+01 -0.33571793365E+01  0.99093986199E+02  0.99485436221E+02  0.17770000000E+01 0. -1.
         15    1    1    2    0    0  0.21372207776E+01  0.24831785088E+01  0.19841298266E+03  0.19844798640E+03  0.17770000000E+01 0. -1.
</event>
<event>
 6    1  0.3411206E-003  0.5019201E+03  0.7546771E-02  0.9395523E-01
        -11   -1    0    0    0    0  0.00000000000E+00  0.00000000000E+00  0.50000000000E+03  0.50000000000E+03  0.00000000000E+00 0.  1.
         11   -1    0    0    0    0 -0.00000000000E+00 -0.00000000000E+00 -0.50000000000E+03  0.50000000000E+03  0.00000000000E+00 0.  1.
        -11    1    1    2    0    0  0.14285287771E+02  0.86625007995E+01  0.49779960102E+03  0.49807986423E+03  0.00000000000E+00 0.  1.
         11    1    1    2    0    0 -0.58110596299E+01  0.25941229970E+01 -0.39653104411E+03  0.39658210604E+03  0.00000000000E+00 0.  1.
        -15    1    1    2    0    0  0.14996204633E+01 -0.12548979907E+02 -0.22155903958E+02  0.25568878885E+02  0.17770000000E+01 0.  1.
         15    1    1    2    0    0 -0.99738486040E+01  0.12923561106E+01 -0.79112652958E+02  0.79769150850E+02  0.17770000000E+01 0. -1.
</event>
<event>
 6    1  0.3411206E-003  0.5053688E+03  0.7546771E-02  0.9387876E-01
        -11   -1    0    0    0    0  0.00000000000E+00  0.00000000000E+00  0.50000000000E+03  0.50000000000E+03  0.00000000000E+00 0.  1.
         11   -1    0    0    0    0 -0.00000000000E+00 -0.00000000000E+00 -0.50000000000E+03  0.50000000000E+03  0.00000000000E+00 0.  1.
        -11    1    1    2    0    0 -0.18213043295E+02  0.15281492690E+01  0.18174207257E+03  0.18265878333E+03  0.00000000000E+00 0.  1.
         11    1    1    2    0    0 -0.80066542284E+01 -0.11868683564E+02 -0.49442395354E+03  0.49463119392E+03  0.00000000000E+00 0.  1.
        -15    1    1    2    0    0  0.15011259573E+02 -0.76369995886E+01  0.29376437441E+03  0.29425214881E+03  0.17770000000E+01 0.  1.
         15    1    1    2    0    0  0.11208437951E+02  0.17977533883E+02  0.18917506565E+02  0.28457873945E+02  0.17770000000E+01 0.  1.
</event>
<event>
 6    1  0.3411206E-003  0.5353868E+03  0.7546771E-02  0.9323934E-01
        -11   -1    0    0    0    0  0.00000000000E+00  0.00000000000E+00  0.50000000000E+03  0.50000000000E+03  0.00000000000E+00 0.  1.
         11   -1    0    0    0    0 -0.00000000000E+00 -0.00000000000E+00 -0.50000000000E+03  0.50000000000E+03  0.00000000000E+00 0.  1.
        -11    1    1    2    0    0 -0.23659386415E+01  0.23718361383E+01  0.22116646164E+03  0.22119183310E+03  0.00000000000E+00 0.  1.
         11    1    1    2    0    0 -0.34312496573E+02 -0.29405395025E+02 -0.46241038474E+03  0.46461316016E+03  0.00000000000E+00 0.  1.
        -15    1    1    2    0    0 -0.68000420729E+02 -0.21591499529E+02  0.39006893895E+02  0.81332315665E+02  0.17770000000E+01 0.  1.
         15    1    1    2    0    0  0.10467885594E+03  0.48625058416E+02  0.20223702920E+03  0.23286269108E+03  0.17770000000E+01 0. -1.
</event>
<event>
 6    1  0.3411206E-003  0.5016224E+03  0.7546771E-02  0.9396187E-01
        -11   -1    0    0    0    0  0.00000000000E+00  0.00000000000E+00  0.50000000000E+03  0.50000000000E+03  0.00000000000E+00 0.  1.
         11   -1    0    0    0    0 -0.00000000000E+00 -0.00000000000E+00 -0.50000000000E+03  0.50000000000E+03  0.00000000000E+00 0.  1.
        -11    1    1    2    0    0  0.29680624612E+01  0.26221441658E+01  0.25610663816E+03  0.25613725840E+03  0.00000000000E+00 0.  1.
         11    1    1    2    0    0 -0.71198807077E+01  0.17401204845E+02 -0.49802280381E+03  0.49837757548E+03  0.00000000000E+00 0.  1.
        -15    1    1    2    0    0  0.97995501579E+01 -0.20819334505E+02  0.75194583571E+02  0.78656589043E+02  0.17770000000E+01 0.  1.
         15    1    1    2    0    0 -0.56477319113E+01  0.79598549429E+00  0.16672158208E+03  0.16682857707E+03  0.17770000000E+01 0. -1.
</event>
<event>
 6    1  0.3945655E-003  0.5026404E+03  0.7546771E-02  0.9393921E-01
        -11   -1    0    0    0    0  0.00000000000E+00  0.00000000000E+00  0.50000000000E+03  0.50000000000E+03  0.00000000000E+00 0.  1.
         11   -1    0    0    0    0 -0.00000000000E+00 -0.00000000000E+00 -0.50000000000E+03  0.50000000000E+03  0.00000000000E+00 0. -1.
        -11    1    1    2    0    0 -0.32860412868E+01  0.45679658810E+01  0.38964150321E+03  0.38968213380E+03  0.00000000000E+00 0.  1.
         11    1    1    2    0    0  0.98948796320E+01  0.13933682327E+01 -0.49725921876E+03  0.49735960909E+03  0.00000000000E+00 0. -1.
        -15    1    1    2    0    0 -0.81063135787E+01 -0.38058717707E+01  0.52305463628E+01  0.10522039917E+02  0.17770000000E+01 0. -1.
         15    1    1    2    0    0  0.14974752335E+01 -0.21554623430E+01  0.10238716918E+03  0.10243621719E+03  0.17770000000E+01 0.  1.
</event>
<event>
 6    1  0.5153132E-003  0.5236454E+03  0.7546771E-02  0.9348402E-01
        -11   -1    0    0    0    0  0.00000000000E+00  0.00000000000E+00  0.50000000000E+03  0.50000000000E+03  0.00000000000E+00 0. -1.
         11   -1    0    0    0    0 -0.00000000000E+00 -0.00000000000E+00 -0.50000000000E+03  0.50000000000E+03  0.00000000000E+00 0.  1.
        -11    1    1    2    0    0  0.22861360208E+02  0.93120203951E+01  0.47571459301E+03  0.47635462580E+03  0.00000000000E+00 0. -1.
         11    1    1    2    0    0 -0.28358705260E+01  0.33534178726E+01 -0.28525569396E+03  0.28528949948E+03  0.00000000000E+00 0.  1.
        -15    1    1    2    0    0  0.12244963463E+02 -0.55065949615E+01 -0.20263332612E+03  0.20308541134E+03  0.17770000000E+01 0.  1.
         15    1    1    2    0    0 -0.32270453145E+02 -0.71588433061E+01  0.12174427070E+02  0.35270463382E+02  0.17770000000E+01 0. -1.
</event>
<event>
 6    1  0.3411206E-003  0.5013785E+03  0.7546771E-02  0.9396730E-01
        -11   -1    0    0    0    0  0.00000000000E+00  0.00000000000E+00  0.50000000000E+03  0.50000000000E+03  0.00000000000E+00 0. -1.
         11   -1    0    0    0    0 -0.00000000000E+00 -0.00000000000E+00 -0.50000000000E+03  0.50000000000E+03  0.00000000000E+00 0.  1.
        -11    1    1    2    0    0 -0.64739070652E+01  0.95045313455E+01  0.49848882967E+03  0.49862146052E+03  0.00000000000E+00 0. -1.
         11    1    1    2    0    0 -0.10249141228E+02 -0.61639475867E+01 -0.38693561278E+03  0.38712040451E+03  0.00000000000E+00 0.  1.
        -15    1    1    2    0    0  0.17703197076E+02  0.29972038331E+01 -0.79592216708E+02  0.81611672615E+02  0.17770000000E+01 0. -1.
         15    1    1    2    0    0 -0.98014878296E+00 -0.63377875918E+01 -0.31961000178E+02  0.32646462359E+02  0.17770000000E+01 0.  1.
</event>
<event>
 6    1  0.3411206E-003  0.5040182E+03  0.7546771E-02  0.9390863E-01
        -11   -1    0    0    0    0  0.00000000000E+00  0.00000000000E+00  0.50000000000E+03  0.50000000000E+03  0.00000000000E+00 0.  1.
         11   -1    0    0    0    0 -0.00000000000E+00 -0.00000000000E+00 -0.50000000000E+03  0.50000000000E+03  0.00000000000E+00 0. -1.
        -11    1    1    2    0    0 -0.27121285959E+00 -0.98548522707E+01  0.27859223759E+03  0.27876661658E+03  0.00000000000E+00 0.  1.
         11    1    1    2    0    0  0.22533831633E+02 -0.29067480578E+01 -0.49546116005E+03  0.49598183824E+03  0.00000000000E+00 0. -1.
        -15    1    1    2    0    0 -0.15196399125E+02  0.13049395868E+01  0.10888676844E+02  0.18824304133E+02  0.17770000000E+01 0.  1.
         15    1    1    2    0    0 -0.70662196485E+01  0.11456660742E+02  0.20598024561E+03  0.20642724105E+03  0.17770000000E+01 0.  1.
</event>
<event>
 6    1  0.3411206E-003  0.5285140E+03  0.7546771E-02  0.9338175E-01
        -11   -1    0    0    0    0  0.00000000000E+00  0.00000000000E+00  0.50000000000E+03  0.50000000000E+03  0.00000000000E+00 0.  1.
         11   -1    0    0    0    0 -0.00000000000E+00 -0.00000000000E+00 -0.50000000000E+03  0.50000000000E+03  0.00000000000E+00 0.  1.
        -11    1    1    2    0    0 -0.55875032134E+01  0.13480924079E+02  0.45728565182E+03  0.45751843992E+03  0.00000000000E+00 0.  1.
         11    1    1    2    0    0  0.85535176985E+00 -0.21714247687E+02 -0.47098491647E+03  0.47148598253E+03  0.00000000000E+00 0.  1.
        -15    1    1    2    0    0 -0.38026718366E+01  0.14179310750E+02 -0.26003653974E+02  0.29914225971E+02  0.17770000000E+01 0. -1.
         15    1    1    2    0    0  0.85348232802E+01 -0.59459871416E+01  0.39702918619E+02  0.41081351577E+02  0.17770000000E+01 0.  1.
</event>
<event>
 6    1  0.3411206E-003  0.5066075E+03  0.7546771E-02  0.9385145E-01
        -11   -1    0    0    0    0  0.00000000000E+00  0.00000000000E+00  0.50000000000E+03  0.50000000000E+03  0.00000000000E+00 0. -1.
         11   -1    0    0    0    0 -0.00000000000E+00 -0.00000000000E+00 -0.50000000000E+03  0.50000000000E+03  0.00000000000E+00 0. -1.
        -11    1    1    2    0    0 -0.48018771541E+01  0.91273364702E+01  0.49328466427E+03  0.49339246681E+03  0.00000000000E+00 0. -1.
         11    1    1    2    0    0 -0.79274877535E+01  0.78223252277E+01 -0.40512754715E+03  0.40528059822E+03  0.00000000000E+00 0. -1.
        -15    1    1    2    0    0 -0.14338353065E+02 -0.14654271463E+02 -0.23886759889E+02  0.31528892586E+02  0.17770000000E+01 0.  1.
         15    1    1    2    0    0  0.27067717973E+02 -0.22953902349E+01 -0.64270357236E+02  0.69798042386E+02  0.17770000000E+01 0. -1.
</event>
<event>
 6    1  0.3411206E-003  0.5018115E+03  0.7546771E-02  0.9395765E-01
        -11   -1    0    0    0    0  0.00000000000E+00  0.00000000000E+00  0.50000000000E+03  0.50000000000E+03  0.00000000000E+00 0.  1.
         11   -1    0    0    0    0 -0.00000000000E+00 -0.00000000000E+00 -0.50000000000E+03  0.50000000000E+03  0.00000000000E+00 0.  1.
        -11    1    1    2    0    0  0.80160912037E+00 -0.76502788838E+01  0.49812906260E+03  0.49818845064E+03  0.00000000000E+00 0.  1.
         11    1    1    2    0    0  0.34963710157E+01 -0.52218564461E+01 -0.43867719226E+03  0.43872220300E+03  0.00000000000E+00 0.  1.
        -15    1    1    2    0    0  0.30264267365E+01  0.79048039296E+01 -0.46529641805E+02  0.47326636046E+02  0.17770000000E+01 0. -1.
         15    1    1    2    0    0 -0.73244068726E+01  0.49673314003E+01 -0.12922228534E+02  0.15762710318E+02  0.17770000000E+01 0.  1.
</event>
<event>
 6    1  0.3411206E-003  0.5032705E+03  0.7546771E-02  0.9392521E-01
        -11   -1    0    0    0    0  0.00000000000E+00  0.00000000000E+00  0.50000000000E+03  0.50000000000E+03  0.00000000000E+00 0.  1.
         11   -1    0    0    0    0 -0.00000000000E+00 -0.00000000000E+00 -0.50000000000E+03  0.50000000000E+03  0.00000000000E+00 0. -1.
        -11    1    1    2    0    0 -0.10018337132E+02 -0.29647742271E+01  0.49661960274E+03  0.49672949056E+03  0.00000000000E+00 0.  1.
         11    1    1    2    0    0  0.97075919021E+00 -0.14797821648E+02 -0.45438687406E+03  0.45462880377E+03  0.00000000000E+00 0. -1.
        -15    1    1    2    0    0  0.33710735191E+01 -0.83025287423E+00 -0.33816578063E+01  0.51620533730E+01  0.17770000000E+01 0.  1.
         15    1    1    2    0    0  0.56765044223E+01  0.18592848749E+02 -0.38851070873E+02  0.43479652299E+02  0.17770000000E+01 0. -1.
</event>
<event>
 6    1  0.3411206E-003  0.5144745E+03  0.7546771E-02  0.9367992E-01
        -11   -1    0    0    0    0  0.00000000000E+00  0.00000000000E+00  0.50000000000E+03  0.50000000000E+03  0.00000000000E+00 0.  1.
         11   -1    0    0    0    0 -0.00000000000E+00 -0.00000000000E+00 -0.50000000000E+03  0.50000000000E+03  0.00000000000E+00 0. -1.
        -11    1    1    2    0    0 -0.25913880301E+02 -0.65125837869E+01  0.48478968963E+03  0.48552547422E+03  0.00000000000E+00 0.  1.
         11    1    1    2    0    0 -0.67657963289E+01  0.67840410062E+01 -0.44734147677E+03  0.44744407031E+03  0.00000000000E+00 0. -1.
        -15    1    1    2    0    0  0.15591588047E+02 -0.22436446923E+02 -0.15876308462E+02  0.31649749885E+02  0.17770000000E+01 0.  1.
         15    1    1    2    0    0  0.17088088583E+02  0.22164989704E+02 -0.21571904398E+02  0.35380705594E+02  0.17770000000E+01 0. -1.
</event>
<event>
 6    1  0.3411206E-003  0.5231527E+03  0.7546771E-02  0.9349444E-01
        -11   -1    0    0    0    0  0.00000000000E+00  0.00000000000E+00  0.50000000000E+03  0.50000000000E+03  0.00000000000E+00 0. -1.
         11   -1    0    0    0    0 -0.00000000000E+00 -0.00000000000E+00 -0.50000000000E+03  0.50000000000E+03  0.00000000000E+00 0. -1.
        -11    1    1    2    0    0 -0.62398938939E+02  0.52493348386E+01  0.40634795038E+03  0.41114454864E+03  0.00000000000E+00 0. -1.
         11    1    1    2    0    0  0.21344726426E+02  0.60707320211E+00 -0.47636896067E+03  0.47684730531E+03  0.00000000000E+00 0. -1.
        -15    1    1    2    0    0 -0.19768742905E+02  0.20818082825E+01  0.14816813779E+01  0.20012252009E+02  0.17770000000E+01 0.  1.
         15    1    1    2    0    0  0.60822955418E+02 -0.79382163233E+01  0.68539328920E+02  0.91995894049E+02  0.17770000000E+01 0. -1.
</event>
<event>
 6    1  0.3411206E-003  0.5004519E+03  0.7546771E-02  0.9398799E-01
        -11   -1    0    0    0    0  0.00000000000E+00  0.00000000000E+00  0.50000000000E+03  0.50000000000E+03  0.00000000000E+00 0. -1.
         11   -1    0    0    0    0 -0.00000000000E+00 -0.00000000000E+00 -0.50000000000E+03  0.50000000000E+03  0.00000000000E+00 0.  1.
        -11    1    1    2    0    0 -0.82555361546E+01 -0.26263925857E+01  0.22165904480E+03  0.22182827583E+03  0.00000000000E+00 0. -1.
         11    1    1    2    0    0  0.87934452539E+01  0.58635670755E+01 -0.49943630383E+03  0.49954812349E+03  0.00000000000E+00 0.  1.
        -15    1    1    2    0    0 -0.25570402431E+01  0.16949911820E+01  0.25899248781E+03  0.25901675220E+03  0.17770000000E+01 0. -1.
         15    1    1    2    0    0  0.20191311438E+01 -0.49321656719E+01  0.18784771219E+02  0.19606848486E+02  0.17770000000E+01 0.  1.
</event>
<event>
 6    1  0.3411206E-003  0.5031900E+03  0.7546771E-02  0.9392700E-01
        -11   -1    0    0    0    0  0.00000000000E+00  0.00000000000E+00  0.50000000000E+03  0.50000000000E+03  0.00000000000E+00 0. -1.
         11   -1    0    0    0    0 -0.00000000000E+00 -0.00000000000E+00 -0.50000000000E+03  0.50000000000E+03  0.00000000000E+00 0. -1.
        -11    1    1    2    0    0  0.13519774613E+02  0.43177684241E+01  0.44441749122E+03  0.44464405307E+03  0.00000000000E+00 0. -1.
         11    1    1    2    0    0 -0.92092559082E+01  0.38158913721E+01 -0.49670995874E+03  0.49680997830E+03  0.00000000000E+00 0. -1.
        -15    1    1    2    0    0 -0.81594351421E+01 -0.64576069025E+00  0.48369345687E+02  0.49089150736E+02  0.17770000000E+01 0. -1.
         15    1    1    2    0    0  0.38489164374E+01 -0.74878991059E+01  0.39231218391E+01  0.94568178965E+01  0.17770000000E+01 0.  1.
</event>
<event>
 6    1  0.3411206E-003  0.4882070E+03  0.7546771E-02  0.9426591E-01
        -11   -1    0    0    0    0  0.00000000000E+00  0.00000000000E+00  0.50000000000E+03  0.50000000000E+03  0.00000000000E+00 0.  1.
         11   -1    0    0    0    0 -0.00000000000E+00 -0.00000000000E+00 -0.50000000000E+03  0.50000000000E+03  0.00000000000E+00 0.  1.
        -11    1    1    2    0    0 -0.10338716533E+02 -0.52360025195E+01  0.48782874374E+03  0.48796637999E+03  0.00000000000E+00 0.  1.
         11    1    1    2    0    0  0.12111048914E+02  0.21449278092E+01 -0.48829943606E+03  0.48845431462E+03  0.00000000000E+00 0.  1.
        -15    1    1    2    0    0  0.48565091604E+01  0.72129740204E+01  0.84655867227E+01  0.12265258375E+02  0.17770000000E+01 0. -1.
         15    1    1    2    0    0 -0.66288415416E+01 -0.41218993100E+01 -0.79948944090E+01  0.11314047009E+02  0.17770000000E+01 0.  1.
</event>
<event>
 6    1  0.3411206E-003  0.5052954E+03  0.7546771E-02  0.9388038E-01
        -11   -1    0    0    0    0  0.00000000000E+00  0.00000000000E+00  0.50000000000E+03  0.50000000000E+03  0.00000000000E+00 0. -1.
         11   -1    0    0    0    0 -0.00000000000E+00 -0.00000000000E+00 -0.50000000000E+03  0.50000000000E+03  0.00000000000E+00 0. -1.
        -11    1    1    2    0    0 -0.13795635709E+02  0.98585134175E-01  0.49451220405E+03  0.49470460806E+03  0.00000000000E+00 0. -1.
         11    1    1    2    0    0 -0.57298402410E+01 -0.17288600228E+01 -0.27711841015E+03  0.27718303207E+03  0.00000000000E+00 0. -1.
        -15    1    1    2    0    0  0.20053671063E+02  0.19692333045E+02 -0.20299479930E+03  0.20493897623E+03  0.17770000000E+01 0.  1.
         15    1    1    2    0    0 -0.52819511296E+00 -0.18062058157E+02 -0.14398994595E+02  0.23173383639E+02  0.17770000000E+01 0. -1.
</event>
<event>
 6    1  0.3411206E-003  0.5012962E+03  0.7546771E-02  0.9396914E-01
        -11   -1    0    0    0    0  0.00000000000E+00  0.00000000000E+00  0.50000000000E+03  0.50000000000E+03  0.00000000000E+00 0.  1.
         11   -1    0    0    0    0 -0.00000000000E+00 -0.00000000000E+00 -0.50000000000E+03  0.50000000000E+03  0.00000000000E+00 0. -1.
        -11    1    1    2    0    0 -0.10389152639E+02  0.83387257053E+01  0.49852586462E+03  0.49870382647E+03  0.00000000000E+00 0.  1.
         11    1    1    2    0    0  0.28436738604E+01 -0.67464595710E+01 -0.41041497936E+03  0.41048027539E+03  0.00000000000E+00 0. -1.
        -15    1    1    2    0    0  0.10095879197E+01  0.47740331532E+01 -0.72216251292E+02  0.72402730197E+02  0.17770000000E+01 0. -1.
         15    1    1    2    0    0  0.65358908590E+01 -0.63662992875E+01 -0.15894633968E+02  0.18413167949E+02  0.17770000000E+01 0.  1.
</event>
<event>
 6    1  0.3411206E-003  0.5030752E+03  0.7546771E-02  0.9392955E-01
        -11   -1    0    0    0    0  0.00000000000E+00  0.00000000000E+00  0.50000000000E+03  0.50000000000E+03  0.00000000000E+00 0.  1.
         11   -1    0    0    0    0 -0.00000000000E+00 -0.00000000000E+00 -0.50000000000E+03  0.50000000000E+03  0.00000000000E+00 0. -1.
        -11    1    1    2    0    0  0.63667292861E+01  0.38104722603E+01  0.49686944902E+03  0.49692484774E+03  0.00000000000E+00 0.  1.
         11    1    1    2    0    0 -0.20093141710E+02  0.46235672814E+01 -0.43370389841E+03  0.43419371623E+03  0.00000000000E+00 0. -1.
        -15    1    1    2    0    0  0.17562492146E+02 -0.11553440777E+02 -0.57011281162E+02  0.60789530620E+02  0.17770000000E+01 0.  1.
         15    1    1    2    0    0 -0.38360797220E+01  0.31194012355E+01 -0.61542694399E+01  0.80919054023E+01  0.17770000000E+01 0. -1.
</event>
<event>
 6    1  0.3411206E-003  0.5170420E+03  0.7546771E-02  0.9362464E-01
        -11   -1    0    0    0    0  0.00000000000E+00  0.00000000000E+00  0.50000000000E+03  0.50000000000E+03  0.00000000000E+00 0.  1.
         11   -1    0    0    0    0 -0.00000000000E+00 -0.00000000000E+00 -0.50000000000E+03  0.50000000000E+03  0.00000000000E+00 0. -1.
        -11    1    1    2    0    0  0.56853898553E+01  0.47850387350E+01  0.44143681351E+03  0.44149935513E+03  0.00000000000E+00 0.  1.
         11    1    1    2    0    0 -0.66488241658E+01  0.12893600827E+01 -0.48291053943E+03  0.48295802965E+03  0.00000000000E+00 0. -1.
        -15    1    1    2    0    0 -0.25603408895E+02 -0.20351882128E+02  0.18785470664E+02  0.37759572167E+02  0.17770000000E+01 0.  1.
         15    1    1    2    0    0  0.26566843206E+02  0.14277483310E+02  0.22688255250E+02  0.37783043060E+02  0.17770000000E+01 0. -1.
</event>
<event>
 6    1  0.3411206E-003  0.4747343E+03  0.7546771E-02  0.9458189E-01
        -11   -1    0    0    0    0  0.00000000000E+00  0.00000000000E+00  0.50000000000E+03  0.50000000000E+03  0.00000000000E+00 0.  1.
         11   -1    0    0    0    0 -0.00000000000E+00 -0.00000000000E+00 -0.50000000000E+03  0.50000000000E+03  0.00000000000E+00 0.  1.
        -11    1    1    2    0    0  0.11606360981E+02 -0.38161571431E+01  0.47488202338E+03  0.47503916343E+03  0.00000000000E+00 0.  1.
         11    1    1    2    0    0  0.48037039497E+01 -0.72322435110E+01 -0.47455608807E+03  0.47463550399E+03  0.00000000000E+00 0.  1.
        -15    1    1    2    0    0 -0.20051157197E+02  0.85834867612E+01  0.19883144125E+02  0.29567250450E+02  0.17770000000E+01 0. -1.
         15    1    1    2    0    0  0.36410922655E+01  0.24649138930E+01 -0.20209079427E+02  0.20758082129E+02  0.17770000000E+01 0.  1.
</event>
<event>
 6    1  0.3411206E-003  0.5014347E+03  0.7546771E-02  0.9396605E-01
        -11   -1    0    0    0    0  0.00000000000E+00  0.00000000000E+00  0.50000000000E+03  0.50000000000E+03  0.00000000000E+00 0. -1.
         11   -1    0    0    0    0 -0.00000000000E+00 -0.00000000000E+00 -0.50000000000E+03  0.50000000000E+03  0.00000000000E+00 0. -1.
        -11    1    1    2    0    0 -0.48351727532E+01 -0.29060669149E+01  0.36208339335E+03  0.36212733653E+03  0.00000000000E+00 0. -1.
         11    1    1    2    0    0  0.65180595396E+00 -0.79968598581E+01 -0.49850073497E+03  0.49856529901E+03  0.00000000000E+00 0. -1.
        -15    1    1    2    0    0  0.48422909122E+01 -0.30510725104E+01  0.10122333908E+03  0.10140058643E+03  0.17770000000E+01 0.  1.
         15    1    1    2    0    0 -0.65892411298E+00  0.13953999283E+02  0.35194002533E+02  0.37906778025E+02  0.17770000000E+01 0. -1.
</event>
<event>
 6    1  0.3411206E-003  0.5095355E+03  0.7546771E-02  0.9378722E-01
        -11   -1    0    0    0    0  0.00000000000E+00  0.00000000000E+00  0.50000000000E+03  0.50000000000E+03  0.00000000000E+00 0.  1.
         11   -1    0    0    0    0 -0.00000000000E+00 -0.00000000000E+00 -0.50000000000E+03  0.50000000000E+03  0.00000000000E+00 0. -1.
        -11    1    1    2    0    0 -0.13773536144E+02  0.17200599527E+02  0.48996920804E+03  0.49046446941E+03  0.00000000000E+00 0.  1.
         11    1    1    2    0    0 -0.11280708922E+02  0.38341998025E+01 -0.50893729670E+02  0.52269754176E+02  0.00000000000E+00 0. -1.
        -15    1    1    2    0    0  0.17451554674E+02 -0.25450697432E+02 -0.17353673550E+02  0.35448589182E+02  0.17770000000E+01 0.  1.
         15    1    1    2    0    0  0.76026903923E+01  0.44158981025E+01 -0.42172180482E+03  0.42181718724E+03  0.17770000000E+01 0. -1.
</event>
<event>
 6    1  0.3411206E-003  0.5005057E+03  0.7546771E-02  0.9398679E-01
        -11   -1    0    0    0    0  0.00000000000E+00  0.00000000000E+00  0.50000000000E+03  0.50000000000E+03  0.00000000000E+00 0.  1.
         11   -1    0    0    0    0 -0.00000000000E+00 -0.00000000000E+00 -0.50000000000E+03  0.50000000000E+03  0.00000000000E+00 0.  1.
        -11    1    1    2    0    0 -0.10689440254E+02  0.43968541489E+01  0.49936059191E+03  0.49949434153E+03  0.00000000000E+00 0.  1.
         11    1    1    2    0    0 -0.47389956571E+01 -0.44794440067E-01 -0.27908040509E+03  0.27912064164E+03  0.00000000000E+00 0.  1.
        -15    1    1    2    0    0  0.59393752855E+01 -0.36044195666E+01 -0.29494454161E+02  0.30353724227E+02  0.17770000000E+01 0. -1.
         15    1    1    2    0    0  0.94890606260E+01 -0.74764014222E+00 -0.19078573266E+03  0.19103129260E+03  0.17770000000E+01 0.  1.
</event>
<event>
 6    1  0.3411206E-003  0.5046809E+03  0.7546771E-02  0.9389396E-01
        -11   -1    0    0    0    0  0.00000000000E+00  0.00000000000E+00  0.50000000000E+03  0.50000000000E+03  0.00000000000E+00 0.  1.
         11   -1    0    0    0    0 -0.00000000000E+00 -0.00000000000E+00 -0.50000000000E+03  0.50000000000E+03  0.00000000000E+00 0.  1.
        -11    1    1    2    0    0  0.34580720342E+01  0.71759239755E+01  0.45570789085E+03  0.45577750485E+03  0.00000000000E+00 0.  1.
         11    1    1    2    0    0  0.12503873730E+02 -0.33116848973E+01 -0.49515020473E+03  0.49531912881E+03  0.00000000000E+00 0.  1.
        -15    1    1    2    0    0 -0.53513532689E+01 -0.37655607468E+01  0.37327936957E+02  0.37938753749E+02  0.17770000000E+01 0.  1.
         15    1    1    2    0    0 -0.10610592496E+02 -0.98678331363E-01  0.21143769243E+01  0.10964612592E+02  0.17770000000E+01 0. -1.
</event>
<event>
 6    1  0.3411206E-003  0.5028972E+03  0.7546771E-02  0.9393350E-01
        -11   -1    0    0    0    0  0.00000000000E+00  0.00000000000E+00  0.50000000000E+03  0.50000000000E+03  0.00000000000E+00 0. -1.
         11   -1    0    0    0    0 -0.00000000000E+00 -0.00000000000E+00 -0.50000000000E+03  0.50000000000E+03  0.00000000000E+00 0. -1.
        -11    1    1    2    0    0 -0.30353804078E+01 -0.71553405945E+01  0.49704203102E+03  0.49710279926E+03  0.00000000000E+00 0. -1.
         11    1    1    2    0    0 -0.15307922258E+01 -0.99125983750E+01 -0.43468771029E+03  0.43480341352E+03  0.00000000000E+00 0. -1.
        -15    1    1    2    0    0  0.21948440136E+01  0.43467974168E+01 -0.89312123776E+00  0.52599793319E+01  0.17770000000E+01 0. -1.
         15    1    1    2    0    0  0.23713286200E+01  0.12721141553E+02 -0.61461199488E+02  0.62833807885E+02  0.17770000000E+01 0.  1.
</event>
<event>
 6    1  0.3411206E-003  0.5023669E+03  0.7546771E-02  0.9394529E-01
        -11   -1    0    0    0    0  0.00000000000E+00  0.00000000000E+00  0.50000000000E+03  0.50000000000E+03  0.00000000000E+00 0. -1.
         11   -1    0    0    0    0 -0.00000000000E+00 -0.00000000000E+00 -0.50000000000E+03  0.50000000000E+03  0.00000000000E+00 0.  1.
        -11    1    1    2    0    0 -0.11279302800E+02  0.11039292779E+00  0.49750524058E+03  0.49763309703E+03  0.00000000000E+00 0. -1.
         11    1    1    2    0    0  0.15891724586E+01  0.45980302145E+01 -0.32214715557E+03  0.32218388723E+03  0.00000000000E+00 0.  1.
        -15    1    1    2    0    0  0.16409875464E+02  0.79069585219E+00 -0.27666971965E+02  0.32226204855E+02  0.17770000000E+01 0.  1.
         15    1    1    2    0    0 -0.67197451224E+01 -0.54991189944E+01 -0.14769111305E+03  0.14795681088E+03  0.17770000000E+01 0. -1.
</event>
<event>
 6    1  0.3411206E-003  0.5065983E+03  0.7546771E-02  0.9385165E-01
        -11   -1    0    0    0    0  0.00000000000E+00  0.00000000000E+00  0.50000000000E+03  0.50000000000E+03  0.00000000000E+00 0. -1.
         11   -1    0    0    0    0 -0.00000000000E+00 -0.00000000000E+00 -0.50000000000E+03  0.50000000000E+03  0.00000000000E+00 0.  1.
        -11    1    1    2    0    0 -0.32746397071E+02  0.21813256644E+02  0.30393871994E+03  0.30647494215E+03  0.00000000000E+00 0. -1.
         11    1    1    2    0    0 -0.72434542772E+01 -0.12188971662E+02 -0.49319792182E+03  0.49340169107E+03  0.00000000000E+00 0.  1.
        -15    1    1    2    0    0  0.25559366714E+02 -0.90523532319E+01  0.18171062806E+03  0.18373115251E+03  0.17770000000E+01 0. -1.
         15    1    1    2    0    0  0.14430484634E+02 -0.57193175008E+00  0.75485738228E+01  0.16392214263E+02  0.17770000000E+01 0.  1.
</event>
<event>
 6    1  0.3411206E-003  0.5052609E+03  0.7546771E-02  0.9388114E-01
        -11   -1    0    0    0    0  0.00000000000E+00  0.00000000000E+00  0.50000000000E+03  0.50000000000E+03  0.00000000000E+00 0.  1.
         11   -1    0    0    0    0 -0.00000000000E+00 -0.00000000000E+00 -0.50000000000E+03  0.50000000000E+03  0.00000000000E+00 0.  1.
        -11    1    1    2    0    0  0.16644318967E+02 -0.10407924113E+02  0.37955151974E+03  0.38005883015E+03  0.00000000000E+00 0.  1.
         11    1    1    2    0    0  0.61424768769E+01 -0.15613621747E+02 -0.49445450798E+03  0.49473909859E+03  0.00000000000E+00 0.  1.
        -15    1    1    2    0    0 -0.10799844581E+02  0.10465792005E+02  0.92942816210E+01  0.17768253857E+02  0.17770000000E+01 0.  1.
         15    1    1    2    0    0 -0.11986951263E+02  0.15555753855E+02  0.10560870662E+03  0.10743381740E+03  0.17770000000E+01 0. -1.
</event>
<event>
 6    1  0.5979533E-003  0.5298768E+03  0.7546771E-02  0.9335333E-01
        -11   -1    0    0    0    0  0.00000000000E+00  0.00000000000E+00  0.50000000000E+03  0.50000000000E+03  0.00000000000E+00 0. -1.
         11   -1    0    0    0    0 -0.00000000000E+00 -0.00000000000E+00 -0.50000000000E+03  0.50000000000E+03  0.00000000000E+00 0.  1.
        -11    1    1    2    0    0 -0.12342783061E+01 -0.66106204380E+01  0.47007507580E+03  0.47012317602E+03  0.00000000000E+00 0. -1.
         11    1    1    2    0    0 -0.98909585484E+01  0.60270735231E+01 -0.45094534981E+03  0.45109407577E+03  0.00000000000E+00 0.  1.
        -15    1    1    2    0    0  0.87662251867E+01 -0.28336548085E+01 -0.48331468083E+02  0.49233777426E+02  0.17770000000E+01 0. -1.
         15    1    1    2    0    0  0.23590116679E+01  0.34172017234E+01  0.29201742096E+02  0.29548970779E+02  0.17770000000E+01 0.  1.
</event>
<event>
 6    1  0.3411206E-003  0.5025993E+03  0.7546771E-02  0.9394012E-01
        -11   -1    0    0    0    0  0.00000000000E+00  0.00000000000E+00  0.50000000000E+03  0.50000000000E+03  0.00000000000E+00 0. -1.
         11   -1    0    0    0    0 -0.00000000000E+00 -0.00000000000E+00 -0.50000000000E+03  0.50000000000E+03  0.00000000000E+00 0.  1.
        -11    1    1    2    0    0 -0.95066108009E+01  0.27217039723E+01  0.37850795378E+03  0.37863710119E+03  0.00000000000E+00 0. -1.
         11    1    1    2    0    0  0.10934640986E+02 -0.43518899364E+01 -0.49726141786E+03  0.49740066648E+03  0.00000000000E+00 0.  1.
        -15    1    1    2    0    0 -0.97961355502E+01  0.10706164547E+02  0.10217728133E+03  0.10321792858E+03  0.17770000000E+01 0.  1.
         15    1    1    2    0    0  0.83681053647E+01 -0.90759785830E+01  0.16576182743E+02  0.20744303748E+02  0.17770000000E+01 0. -1.
</event>
<event>
 6    1  0.3411206E-003  0.5006465E+03  0.7546771E-02  0.9398364E-01
        -11   -1    0    0    0    0  0.00000000000E+00  0.00000000000E+00  0.50000000000E+03  0.50000000000E+03  0.00000000000E+00 0.  1.
         11   -1    0    0    0    0 -0.00000000000E+00 -0.00000000000E+00 -0.50000000000E+03  0.50000000000E+03  0.00000000000E+00 0. -1.
        -11    1    1    2    0    0  0.47474444200E+01  0.14857157026E+02  0.49910987040E+03  0.49935351814E+03  0.00000000000E+00 0.  1.
         11    1    1    2    0    0  0.23165035464E+01 -0.32925902758E+01 -0.25525063475E+03  0.25528238067E+03  0.00000000000E+00 0. -1.
        -15    1    1    2    0    0 -0.11586934911E+01 -0.68122129998E+01 -0.17882955782E+02  0.19253743871E+02  0.17770000000E+01 0.  1.
         15    1    1    2    0    0 -0.59052544753E+01 -0.47523537508E+01 -0.22597627987E+03  0.22611035732E+03  0.17770000000E+01 0. -1.
</event>
<event>
 6    1  0.3411206E-003  0.5001019E+03  0.7546771E-02  0.9399582E-01
        -11   -1    0    0    0    0  0.00000000000E+00  0.00000000000E+00  0.50000000000E+03  0.50000000000E+03  0.00000000000E+00 0.  1.
         11   -1    0    0    0    0 -0.00000000000E+00 -0.00000000000E+00 -0.50000000000E+03  0.50000000000E+03  0.00000000000E+00 0.  1.
        -11    1    1    2    0    0 -0.66748587903E+00 -0.24181617368E+01  0.44707092142E+02  0.44777417650E+02  0.00000000000E+00 0.  1.
         11    1    1    2    0    0 -0.69472033568E+01  0.48714573383E+01 -0.49982605978E+03  0.49989807437E+03  0.00000000000E+00 0.  1.
        -15    1    1    2    0    0 -0.19082735380E+01 -0.24684179993E+01  0.80092352311E+02  0.80172796029E+02  0.17770000000E+01 0. -1.
         15    1    1    2    0    0  0.95229627739E+01  0.15122397809E-01  0.37502661532E+03  0.37515171195E+03  0.17770000000E+01 0.  1.
</event>
<event>
 6    1  0.3411206E-003  0.5054713E+03  0.7546771E-02  0.9387650E-01
        -11   -1    0    0    0    0  0.00000000000E+00  0.00000000000E+00  0.50000000000E+03  0.50000000000E+03  0.00000000000E+00 0.  1.
         11   -1    0    0    0    0 -0.00000000000E+00 -0.00000000000E+00 -0.50000000000E+03  0.50000000000E+03  0.00000000000E+00 0. -1.
        -11    1    1    2    0    0 -0.25760436500E+02  0.16606410907E+02  0.48947506493E+03  0.49043369802E+03  0.00000000000E+00 0.  1.
         11    1    1    2    0    0  0.41370021541E+00 -0.28607339060E+00 -0.79881123911E+01  0.80039318729E+01  0.00000000000E+00 0. -1.
        -15    1    1    2    0    0 -0.11197424945E+02  0.33735331163E+01 -0.44810974565E+03  0.44826584180E+03  0.17770000000E+01 0. -1.
         15    1    1    2    0    0  0.36544161230E+02 -0.19693870633E+02 -0.33377206888E+02  0.53296528303E+02  0.17770000000E+01 0.  1.
</event>
<event>
 6    1  0.3411206E-003  0.5089706E+03  0.7546771E-02  0.9379958E-01
        -11   -1    0    0    0    0  0.00000000000E+00  0.00000000000E+00  0.50000000000E+03  0.50000000000E+03  0.00000000000E+00 0. -1.
         11   -1    0    0    0    0 -0.00000000000E+00 -0.00000000000E+00 -0.50000000000E+03  0.50000000000E+03  0.00000000000E+00 0. -1.
        -11    1    1    2    0    0  0.35786585024E+01 -0.59634345805E+01  0.34777238529E+03  0.34784192001E+03  0.00000000000E+00 0. -1.
         11    1    1    2    0    0  0.16862252043E+01  0.77053070352E+01 -0.49096606973E+03  0.49102942553E+03  0.00000000000E+00 0. -1.
        -15    1    1    2    0    0 -0.89370424084E+01 -0.19164289378E+01  0.15154593300E+03  0.15183171924E+03  0.17770000000E+01 0. -1.
         15    1    1    2    0    0  0.36721587016E+01  0.17455648311E+00 -0.83522485642E+01  0.92969352248E+01  0.17770000000E+01 0.  1.
</event>
<event>
 6    1  0.3411206E-003  0.5047412E+03  0.7546771E-02  0.9389263E-01
        -11   -1    0    0    0    0  0.00000000000E+00  0.00000000000E+00  0.50000000000E+03  0.50000000000E+03  0.00000000000E+00 0. -1.
         11   -1    0    0    0    0 -0.00000000000E+00 -0.00000000000E+00 -0.50000000000E+03  0.50000000000E+03  0.00000000000E+00 0. -1.
        -11    1    1    2    0    0  0.23778053618E+00  0.68543454391E+01  0.49521130335E+03  0.49525879452E+03  0.00000000000E+00 0. -1.
         11    1    1    2    0    0  0.48870140483E+01  0.13386952926E+02 -0.46580979622E+03  0.46602774560E+03  0.00000000000E+00 0. -1.
        -15    1    1    2    0    0 -0.12221787867E+01 -0.11637576085E+01  0.93359478914E+00  0.26224761177E+01  0.17770000000E+01 0. -1.
         15    1    1    2    0    0 -0.39026157978E+01 -0.19077540756E+02 -0.30335101917E+02  0.36090983759E+02  0.17770000000E+01 0.  1.
</event>
<event>
 6    1  0.3411206E-003  0.5000960E+03  0.7546771E-02  0.9399595E-01
        -11   -1    0    0    0    0  0.00000000000E+00  0.00000000000E+00  0.50000000000E+03  0.50000000000E+03  0.00000000000E+00 0.  1.
         11   -1    0    0    0    0 -0.00000000000E+00 -0.00000000000E+00 -0.50000000000E+03  0.50000000000E+03  0.00000000000E+00 0.  1.
        -11    1    1    2    0    0 -0.29542023394E+01 -0.11590938000E+01  0.17742425161E+03  0.17745262993E+03  0.00000000000E+00 0.  1.
         11    1    1    2    0    0  0.62634394433E+01  0.50338191075E+01 -0.49983945669E+03  0.49990404326E+03  0.00000000000E+00 0.  1.
        -15    1    1    2    0    0 -0.15996299363E+01  0.29390993212E+01  0.18362633103E+03  0.18366541400E+03  0.17770000000E+01 0.  1.
         15    1    1    2    0    0 -0.17096071676E+01 -0.68138246287E+01  0.13878887404E+03  0.13897791281E+03  0.17770000000E+01 0. -1.
</event>
<event>
 6    1  0.3411206E-003  0.4855976E+03  0.7546771E-02  0.9432626E-01
        -11   -1    0    0    0    0  0.00000000000E+00  0.00000000000E+00  0.50000000000E+03  0.50000000000E+03  0.00000000000E+00 0. -1.
         11   -1    0    0    0    0 -0.00000000000E+00 -0.00000000000E+00 -0.50000000000E+03  0.50000000000E+03  0.00000000000E+00 0. -1.
        -11    1    1    2    0    0 -0.81830627433E+01 -0.46144832458E+02  0.48787450164E+03  0.49012022753E+03  0.00000000000E+00 0. -1.
         11    1    1    2    0    0  0.23744414211E+01 -0.28547630782E+01 -0.45772773132E+02  0.45923135831E+02  0.00000000000E+00 0. -1.
        -15    1    1    2    0    0  0.49636229445E+01 -0.41917489100E+01 -0.38800793601E+03  0.38806639180E+03  0.17770000000E+01 0. -1.
         15    1    1    2    0    0  0.84499837776E+00  0.53191344446E+02 -0.54093792499E+02  0.75890244841E+02  0.17770000000E+01 0.  1.
</event>
<event>
 6    1  0.3411206E-003  0.5085473E+03  0.7546771E-02  0.9380885E-01
        -11   -1    0    0    0    0  0.00000000000E+00  0.00000000000E+00  0.50000000000E+03  0.50000000000E+03  0.00000000000E+00 0. -1.
         11   -1    0    0    0    0 -0.00000000000E+00 -0.00000000000E+00 -0.50000000000E+03  0.50000000000E+03  0.00000000000E+00 0.  1.
        -11    1    1    2    0    0 -0.10396644493E+02  0.48749735166E+01  0.49131855166E+03  0.49145271877E+03  0.00000000000E+00 0. -1.
         11    1    1    2    0    0  0.59932470015E+01 -0.34284321054E+01 -0.45986972441E+03  0.45992155482E+03  0.00000000000E+00 0.  1.
        -15    1    1    2    0    0 -0.55882785944E+01  0.83043022540E+01 -0.32940139797E+02  0.34473190053E+02  0.17770000000E+01 0.  1.
         15    1    1    2    0    0  0.99916760864E+01 -0.97508436652E+01  0.14913125505E+01  0.14152536356E+02  0.17770000000E+01 0. -1.
</event>
<event>
 6    1  0.3411206E-003  0.5090674E+03  0.7546771E-02  0.9379746E-01
        -11   -1    0    0    0    0  0.00000000000E+00  0.00000000000E+00  0.50000000000E+03  0.50000000000E+03  0.00000000000E+00 0.  1.
         11   -1    0    0    0    0 -0.00000000000E+00 -0.00000000000E+00 -0.50000000000E+03  0.50000000000E+03  0.00000000000E+00 0. -1.
        -11    1    1    2    0    0 -0.10733348476E+02  0.21180083638E+01  0.46992716043E+03  0.47005449348E+03  0.00000000000E+00 0.  1.
         11    1    1    2    0    0  0.95463959591E+01  0.99375109848E+01 -0.49073915159E+03  0.49093258468E+03  0.00000000000E+00 0. -1.
        -15    1    1    2    0    0  0.11248915101E+02 -0.10945994363E+02  0.23568224135E+02  0.28372024979E+02  0.17770000000E+01 0.  1.
         15    1    1    2    0    0 -0.10061962584E+02 -0.11095249853E+01 -0.27562329756E+01  0.10640896858E+02  0.17770000000E+01 0. -1.
</event>
<event>
 6    1  0.3411206E-003  0.5028985E+03  0.7546771E-02  0.9393347E-01
        -11   -1    0    0    0    0  0.00000000000E+00  0.00000000000E+00  0.50000000000E+03  0.50000000000E+03  0.00000000000E+00 0. -1.
         11   -1    0    0    0    0 -0.00000000000E+00 -0.00000000000E+00 -0.50000000000E+03  0.50000000000E+03  0.00000000000E+00 0.  1.
        -11    1    1    2    0    0 -0.73411693257E+01  0.75960290992E+00  0.49704669998E+03  0.49710149037E+03  0.00000000000E+00 0. -1.
         11    1    1    2    0    0  0.11893470752E+01 -0.76493358403E+01 -0.41462265528E+03  0.41469491576E+03  0.00000000000E+00 0.  1.
        -15    1    1    2    0    0  0.39132277231E+01 -0.47486153490E+00 -0.79744669556E+02  0.79861811251E+02  0.17770000000E+01 0.  1.
         15    1    1    2    0    0  0.22385945275E+01  0.73645944653E+01 -0.26793751438E+01  0.83417826187E+01  0.17770000000E+01 0. -1.
</event>
<event>
 6    1  0.3411206E-003  0.5044504E+03  0.7546771E-02  0.9389906E-01
        -11   -1    0    0    0    0  0.00000000000E+00  0.00000000000E+00  0.50000000000E+03  0.50000000000E+03  0.00000000000E+00 0. -1.
         11   -1    0    0    0    0 -0.00000000000E+00 -0.00000000000E+00 -0.50000000000E+03  0.50000000000E+03  0.00000000000E+00 0.  1.
        -11    1    1    2    0    0 -0.15548197843E+02 -0.87977281409E+01  0.49522743834E+03  0.49554955571E+03  0.00000000000E+00 0. -1.
         11    1    1    2    0    0 -0.19388114771E+01 -0.71509028391E+01 -0.30500188266E+03  0.30509185966E+03  0.00000000000E+00 0.  1.
        -15    1    1    2    0    0  0.15467659284E+02  0.10976563768E+02 -0.15547118650E+02  0.24588697875E+02  0.17770000000E+01 0. -1.
         15    1    1    2    0    0  0.20193500360E+01  0.49720672117E+01 -0.17467843703E+03  0.17476988676E+03  0.17770000000E+01 0.  1.
</event>
<event>
 6    1  0.3411206E-003  0.5110068E+03  0.7546771E-02  0.9375512E-01
        -11   -1    0    0    0    0  0.00000000000E+00  0.00000000000E+00  0.50000000000E+03  0.50000000000E+03  0.00000000000E+00 0. -1.
         11   -1    0    0    0    0 -0.00000000000E+00 -0.00000000000E+00 -0.50000000000E+03  0.50000000000E+03  0.00000000000E+00 0.  1.
        -11    1    1    2    0    0 -0.44086370794E+02 -0.25630565680E+02  0.48632685476E+03  0.48899319387E+03  0.00000000000E+00 0. -1.
         11    1    1    2    0    0 -0.17843150775E+02 -0.16004627912E+00 -0.14715619772E+03  0.14823410597E+03  0.00000000000E+00 0.  1.
        -15    1    1    2    0    0 -0.18853803178E+02  0.22506335795E+02 -0.25767506276E+02  0.39104004320E+02  0.17770000000E+01 0. -1.
         15    1    1    2    0    0  0.80783324748E+02  0.32842761642E+01 -0.31340315077E+03  0.32366869584E+03  0.17770000000E+01 0.  1.
</event>
<event>
 6    1  0.3411206E-003  0.5018416E+03  0.7546771E-02  0.9395698E-01
        -11   -1    0    0    0    0  0.00000000000E+00  0.00000000000E+00  0.50000000000E+03  0.50000000000E+03  0.00000000000E+00 0.  1.
         11   -1    0    0    0    0 -0.00000000000E+00 -0.00000000000E+00 -0.50000000000E+03  0.50000000000E+03  0.00000000000E+00 0. -1.
        -11    1    1    2    0    0 -0.11155291175E+02  0.93483481239E-01  0.49803343055E+03  0.49815835555E+03  0.00000000000E+00 0.  1.
         11    1    1    2    0    0  0.93943580900E+01 -0.60646146820E+01 -0.42473915153E+03  0.42488631463E+03  0.00000000000E+00 0. -1.
        -15    1    1    2    0    0 -0.30445137206E+01  0.13196003529E+02 -0.54393092594E+02  0.56081813664E+02  0.17770000000E+01 0. -1.
         15    1    1    2    0    0  0.48054468057E+01 -0.72248723281E+01 -0.18901186425E+02  0.20873516149E+02  0.17770000000E+01 0.  1.
</event>
<event>
 6    1  0.3411206E-003  0.5048473E+03  0.7546771E-02  0.9389028E-01
        -11   -1    0    0    0    0  0.00000000000E+00  0.00000000000E+00  0.50000000000E+03  0.50000000000E+03  0.00000000000E+00 0. -1.
         11   -1    0    0    0    0 -0.00000000000E+00 -0.00000000000E+00 -0.50000000000E+03  0.50000000000E+03  0.00000000000E+00 0.  1.
        -11    1    1    2    0    0  0.35101886604E+01 -0.66746048009E+01  0.30408669503E+03  0.30418019309E+03  0.00000000000E+00 0. -1.
         11    1    1    2    0    0 -0.14249028819E+02  0.15941821709E+02 -0.49469085066E+03  0.49515271808E+03  0.00000000000E+00 0.  1.
        -15    1    1    2    0    0 -0.10545040371E+02  0.33593649955E+01  0.16364516309E+03  0.16402859611E+03  0.17770000000E+01 0. -1.
         15    1    1    2    0    0  0.21283880529E+02 -0.12626581903E+02  0.26958992541E+02  0.36638492719E+02  0.17770000000E+01 0.  1.
</event>
<event>
 6    1  0.3411206E-003  0.5102551E+03  0.7546771E-02  0.9377151E-01
        -11   -1    0    0    0    0  0.00000000000E+00  0.00000000000E+00  0.50000000000E+03  0.50000000000E+03  0.00000000000E+00 0. -1.
         11   -1    0    0    0    0 -0.00000000000E+00 -0.00000000000E+00 -0.50000000000E+03  0.50000000000E+03  0.00000000000E+00 0.  1.
        -11    1    1    2    0    0  0.10753649749E+02 -0.35858655757E+01  0.48961372080E+03  0.48974492852E+03  0.00000000000E+00 0. -1.
         11    1    1    2    0    0  0.12992786620E+02 -0.34403921239E+00 -0.43181467538E+03  0.43201023685E+03  0.00000000000E+00 0.  1.
        -15    1    1    2    0    0 -0.11019080044E+02 -0.15651330931E+01 -0.62493071603E+02  0.63501271593E+02  0.17770000000E+01 0.  1.
         15    1    1    2    0    0 -0.12727356325E+02  0.54950378811E+01  0.46940261794E+01  0.14743563040E+02  0.17770000000E+01 0. -1.
</event>
<event>
 6    1  0.3411206E-003  0.5005879E+03  0.7546771E-02  0.9398495E-01
        -11   -1    0    0    0    0  0.00000000000E+00  0.00000000000E+00  0.50000000000E+03  0.50000000000E+03  0.00000000000E+00 0.  1.
         11   -1    0    0    0    0 -0.00000000000E+00 -0.00000000000E+00 -0.50000000000E+03  0.50000000000E+03  0.00000000000E+00 0.  1.
        -11    1    1    2    0    0 -0.38230703708E+01 -0.26301066515E+01  0.29002687007E+03  0.29006399068E+03  0.00000000000E+00 0.  1.
         11    1    1    2    0    0  0.28139853986E+01  0.89266190409E+01 -0.49932434509E+03  0.49941205897E+03  0.00000000000E+00 0.  1.
        -15    1    1    2    0    0 -0.17307844404E+01 -0.89942800617E+01  0.20091966524E+03  0.20113617849E+03  0.17770000000E+01 0.  1.
         15    1    1    2    0    0  0.27398694126E+01  0.26977676723E+01  0.83778097846E+01  0.93877718655E+01  0.17770000000E+01 0.  1.
</event>
<event>
 6    1  0.3411206E-003  0.5158554E+03  0.7546771E-02  0.9365015E-01
        -11   -1    0    0    0    0  0.00000000000E+00  0.00000000000E+00  0.50000000000E+03  0.50000000000E+03  0.00000000000E+00 0.  1.
         11   -1    0    0    0    0 -0.00000000000E+00 -0.00000000000E+00 -0.50000000000E+03  0.50000000000E+03  0.00000000000E+00 0. -1.
        -11    1    1    2    0    0 -0.30129602238E+02  0.16156450601E+02  0.37783366573E+03  0.37937725655E+03  0.00000000000E+00 0.  1.
         11    1    1    2    0    0  0.74983833523E+01  0.43381921438E+02 -0.48213878353E+03  0.48414463071E+03  0.00000000000E+00 0. -1.
        -15    1    1    2    0    0  0.96427597201E+01 -0.69746277289E+02  0.75703053294E+02  0.10340036759E+03  0.17770000000E+01 0.  1.
         15    1    1    2    0    0  0.12988459166E+02  0.10207905251E+02  0.28602064507E+02  0.33077745150E+02  0.17770000000E+01 0. -1.
</event>
<event>
 6    1  0.3411206E-003  0.4901688E+03  0.7546771E-02  0.9422081E-01
        -11   -1    0    0    0    0  0.00000000000E+00  0.00000000000E+00  0.50000000000E+03  0.50000000000E+03  0.00000000000E+00 0. -1.
         11   -1    0    0    0    0 -0.00000000000E+00 -0.00000000000E+00 -0.50000000000E+03  0.50000000000E+03  0.00000000000E+00 0.  1.
        -11    1    1    2    0    0 -0.73778518273E+01  0.82546597268E+01  0.48783444510E+03  0.48796005772E+03  0.00000000000E+00 0. -1.
         11    1    1    2    0    0 -0.24555000514E+01 -0.82630793297E+01 -0.49236183384E+03  0.49243728879E+03  0.00000000000E+00 0.  1.
        -15    1    1    2    0    0  0.12944590085E+01 -0.70641557509E+01 -0.24292237427E+00  0.74023415807E+01  0.17770000000E+01 0.  1.
         15    1    1    2    0    0  0.85388928702E+01  0.70725753538E+01  0.47703111193E+01  0.12200311912E+02  0.17770000000E+01 0. -1.
</event>
<event>
 6    1  0.3411206E-003  0.5007288E+03  0.7546771E-02  0.9398181E-01
        -11   -1    0    0    0    0  0.00000000000E+00  0.00000000000E+00  0.50000000000E+03  0.50000000000E+03  0.00000000000E+00 0. -1.
         11   -1    0    0    0    0 -0.00000000000E+00 -0.00000000000E+00 -0.50000000000E+03  0.50000000000E+03  0.00000000000E+00 0. -1.
        -11    1    1    2    0    0  0.64182508788E+01  0.42864651139E+00  0.41764892665E+03  0.41769846016E+03  0.00000000000E+00 0. -1.
         11    1    1    2    0    0 -0.76145206472E+00 -0.68766073322E+01 -0.49922329981E+03  0.49927123951E+03  0.00000000000E+00 0. -1.
        -15    1    1    2    0    0  0.10392131868E+01 -0.26125889232E+01  0.31411456034E+02  0.31587068305E+02  0.17770000000E+01 0. -1.
         15    1    1    2    0    0 -0.66960120009E+01  0.90605497440E+01  0.50162917117E+02  0.51443232024E+02  0.17770000000E+01 0.  1.
</event>
<event>
 6    1  0.3411206E-003  0.5056344E+03  0.7546771E-02  0.9387290E-01
        -11   -1    0    0    0    0  0.00000000000E+00  0.00000000000E+00  0.50000000000E+03  0.50000000000E+03  0.00000000000E+00 0. -1.
         11   -1    0    0    0    0 -0.00000000000E+00 -0.00000000000E+00 -0.50000000000E+03  0.50000000000E+03  0.00000000000E+00 0. -1.
        -11    1    1    2    0    0  0.46426443421E+01  0.33760617048E+01  0.61411486249E+02  0.61679190838E+02  0.00000000000E+00 0. -1.
         11    1    1    2    0    0 -0.19225185538E+01  0.10292097587E+02 -0.49425468205E+03  0.49436556725E+03  0.00000000000E+00 0. -1.
        -15    1    1    2    0    0 -0.80377410865E+01 -0.26084763424E+02  0.28934582504E+02  0.39816930548E+02  0.17770000000E+01 0.  1.
         15    1    1    2    0    0  0.53176152983E+01  0.12416604131E+02  0.40390861330E+03  0.40413831137E+03  0.17770000000E+01 0. -1.
</event>
<event>
 6    1  0.3411206E-003  0.4694351E+03  0.7546771E-02  0.9470924E-01
        -11   -1    0    0    0    0  0.00000000000E+00  0.00000000000E+00  0.50000000000E+03  0.50000000000E+03  0.00000000000E+00 0. -1.
         11   -1    0    0    0    0 -0.00000000000E+00 -0.00000000000E+00 -0.50000000000E+03  0.50000000000E+03  0.00000000000E+00 0.  1.
        -11    1    1    2    0    0  0.92553899839E+01 -0.26497067999E+01  0.47666219666E+03  0.47675940778E+03  0.00000000000E+00 0. -1.
         11    1    1    2    0    0 -0.15252707732E+01 -0.23350585528E+02 -0.46202440841E+03  0.46261661261E+03  0.00000000000E+00 0.  1.
        -15    1    1    2    0    0  0.30240687024E+01  0.17670401430E+02 -0.33063063424E+02  0.37652516120E+02  0.17770000000E+01 0.  1.
         15    1    1    2    0    0 -0.10754187913E+02  0.83298908979E+01  0.18425275181E+02  0.22971463483E+02  0.17770000000E+01 0. -1.
</event>
<event>
 6    1  0.3411206E-003  0.4867621E+03  0.7546771E-02  0.9429928E-01
        -11   -1    0    0    0    0  0.00000000000E+00  0.00000000000E+00  0.50000000000E+03  0.50000000000E+03  0.00000000000E+00 0. -1.
         11   -1    0    0    0    0 -0.00000000000E+00 -0.00000000000E+00 -0.50000000000E+03  0.50000000000E+03  0.00000000000E+00 0. -1.
        -11    1    1    2    0    0 -0.61112930142E+01 -0.26004625295E+01  0.48974501064E+03  0.48979004253E+03  0.00000000000E+00 0. -1.
         11    1    1    2    0    0 -0.58700011068E+01  0.32960617226E+01 -0.48377949498E+03  0.48382633320E+03  0.00000000000E+00 0. -1.
        -15    1    1    2    0    0  0.38272655600E+01 -0.37126599181E+01 -0.13575789962E+02  0.14693250403E+02  0.17770000000E+01 0. -1.
         15    1    1    2    0    0  0.81540285610E+01  0.30170607250E+01  0.76102743015E+01  0.11690373866E+02  0.17770000000E+01 0. -1.
</event>
<event>
 6    1  0.3411206E-003  0.5004798E+03  0.7546771E-02  0.9398737E-01
        -11   -1    0    0    0    0  0.00000000000E+00  0.00000000000E+00  0.50000000000E+03  0.50000000000E+03  0.00000000000E+00 0.  1.
         11   -1    0    0    0    0 -0.00000000000E+00 -0.00000000000E+00 -0.50000000000E+03  0.50000000000E+03  0.00000000000E+00 0. -1.
        -11    1    1    2    0    0 -0.59882851040E+01  0.10438168657E+01  0.26336528746E+03  0.26343542615E+03  0.00000000000E+00 0.  1.
         11    1    1    2    0    0 -0.67207508579E+01  0.71271215887E+01 -0.49942410570E+03  0.49952017147E+03  0.00000000000E+00 0. -1.
        -15    1    1    2    0    0 -0.40689707352E-01  0.30846877694E+01  0.20366548215E+02  0.20675371084E+02  0.17770000000E+01 0.  1.
         15    1    1    2    0    0  0.12749725669E+02 -0.11255626224E+02  0.21569227002E+03  0.21636903129E+03  0.17770000000E+01 0.  1.
</event>
<event>
 6    1  0.3411206E-003  0.5017256E+03  0.7546771E-02  0.9395957E-01
        -11   -1    0    0    0    0  0.00000000000E+00  0.00000000000E+00  0.50000000000E+03  0.50000000000E+03  0.00000000000E+00 0.  1.
         11   -1    0    0    0    0 -0.00000000000E+00 -0.00000000000E+00 -0.50000000000E+03  0.50000000000E+03  0.00000000000E+00 0.  1.
        -11    1    1    2    0    0  0.85550478855E+01 -0.40448106374E+01  0.49818454128E+03  0.49827440884E+03  0.00000000000E+00 0.  1.
         11    1    1    2    0    0  0.19850878316E+01  0.65222320834E+01 -0.44929062614E+03  0.44934234924E+03  0.00000000000E+00 0.  1.
        -15    1    1    2    0    0 -0.80767467313E+01 -0.17696809086E+01 -0.48509093437E+02  0.49240790848E+02  0.17770000000E+01 0. -1.
         15    1    1    2    0    0 -0.24633889858E+01 -0.70774053746E+00 -0.38482170652E+00  0.31424510672E+01  0.17770000000E+01 0.  1.
</event>
<event>
 6    1  0.3411206E-003  0.5034155E+03  0.7546771E-02  0.9392200E-01
        -11   -1    0    0    0    0  0.00000000000E+00  0.00000000000E+00  0.50000000000E+03  0.50000000000E+03  0.00000000000E+00 0.  1.
         11   -1    0    0    0    0 -0.00000000000E+00 -0.00000000000E+00 -0.50000000000E+03  0.50000000000E+03  0.00000000000E+00 0.  1.
        -11    1    1    2    0    0 -0.11950023413E+02 -0.22221272758E+02  0.49594312470E+03  0.49658450536E+03  0.00000000000E+00 0.  1.
         11    1    1    2    0    0 -0.85192801791E+00 -0.14519199191E+02 -0.32822829060E+03  0.32855036703E+03  0.00000000000E+00 0.  1.
        -15    1    1    2    0    0  0.52814127268E+01 -0.44987891578E+01 -0.32979256095E+02  0.33747910837E+02  0.17770000000E+01 0. -1.
         15    1    1    2    0    0  0.75205387040E+01  0.41239261107E+02 -0.13473557801E+03  0.14111721677E+03  0.17770000000E+01 0.  1.
</event>
<event>
 6    1  0.3411206E-003  0.5030186E+03  0.7546771E-02  0.9393081E-01
        -11   -1    0    0    0    0  0.00000000000E+00  0.00000000000E+00  0.50000000000E+03  0.50000000000E+03  0.00000000000E+00 0. -1.
         11   -1    0    0    0    0 -0.00000000000E+00 -0.00000000000E+00 -0.50000000000E+03  0.50000000000E+03  0.00000000000E+00 0. -1.
        -11    1    1    2    0    0  0.19353938079E+02  0.49236081379E+01  0.30102592888E+03  0.30168763100E+03  0.00000000000E+00 0. -1.
         11    1    1    2    0    0 -0.65829822047E+01 -0.74446938502E+01 -0.49688200739E+03  0.49698137630E+03  0.00000000000E+00 0. -1.
        -15    1    1    2    0    0 -0.36411163644E+01  0.18169006877E+01  0.19054585409E+03  0.19059758418E+03  0.17770000000E+01 0. -1.
         15    1    1    2    0    0 -0.91298395096E+01  0.70418502456E+00  0.53102244186E+01  0.10733408517E+02  0.17770000000E+01 0.  1.
</event>
<event>
 6    1  0.3411206E-003  0.5014375E+03  0.7546771E-02  0.9396599E-01
        -11   -1    0    0    0    0  0.00000000000E+00  0.00000000000E+00  0.50000000000E+03  0.50000000000E+03  0.00000000000E+00 0. -1.
         11   -1    0    0    0    0 -0.00000000000E+00 -0.00000000000E+00 -0.50000000000E+03  0.50000000000E+03  0.00000000000E+00 0. -1.
        -11    1    1    2    0    0 -0.64254333594E+01 -0.22734552744E+01  0.42269461476E+03  0.42274956196E+03  0.00000000000E+00 0. -1.
         11    1    1    2    0    0 -0.80568098320E+01  0.99050659565E+01 -0.49839895666E+03  0.49856247604E+03  0.00000000000E+00 0. -1.
        -15    1    1    2    0    0  0.81198591390E+01 -0.61242495119E+01  0.19389773231E+02  0.21967238777E+02  0.17770000000E+01 0.  1.
         15    1    1    2    0    0  0.63623840525E+01 -0.15073611702E+01  0.56314568676E+02  0.56720723221E+02  0.17770000000E+01 0. -1.
</event>
<event>
 6    1  0.3411206E-003  0.4841210E+03  0.7546771E-02  0.9436058E-01
        -11   -1    0    0    0    0  0.00000000000E+00  0.00000000000E+00  0.50000000000E+03  0.50000000000E+03  0.00000000000E+00 0. -1.
         11   -1    0    0    0    0 -0.00000000000E+00 -0.00000000000E+00 -0.50000000000E+03  0.50000000000E+03  0.00000000000E+00 0. -1.
        -11    1    1    2    0    0  0.32493468154E+01  0.64380073694E+01  0.48394043889E+03  0.48399416793E+03  0.00000000000E+00 0. -1.
         11    1    1    2    0    0  0.45538984069E+01 -0.12683622445E+02 -0.48411196425E+03  0.48429950051E+03  0.00000000000E+00 0. -1.
        -15    1    1    2    0    0 -0.44624669379E+00  0.11096138746E+02 -0.12083779972E+02  0.16507540658E+02  0.17770000000E+01 0.  1.
         15    1    1    2    0    0 -0.73569985285E+01 -0.48505236705E+01  0.12255305328E+02  0.15198790903E+02  0.17770000000E+01 0. -1.
</event>
<event>
 6    1  0.3411206E-003  0.5007616E+03  0.7546771E-02  0.9398107E-01
        -11   -1    0    0    0    0  0.00000000000E+00  0.00000000000E+00  0.50000000000E+03  0.50000000000E+03  0.00000000000E+00 0. -1.
         11   -1    0    0    0    0 -0.00000000000E+00 -0.00000000000E+00 -0.50000000000E+03  0.50000000000E+03  0.00000000000E+00 0.  1.
        -11    1    1    2    0    0 -0.40088162516E+00  0.57507367881E+01  0.42382650302E+03  0.42386570556E+03  0.00000000000E+00 0. -1.
         11    1    1    2    0    0  0.63603371307E+01  0.38164899598E+01 -0.49918327411E+03  0.49923838057E+03  0.00000000000E+00 0.  1.
        -15    1    1    2    0    0 -0.66793782703E+01 -0.53782896767E+01  0.28551219213E+02  0.29864191626E+02  0.17770000000E+01 0.  1.
         15    1    1    2    0    0  0.71992276474E+00 -0.41889370713E+01  0.46805551872E+02  0.47031722248E+02  0.17770000000E+01 0. -1.
</event>
<event>
 6    1  0.3411206E-003  0.5063193E+03  0.7546771E-02  0.9385780E-01
        -11   -1    0    0    0    0  0.00000000000E+00  0.00000000000E+00  0.50000000000E+03  0.50000000000E+03  0.00000000000E+00 0. -1.
         11   -1    0    0    0    0 -0.00000000000E+00 -0.00000000000E+00 -0.50000000000E+03  0.50000000000E+03  0.00000000000E+00 0. -1.
        -11    1    1    2    0    0  0.15426950407E+02  0.97030508775E+01  0.49334417029E+03  0.49368067650E+03  0.00000000000E+00 0. -1.
         11    1    1    2    0    0 -0.11420773777E+02  0.23228524195E+02 -0.28645925374E+03  0.28762632435E+03  0.00000000000E+00 0. -1.
        -15    1    1    2    0    0 -0.25785029714E+02 -0.24895347158E+02 -0.17805839493E+03  0.18163864071E+03  0.17770000000E+01 0. -1.
         15    1    1    2    0    0  0.21778853084E+02 -0.80362279142E+01 -0.28826521622E+02  0.37054358429E+02  0.17770000000E+01 0.  1.
</event>
<event>
 6    1  0.3411206E-003  0.5008748E+03  0.7546771E-02  0.9397854E-01
        -11   -1    0    0    0    0  0.00000000000E+00  0.00000000000E+00  0.50000000000E+03  0.50000000000E+03  0.00000000000E+00 0. -1.
         11   -1    0    0    0    0 -0.00000000000E+00 -0.00000000000E+00 -0.50000000000E+03  0.50000000000E+03  0.00000000000E+00 0. -1.
        -11    1    1    2    0    0 -0.22788386458E-01  0.91022019470E+01  0.49904220612E+03  0.49912520883E+03  0.00000000000E+00 0. -1.
         11    1    1    2    0    0  0.92409159766E+01 -0.45792393259E+01 -0.28431375931E+03  0.28450075166E+03  0.00000000000E+00 0. -1.
        -15    1    1    2    0    0  0.32152259484E+00 -0.26573600958E+01 -0.29394761791E+01  0.43546743466E+01  0.17770000000E+01 0.  1.
         15    1    1    2    0    0 -0.95396501849E+01 -0.18656025253E+01 -0.21178897062E+03  0.21201936517E+03  0.17770000000E+01 0. -1.
</event>
<event>
 6    1  0.3411206E-003  0.5955475E+03  0.7546771E-02  0.9208223E-01
        -11   -1    0    0    0    0  0.00000000000E+00  0.00000000000E+00  0.50000000000E+03  0.50000000000E+03  0.00000000000E+00 0.  1.
         11   -1    0    0    0    0 -0.00000000000E+00 -0.00000000000E+00 -0.50000000000E+03  0.50000000000E+03  0.00000000000E+00 0. -1.
        -11    1    1    2    0    0  0.33350283663E+02  0.10585406955E+02  0.40293610206E+03  0.40445246272E+03  0.00000000000E+00 0.  1.
         11    1    1    2    0    0 -0.40432211105E+01 -0.52636102495E+01 -0.26895584006E+03  0.26903772437E+03  0.00000000000E+00 0. -1.
        -15    1    1    2    0    0 -0.74347007028E+02 -0.56827889688E+01  0.79097199641E+02  0.10871658689E+03  0.17770000000E+01 0. -1.
         15    1    1    2    0    0  0.45039944476E+02  0.36099226303E+00 -0.21307746164E+03  0.21779322602E+03  0.17770000000E+01 0.  1.
</event>
<event>
 6    1  0.3411206E-003  0.5765263E+03  0.7546771E-02  0.9243183E-01
        -11   -1    0    0    0    0  0.00000000000E+00  0.00000000000E+00  0.50000000000E+03  0.50000000000E+03  0.00000000000E+00 0.  1.
         11   -1    0    0    0    0 -0.00000000000E+00 -0.00000000000E+00 -0.50000000000E+03  0.50000000000E+03  0.00000000000E+00 0.  1.
        -11    1    1    2    0    0  0.11068390634E+02  0.34700747081E+01  0.42331478331E+03  0.42347367859E+03  0.00000000000E+00 0.  1.
         11    1    1    2    0    0  0.97031544970E+01  0.12488529358E+01 -0.37938345655E+03  0.37950957557E+03  0.00000000000E+00 0.  1.
        -15    1    1    2    0    0  0.36013097039E+01  0.13249781028E+02 -0.11704484918E+03  0.11786085260E+03  0.17770000000E+01 0.  1.
         15    1    1    2    0    0 -0.24372854835E+02 -0.17968708672E+02  0.73113522420E+02  0.79155893235E+02  0.17770000000E+01 0. -1.
</event>
<event>
 6    1  0.3411206E-003  0.5067112E+03  0.7546771E-02  0.9384917E-01
        -11   -1    0    0    0    0  0.00000000000E+00  0.00000000000E+00  0.50000000000E+03  0.50000000000E+03  0.00000000000E+00 0. -1.
         11   -1    0    0    0    0 -0.00000000000E+00 -0.00000000000E+00 -0.50000000000E+03  0.50000000000E+03  0.00000000000E+00 0.  1.
        -11    1    1    2    0    0 -0.86964881041E-01  0.23047065631E+01  0.16272534518E+03  0.16274168857E+03  0.00000000000E+00 0. -1.
         11    1    1    2    0    0  0.32394142810E+00 -0.14783727589E+02 -0.49306710702E+03  0.49328879529E+03  0.00000000000E+00 0.  1.
        -15    1    1    2    0    0  0.14506760732E+02  0.39998046832E+01  0.21172588516E+01  0.15299838512E+02  0.17770000000E+01 0.  1.
         15    1    1    2    0    0 -0.14743737280E+02  0.84792163428E+01  0.32822450299E+03  0.32866967762E+03  0.17770000000E+01 0. -1.
</event>
<event>
 6    1  0.3411206E-003  0.5064695E+03  0.7546771E-02  0.9385449E-01
        -11   -1    0    0    0    0  0.00000000000E+00  0.00000000000E+00  0.50000000000E+03  0.50000000000E+03  0.00000000000E+00 0. -1.
         11   -1    0    0    0    0 -0.00000000000E+00 -0.00000000000E+00 -0.50000000000E+03  0.50000000000E+03  0.00000000000E+00 0.  1.
        -11    1    1    2    0    0 -0.44674874684E+01  0.93590019957E+01  0.48101519717E+03  0.48112697832E+03  0.00000000000E+00 0. -1.
         11    1    1    2    0    0 -0.80138948299E+01  0.25097721137E+01 -0.49345903534E+03  0.49353048642E+03  0.00000000000E+00 0.  1.
        -15    1    1    2    0    0 -0.20160871751E+01 -0.46021827353E+01  0.53555515916E+01  0.75554189346E+01  0.17770000000E+01 0. -1.
         15    1    1    2    0    0  0.14497469473E+02 -0.72665913742E+01  0.70882865811E+01  0.17787116320E+02  0.17770000000E+01 0.  1.
</event>
<event>
 6    1  0.3411206E-003  0.5003194E+03  0.7546771E-02  0.9399095E-01
        -11   -1    0    0    0    0  0.00000000000E+00  0.00000000000E+00  0.50000000000E+03  0.50000000000E+03  0.00000000000E+00 0.  1.
         11   -1    0    0    0    0 -0.00000000000E+00 -0.00000000000E+00 -0.50000000000E+03  0.50000000000E+03  0.00000000000E+00 0.  1.
        -11    1    1    2    0    0  0.58304939996E+01 -0.20959284561E+01  0.34955238440E+03  0.34960728971E+03  0.00000000000E+00 0.  1.
         11    1    1    2    0    0 -0.29886400813E+01 -0.60617011440E+01 -0.49963485905E+03  0.49968056653E+03  0.00000000000E+00 0.  1.
        -15    1    1    2    0    0  0.25891613629E+01  0.16442737746E+01  0.17996634363E+02  0.18342409062E+02  0.17770000000E+01 0.  1.
         15    1    1    2    0    0 -0.54310152812E+01  0.65133558256E+01  0.13208584028E+03  0.13236973470E+03  0.17770000000E+01 0. -1.
</event>
<event>
 6    1  0.3411206E-003  0.5391418E+03  0.7546771E-02  0.9316249E-01
        -11   -1    0    0    0    0  0.00000000000E+00  0.00000000000E+00  0.50000000000E+03  0.50000000000E+03  0.00000000000E+00 0. -1.
         11   -1    0    0    0    0 -0.00000000000E+00 -0.00000000000E+00 -0.50000000000E+03  0.50000000000E+03  0.00000000000E+00 0. -1.
        -11    1    1    2    0    0  0.21374135342E+02 -0.55922484686E+00  0.46036197811E+03  0.46085823990E+03  0.00000000000E+00 0. -1.
         11    1    1    2    0    0 -0.12231589513E+02 -0.24706949961E+02 -0.39922513488E+03  0.40017590317E+03  0.00000000000E+00 0. -1.
        -15    1    1    2    0    0  0.71858147041E+01  0.36535796561E+02 -0.93672062233E+02  0.10081722737E+03  0.17770000000E+01 0. -1.
         15    1    1    2    0    0 -0.16328360533E+02 -0.11269621753E+02  0.32535219010E+02  0.38148629558E+02  0.17770000000E+01 0.  1.
</event>
<event>
 6    1  0.3411206E-003  0.5126332E+03  0.7546771E-02  0.9371977E-01
        -11   -1    0    0    0    0  0.00000000000E+00  0.00000000000E+00  0.50000000000E+03  0.50000000000E+03  0.00000000000E+00 0.  1.
         11   -1    0    0    0    0 -0.00000000000E+00 -0.00000000000E+00 -0.50000000000E+03  0.50000000000E+03  0.00000000000E+00 0. -1.
        -11    1    1    2    0    0 -0.13626636679E+01 -0.58733010245E+01  0.94608087228E+02  0.94800014167E+02  0.00000000000E+00 0.  1.
         11    1    1    2    0    0  0.11354621680E+02 -0.36681999086E+01 -0.48722067103E+03  0.48736676683E+03  0.00000000000E+00 0. -1.
        -15    1    1    2    0    0  0.20735404571E+00  0.78403680267E+01 -0.11253098084E+02  0.13831280201E+02  0.17770000000E+01 0. -1.
         15    1    1    2    0    0 -0.10199312058E+02  0.17011329064E+01  0.40386568189E+03  0.40400193880E+03  0.17770000000E+01 0.  1.
</event>
<event>
 6    1  0.3411206E-003  0.5030930E+03  0.7546771E-02  0.9392915E-01
        -11   -1    0    0    0    0  0.00000000000E+00  0.00000000000E+00  0.50000000000E+03  0.50000000000E+03  0.00000000000E+00 0.  1.
         11   -1    0    0    0    0 -0.00000000000E+00 -0.00000000000E+00 -0.50000000000E+03  0.50000000000E+03  0.00000000000E+00 0.  1.
        -11    1    1    2    0    0 -0.13356595209E+02  0.12841415399E+02  0.49656141659E+03  0.49690697422E+03  0.00000000000E+00 0.  1.
         11    1    1    2    0    0  0.44153310277E+01 -0.30266005014E+01 -0.38984762425E+03  0.38988437465E+03  0.00000000000E+00 0.  1.
        -15    1    1    2    0    0 -0.31962644594E+01 -0.14509271541E+01 -0.92728970586E+02  0.92812396861E+02  0.17770000000E+01 0.  1.
         15    1    1    2    0    0  0.12137528641E+02 -0.83638877432E+01 -0.13984821752E+02  0.20396254267E+02  0.17770000000E+01 0. -1.
</event>
<event>
 6    1  0.3411206E-003  0.5045815E+03  0.7546771E-02  0.9389616E-01
        -11   -1    0    0    0    0  0.00000000000E+00  0.00000000000E+00  0.50000000000E+03  0.50000000000E+03  0.00000000000E+00 0.  1.
         11   -1    0    0    0    0 -0.00000000000E+00 -0.00000000000E+00 -0.50000000000E+03  0.50000000000E+03  0.00000000000E+00 0.  1.
        -11    1    1    2    0    0  0.80401307843E+01 -0.13149684046E+02  0.49517869784E+03  0.49541851064E+03  0.00000000000E+00 0.  1.
         11    1    1    2    0    0 -0.94390766963E+01  0.85223373715E+00 -0.48018482818E+03  0.48027834813E+03  0.00000000000E+00 0.  1.
        -15    1    1    2    0    0  0.24888464644E+01  0.64080257106E+01  0.96440304887E+00  0.71655392310E+01  0.17770000000E+01 0. -1.
         15    1    1    2    0    0 -0.10899005525E+01  0.58894245979E+01 -0.15958272710E+02  0.17137601997E+02  0.17770000000E+01 0.  1.
</event>
<event>
 6    1  0.3411206E-003  0.5008380E+03  0.7546771E-02  0.9397937E-01
        -11   -1    0    0    0    0  0.00000000000E+00  0.00000000000E+00  0.50000000000E+03  0.50000000000E+03  0.00000000000E+00 0. -1.
         11   -1    0    0    0    0 -0.00000000000E+00 -0.00000000000E+00 -0.50000000000E+03  0.50000000000E+03  0.00000000000E+00 0. -1.
        -11    1    1    2    0    0 -0.41755478190E+01  0.36560872900E+01  0.36654568409E+03  0.36658769851E+03  0.00000000000E+00 0. -1.
         11    1    1    2    0    0  0.83189736920E+01 -0.91404872162E+01 -0.49900895940E+03  0.49916199314E+03  0.00000000000E+00 0. -1.
        -15    1    1    2    0    0 -0.63111488315E+01  0.56369718116E+01  0.20462468886E+02  0.22214328995E+02  0.17770000000E+01 0. -1.
         15    1    1    2    0    0  0.21677229584E+01 -0.15257188537E+00  0.11200080643E+03  0.11203597936E+03  0.17770000000E+01 0.  1.
</event>
<event>
 6    1  0.3411206E-003  0.5071025E+03  0.7546771E-02  0.9384056E-01
        -11   -1    0    0    0    0  0.00000000000E+00  0.00000000000E+00  0.50000000000E+03  0.50000000000E+03  0.00000000000E+00 0.  1.
         11   -1    0    0    0    0 -0.00000000000E+00 -0.00000000000E+00 -0.50000000000E+03  0.50000000000E+03  0.00000000000E+00 0.  1.
        -11    1    1    2    0    0 -0.99360112458E+01  0.62132379789E+01  0.46946689297E+03  0.46961313040E+03  0.00000000000E+00 0.  1.
         11    1    1    2    0    0 -0.46694178858E+01  0.61646870977E+01 -0.49283687755E+03  0.49289754990E+03  0.00000000000E+00 0.  1.
        -15    1    1    2    0    0  0.17674148748E+01 -0.34178435598E+01 -0.40516479425E+01  0.58633599573E+01  0.17770000000E+01 0. -1.
         15    1    1    2    0    0  0.12838014257E+02 -0.89600815168E+01  0.27421632519E+02  0.31625959746E+02  0.17770000000E+01 0.  1.
</event>
<event>
 6    1  0.3411206E-003  0.5046510E+03  0.7546771E-02  0.9389463E-01
        -11   -1    0    0    0    0  0.00000000000E+00  0.00000000000E+00  0.50000000000E+03  0.50000000000E+03  0.00000000000E+00 0. -1.
         11   -1    0    0    0    0 -0.00000000000E+00 -0.00000000000E+00 -0.50000000000E+03  0.50000000000E+03  0.00000000000E+00 0. -1.
        -11    1    1    2    0    0  0.26434841874E+00 -0.36137699250E+02  0.49402899562E+03  0.49534902008E+03  0.00000000000E+00 0. -1.
         11    1    1    2    0    0 -0.74116544840E+01 -0.40763619138E+01 -0.28571458568E+03  0.28583976949E+03  0.00000000000E+00 0. -1.
        -15    1    1    2    0    0  0.20209996326E+00  0.31467467714E+02 -0.44085970571E+02  0.54193845581E+02  0.17770000000E+01 0. -1.
         15    1    1    2    0    0  0.69452061020E+01  0.87465934497E+01 -0.16422843936E+03  0.16461736485E+03  0.17770000000E+01 0.  1.
</event>
<event>
 6    1  0.3411206E-003  0.5402036E+03  0.7546771E-02  0.9314088E-01
        -11   -1    0    0    0    0  0.00000000000E+00  0.00000000000E+00  0.50000000000E+03  0.50000000000E+03  0.00000000000E+00 0.  1.
         11   -1    0    0    0    0 -0.00000000000E+00 -0.00000000000E+00 -0.50000000000E+03  0.50000000000E+03  0.00000000000E+00 0. -1.
        -11    1    1    2    0    0 -0.11016061211E+02 -0.71033257881E+00  0.45966390153E+03  0.45979643381E+03  0.00000000000E+00 0.  1.
         11    1    1    2    0    0  0.26780483219E+02 -0.70769602231E+01 -0.41874236167E+03  0.41965753074E+03  0.00000000000E+00 0. -1.
        -15    1    1    2    0    0  0.11747531784E+02  0.12764969848E+02  0.35281781319E+02  0.39356203834E+02  0.17770000000E+01 0. -1.
         15    1    1    2    0    0 -0.27511953792E+02 -0.49776770460E+01 -0.76203321175E+02  0.81189831613E+02  0.17770000000E+01 0.  1.
</event>
<event>
 6    1  0.3411206E-003  0.5122778E+03  0.7546771E-02  0.9372749E-01
        -11   -1    0    0    0    0  0.00000000000E+00  0.00000000000E+00  0.50000000000E+03  0.50000000000E+03  0.00000000000E+00 0. -1.
         11   -1    0    0    0    0 -0.00000000000E+00 -0.00000000000E+00 -0.50000000000E+03  0.50000000000E+03  0.00000000000E+00 0.  1.
        -11    1    1    2    0    0 -0.10941213628E+02  0.33258925982E+01  0.48758815882E+03  0.48772224097E+03  0.00000000000E+00 0. -1.
         11    1    1    2    0    0  0.52774317606E+01 -0.74836840701E+01 -0.46191812238E+03  0.46200888367E+03  0.00000000000E+00 0.  1.
        -15    1    1    2    0    0 -0.34073381708E+01  0.42500219235E+01 -0.35973206669E+02  0.36426665601E+02  0.17770000000E+01 0.  1.
         15    1    1    2    0    0  0.90711200380E+01 -0.92230451566E-01  0.10303170224E+02  0.13842209753E+02  0.17770000000E+01 0. -1.
</event>
<event>
 6    1  0.3411206E-003  0.5051895E+03  0.7546771E-02  0.9388272E-01
        -11   -1    0    0    0    0  0.00000000000E+00  0.00000000000E+00  0.50000000000E+03  0.50000000000E+03  0.00000000000E+00 0. -1.
         11   -1    0    0    0    0 -0.00000000000E+00 -0.00000000000E+00 -0.50000000000E+03  0.50000000000E+03  0.00000000000E+00 0.  1.
        -11    1    1    2    0    0 -0.65748974076E+01  0.11874804601E+01  0.49476540919E+03  0.49481051880E+03  0.00000000000E+00 0. -1.
         11    1    1    2    0    0  0.73675313871E+01  0.41459745479E+01 -0.48389849186E+03  0.48397233397E+03  0.00000000000E+00 0.  1.
        -15    1    1    2    0    0 -0.69778587559E+01 -0.76629944691E+01 -0.96372766261E+01  0.14263478777E+02  0.17770000000E+01 0. -1.
         15    1    1    2    0    0  0.61852247764E+01  0.23295394612E+01 -0.12296407027E+01  0.69536684486E+01  0.17770000000E+01 0.  1.
</event>
<event>
 6    1  0.3411206E-003  0.5024718E+03  0.7546771E-02  0.9394296E-01
        -11   -1    0    0    0    0  0.00000000000E+00  0.00000000000E+00  0.50000000000E+03  0.50000000000E+03  0.00000000000E+00 0. -1.
         11   -1    0    0    0    0 -0.00000000000E+00 -0.00000000000E+00 -0.50000000000E+03  0.50000000000E+03  0.00000000000E+00 0. -1.
        -11    1    1    2    0    0 -0.74477427659E+01  0.81799556944E+01  0.20086854664E+03  0.20117294445E+03  0.00000000000E+00 0. -1.
         11    1    1    2    0    0 -0.13957179425E+01 -0.89112675049E+01 -0.49744641696E+03  0.49752818660E+03  0.00000000000E+00 0. -1.
        -15    1    1    2    0    0 -0.24091221044E+01  0.30632389207E+01 -0.20525752431E+00  0.42880253790E+01  0.17770000000E+01 0.  1.
         15    1    1    2    0    0  0.11252582813E+02 -0.23319271103E+01  0.29678312784E+03  0.29701084358E+03  0.17770000000E+01 0. -1.
</event>
<event>
 6    1  0.3411206E-003  0.5083454E+03  0.7546771E-02  0.9381327E-01
        -11   -1    0    0    0    0  0.00000000000E+00  0.00000000000E+00  0.50000000000E+03  0.50000000000E+03  0.00000000000E+00 0.  1.
         11   -1    0    0    0    0 -0.00000000000E+00 -0.00000000000E+00 -0.50000000000E+03  0.50000000000E+03  0.00000000000E+00 0. -1.
        -11    1    1    2    0    0 -0.69159821512E+01 -0.78349229320E+00  0.49160528392E+03  0.49165455337E+03  0.00000000000E+00 0.  1.
         11    1    1    2    0    0  0.71677489183E+01  0.16716991576E+00 -0.20597915941E+03  0.20610390263E+03  0.00000000000E+00 0. -1.
        -15    1    1    2    0    0 -0.89188546397E+01  0.37695956109E+01 -0.29116905484E+03  0.29133542875E+03  0.17770000000E+01 0. -1.
         15    1    1    2    0    0  0.86670878725E+01 -0.31532732335E+01  0.55429303217E+01  0.10906115249E+02  0.17770000000E+01 0.  1.
</event>
<event>
 6    1  0.3411206E-003  0.4647613E+03  0.7546771E-02  0.9482306E-01
        -11   -1    0    0    0    0  0.00000000000E+00  0.00000000000E+00  0.50000000000E+03  0.50000000000E+03  0.00000000000E+00 0. -1.
         11   -1    0    0    0    0 -0.00000000000E+00 -0.00000000000E+00 -0.50000000000E+03  0.50000000000E+03  0.00000000000E+00 0.  1.
        -11    1    1    2    0    0  0.73029493046E+01  0.10814220877E+02  0.46719795563E+03  0.46738015596E+03  0.00000000000E+00 0. -1.
         11    1    1    2    0    0 -0.40097729243E+01 -0.27415887212E+02 -0.46148299541E+03  0.46231403202E+03  0.00000000000E+00 0.  1.
        -15    1    1    2    0    0 -0.22323937515E+02  0.31685979731E+02 -0.18296559369E+02  0.42898500107E+02  0.17770000000E+01 0.  1.
         15    1    1    2    0    0  0.19030761134E+02 -0.15084313397E+02  0.12581599153E+02  0.27407311912E+02  0.17770000000E+01 0. -1.
</event>
<event>
 6    1  0.3411206E-003  0.5041725E+03  0.7546771E-02  0.9390522E-01
        -11   -1    0    0    0    0  0.00000000000E+00  0.00000000000E+00  0.50000000000E+03  0.50000000000E+03  0.00000000000E+00 0. -1.
         11   -1    0    0    0    0 -0.00000000000E+00 -0.00000000000E+00 -0.50000000000E+03  0.50000000000E+03  0.00000000000E+00 0. -1.
        -11    1    1    2    0    0  0.11166052367E+02 -0.17643107707E+02  0.49538766934E+03  0.49582749310E+03  0.00000000000E+00 0. -1.
         11    1    1    2    0    0  0.18624285818E+01  0.79484689124E+01 -0.42603406821E+03  0.42611227872E+03  0.00000000000E+00 0. -1.
        -15    1    1    2    0    0 -0.85894322157E+01 -0.83946843359E+01 -0.96971069186E+01  0.15538361641E+02  0.17770000000E+01 0.  1.
         15    1    1    2    0    0 -0.44390487332E+01  0.18089323130E+02 -0.59656494211E+02  0.62521866539E+02  0.17770000000E+01 0. -1.
</event>
<event>
 6    1  0.3411206E-003  0.5073821E+03  0.7546771E-02  0.9383442E-01
        -11   -1    0    0    0    0  0.00000000000E+00  0.00000000000E+00  0.50000000000E+03  0.50000000000E+03  0.00000000000E+00 0. -1.
         11   -1    0    0    0    0 -0.00000000000E+00 -0.00000000000E+00 -0.50000000000E+03  0.50000000000E+03  0.00000000000E+00 0.  1.
        -11    1    1    2    0    0 -0.10202008290E+01  0.17881196580E+02  0.42288695088E+03  0.42326605253E+03  0.00000000000E+00 0. -1.
         11    1    1    2    0    0  0.11185201983E+02  0.29243358905E+01 -0.49248226194E+03  0.49261794406E+03  0.00000000000E+00 0.  1.
        -15    1    1    2    0    0  0.83646617261E+01 -0.93575451002E+01  0.58015733263E+02  0.59384461361E+02  0.17770000000E+01 0.  1.
         15    1    1    2    0    0 -0.18529662880E+02 -0.11447987371E+02  0.11579577799E+02  0.24731542052E+02  0.17770000000E+01 0. -1.
</event>
<event>
 6    1  0.3411206E-003  0.5419142E+03  0.7546771E-02  0.9310618E-01
        -11   -1    0    0    0    0  0.00000000000E+00  0.00000000000E+00  0.50000000000E+03  0.50000000000E+03  0.00000000000E+00 0. -1.
         11   -1    0    0    0    0 -0.00000000000E+00 -0.00000000000E+00 -0.50000000000E+03  0.50000000000E+03  0.00000000000E+00 0. -1.
        -11    1    1    2    0    0 -0.35110260979E+02 -0.48312797767E+02  0.24397142602E+03  0.25117506558E+03  0.00000000000E+00 0. -1.
         11    1    1    2    0    0 -0.58809660042E+01 -0.30651312371E+01 -0.45803779546E+03  0.45808580295E+03  0.00000000000E+00 0. -1.
        -15    1    1    2    0    0  0.61355559065E+02  0.11299432701E+03  0.16591437812E+03  0.20991179376E+03  0.17770000000E+01 0.  1.
         15    1    1    2    0    0 -0.20364332081E+02 -0.61616398002E+02  0.48151991328E+02  0.80827337713E+02  0.17770000000E+01 0. -1.
</event>
<event>
 6    1  0.3411206E-003  0.5045449E+03  0.7546771E-02  0.9389697E-01
        -11   -1    0    0    0    0  0.00000000000E+00  0.00000000000E+00  0.50000000000E+03  0.50000000000E+03  0.00000000000E+00 0.  1.
         11   -1    0    0    0    0 -0.00000000000E+00 -0.00000000000E+00 -0.50000000000E+03  0.50000000000E+03  0.00000000000E+00 0. -1.
        -11    1    1    2    0    0  0.28540036822E+01  0.64166056302E+01  0.45112846850E+03  0.45118312607E+03  0.00000000000E+00 0.  1.
         11    1    1    2    0    0  0.58646936926E+01 -0.52289187301E+01 -0.49539275975E+03  0.49545506621E+03  0.00000000000E+00 0. -1.
        -15    1    1    2    0    0 -0.34411077504E+01 -0.80530171730E+01  0.43589728227E+02  0.44496229549E+02  0.17770000000E+01 0. -1.
         15    1    1    2    0    0 -0.52775896245E+01  0.68653302729E+01  0.67456302470E+00  0.88655781692E+01  0.17770000000E+01 0. -1.
</event>
<event>
 6    1  0.3411206E-003  0.5015424E+03  0.7546771E-02  0.9396365E-01
        -11   -1    0    0    0    0  0.00000000000E+00  0.00000000000E+00  0.50000000000E+03  0.50000000000E+03  0.00000000000E+00 0. -1.
         11   -1    0    0    0    0 -0.00000000000E+00 -0.00000000000E+00 -0.50000000000E+03  0.50000000000E+03  0.00000000000E+00 0.  1.
        -11    1    1    2    0    0 -0.18620540286E+02  0.15883461051E+02  0.49785634186E+03  0.49845756689E+03  0.00000000000E+00 0. -1.
         11    1    1    2    0    0  0.28489059503E+00  0.85825039650E+00 -0.42524779908E+02  0.42534393879E+02  0.00000000000E+00 0.  1.
        -15    1    1    2    0    0 -0.40229683610E+01 -0.20201743475E+02 -0.37395785932E+03  0.37452894813E+03  0.17770000000E+01 0.  1.
         15    1    1    2    0    0  0.22358618052E+02  0.34600320276E+01 -0.81373702641E+02  0.84479091101E+02  0.17770000000E+01 0. -1.
</event>
<event>
 6    1  0.3411206E-003  0.5081011E+03  0.7546771E-02  0.9381863E-01
        -11   -1    0    0    0    0  0.00000000000E+00  0.00000000000E+00  0.50000000000E+03  0.50000000000E+03  0.00000000000E+00 0.  1.
         11   -1    0    0    0    0 -0.00000000000E+00 -0.00000000000E+00 -0.50000000000E+03  0.50000000000E+03  0.00000000000E+00 0. -1.
        -11    1    1    2    0    0 -0.85966159918E+01 -0.13159447225E+02  0.49164766035E+03  0.49189886642E+03  0.00000000000E+00 0.  1.
         11    1    1    2    0    0 -0.18812047908E+02 -0.73511460805E+00 -0.18273382936E+03  0.18370107766E+03  0.00000000000E+00 0. -1.
        -15    1    1    2    0    0  0.43339496083E+02 -0.58265510604E+01 -0.28850507154E+03  0.29180574815E+03  0.17770000000E+01 0.  1.
         15    1    1    2    0    0 -0.15930832183E+02  0.19721112893E+02 -0.20408759449E+02  0.32594307771E+02  0.17770000000E+01 0. -1.
</event>
<event>
 6    1  0.3411206E-003  0.5001954E+03  0.7546771E-02  0.9399373E-01
        -11   -1    0    0    0    0  0.00000000000E+00  0.00000000000E+00  0.50000000000E+03  0.50000000000E+03  0.00000000000E+00 0.  1.
         11   -1    0    0    0    0 -0.00000000000E+00 -0.00000000000E+00 -0.50000000000E+03  0.50000000000E+03  0.00000000000E+00 0.  1.
        -11    1    1    2    0    0  0.10350369018E+01  0.54336251712E+01  0.13196047870E+03  0.13207635490E+03  0.00000000000E+00 0.  1.
         11    1    1    2    0    0  0.76662014714E+01  0.11648605028E+01 -0.49974445200E+03  0.49980460667E+03  0.00000000000E+00 0.  1.
        -15    1    1    2    0    0 -0.28196181575E+00  0.18529224886E+01  0.13335605579E+03  0.13338106376E+03  0.17770000000E+01 0.  1.
         15    1    1    2    0    0 -0.84192765574E+01 -0.84514081626E+01  0.23442791751E+03  0.23473797467E+03  0.17770000000E+01 0. -1.
</event>
<event>
 6    1  0.3411206E-003  0.5003626E+03  0.7546771E-02  0.9398999E-01
        -11   -1    0    0    0    0  0.00000000000E+00  0.00000000000E+00  0.50000000000E+03  0.50000000000E+03  0.00000000000E+00 0. -1.
         11   -1    0    0    0    0 -0.00000000000E+00 -0.00000000000E+00 -0.50000000000E+03  0.50000000000E+03  0.00000000000E+00 0. -1.
        -11    1    1    2    0    0  0.58348752766E+01 -0.38137804631E+01  0.49958876582E+03  0.49963739414E+03  0.00000000000E+00 0. -1.
         11    1    1    2    0    0 -0.49383042163E+00 -0.14251637411E+01 -0.83885728218E+02  0.83899286998E+02  0.00000000000E+00 0. -1.
        -15    1    1    2    0    0 -0.12125633458E+02  0.31737957768E+01 -0.36664412992E+03  0.36686261693E+03  0.17770000000E+01 0. -1.
         15    1    1    2    0    0  0.67845886026E+01  0.20651484275E+01 -0.49058907684E+02  0.49600701937E+02  0.17770000000E+01 0.  1.
</event>
<event>
 6    1  0.3411206E-003  0.4563811E+03  0.7546771E-02  0.9503075E-01
        -11   -1    0    0    0    0  0.00000000000E+00  0.00000000000E+00  0.50000000000E+03  0.50000000000E+03  0.00000000000E+00 0.  1.
         11   -1    0    0    0    0 -0.00000000000E+00 -0.00000000000E+00 -0.50000000000E+03  0.50000000000E+03  0.00000000000E+00 0.  1.
        -11    1    1    2    0    0  0.78973684256E+02  0.21949013694E+01  0.45233862438E+03  0.45918611859E+03  0.00000000000E+00 0.  1.
         11    1    1    2    0    0 -0.25376069433E+02  0.10418359109E+02 -0.45441047154E+03  0.45523770027E+03  0.00000000000E+00 0.  1.
        -15    1    1    2    0    0 -0.41637273266E+02  0.20223005856E+00 -0.28361302158E+02  0.50410560512E+02  0.17770000000E+01 0.  1.
         15    1    1    2    0    0 -0.11960341557E+02 -0.12815490537E+02  0.30433149315E+02  0.35165620627E+02  0.17770000000E+01 0. -1.
</event>
<event>
 6    1  0.3411206E-003  0.5098794E+03  0.7546771E-02  0.9377971E-01
        -11   -1    0    0    0    0  0.00000000000E+00  0.00000000000E+00  0.50000000000E+03  0.50000000000E+03  0.00000000000E+00 0. -1.
         11   -1    0    0    0    0 -0.00000000000E+00 -0.00000000000E+00 -0.50000000000E+03  0.50000000000E+03  0.00000000000E+00 0.  1.
        -11    1    1    2    0    0 -0.80112308392E-01  0.13309961747E+01  0.77113737546E+02  0.77125264908E+02  0.00000000000E+00 0. -1.
         11    1    1    2    0    0 -0.21901994012E+02 -0.17890627400E+02 -0.48930403883E+03  0.49012061200E+03  0.00000000000E+00 0.  1.
        -15    1    1    2    0    0  0.23650070801E+02  0.32549018622E+02  0.29992550035E+02  0.50214293271E+02  0.17770000000E+01 0.  1.
         15    1    1    2    0    0 -0.16679644803E+01 -0.15989387397E+02  0.38219775125E+03  0.38253982982E+03  0.17770000000E+01 0. -1.
</event>
<event>
 6    1  0.3411206E-003  0.5036104E+03  0.7546771E-02  0.9391767E-01
        -11   -1    0    0    0    0  0.00000000000E+00  0.00000000000E+00  0.50000000000E+03  0.50000000000E+03  0.00000000000E+00 0. -1.
         11   -1    0    0    0    0 -0.00000000000E+00 -0.00000000000E+00 -0.50000000000E+03  0.50000000000E+03  0.00000000000E+00 0. -1.
        -11    1    1    2    0    0 -0.16843742604E+02  0.77597209952E+01  0.33711591873E+03  0.33762563232E+03  0.00000000000E+00 0. -1.
         11    1    1    2    0    0  0.53967198659E+00  0.87770929917E+01 -0.49631171692E+03  0.49638961407E+03  0.00000000000E+00 0. -1.
        -15    1    1    2    0    0  0.16020456985E+02 -0.22103441991E+02  0.53144126227E+02  0.59771841793E+02  0.17770000000E+01 0.  1.
         15    1    1    2    0    0  0.28361363216E+00  0.55666280043E+01  0.10605167196E+03  0.10621291182E+03  0.17770000000E+01 0. -1.
</event>
<event>
 6    1  0.3411206E-003  0.5257171E+03  0.7546771E-02  0.9344036E-01
        -11   -1    0    0    0    0  0.00000000000E+00  0.00000000000E+00  0.50000000000E+03  0.50000000000E+03  0.00000000000E+00 0. -1.
         11   -1    0    0    0    0 -0.00000000000E+00 -0.00000000000E+00 -0.50000000000E+03  0.50000000000E+03  0.00000000000E+00 0.  1.
        -11    1    1    2    0    0 -0.96719135430E+01  0.78404805931E+01  0.45092753479E+03  0.45109939113E+03  0.00000000000E+00 0. -1.
         11    1    1    2    0    0  0.80849468062E+01  0.56838365939E+01 -0.47417994038E+03  0.47428292002E+03  0.00000000000E+00 0.  1.
        -15    1    1    2    0    0  0.21097753941E+01 -0.11891593111E+02  0.48111621710E+02  0.49636146219E+02  0.17770000000E+01 0.  1.
         15    1    1    2    0    0 -0.52280865726E+00 -0.16327240762E+01 -0.24859216125E+02  0.24981542629E+02  0.17770000000E+01 0. -1.
</event>
<event>
 6    1  0.3411206E-003  0.5335342E+03  0.7546771E-02  0.9327750E-01
        -11   -1    0    0    0    0  0.00000000000E+00  0.00000000000E+00  0.50000000000E+03  0.50000000000E+03  0.00000000000E+00 0. -1.
         11   -1    0    0    0    0 -0.00000000000E+00 -0.00000000000E+00 -0.50000000000E+03  0.50000000000E+03  0.00000000000E+00 0.  1.
        -11    1    1    2    0    0 -0.95233470499E+01 -0.13119022725E+01  0.46636672575E+03  0.46646579522E+03  0.00000000000E+00 0. -1.
         11    1    1    2    0    0 -0.74864836095E+01 -0.48834335481E+01 -0.43482779693E+03  0.43491965734E+03  0.00000000000E+00 0.  1.
        -15    1    1    2    0    0  0.19960105729E+01 -0.63910996421E+01  0.31668127057E+02  0.32416943304E+02  0.17770000000E+01 0. -1.
         15    1    1    2    0    0  0.15013820087E+02  0.12586435463E+02 -0.63207055875E+02  0.66197604131E+02  0.17770000000E+01 0.  1.
</event>
<event>
 6    1  0.3411206E-003  0.5010767E+03  0.7546771E-02  0.9397404E-01
        -11   -1    0    0    0    0  0.00000000000E+00  0.00000000000E+00  0.50000000000E+03  0.50000000000E+03  0.00000000000E+00 0. -1.
         11   -1    0    0    0    0 -0.00000000000E+00 -0.00000000000E+00 -0.50000000000E+03  0.50000000000E+03  0.00000000000E+00 0. -1.
        -11    1    1    2    0    0 -0.67822126937E+01  0.59645107860E+01  0.49884158479E+03  0.49892334132E+03  0.00000000000E+00 0. -1.
         11    1    1    2    0    0 -0.53137144043E+01  0.39919452384E+01 -0.39441185202E+03  0.39446784431E+03  0.00000000000E+00 0. -1.
        -15    1    1    2    0    0  0.51287180468E+01 -0.49343322330E+01 -0.14475536960E+02  0.16228070824E+02  0.17770000000E+01 0.  1.
         15    1    1    2    0    0  0.69672090512E+01 -0.50221237914E+01 -0.89954195815E+02  0.90380743541E+02  0.17770000000E+01 0.  1.
</event>
<event>
 6    1  0.3411206E-003  0.5015666E+03  0.7546771E-02  0.9396311E-01
        -11   -1    0    0    0    0  0.00000000000E+00  0.00000000000E+00  0.50000000000E+03  0.50000000000E+03  0.00000000000E+00 0.  1.
         11   -1    0    0    0    0 -0.00000000000E+00 -0.00000000000E+00 -0.50000000000E+03  0.50000000000E+03  0.00000000000E+00 0.  1.
        -11    1    1    2    0    0 -0.14882837107E+02  0.16993301194E+01  0.49820827932E+03  0.49843342198E+03  0.00000000000E+00 0.  1.
         11    1    1    2    0    0  0.81993431636E+01  0.10367698940E+02 -0.41357498119E+03  0.41378615670E+03  0.00000000000E+00 0.  1.
        -15    1    1    2    0    0  0.13520391581E+01 -0.15656045316E+02 -0.68914474238E+02  0.70705744133E+02  0.17770000000E+01 0. -1.
         15    1    1    2    0    0  0.53314547849E+01  0.35890162575E+01 -0.15718823888E+02  0.17074677193E+02  0.17770000000E+01 0.  1.
</event>
<event>
 6    1  0.3411206E-003  0.5410618E+03  0.7546771E-02  0.9312345E-01
        -11   -1    0    0    0    0  0.00000000000E+00  0.00000000000E+00  0.50000000000E+03  0.50000000000E+03  0.00000000000E+00 0. -1.
         11   -1    0    0    0    0 -0.00000000000E+00 -0.00000000000E+00 -0.50000000000E+03  0.50000000000E+03  0.00000000000E+00 0.  1.
        -11    1    1    2    0    0 -0.37951729983E+01  0.72045597132E+01  0.45886591372E+03  0.45893816119E+03  0.00000000000E+00 0. -1.
         11    1    1    2    0    0 -0.16870259239E+02 -0.61610764353E+01 -0.16992763472E+03  0.17087412195E+03  0.00000000000E+00 0.  1.
        -15    1    1    2    0    0  0.37833241132E+02 -0.39705101521E+02  0.19968386771E+02  0.58393008319E+02  0.17770000000E+01 0. -1.
         15    1    1    2    0    0 -0.17167808894E+02  0.38661618243E+02 -0.30890666577E+03  0.31179470854E+03  0.17770000000E+01 0.  1.
</event>
<event>
 6    1  0.3411206E-003  0.4785503E+03  0.7546771E-02  0.9449127E-01
        -11   -1    0    0    0    0  0.00000000000E+00  0.00000000000E+00  0.50000000000E+03  0.50000000000E+03  0.00000000000E+00 0. -1.
         11   -1    0    0    0    0 -0.00000000000E+00 -0.00000000000E+00 -0.50000000000E+03  0.50000000000E+03  0.00000000000E+00 0.  1.
        -11    1    1    2    0    0  0.11980795987E+02 -0.17634274381E+02  0.48389716822E+03  0.48436657246E+03  0.00000000000E+00 0. -1.
         11    1    1    2    0    0 -0.72884179988E+01 -0.43649113062E+01 -0.47298426756E+03  0.47306055727E+03  0.00000000000E+00 0.  1.
        -15    1    1    2    0    0 -0.11679416028E+02  0.25810831170E+02 -0.16362769700E+02  0.32764397227E+02  0.17770000000E+01 0. -1.
         15    1    1    2    0    0  0.69870380392E+01 -0.38116454825E+01  0.54498690402E+01  0.98084730413E+01  0.17770000000E+01 0.  1.
</event>
<event>
 6    1  0.3411206E-003  0.5173700E+03  0.7546771E-02  0.9361760E-01
        -11   -1    0    0    0    0  0.00000000000E+00  0.00000000000E+00  0.50000000000E+03  0.50000000000E+03  0.00000000000E+00 0. -1.
         11   -1    0    0    0    0 -0.00000000000E+00 -0.00000000000E+00 -0.50000000000E+03  0.50000000000E+03  0.00000000000E+00 0. -1.
        -11    1    1    2    0    0 -0.21825226876E+02 -0.22602814118E+01  0.48213092603E+03  0.48262996098E+03  0.00000000000E+00 0. -1.
         11    1    1    2    0    0  0.18791752644E+01  0.60481539923E+01 -0.46050335617E+03  0.46054690587E+03  0.00000000000E+00 0. -1.
        -15    1    1    2    0    0  0.18515455165E+02 -0.57989412834E+01  0.12115526789E+02  0.22943267386E+02  0.17770000000E+01 0. -1.
         15    1    1    2    0    0  0.14305964474E+01  0.20110687029E+01 -0.33743096651E+02  0.33879865763E+02  0.17770000000E+01 0.  1.
</event>
<event>
 6    1  0.3411206E-003  0.5020192E+03  0.7546771E-02  0.9395303E-01
        -11   -1    0    0    0    0  0.00000000000E+00  0.00000000000E+00  0.50000000000E+03  0.50000000000E+03  0.00000000000E+00 0. -1.
         11   -1    0    0    0    0 -0.00000000000E+00 -0.00000000000E+00 -0.50000000000E+03  0.50000000000E+03  0.00000000000E+00 0.  1.
        -11    1    1    2    0    0  0.94313228998E+01 -0.30726071454E+01  0.26709176726E+03  0.26727589286E+03  0.00000000000E+00 0. -1.
         11    1    1    2    0    0  0.16787244050E+01  0.17012030649E+02 -0.49768731817E+03  0.49798081687E+03  0.00000000000E+00 0.  1.
        -15    1    1    2    0    0 -0.33392112076E+01 -0.19606803616E+02  0.49388833136E+02  0.53272804009E+02  0.17770000000E+01 0.  1.
         15    1    1    2    0    0 -0.77708360971E+01  0.56673801124E+01  0.18120671777E+03  0.18147048627E+03  0.17770000000E+01 0. -1.
</event>
<event>
 6    1  0.3411206E-003  0.5026790E+03  0.7546771E-02  0.9393835E-01
        -11   -1    0    0    0    0  0.00000000000E+00  0.00000000000E+00  0.50000000000E+03  0.50000000000E+03  0.00000000000E+00 0.  1.
         11   -1    0    0    0    0 -0.00000000000E+00 -0.00000000000E+00 -0.50000000000E+03  0.50000000000E+03  0.00000000000E+00 0.  1.
        -11    1    1    2    0    0 -0.40175161196E+00 -0.55445724317E+01  0.26621381016E+03  0.26627184682E+03  0.00000000000E+00 0.  1.
         11    1    1    2    0    0  0.25919216462E+01  0.89754725102E+01 -0.49723325444E+03  0.49732100949E+03  0.00000000000E+00 0.  1.
        -15    1    1    2    0    0 -0.77889161864E+00 -0.10025183210E+02  0.72361518781E+01  0.12515214483E+02  0.17770000000E+01 0.  1.
         15    1    1    2    0    0 -0.14112784156E+01  0.65942831318E+01  0.22378329240E+03  0.22389192921E+03  0.17770000000E+01 0.  1.
</event>
<event>
 6    1  0.3411206E-003  0.5029988E+03  0.7546771E-02  0.9393124E-01
        -11   -1    0    0    0    0  0.00000000000E+00  0.00000000000E+00  0.50000000000E+03  0.50000000000E+03  0.00000000000E+00 0. -1.
         11   -1    0    0    0    0 -0.00000000000E+00 -0.00000000000E+00 -0.50000000000E+03  0.50000000000E+03  0.00000000000E+00 0.  1.
        -11    1    1    2    0    0 -0.10928866465E+02 -0.63595366691E+01  0.49684028484E+03  0.49700115943E+03  0.00000000000E+00 0. -1.
         11    1    1    2    0    0 -0.80274199115E+00 -0.71784823299E+01 -0.46844597450E+03  0.46850166065E+03  0.00000000000E+00 0.  1.
        -15    1    1    2    0    0  0.11935105765E+02  0.10310274012E+02 -0.23752928563E+02  0.28567601302E+02  0.17770000000E+01 0.  1.
         15    1    1    2    0    0 -0.20349730887E+00  0.32277449866E+01 -0.46413817756E+01  0.59295786225E+01  0.17770000000E+01 0. -1.
</event>
<event>
 6    1  0.3411206E-003  0.5039422E+03  0.7546771E-02  0.9391032E-01
        -11   -1    0    0    0    0  0.00000000000E+00  0.00000000000E+00  0.50000000000E+03  0.50000000000E+03  0.00000000000E+00 0.  1.
         11   -1    0    0    0    0 -0.00000000000E+00 -0.00000000000E+00 -0.50000000000E+03  0.50000000000E+03  0.00000000000E+00 0. -1.
        -11    1    1    2    0    0  0.89824583646E+00  0.32804921459E+01  0.17845810567E+03  0.17849051503E+03  0.00000000000E+00 0.  1.
         11    1    1    2    0    0 -0.47373698605E+01 -0.76697867021E+01 -0.49597589045E+03  0.49605781136E+03  0.00000000000E+00 0. -1.
        -15    1    1    2    0    0  0.68687794829E+01  0.85949402986E+01  0.39323726887E+01  0.11818393050E+02  0.17770000000E+01 0. -1.
         15    1    1    2    0    0 -0.30296554588E+01 -0.42056457424E+01  0.31358541209E+03  0.31363328056E+03  0.17770000000E+01 0.  1.
</event>
<event>
 6    1  0.3411206E-003  0.5055489E+03  0.7546771E-02  0.9387478E-01
        -11   -1    0    0    0    0  0.00000000000E+00  0.00000000000E+00  0.50000000000E+03  0.50000000000E+03  0.00000000000E+00 0.  1.
         11   -1    0    0    0    0 -0.00000000000E+00 -0.00000000000E+00 -0.50000000000E+03  0.50000000000E+03  0.00000000000E+00 0. -1.
        -11    1    1    2    0    0 -0.10216075217E+02 -0.34387850284E+01  0.48003875513E+03  0.48015976493E+03  0.00000000000E+00 0.  1.
         11    1    1    2    0    0 -0.65846634165E+01  0.26900219153E+01 -0.49439990411E+03  0.49445106855E+03  0.00000000000E+00 0. -1.
        -15    1    1    2    0    0 -0.85042012313E-02  0.16687895317E+01  0.60671251015E+01  0.65385523490E+01  0.17770000000E+01 0.  1.
         15    1    1    2    0    0  0.16809242835E+02 -0.92002641861E+00  0.82940238779E+01  0.18850614164E+02  0.17770000000E+01 0. -1.
</event>
<event>
 6    1  0.3411206E-003  0.5318360E+03  0.7546771E-02  0.9331263E-01
        -11   -1    0    0    0    0  0.00000000000E+00  0.00000000000E+00  0.50000000000E+03  0.50000000000E+03  0.00000000000E+00 0.  1.
         11   -1    0    0    0    0 -0.00000000000E+00 -0.00000000000E+00 -0.50000000000E+03  0.50000000000E+03  0.00000000000E+00 0. -1.
        -11    1    1    2    0    0 -0.15232124059E+02  0.14369001445E+02  0.35539860875E+03  0.35601496725E+03  0.00000000000E+00 0.  1.
         11    1    1    2    0    0 -0.35218926988E+01  0.76085181144E+01 -0.46808890325E+03  0.46816398262E+03  0.00000000000E+00 0. -1.
        -15    1    1    2    0    0  0.43113002559E+02 -0.63343309585E+02  0.10026245767E+03  0.12620152141E+03  0.17770000000E+01 0.  1.
         15    1    1    2    0    0 -0.24358985801E+02  0.41365790025E+02  0.12427836826E+02  0.49619528724E+02  0.17770000000E+01 0. -1.
</event>
<event>
 6    1  0.3411206E-003  0.5005977E+03  0.7546771E-02  0.9398473E-01
        -11   -1    0    0    0    0  0.00000000000E+00  0.00000000000E+00  0.50000000000E+03  0.50000000000E+03  0.00000000000E+00 0. -1.
         11   -1    0    0    0    0 -0.00000000000E+00 -0.00000000000E+00 -0.50000000000E+03  0.50000000000E+03  0.00000000000E+00 0.  1.
        -11    1    1    2    0    0  0.74938875289E+01  0.50299240463E+01  0.27878910042E+03  0.27893515555E+03  0.00000000000E+00 0. -1.
         11    1    1    2    0    0  0.15632269604E+01  0.74271160829E+01 -0.49934464057E+03  0.49940231857E+03  0.00000000000E+00 0.  1.
        -15    1    1    2    0    0  0.69896745390E-01 -0.91544485237E+01  0.16305538938E+03  0.16332184957E+03  0.17770000000E+01 0. -1.
         15    1    1    2    0    0 -0.91270112347E+01 -0.33025916054E+01  0.57500150761E+02  0.58340676307E+02  0.17770000000E+01 0.  1.
</event>
<event>
 6    1  0.4643620E-003  0.5174579E+03  0.7546771E-02  0.9361572E-01
        -11   -1    0    0    0    0  0.00000000000E+00  0.00000000000E+00  0.50000000000E+03  0.50000000000E+03  0.00000000000E+00 0.  1.
         11   -1    0    0    0    0 -0.00000000000E+00 -0.00000000000E+00 -0.50000000000E+03  0.50000000000E+03  0.00000000000E+00 0.  1.
        -11    1    1    2    0    0  0.11206165182E+02 -0.29403887727E+02  0.17461597243E+03  0.17742859008E+03  0.00000000000E+00 0.  1.
         11    1    1    2    0    0  0.30258573601E+01  0.65388974150E+01 -0.48248829142E+03  0.48254208557E+03  0.00000000000E+00 0.  1.
        -15    1    1    2    0    0 -0.12245139473E+02  0.27027861630E+02  0.32287130682E+03  0.32423677651E+03  0.17770000000E+01 0.  1.
         15    1    1    2    0    0 -0.19868830690E+01 -0.41628713174E+01 -0.14998987832E+02  0.15792547829E+02  0.17770000000E+01 0.  1.
</event>
<event>
 6    1  0.3411206E-003  0.4725789E+03  0.7546771E-02  0.9463348E-01
        -11   -1    0    0    0    0  0.00000000000E+00  0.00000000000E+00  0.50000000000E+03  0.50000000000E+03  0.00000000000E+00 0.  1.
         11   -1    0    0    0    0 -0.00000000000E+00 -0.00000000000E+00 -0.50000000000E+03  0.50000000000E+03  0.00000000000E+00 0. -1.
        -11    1    1    2    0    0  0.77134375527E+01  0.15220358996E+02  0.47671641521E+03  0.47702169445E+03  0.00000000000E+00 0.  1.
         11    1    1    2    0    0  0.10441764088E+02  0.70999325891E+01 -0.46843991583E+03  0.46861006629E+03  0.00000000000E+00 0. -1.
        -15    1    1    2    0    0 -0.13800431641E+02  0.12254603001E+02 -0.56175416015E+01  0.19373737658E+02  0.17770000000E+01 0.  1.
         15    1    1    2    0    0 -0.43547699998E+01 -0.34574894586E+02 -0.26589577724E+01  0.34994501608E+02  0.17770000000E+01 0. -1.
</event>
<event>
 6    1  0.3411206E-003  0.5000767E+03  0.7546771E-02  0.9399638E-01
        -11   -1    0    0    0    0  0.00000000000E+00  0.00000000000E+00  0.50000000000E+03  0.50000000000E+03  0.00000000000E+00 0.  1.
         11   -1    0    0    0    0 -0.00000000000E+00 -0.00000000000E+00 -0.50000000000E+03  0.50000000000E+03  0.00000000000E+00 0.  1.
        -11    1    1    2    0    0  0.89531173811E+00  0.12818883692E+01  0.63730977442E+02  0.63750155346E+02  0.00000000000E+00 0.  1.
         11    1    1    2    0    0 -0.74908815734E+01  0.67854025472E+01 -0.49982110478E+03  0.49992328589E+03  0.00000000000E+00 0.  1.
        -15    1    1    2    0    0  0.33718337655E+01 -0.96171920540E+01  0.32538527618E+03  0.32554968181E+03  0.17770000000E+01 0.  1.
         15    1    1    2    0    0  0.32237360698E+01  0.15499011377E+01  0.11070485116E+03  0.11077687695E+03  0.17770000000E+01 0. -1.
</event>
<event>
 6    1  0.3411206E-003  0.5010225E+03  0.7546771E-02  0.9397525E-01
        -11   -1    0    0    0    0  0.00000000000E+00  0.00000000000E+00  0.50000000000E+03  0.50000000000E+03  0.00000000000E+00 0. -1.
         11   -1    0    0    0    0 -0.00000000000E+00 -0.00000000000E+00 -0.50000000000E+03  0.50000000000E+03  0.00000000000E+00 0. -1.
        -11    1    1    2    0    0  0.66017564490E+01  0.21764708705E+01  0.49892910039E+03  0.49897752197E+03  0.00000000000E+00 0. -1.
         11    1    1    2    0    0 -0.35343416439E+01 -0.58052242643E+01 -0.46647136411E+03  0.46652087384E+03  0.00000000000E+00 0. -1.
        -15    1    1    2    0    0  0.36793862578E+01  0.12033250858E+01 -0.10336519085E+02  0.11179768794E+02  0.17770000000E+01 0. -1.
         15    1    1    2    0    0 -0.67468010629E+01  0.24254283080E+01 -0.22121217198E+02  0.23321835399E+02  0.17770000000E+01 0. -1.
</event>
<event>
 6    1  0.3411206E-003  0.5081007E+03  0.7546771E-02  0.9381864E-01
        -11   -1    0    0    0    0  0.00000000000E+00  0.00000000000E+00  0.50000000000E+03  0.50000000000E+03  0.00000000000E+00 0.  1.
         11   -1    0    0    0    0 -0.00000000000E+00 -0.00000000000E+00 -0.50000000000E+03  0.50000000000E+03  0.00000000000E+00 0.  1.
        -11    1    1    2    0    0  0.54306474175E+01  0.43460494702E+01  0.48206813722E+03  0.48211831432E+03  0.00000000000E+00 0.  1.
         11    1    1    2    0    0  0.90493766323E+01 -0.45375455933E+01 -0.49179514488E+03  0.49189932412E+03  0.00000000000E+00 0.  1.
        -15    1    1    2    0    0 -0.17583819451E+02  0.47313649205E+01  0.78142630747E+01  0.19894646438E+02  0.17770000000E+01 0. -1.
         15    1    1    2    0    0  0.31037954013E+01 -0.45398687974E+01  0.19127445908E+01  0.60877151265E+01  0.17770000000E+01 0. -1.
</event>
<event>
 6    1  0.3411206E-003  0.5129309E+03  0.7546771E-02  0.9371332E-01
        -11   -1    0    0    0    0  0.00000000000E+00  0.00000000000E+00  0.50000000000E+03  0.50000000000E+03  0.00000000000E+00 0. -1.
         11   -1    0    0    0    0 -0.00000000000E+00 -0.00000000000E+00 -0.50000000000E+03  0.50000000000E+03  0.00000000000E+00 0.  1.
        -11    1    1    2    0    0  0.95390283229E+01  0.94693236163E+01  0.46825253677E+03  0.46844540701E+03  0.00000000000E+00 0. -1.
         11    1    1    2    0    0  0.14880259096E+02 -0.15107585489E+02 -0.48660732268E+03  0.48706914061E+03  0.00000000000E+00 0.  1.
        -15    1    1    2    0    0 -0.28315918554E+02 -0.47702020314E+01  0.99625148434E+01  0.30445943933E+02  0.17770000000E+01 0.  1.
         15    1    1    2    0    0  0.38966311351E+01  0.10408463904E+02  0.83922710612E+01  0.14039508453E+02  0.17770000000E+01 0. -1.
</event>
<event>
 6    1  0.3411206E-003  0.5040093E+03  0.7546771E-02  0.9390883E-01
        -11   -1    0    0    0    0  0.00000000000E+00  0.00000000000E+00  0.50000000000E+03  0.50000000000E+03  0.00000000000E+00 0.  1.
         11   -1    0    0    0    0 -0.00000000000E+00 -0.00000000000E+00 -0.50000000000E+03  0.50000000000E+03  0.00000000000E+00 0.  1.
        -11    1    1    2    0    0  0.33556348328E+01  0.57947465325E+01  0.46608087927E+03  0.46612897936E+03  0.00000000000E+00 0.  1.
         11    1    1    2    0    0  0.89879257631E+01 -0.42954457721E-01 -0.49590921783E+03  0.49599066219E+03  0.00000000000E+00 0.  1.
        -15    1    1    2    0    0 -0.10512456567E+02 -0.37650119539E+01  0.42200767749E+01  0.12068713066E+02  0.17770000000E+01 0. -1.
         15    1    1    2    0    0 -0.18311040287E+01 -0.19867801209E+01  0.25608261777E+02  0.25811645384E+02  0.17770000000E+01 0.  1.
</event>
<event>
 6    1  0.3411206E-003  0.5001850E+03  0.7546771E-02  0.9399396E-01
        -11   -1    0    0    0    0  0.00000000000E+00  0.00000000000E+00  0.50000000000E+03  0.50000000000E+03  0.00000000000E+00 0.  1.
         11   -1    0    0    0    0 -0.00000000000E+00 -0.00000000000E+00 -0.50000000000E+03  0.50000000000E+03  0.00000000000E+00 0.  1.
        -11    1    1    2    0    0 -0.37208307037E+01  0.25438960584E+01  0.25098149140E+03  0.25102196122E+03  0.00000000000E+00 0.  1.
         11    1    1    2    0    0 -0.62370329723E+01  0.59937583312E+01 -0.49974013124E+03  0.49981499026E+03  0.00000000000E+00 0.  1.
        -15    1    1    2    0    0  0.84273987098E+01 -0.70148998040E+01  0.17559210710E+03  0.17594310351E+03  0.17770000000E+01 0.  1.
         15    1    1    2    0    0  0.15304649662E+01 -0.15227545855E+01  0.73166532736E+02  0.73219945003E+02  0.17770000000E+01 0.  1.
</event>
<event>
 6    1  0.3411206E-003  0.5545797E+03  0.7546771E-02  0.9285338E-01
        -11   -1    0    0    0    0  0.00000000000E+00  0.00000000000E+00  0.50000000000E+03  0.50000000000E+03  0.00000000000E+00 0. -1.
         11   -1    0    0    0    0 -0.00000000000E+00 -0.00000000000E+00 -0.50000000000E+03  0.50000000000E+03  0.00000000000E+00 0. -1.
        -11    1    1    2    0    0  0.17602845068E+02  0.19618756451E+02  0.44463975239E+03  0.44542032415E+03  0.00000000000E+00 0. -1.
         11    1    1    2    0    0 -0.51852307314E+00  0.94312075355E+01 -0.34270201324E+03  0.34283215488E+03  0.00000000000E+00 0. -1.
        -15    1    1    2    0    0 -0.29796256936E+01 -0.10533393776E+02 -0.15415299571E+03  0.15455139718E+03  0.17770000000E+01 0. -1.
         15    1    1    2    0    0 -0.14104696301E+02 -0.18516570211E+02  0.52215256562E+02  0.57196123793E+02  0.17770000000E+01 0. -1.
</event>
<event>
 6    1  0.3411206E-003  0.5074772E+03  0.7546771E-02  0.9383233E-01
        -11   -1    0    0    0    0  0.00000000000E+00  0.00000000000E+00  0.50000000000E+03  0.50000000000E+03  0.00000000000E+00 0. -1.
         11   -1    0    0    0    0 -0.00000000000E+00 -0.00000000000E+00 -0.50000000000E+03  0.50000000000E+03  0.00000000000E+00 0. -1.
        -11    1    1    2    0    0 -0.33586626032E+01  0.37695830665E+00  0.14912046773E+03  0.14915876310E+03  0.00000000000E+00 0. -1.
         11    1    1    2    0    0  0.54982709069E+01 -0.18396986412E+02 -0.49214842515E+03  0.49252284461E+03  0.00000000000E+00 0. -1.
        -15    1    1    2    0    0 -0.57726368436E+01  0.23634763177E+02  0.11942712120E+02  0.27160844397E+02  0.17770000000E+01 0.  1.
         15    1    1    2    0    0  0.36330285399E+01 -0.56147350717E+01  0.33108524530E+03  0.33115754789E+03  0.17770000000E+01 0. -1.
</event>
<event>
 6    1  0.3411206E-003  0.5031626E+03  0.7546771E-02  0.9392761E-01
        -11   -1    0    0    0    0  0.00000000000E+00  0.00000000000E+00  0.50000000000E+03  0.50000000000E+03  0.00000000000E+00 0.  1.
         11   -1    0    0    0    0 -0.00000000000E+00 -0.00000000000E+00 -0.50000000000E+03  0.50000000000E+03  0.00000000000E+00 0. -1.
        -11    1    1    2    0    0 -0.20843228468E+01  0.14172469851E+02  0.49663082293E+03  0.49683737539E+03  0.00000000000E+00 0.  1.
         11    1    1    2    0    0  0.23359603169E+01 -0.64049277772E+01 -0.43402973390E+03  0.43408327510E+03  0.00000000000E+00 0. -1.
        -15    1    1    2    0    0  0.11799862338E+00  0.20047635050E+01 -0.58110905024E+02  0.58172742862E+02  0.17770000000E+01 0. -1.
         15    1    1    2    0    0 -0.36963609349E+00 -0.97723055783E+01 -0.44901840041E+01  0.10906606647E+02  0.17770000000E+01 0.  1.
</event>
<event>
 6    1  0.3411206E-003  0.5070670E+03  0.7546771E-02  0.9384134E-01
        -11   -1    0    0    0    0  0.00000000000E+00  0.00000000000E+00  0.50000000000E+03  0.50000000000E+03  0.00000000000E+00 0. -1.
         11   -1    0    0    0    0 -0.00000000000E+00 -0.00000000000E+00 -0.50000000000E+03  0.50000000000E+03  0.00000000000E+00 0. -1.
        -11    1    1    2    0    0 -0.22880039093E+01  0.65650461254E+01  0.49288393739E+03  0.49293296758E+03  0.00000000000E+00 0. -1.
         11    1    1    2    0    0 -0.17304216823E+01  0.17074230937E+02 -0.45936292899E+03  0.45968339567E+03  0.00000000000E+00 0. -1.
        -15    1    1    2    0    0  0.99784082537E+01 -0.22484811901E+02 -0.32769259731E+02  0.41013625904E+02  0.17770000000E+01 0.  1.
         15    1    1    2    0    0 -0.59599826621E+01 -0.11544651613E+01 -0.75174866387E+00  0.63700108473E+01  0.17770000000E+01 0. -1.
</event>
<event>
 6    1  0.3411206E-003  0.5068086E+03  0.7546771E-02  0.9384703E-01
        -11   -1    0    0    0    0  0.00000000000E+00  0.00000000000E+00  0.50000000000E+03  0.50000000000E+03  0.00000000000E+00 0. -1.
         11   -1    0    0    0    0 -0.00000000000E+00 -0.00000000000E+00 -0.50000000000E+03  0.50000000000E+03  0.00000000000E+00 0.  1.
        -11    1    1    2    0    0  0.12092363992E+02 -0.19105665154E+01  0.49303947044E+03  0.49319143843E+03  0.00000000000E+00 0. -1.
         11    1    1    2    0    0 -0.17580402666E+01  0.68323159401E+01 -0.46885545492E+03  0.46890852930E+03  0.00000000000E+00 0.  1.
        -15    1    1    2    0    0 -0.65145268967E+01 -0.14895872428E+02 -0.74574013351E+01  0.17974889144E+02  0.17770000000E+01 0. -1.
         15    1    1    2    0    0 -0.38197968283E+01  0.99741230031E+01 -0.16726614182E+02  0.19925143124E+02  0.17770000000E+01 0.  1.
</event>
<event>
 6    1  0.3411206E-003  0.5011599E+03  0.7546771E-02  0.9397218E-01
        -11   -1    0    0    0    0  0.00000000000E+00  0.00000000000E+00  0.50000000000E+03  0.50000000000E+03  0.00000000000E+00 0.  1.
         11   -1    0    0    0    0 -0.00000000000E+00 -0.00000000000E+00 -0.50000000000E+03  0.50000000000E+03  0.00000000000E+00 0.  1.
        -11    1    1    2    0    0  0.39613088216E+01 -0.81052115844E+01  0.42697873074E+03  0.42707402511E+03  0.00000000000E+00 0.  1.
         11    1    1    2    0    0  0.11003146720E+02  0.11139377692E+01 -0.49871750431E+03  0.49884011387E+03  0.00000000000E+00 0.  1.
        -15    1    1    2    0    0 -0.11595647479E+02  0.55127405478E+01  0.64352685178E+02  0.65645069636E+02  0.17770000000E+01 0.  1.
         15    1    1    2    0    0 -0.33688080619E+01  0.14785332675E+01  0.73860883940E+01  0.84407913815E+01  0.17770000000E+01 0. -1.
</event>
<event>
 6    1  0.3411206E-003  0.5121576E+03  0.7546771E-02  0.9373010E-01
        -11   -1    0    0    0    0  0.00000000000E+00  0.00000000000E+00  0.50000000000E+03  0.50000000000E+03  0.00000000000E+00 0. -1.
         11   -1    0    0    0    0 -0.00000000000E+00 -0.00000000000E+00 -0.50000000000E+03  0.50000000000E+03  0.00000000000E+00 0.  1.
        -11    1    1    2    0    0  0.10462860814E+02 -0.49726899099E+02  0.29995919654E+03  0.30423306122E+03  0.00000000000E+00 0. -1.
         11    1    1    2    0    0 -0.91242014567E+01 -0.76481488103E+01 -0.48769708735E+03  0.48784238668E+03  0.00000000000E+00 0.  1.
        -15    1    1    2    0    0  0.13313780148E+02  0.20419809067E+01  0.22170261904E+01  0.13765876724E+02  0.17770000000E+01 0.  1.
         15    1    1    2    0    0 -0.14652439505E+02  0.55333067002E+02  0.18552086462E+03  0.19415867538E+03  0.17770000000E+01 0. -1.
</event>
<event>
 6    1  0.3411206E-003  0.5024967E+03  0.7546771E-02  0.9394240E-01
        -11   -1    0    0    0    0  0.00000000000E+00  0.00000000000E+00  0.50000000000E+03  0.50000000000E+03  0.00000000000E+00 0.  1.
         11   -1    0    0    0    0 -0.00000000000E+00 -0.00000000000E+00 -0.50000000000E+03  0.50000000000E+03  0.00000000000E+00 0. -1.
        -11    1    1    2    0    0 -0.77379667339E+01  0.23594345784E+01  0.49743754653E+03  0.49750332236E+03  0.00000000000E+00 0.  1.
         11    1    1    2    0    0  0.67358909223E+01  0.35496720924E+01 -0.47504239489E+03  0.47510340910E+03  0.00000000000E+00 0. -1.
        -15    1    1    2    0    0  0.50572620542E+01 -0.45859382681E+01 -0.33756187178E+01  0.78204386074E+01  0.17770000000E+01 0.  1.
         15    1    1    2    0    0 -0.40551862426E+01 -0.13231684027E+01 -0.19019532919E+02  0.19572829932E+02  0.17770000000E+01 0. -1.
</event>
<event>
 6    1  0.3411206E-003  0.4870218E+03  0.7546771E-02  0.9429327E-01
        -11   -1    0    0    0    0  0.00000000000E+00  0.00000000000E+00  0.50000000000E+03  0.50000000000E+03  0.00000000000E+00 0.  1.
         11   -1    0    0    0    0 -0.00000000000E+00 -0.00000000000E+00 -0.50000000000E+03  0.50000000000E+03  0.00000000000E+00 0.  1.
        -11    1    1    2    0    0  0.34931876623E+01 -0.61960725267E+01  0.48357587497E+03  0.48362818417E+03  0.00000000000E+00 0.  1.
         11    1    1    2    0    0  0.75275026327E+01 -0.92729045070E+01 -0.49047966721E+03  0.49062506459E+03  0.00000000000E+00 0.  1.
        -15    1    1    2    0    0 -0.26771004568E+00  0.59900549735E+01 -0.41953517118E+01  0.75306794009E+01  0.17770000000E+01 0. -1.
         15    1    1    2    0    0 -0.10752980249E+02  0.94789220602E+01  0.11099143960E+02  0.18216071841E+02  0.17770000000E+01 0.  1.
</event>
<event>
 6    1  0.3411206E-003  0.5043799E+03  0.7546771E-02  0.9390062E-01
        -11   -1    0    0    0    0  0.00000000000E+00  0.00000000000E+00  0.50000000000E+03  0.50000000000E+03  0.00000000000E+00 0. -1.
         11   -1    0    0    0    0 -0.00000000000E+00 -0.00000000000E+00 -0.50000000000E+03  0.50000000000E+03  0.00000000000E+00 0.  1.
        -11    1    1    2    0    0 -0.64777652042E+01 -0.15487975216E+01  0.48722579475E+03  0.48727131589E+03  0.00000000000E+00 0. -1.
         11    1    1    2    0    0  0.61141303990E+01 -0.54159634750E+01 -0.49555275888E+03  0.49562006828E+03  0.00000000000E+00 0.  1.
        -15    1    1    2    0    0  0.29578450362E+01  0.47466124999E+01  0.10969512742E+02  0.12440543247E+02  0.17770000000E+01 0. -1.
         15    1    1    2    0    0 -0.25942102310E+01  0.22181484967E+01 -0.26425486120E+01  0.46680725833E+01  0.17770000000E+01 0.  1.
</event>
<event>
 6    1  0.3411206E-003  0.5004733E+03  0.7546771E-02  0.9398751E-01
        -11   -1    0    0    0    0  0.00000000000E+00  0.00000000000E+00  0.50000000000E+03  0.50000000000E+03  0.00000000000E+00 0. -1.
         11   -1    0    0    0    0 -0.00000000000E+00 -0.00000000000E+00 -0.50000000000E+03  0.50000000000E+03  0.00000000000E+00 0. -1.
        -11    1    1    2    0    0  0.12201089468E+01 -0.10950711509E+02  0.49940519178E+03  0.49952672833E+03  0.00000000000E+00 0. -1.
         11    1    1    2    0    0 -0.82647474731E+00  0.14736068866E+01 -0.11080592993E+03  0.11081881016E+03  0.00000000000E+00 0. -1.
        -15    1    1    2    0    0  0.11975067924E+02  0.64284363243E+01 -0.12664548582E+03  0.12738510059E+03  0.17770000000E+01 0.  1.
         15    1    1    2    0    0 -0.12368702123E+02  0.30486682983E+01 -0.26195377603E+03  0.26226936091E+03  0.17770000000E+01 0. -1.
</event>
<event>
 6    1  0.3411206E-003  0.5054766E+03  0.7546771E-02  0.9387638E-01
        -11   -1    0    0    0    0  0.00000000000E+00  0.00000000000E+00  0.50000000000E+03  0.50000000000E+03  0.00000000000E+00 0. -1.
         11   -1    0    0    0    0 -0.00000000000E+00 -0.00000000000E+00 -0.50000000000E+03  0.50000000000E+03  0.00000000000E+00 0.  1.
        -11    1    1    2    0    0 -0.11625976952E+02  0.97235763791E-01  0.46823809503E+03  0.46838241473E+03  0.00000000000E+00 0. -1.
         11    1    1    2    0    0  0.22188660748E+01  0.14115014583E+02 -0.49431692503E+03  0.49452338607E+03  0.00000000000E+00 0.  1.
        -15    1    1    2    0    0  0.15495637697E+02 -0.10590992127E+02  0.16537824696E+02  0.25078701652E+02  0.17770000000E+01 0.  1.
         15    1    1    2    0    0 -0.60885268196E+01 -0.36212582198E+01  0.95410053074E+01  0.12015497543E+02  0.17770000000E+01 0. -1.
</event>
<event>
 6    1  0.3411206E-003  0.5166710E+03  0.7546771E-02  0.9363261E-01
        -11   -1    0    0    0    0  0.00000000000E+00  0.00000000000E+00  0.50000000000E+03  0.50000000000E+03  0.00000000000E+00 0.  1.
         11   -1    0    0    0    0 -0.00000000000E+00 -0.00000000000E+00 -0.50000000000E+03  0.50000000000E+03  0.00000000000E+00 0. -1.
        -11    1    1    2    0    0 -0.37884934296E+01  0.83398937673E+01  0.48324223507E+03  0.48332904348E+03  0.00000000000E+00 0.  1.
         11    1    1    2    0    0  0.71786146153E+01 -0.23585273819E+02 -0.45649383744E+03  0.45715907655E+03  0.00000000000E+00 0. -1.
        -15    1    1    2    0    0  0.83375557675E+01 -0.79042508068E+01  0.94189388932E+01  0.14962157460E+02  0.17770000000E+01 0. -1.
         15    1    1    2    0    0 -0.11727676953E+02  0.23149630858E+02 -0.36167336529E+02  0.44549722515E+02  0.17770000000E+01 0.  1.
</event>
<event>
 6    1  0.3411206E-003  0.5297752E+03  0.7546771E-02  0.9335544E-01
        -11   -1    0    0    0    0  0.00000000000E+00  0.00000000000E+00  0.50000000000E+03  0.50000000000E+03  0.00000000000E+00 0.  1.
         11   -1    0    0    0    0 -0.00000000000E+00 -0.00000000000E+00 -0.50000000000E+03  0.50000000000E+03  0.00000000000E+00 0.  1.
        -11    1    1    2    0    0  0.67580589664E+01 -0.34267957649E+01  0.43344277455E+03  0.43350900002E+03  0.00000000000E+00 0.  1.
         11    1    1    2    0    0  0.15081092202E+02 -0.17543864977E+02 -0.46965538305E+03  0.47022484554E+03  0.00000000000E+00 0.  1.
        -15    1    1    2    0    0  0.32221724459E+02  0.85695807251E+01  0.17536910366E+02  0.37714429535E+02  0.17770000000E+01 0.  1.
         15    1    1    2    0    0 -0.54060875628E+02  0.12401080017E+02  0.18675698129E+02  0.58551724901E+02  0.17770000000E+01 0. -1.
</event>
<event>
 6    1  0.3411206E-003  0.5235108E+03  0.7546771E-02  0.9348687E-01
        -11   -1    0    0    0    0  0.00000000000E+00  0.00000000000E+00  0.50000000000E+03  0.50000000000E+03  0.00000000000E+00 0. -1.
         11   -1    0    0    0    0 -0.00000000000E+00 -0.00000000000E+00 -0.50000000000E+03  0.50000000000E+03  0.00000000000E+00 0.  1.
        -11    1    1    2    0    0  0.36162678006E+01  0.16502571328E+02  0.44562024271E+03  0.44594036929E+03  0.00000000000E+00 0. -1.
         11    1    1    2    0    0 -0.62032765931E+01  0.31627140048E+01 -0.47643829606E+03  0.47648917443E+03  0.00000000000E+00 0.  1.
        -15    1    1    2    0    0 -0.21184355004E+01  0.18165506358E+01 -0.20995814159E+02  0.21254871592E+02  0.17770000000E+01 0.  1.
         15    1    1    2    0    0  0.47054442929E+01 -0.21481835968E+02  0.51813867512E+02  0.56315584682E+02  0.17770000000E+01 0. -1.
</event>
<event>
 6    1  0.3411206E-003  0.5086101E+03  0.7546771E-02  0.9380747E-01
        -11   -1    0    0    0    0  0.00000000000E+00  0.00000000000E+00  0.50000000000E+03  0.50000000000E+03  0.00000000000E+00 0.  1.
         11   -1    0    0    0    0 -0.00000000000E+00 -0.00000000000E+00 -0.50000000000E+03  0.50000000000E+03  0.00000000000E+00 0. -1.
        -11    1    1    2    0    0 -0.53821946322E+01 -0.37952379036E+01  0.47609484138E+03  0.47614038879E+03  0.00000000000E+00 0.  1.
         11    1    1    2    0    0 -0.57046117825E+01 -0.69855001149E+01 -0.49130714917E+03  0.49138992117E+03  0.00000000000E+00 0. -1.
        -15    1    1    2    0    0  0.40792530722E+01 -0.62686312895E+01  0.11096427941E+02  0.13499055001E+02  0.17770000000E+01 0. -1.
         15    1    1    2    0    0  0.70075533425E+01  0.17049369308E+02  0.41158798427E+01  0.18970635032E+02  0.17770000000E+01 0.  1.
</event>
<event>
 6    1  0.3411206E-003  0.4597161E+03  0.7546771E-02  0.9494753E-01
        -11   -1    0    0    0    0  0.00000000000E+00  0.00000000000E+00  0.50000000000E+03  0.50000000000E+03  0.00000000000E+00 0. -1.
         11   -1    0    0    0    0 -0.00000000000E+00 -0.00000000000E+00 -0.50000000000E+03  0.50000000000E+03  0.00000000000E+00 0.  1.
        -11    1    1    2    0    0 -0.47721803993E+01  0.40381171988E+02  0.46710406745E+03  0.46887058192E+03  0.00000000000E+00 0. -1.
         11    1    1    2    0    0  0.20567744519E+00 -0.97046248356E+01 -0.45111908147E+03  0.45122350084E+03  0.00000000000E+00 0.  1.
        -15    1    1    2    0    0  0.28178685993E+02  0.10352153225E+02 -0.53043874710E+00  0.30077308971E+02  0.17770000000E+01 0. -1.
         15    1    1    2    0    0 -0.23612183039E+02 -0.41028700377E+02 -0.15454547234E+02  0.49828608266E+02  0.17770000000E+01 0.  1.
</event>
<event>
 6    1  0.3411206E-003  0.5241662E+03  0.7546771E-02  0.9347302E-01
        -11   -1    0    0    0    0  0.00000000000E+00  0.00000000000E+00  0.50000000000E+03  0.50000000000E+03  0.00000000000E+00 0.  1.
         11   -1    0    0    0    0 -0.00000000000E+00 -0.00000000000E+00 -0.50000000000E+03  0.50000000000E+03  0.00000000000E+00 0. -1.
        -11    1    1    2    0    0  0.36866044098E+01  0.58765130004E+01  0.47578322732E+03  0.47583379856E+03  0.00000000000E+00 0.  1.
         11    1    1    2    0    0 -0.18787539053E+02  0.13353868540E+01 -0.31427402357E+03  0.31483792143E+03  0.00000000000E+00 0. -1.
        -15    1    1    2    0    0  0.18725810430E+02 -0.62433560826E+01 -0.18470430959E+03  0.18576456923E+03  0.17770000000E+01 0. -1.
         15    1    1    2    0    0 -0.36248757859E+01 -0.96854377180E+00  0.23195105842E+02  0.23563710775E+02  0.17770000000E+01 0.  1.
</event>
<event>
 6    1  0.3411206E-003  0.5083263E+03  0.7546771E-02  0.9381369E-01
        -11   -1    0    0    0    0  0.00000000000E+00  0.00000000000E+00  0.50000000000E+03  0.50000000000E+03  0.00000000000E+00 0.  1.
         11   -1    0    0    0    0 -0.00000000000E+00 -0.00000000000E+00 -0.50000000000E+03  0.50000000000E+03  0.00000000000E+00 0. -1.
        -11    1    1    2    0    0 -0.12487734980E+02  0.17037180579E+02  0.49121969840E+03  0.49167367343E+03  0.00000000000E+00 0.  1.
         11    1    1    2    0    0  0.35407670159E+02 -0.41855382039E+01 -0.44334564315E+03  0.44477700158E+03  0.00000000000E+00 0. -1.
        -15    1    1    2    0    0  0.39722865459E+01 -0.72918202075E+01 -0.18905350119E+00  0.84937137088E+01  0.17770000000E+01 0.  1.
         15    1    1    2    0    0 -0.26892221725E+02 -0.55598221678E+01 -0.47685001757E+02  0.55055611279E+02  0.17770000000E+01 0. -1.
</event>
<event>
 6    1  0.3411206E-003  0.5115453E+03  0.7546771E-02  0.9374340E-01
        -11   -1    0    0    0    0  0.00000000000E+00  0.00000000000E+00  0.50000000000E+03  0.50000000000E+03  0.00000000000E+00 0. -1.
         11   -1    0    0    0    0 -0.00000000000E+00 -0.00000000000E+00 -0.50000000000E+03  0.50000000000E+03  0.00000000000E+00 0. -1.
        -11    1    1    2    0    0  0.70364829707E+01 -0.22698279557E+02  0.48787630984E+03  0.48845472430E+03  0.00000000000E+00 0. -1.
         11    1    1    2    0    0 -0.10581532764E+02 -0.36734957369E+01 -0.45877370908E+03  0.45891042650E+03  0.00000000000E+00 0. -1.
        -15    1    1    2    0    0 -0.10588553172E+02  0.15177901875E+02 -0.28274743975E+00  0.18593650494E+02  0.17770000000E+01 0. -1.
         15    1    1    2    0    0  0.14133602965E+02  0.11193873420E+02 -0.28819853322E+02  0.34041198707E+02  0.17770000000E+01 0.  1.
</event>
<event>
 6    1  0.4236458E-003  0.5007726E+03  0.7546771E-02  0.9398083E-01
        -11   -1    0    0    0    0  0.00000000000E+00  0.00000000000E+00  0.50000000000E+03  0.50000000000E+03  0.00000000000E+00 0.  1.
         11   -1    0    0    0    0 -0.00000000000E+00 -0.00000000000E+00 -0.50000000000E+03  0.50000000000E+03  0.00000000000E+00 0. -1.
        -11    1    1    2    0    0 -0.12804466650E+02  0.53735232615E-01  0.49906313462E+03  0.49922737264E+03  0.00000000000E+00 0.  1.
         11    1    1    2    0    0 -0.15511520885E+01  0.96374217113E+00 -0.94200847068E+02  0.94218546264E+02  0.00000000000E+00 0. -1.
        -15    1    1    2    0    0 -0.16830622133E+01 -0.37679511059E+01 -0.32501705915E+03  0.32504811431E+03  0.17770000000E+01 0. -1.
         15    1    1    2    0    0  0.16038680952E+02  0.27504737022E+01 -0.79845228410E+02  0.81505966782E+02  0.17770000000E+01 0.  1.
</event>
<event>
 6    1  0.3411206E-003  0.5211520E+03  0.7546771E-02  0.9353686E-01
        -11   -1    0    0    0    0  0.00000000000E+00  0.00000000000E+00  0.50000000000E+03  0.50000000000E+03  0.00000000000E+00 0.  1.
         11   -1    0    0    0    0 -0.00000000000E+00 -0.00000000000E+00 -0.50000000000E+03  0.50000000000E+03  0.00000000000E+00 0. -1.
        -11    1    1    2    0    0  0.24267848743E+01 -0.95660631767E+01  0.47007266530E+03  0.47017625367E+03  0.00000000000E+00 0.  1.
         11    1    1    2    0    0 -0.82902264139E+01  0.38060078223E+01 -0.47876112796E+03  0.47884802516E+03  0.00000000000E+00 0. -1.
        -15    1    1    2    0    0  0.25830806611E+02  0.19445635830E+01 -0.49487727209E+01  0.26432176947E+02  0.17770000000E+01 0.  1.
         15    1    1    2    0    0 -0.19967365071E+02  0.38154917714E+01  0.13637235379E+02  0.24543544225E+02  0.17770000000E+01 0. -1.
</event>
<event>
 6    1  0.3411206E-003  0.5050933E+03  0.7546771E-02  0.9388485E-01
        -11   -1    0    0    0    0  0.00000000000E+00  0.00000000000E+00  0.50000000000E+03  0.50000000000E+03  0.00000000000E+00 0. -1.
         11   -1    0    0    0    0 -0.00000000000E+00 -0.00000000000E+00 -0.50000000000E+03  0.50000000000E+03  0.00000000000E+00 0. -1.
        -11    1    1    2    0    0 -0.11811542863E+02  0.74502121250E+01  0.45288333915E+03  0.45309859532E+03  0.00000000000E+00 0. -1.
         11    1    1    2    0    0 -0.14369692969E+02 -0.88727270799E+01 -0.49461843398E+03  0.49490666655E+03  0.00000000000E+00 0. -1.
        -15    1    1    2    0    0  0.20831972097E+02 -0.57990534598E+01  0.31615710319E+02  0.38344633920E+02  0.17770000000E+01 0. -1.
         15    1    1    2    0    0  0.53492637343E+01  0.72215684147E+01  0.10119384512E+02  0.13650104204E+02  0.17770000000E+01 0.  1.
</event>
<event>
 6    1  0.3411206E-003  0.5016445E+03  0.7546771E-02  0.9396137E-01
        -11   -1    0    0    0    0  0.00000000000E+00  0.00000000000E+00  0.50000000000E+03  0.50000000000E+03  0.00000000000E+00 0.  1.
         11   -1    0    0    0    0 -0.00000000000E+00 -0.00000000000E+00 -0.50000000000E+03  0.50000000000E+03  0.00000000000E+00 0. -1.
        -11    1    1    2    0    0  0.74121504282E+01  0.67697000350E+01  0.38639096890E+03  0.38652134438E+03  0.00000000000E+00 0.  1.
         11    1    1    2    0    0  0.49489270761E+01  0.45842634471E+01 -0.49830981581E+03  0.49835547542E+03  0.00000000000E+00 0. -1.
        -15    1    1    2    0    0 -0.16891103118E+02 -0.93162134773E+01  0.62748691588E+02  0.65670824748E+02  0.17770000000E+01 0. -1.
         15    1    1    2    0    0  0.45300256134E+01 -0.20377500049E+01  0.49170155316E+02  0.49452355453E+02  0.17770000000E+01 0.  1.
</event>
<event>
 6    1  0.3411206E-003  0.5488069E+03  0.7546771E-02  0.9296770E-01
        -11   -1    0    0    0    0  0.00000000000E+00  0.00000000000E+00  0.50000000000E+03  0.50000000000E+03  0.00000000000E+00 0.  1.
         11   -1    0    0    0    0 -0.00000000000E+00 -0.00000000000E+00 -0.50000000000E+03  0.50000000000E+03  0.00000000000E+00 0.  1.
        -11    1    1    2    0    0 -0.65734174855E+01  0.52711722335E+01  0.41508548583E+03  0.41517099564E+03  0.00000000000E+00 0.  1.
         11    1    1    2    0    0  0.10147532691E+02 -0.16391686677E+01 -0.45107595053E+03  0.45119305452E+03  0.00000000000E+00 0.  1.
        -15    1    1    2    0    0 -0.38282056166E+02  0.36227637691E-01 -0.36649447676E+02  0.53026944855E+02  0.17770000000E+01 0.  1.
         15    1    1    2    0    0  0.34707940960E+02 -0.36682312034E+01  0.72639912382E+02  0.80609004991E+02  0.17770000000E+01 0. -1.
</event>
<event>
 6    1  0.3411206E-003  0.5091394E+03  0.7546771E-02  0.9379589E-01
        -11   -1    0    0    0    0  0.00000000000E+00  0.00000000000E+00  0.50000000000E+03  0.50000000000E+03  0.00000000000E+00 0.  1.
         11   -1    0    0    0    0 -0.00000000000E+00 -0.00000000000E+00 -0.50000000000E+03  0.50000000000E+03  0.00000000000E+00 0. -1.
        -11    1    1    2    0    0 -0.27318480306E+01 -0.57988071359E+01  0.46538893074E+03  0.46543307362E+03  0.00000000000E+00 0.  1.
         11    1    1    2    0    0  0.65284586614E+01  0.12787065739E+02 -0.49065057277E+03  0.49086058548E+03  0.00000000000E+00 0. -1.
        -15    1    1    2    0    0 -0.85489899283E+01 -0.81404325113E+01 -0.50423330560E+01  0.12958962995E+02  0.17770000000E+01 0.  1.
         15    1    1    2    0    0  0.47523792975E+01  0.11521739077E+01  0.30303975077E+02  0.30747377907E+02  0.17770000000E+01 0. -1.
</event>
<event>
 6    1  0.3411206E-003  0.5082505E+03  0.7546771E-02  0.9381535E-01
        -11   -1    0    0    0    0  0.00000000000E+00  0.00000000000E+00  0.50000000000E+03  0.50000000000E+03  0.00000000000E+00 0. -1.
         11   -1    0    0    0    0 -0.00000000000E+00 -0.00000000000E+00 -0.50000000000E+03  0.50000000000E+03  0.00000000000E+00 0.  1.
        -11    1    1    2    0    0 -0.36128315698E+01  0.12747581792E+02  0.48532867105E+03  0.48550949768E+03  0.00000000000E+00 0. -1.
         11    1    1    2    0    0  0.57066206231E+01 -0.73894138305E+01 -0.49166081205E+03  0.49174945151E+03  0.00000000000E+00 0.  1.
        -15    1    1    2    0    0 -0.83495727703E+01  0.37677952043E+01  0.67669902039E+01  0.11526557663E+02  0.17770000000E+01 0. -1.
         15    1    1    2    0    0  0.62557837170E+01 -0.91259631658E+01 -0.43484920146E+00  0.11214493143E+02  0.17770000000E+01 0.  1.
</event>
<event>
 6    1  0.3411206E-003  0.5010229E+03  0.7546771E-02  0.9397524E-01
        -11   -1    0    0    0    0  0.00000000000E+00  0.00000000000E+00  0.50000000000E+03  0.50000000000E+03  0.00000000000E+00 0.  1.
         11   -1    0    0    0    0 -0.00000000000E+00 -0.00000000000E+00 -0.50000000000E+03  0.50000000000E+03  0.00000000000E+00 0.  1.
        -11    1    1    2    0    0 -0.11454402027E+02 -0.83684956334E+01  0.34413887867E+03  0.34443112933E+03  0.00000000000E+00 0.  1.
         11    1    1    2    0    0 -0.56508511586E+01  0.51127258954E+01 -0.49891891032E+03  0.49897710484E+03  0.00000000000E+00 0.  1.
        -15    1    1    2    0    0  0.33793235762E+01 -0.14639316819E+01  0.71297256167E+01  0.82191021511E+01  0.17770000000E+01 0.  1.
         15    1    1    2    0    0  0.13725929610E+02  0.47197014199E+01  0.14765030603E+03  0.14837266367E+03  0.17770000000E+01 0. -1.
</event>
<event>
 6    1  0.3411206E-003  0.5044200E+03  0.7546771E-02  0.9389974E-01
        -11   -1    0    0    0    0  0.00000000000E+00  0.00000000000E+00  0.50000000000E+03  0.50000000000E+03  0.00000000000E+00 0.  1.
         11   -1    0    0    0    0 -0.00000000000E+00 -0.00000000000E+00 -0.50000000000E+03  0.50000000000E+03  0.00000000000E+00 0. -1.
        -11    1    1    2    0    0  0.41615732528E+01 -0.56047795521E+01  0.49553080499E+03  0.49557997431E+03  0.00000000000E+00 0.  1.
         11    1    1    2    0    0  0.66969500705E+00 -0.26306736436E+01 -0.43508465389E+02  0.43593067060E+02  0.00000000000E+00 0. -1.
        -15    1    1    2    0    0  0.21013415121E+01 -0.26831459128E+01  0.34516568157E+01  0.51659047526E+01  0.17770000000E+01 0.  1.
         15    1    1    2    0    0 -0.69326097719E+01  0.10918599109E+02 -0.45547399641E+03  0.45566105388E+03  0.17770000000E+01 0. -1.
</event>
<event>
 6    1  0.3411206E-003  0.5097194E+03  0.7546771E-02  0.9378321E-01
        -11   -1    0    0    0    0  0.00000000000E+00  0.00000000000E+00  0.50000000000E+03  0.50000000000E+03  0.00000000000E+00 0.  1.
         11   -1    0    0    0    0 -0.00000000000E+00 -0.00000000000E+00 -0.50000000000E+03  0.50000000000E+03  0.00000000000E+00 0. -1.
        -11    1    1    2    0    0 -0.13319034993E+03  0.20623289441E+02  0.47139162979E+03  0.49028059111E+03  0.00000000000E+00 0.  1.
         11    1    1    2    0    0  0.51277810231E+01  0.14248325479E+01 -0.11615995551E+03  0.11628181092E+03  0.00000000000E+00 0. -1.
        -15    1    1    2    0    0  0.12532698084E+03 -0.14581286631E+02 -0.19048087330E+03  0.22848541937E+03  0.17770000000E+01 0.  1.
         15    1    1    2    0    0  0.27355880684E+01 -0.74668353576E+01 -0.16475080098E+03  0.16495217860E+03  0.17770000000E+01 0. -1.
</event>
<event>
 6    1  0.3411206E-003  0.5143307E+03  0.7546771E-02  0.9368302E-01
        -11   -1    0    0    0    0  0.00000000000E+00  0.00000000000E+00  0.50000000000E+03  0.50000000000E+03  0.00000000000E+00 0.  1.
         11   -1    0    0    0    0 -0.00000000000E+00 -0.00000000000E+00 -0.50000000000E+03  0.50000000000E+03  0.00000000000E+00 0.  1.
        -11    1    1    2    0    0  0.55093904762E+01 -0.16738054994E+02  0.45541514852E+03  0.45575593619E+03  0.00000000000E+00 0.  1.
         11    1    1    2    0    0 -0.22866157025E+01  0.12851397811E+02 -0.48549383326E+03  0.48566927962E+03  0.00000000000E+00 0.  1.
        -15    1    1    2    0    0  0.19286608418E+02 -0.66527427422E+01  0.26360867428E+02  0.33380912373E+02  0.17770000000E+01 0. -1.
         15    1    1    2    0    0 -0.22509383192E+02  0.10539399925E+02  0.37178173069E+01  0.25193871814E+02  0.17770000000E+01 0.  1.
</event>
<event>
 6    1  0.3411206E-003  0.5000683E+03  0.7546771E-02  0.9399657E-01
        -11   -1    0    0    0    0  0.00000000000E+00  0.00000000000E+00  0.50000000000E+03  0.50000000000E+03  0.00000000000E+00 0. -1.
         11   -1    0    0    0    0 -0.00000000000E+00 -0.00000000000E+00 -0.50000000000E+03  0.50000000000E+03  0.00000000000E+00 0. -1.
        -11    1    1    2    0    0  0.93845235421E+00  0.62745869012E+01  0.20568350680E+03  0.20578133079E+03  0.00000000000E+00 0. -1.
         11    1    1    2    0    0 -0.39786713297E+01 -0.70569144474E+01 -0.49986606078E+03  0.49993170392E+03  0.00000000000E+00 0. -1.
        -15    1    1    2    0    0  0.48576820304E+01  0.28284440536E+00  0.21350535910E+03  0.21356819325E+03  0.17770000000E+01 0. -1.
         15    1    1    2    0    0 -0.18174630549E+01  0.49948314086E+00  0.80677194878E+02  0.80718772029E+02  0.17770000000E+01 0.  1.
</event>
<event>
 6    1  0.3411206E-003  0.5035952E+03  0.7546771E-02  0.9391801E-01
        -11   -1    0    0    0    0  0.00000000000E+00  0.00000000000E+00  0.50000000000E+03  0.50000000000E+03  0.00000000000E+00 0. -1.
         11   -1    0    0    0    0 -0.00000000000E+00 -0.00000000000E+00 -0.50000000000E+03  0.50000000000E+03  0.00000000000E+00 0.  1.
        -11    1    1    2    0    0 -0.61008846761E+01 -0.64064290973E+01  0.42458423428E+03  0.42467638870E+03  0.00000000000E+00 0. -1.
         11    1    1    2    0    0 -0.11282751270E+01 -0.16640938403E+02 -0.49612447241E+03  0.49640476021E+03  0.00000000000E+00 0.  1.
        -15    1    1    2    0    0 -0.70086357758E+00  0.11742819747E+02  0.58980052779E+02  0.60168009608E+02  0.17770000000E+01 0. -1.
         15    1    1    2    0    0  0.79300233807E+01  0.11304547753E+02  0.12560185358E+02  0.18750841473E+02  0.17770000000E+01 0.  1.
</event>
<event>
 6    1  0.3411206E-003  0.5028290E+03  0.7546771E-02  0.9393502E-01
        -11   -1    0    0    0    0  0.00000000000E+00  0.00000000000E+00  0.50000000000E+03  0.50000000000E+03  0.00000000000E+00 0.  1.
         11   -1    0    0    0    0 -0.00000000000E+00 -0.00000000000E+00 -0.50000000000E+03  0.50000000000E+03  0.00000000000E+00 0. -1.
        -11    1    1    2    0    0  0.32108106810E+01  0.51823804798E+01  0.13465326229E+03  0.13479119934E+03  0.00000000000E+00 0.  1.
         11    1    1    2    0    0  0.14902468870E+02 -0.29280550386E+02 -0.49608427591E+03  0.49717104000E+03  0.00000000000E+00 0. -1.
        -15    1    1    2    0    0 -0.10419117518E+02  0.42106182353E+02  0.16465983733E+03  0.17028654780E+03  0.17770000000E+01 0.  1.
         15    1    1    2    0    0 -0.76941620333E+01 -0.18008012447E+02  0.19677117629E+03  0.19775121286E+03  0.17770000000E+01 0. -1.
</event>
<event>
 6    1  0.3411206E-003  0.5103182E+03  0.7546771E-02  0.9377013E-01
        -11   -1    0    0    0    0  0.00000000000E+00  0.00000000000E+00  0.50000000000E+03  0.50000000000E+03  0.00000000000E+00 0. -1.
         11   -1    0    0    0    0 -0.00000000000E+00 -0.00000000000E+00 -0.50000000000E+03  0.50000000000E+03  0.00000000000E+00 0. -1.
        -11    1    1    2    0    0  0.73826799226E+00 -0.14401437475E+02  0.40124489700E+03  0.40150393997E+03  0.00000000000E+00 0. -1.
         11    1    1    2    0    0  0.83325834348E+01 -0.82143135849E+01 -0.48954198226E+03  0.48968179391E+03  0.00000000000E+00 0. -1.
        -15    1    1    2    0    0  0.39621614798E+01  0.91567863771E+01  0.89390724703E+02  0.89963352829E+02  0.17770000000E+01 0. -1.
         15    1    1    2    0    0 -0.13033012907E+02  0.13458964683E+02 -0.10936394463E+01  0.18850913294E+02  0.17770000000E+01 0.  1.
</event>
<event>
 6    1  0.3411206E-003  0.5036543E+03  0.7546771E-02  0.9391670E-01
        -11   -1    0    0    0    0  0.00000000000E+00  0.00000000000E+00  0.50000000000E+03  0.50000000000E+03  0.00000000000E+00 0.  1.
         11   -1    0    0    0    0 -0.00000000000E+00 -0.00000000000E+00 -0.50000000000E+03  0.50000000000E+03  0.00000000000E+00 0.  1.
        -11    1    1    2    0    0 -0.66838395421E+01 -0.32378079975E+01  0.49629011382E+03  0.49634568013E+03  0.00000000000E+00 0.  1.
         11    1    1    2    0    0  0.53602923114E+00 -0.17896513025E+02 -0.44099762567E+03  0.44136093886E+03  0.00000000000E+00 0.  1.
        -15    1    1    2    0    0  0.61770100456E+01  0.22013589964E+02 -0.34623405539E+02  0.41529405683E+02  0.17770000000E+01 0.  1.
         15    1    1    2    0    0 -0.29199734597E-01 -0.87926894144E+00 -0.20669082606E+02  0.20763975325E+02  0.17770000000E+01 0. -1.
</event>
<event>
 6    1  0.3411206E-003  0.5234995E+03  0.7546771E-02  0.9348710E-01
        -11   -1    0    0    0    0  0.00000000000E+00  0.00000000000E+00  0.50000000000E+03  0.50000000000E+03  0.00000000000E+00 0.  1.
         11   -1    0    0    0    0 -0.00000000000E+00 -0.00000000000E+00 -0.50000000000E+03  0.50000000000E+03  0.00000000000E+00 0.  1.
        -11    1    1    2    0    0  0.10893442303E+02  0.32837633736E+02  0.47524279138E+03  0.47650045964E+03  0.00000000000E+00 0.  1.
         11    1    1    2    0    0 -0.52786518684E+00 -0.16106541191E+02 -0.31660169153E+03  0.31701156192E+03  0.00000000000E+00 0.  1.
        -15    1    1    2    0    0  0.41805465306E+02  0.37304962876E+02 -0.80406529903E+02  0.98019003079E+02  0.17770000000E+01 0. -1.
         15    1    1    2    0    0 -0.52171042423E+02 -0.54036055420E+02 -0.78234569949E+02  0.10846897537E+03  0.17770000000E+01 0.  1.
</event>
<event>
 6    1  0.3411206E-003  0.5095829E+03  0.7546771E-02  0.9378619E-01
        -11   -1    0    0    0    0  0.00000000000E+00  0.00000000000E+00  0.50000000000E+03  0.50000000000E+03  0.00000000000E+00 0. -1.
         11   -1    0    0    0    0 -0.00000000000E+00 -0.00000000000E+00 -0.50000000000E+03  0.50000000000E+03  0.00000000000E+00 0.  1.
        -11    1    1    2    0    0  0.40091528467E+01 -0.75866369186E+01  0.11535807120E+03  0.11567676930E+03  0.00000000000E+00 0. -1.
         11    1    1    2    0    0 -0.48751488498E+01 -0.72875185969E+01 -0.49033873014E+03  0.49041711356E+03  0.00000000000E+00 0.  1.
        -15    1    1    2    0    0 -0.16250281191E+02 -0.58674773378E+00  0.36984849970E+03  0.37021005709E+03  0.17770000000E+01 0. -1.
         15    1    1    2    0    0  0.17116277194E+02  0.15460903249E+02  0.51321592453E+01  0.23696060047E+02  0.17770000000E+01 0.  1.
</event>
<event>
 6    1  0.3411206E-003  0.5054841E+03  0.7546771E-02  0.9387622E-01
        -11   -1    0    0    0    0  0.00000000000E+00  0.00000000000E+00  0.50000000000E+03  0.50000000000E+03  0.00000000000E+00 0. -1.
         11   -1    0    0    0    0 -0.00000000000E+00 -0.00000000000E+00 -0.50000000000E+03  0.50000000000E+03  0.00000000000E+00 0.  1.
        -11    1    1    2    0    0 -0.80600138383E+01 -0.13792209140E+01  0.49444827642E+03  0.49451588865E+03  0.00000000000E+00 0. -1.
         11    1    1    2    0    0  0.57767828692E+01  0.63229737369E+01 -0.43179592332E+03  0.43188085233E+03  0.00000000000E+00 0.  1.
        -15    1    1    2    0    0 -0.95512021389E+01 -0.34017114532E+01 -0.60471988510E+02  0.61341798363E+02  0.17770000000E+01 0. -1.
         15    1    1    2    0    0  0.11834433108E+02 -0.15420413698E+01 -0.21803645962E+01  0.12261460653E+02  0.17770000000E+01 0.  1.
</event>
<event>
 6    1  0.3411206E-003  0.5057568E+03  0.7546771E-02  0.9387020E-01
        -11   -1    0    0    0    0  0.00000000000E+00  0.00000000000E+00  0.50000000000E+03  0.50000000000E+03  0.00000000000E+00 0. -1.
         11   -1    0    0    0    0 -0.00000000000E+00 -0.00000000000E+00 -0.50000000000E+03  0.50000000000E+03  0.00000000000E+00 0. -1.
        -11    1    1    2    0    0 -0.19512531824E+02 -0.29334611454E+02  0.49298592727E+03  0.49424324256E+03  0.00000000000E+00 0. -1.
         11    1    1    2    0    0  0.31071191404E+01  0.35229384100E+01 -0.26638398770E+03  0.26642540079E+03  0.00000000000E+00 0. -1.
        -15    1    1    2    0    0 -0.11683479437E+01  0.10582520959E+02 -0.21099055270E+03  0.21126648064E+03  0.17770000000E+01 0. -1.
         15    1    1    2    0    0  0.17573760627E+02  0.15229152086E+02 -0.15611386876E+02  0.28064876002E+02  0.17770000000E+01 0.  1.
</event>
<event>
 6    1  0.3411206E-003  0.5433722E+03  0.7546771E-02  0.9307671E-01
        -11   -1    0    0    0    0  0.00000000000E+00  0.00000000000E+00  0.50000000000E+03  0.50000000000E+03  0.00000000000E+00 0.  1.
         11   -1    0    0    0    0 -0.00000000000E+00 -0.00000000000E+00 -0.50000000000E+03  0.50000000000E+03  0.00000000000E+00 0.  1.
        -11    1    1    2    0    0  0.10773468645E+02  0.59712929216E+01  0.45646163296E+03  0.45662779846E+03  0.00000000000E+00 0.  1.
         11    1    1    2    0    0  0.62209425942E+01  0.34414470944E+01 -0.43214247352E+03  0.43220094991E+03  0.00000000000E+00 0.  1.
        -15    1    1    2    0    0 -0.60500712177E+02  0.81684752376E+01 -0.87477312994E+01  0.61698790049E+02  0.17770000000E+01 0.  1.
         15    1    1    2    0    0  0.43506300938E+02 -0.17581215254E+02 -0.15571428137E+02  0.49472461575E+02  0.17770000000E+01 0. -1.
</event>
<event>
 6    1  0.3411206E-003  0.5005600E+03  0.7546771E-02  0.9398558E-01
        -11   -1    0    0    0    0  0.00000000000E+00  0.00000000000E+00  0.50000000000E+03  0.50000000000E+03  0.00000000000E+00 0. -1.
         11   -1    0    0    0    0 -0.00000000000E+00 -0.00000000000E+00 -0.50000000000E+03  0.50000000000E+03  0.00000000000E+00 0. -1.
        -11    1    1    2    0    0  0.49295247703E+01 -0.67424601377E+01  0.38063465939E+03  0.38072628608E+03  0.00000000000E+00 0. -1.
         11    1    1    2    0    0 -0.91610253649E+01  0.81499527367E+01 -0.49928949713E+03  0.49944003450E+03  0.00000000000E+00 0. -1.
        -15    1    1    2    0    0 -0.30123701849E+01 -0.36553182686E+01  0.13942062916E+02  0.14831539809E+02  0.17770000000E+01 0.  1.
         15    1    1    2    0    0  0.72438707796E+01  0.22478256696E+01  0.10471277482E+03  0.10500213961E+03  0.17770000000E+01 0. -1.
</event>
<event>
 6    1  0.3411206E-003  0.5066228E+03  0.7546771E-02  0.9385112E-01
        -11   -1    0    0    0    0  0.00000000000E+00  0.00000000000E+00  0.50000000000E+03  0.50000000000E+03  0.00000000000E+00 0. -1.
         11   -1    0    0    0    0 -0.00000000000E+00 -0.00000000000E+00 -0.50000000000E+03  0.50000000000E+03  0.00000000000E+00 0.  1.
        -11    1    1    2    0    0 -0.70530894465E+01  0.26712853714E+01  0.49331959029E+03  0.49337723904E+03  0.00000000000E+00 0. -1.
         11    1    1    2    0    0 -0.82930810590E+01  0.43501151867E+01 -0.46068478021E+03  0.46077995336E+03  0.00000000000E+00 0.  1.
        -15    1    1    2    0    0  0.12198126916E+00  0.66502377741E+01  0.45199733485E+00  0.68994617524E+01  0.17770000000E+01 0. -1.
         15    1    1    2    0    0  0.15224189236E+02 -0.13671638332E+02 -0.33086807410E+02  0.38943345853E+02  0.17770000000E+01 0.  1.
</event>
<event>
 6    1  0.3411206E-003  0.5080533E+03  0.7546771E-02  0.9381968E-01
        -11   -1    0    0    0    0  0.00000000000E+00  0.00000000000E+00  0.50000000000E+03  0.50000000000E+03  0.00000000000E+00 0. -1.
         11   -1    0    0    0    0 -0.00000000000E+00 -0.00000000000E+00 -0.50000000000E+03  0.50000000000E+03  0.00000000000E+00 0. -1.
        -11    1    1    2    0    0  0.40214378439E+00  0.12499199091E+02  0.48327760745E+03  0.48343938354E+03  0.00000000000E+00 0. -1.
         11    1    1    2    0    0 -0.73394734084E+01 -0.95089710478E+01 -0.49180002679E+03  0.49194669910E+03  0.00000000000E+00 0. -1.
        -15    1    1    2    0    0  0.50817927600E+01 -0.12032499237E+02  0.74794830323E+01  0.15156056578E+02  0.17770000000E+01 0.  1.
         15    1    1    2    0    0  0.18555368639E+01  0.90422711941E+01  0.10429363097E+01  0.94578607807E+01  0.17770000000E+01 0. -1.
</event>
<event>
 6    1  0.3411206E-003  0.5002235E+03  0.7546771E-02  0.9399310E-01
        -11   -1    0    0    0    0  0.00000000000E+00  0.00000000000E+00  0.50000000000E+03  0.50000000000E+03  0.00000000000E+00 0. -1.
         11   -1    0    0    0    0 -0.00000000000E+00 -0.00000000000E+00 -0.50000000000E+03  0.50000000000E+03  0.00000000000E+00 0. -1.
        -11    1    1    2    0    0  0.58182560348E+01  0.35142403772E-01  0.28911393574E+03  0.28917247652E+03  0.00000000000E+00 0. -1.
         11    1    1    2    0    0 -0.69197411247E+01  0.50260520643E+00 -0.49972833115E+03  0.49977649043E+03  0.00000000000E+00 0. -1.
        -15    1    1    2    0    0  0.40316214055E+01 -0.30210476277E+01  0.36860102245E+02  0.37245208638E+02  0.17770000000E+01 0. -1.
         15    1    1    2    0    0 -0.29301363156E+01  0.24833000175E+01  0.17375429317E+03  0.17380582442E+03  0.17770000000E+01 0.  1.
</event>
<event>
 6    1  0.3411206E-003  0.5075455E+03  0.7546771E-02  0.9383082E-01
        -11   -1    0    0    0    0  0.00000000000E+00  0.00000000000E+00  0.50000000000E+03  0.50000000000E+03  0.00000000000E+00 0. -1.
         11   -1    0    0    0    0 -0.00000000000E+00 -0.00000000000E+00 -0.50000000000E+03  0.50000000000E+03  0.00000000000E+00 0. -1.
        -11    1    1    2    0    0 -0.83961047529E+01  0.19462668411E+02  0.49199806878E+03  0.49245445446E+03  0.00000000000E+00 0. -1.
         11    1    1    2    0    0 -0.26421760917E+01 -0.94241451762E+01 -0.46045200112E+03  0.46055601281E+03  0.00000000000E+00 0. -1.
        -15    1    1    2    0    0  0.14424178548E+02 -0.16325386186E+02 -0.32908795318E+02  0.39505970425E+02  0.17770000000E+01 0.  1.
         15    1    1    2    0    0 -0.33858977038E+01  0.62868629521E+01  0.13627276570E+01  0.74835623005E+01  0.17770000000E+01 0. -1.
</event>
<event>
 6    1  0.3411206E-003  0.5001193E+03  0.7546771E-02  0.9399543E-01
        -11   -1    0    0    0    0  0.00000000000E+00  0.00000000000E+00  0.50000000000E+03  0.50000000000E+03  0.00000000000E+00 0. -1.
         11   -1    0    0    0    0 -0.00000000000E+00 -0.00000000000E+00 -0.50000000000E+03  0.50000000000E+03  0.00000000000E+00 0.  1.
        -11    1    1    2    0    0 -0.27766077208E+01 -0.64398733859E+01  0.30778822606E+03  0.30786811075E+03  0.00000000000E+00 0. -1.
         11    1    1    2    0    0  0.75699637973E+01  0.37036409979E+01 -0.49980965579E+03  0.49988069909E+03  0.00000000000E+00 0.  1.
        -15    1    1    2    0    0 -0.43267831936E+01 -0.10889312585E+01  0.75555797835E+02  0.75708276559E+02  0.17770000000E+01 0.  1.
         15    1    1    2    0    0 -0.46657288292E+00  0.38251636465E+01  0.11646563189E+03  0.11654291359E+03  0.17770000000E+01 0. -1.
</event>
<event>
 6    1  0.3411206E-003  0.5002726E+03  0.7546771E-02  0.9399200E-01
        -11   -1    0    0    0    0  0.00000000000E+00  0.00000000000E+00  0.50000000000E+03  0.50000000000E+03  0.00000000000E+00 0. -1.
         11   -1    0    0    0    0 -0.00000000000E+00 -0.00000000000E+00 -0.50000000000E+03  0.50000000000E+03  0.00000000000E+00 0. -1.
        -11    1    1    2    0    0  0.98279398338E+01 -0.66703512857E+01  0.49958623656E+03  0.49972741545E+03  0.00000000000E+00 0. -1.
         11    1    1    2    0    0 -0.38269256915E+01  0.34809645229E+01 -0.23352470259E+03  0.23358199672E+03  0.00000000000E+00 0. -1.
        -15    1    1    2    0    0  0.43847746667E+01  0.43869135534E+01 -0.15208091478E+03  0.15221771786E+03  0.17770000000E+01 0. -1.
         15    1    1    2    0    0 -0.10385788809E+02 -0.11975267906E+01 -0.11398061919E+03  0.11447286997E+03  0.17770000000E+01 0.  1.
</event>
<event>
 6    1  0.3411206E-003  0.5000793E+03  0.7546771E-02  0.9399632E-01
        -11   -1    0    0    0    0  0.00000000000E+00  0.00000000000E+00  0.50000000000E+03  0.50000000000E+03  0.00000000000E+00 0.  1.
         11   -1    0    0    0    0 -0.00000000000E+00 -0.00000000000E+00 -0.50000000000E+03  0.50000000000E+03  0.00000000000E+00 0. -1.
        -11    1    1    2    0    0 -0.37275941971E+00  0.22615034525E+01  0.10466127472E+03  0.10468636862E+03  0.00000000000E+00 0.  1.
         11    1    1    2    0    0 -0.19138782530E+01 -0.89755394174E+01 -0.49983646768E+03  0.49992071137E+03  0.00000000000E+00 0. -1.
        -15    1    1    2    0    0  0.35472790708E+01  0.86386626449E+01  0.34693483003E+03  0.34706504246E+03  0.17770000000E+01 0.  1.
         15    1    1    2    0    0 -0.12606413980E+01 -0.19246266800E+01  0.48240362923E+02  0.48327877551E+02  0.17770000000E+01 0. -1.
</event>
<event>
 6    1  0.3411206E-003  0.5319974E+03  0.7546771E-02  0.9330928E-01
        -11   -1    0    0    0    0  0.00000000000E+00  0.00000000000E+00  0.50000000000E+03  0.50000000000E+03  0.00000000000E+00 0. -1.
         11   -1    0    0    0    0 -0.00000000000E+00 -0.00000000000E+00 -0.50000000000E+03  0.50000000000E+03  0.00000000000E+00 0.  1.
        -11    1    1    2    0    0 -0.19880335564E+02  0.18075018946E+02  0.37921263349E+03  0.38016332733E+03  0.00000000000E+00 0. -1.
         11    1    1    2    0    0 -0.14522545710E+02  0.16539426127E+01 -0.46777427530E+03  0.46800257745E+03  0.00000000000E+00 0.  1.
        -15    1    1    2    0    0  0.48033369385E+02 -0.38626625367E+02  0.10603105149E+03  0.12265790790E+03  0.17770000000E+01 0. -1.
         15    1    1    2    0    0 -0.13630488111E+02  0.18897663808E+02 -0.17469409669E+02  0.29176187324E+02  0.17770000000E+01 0.  1.
</event>
<event>
 6    1  0.3411206E-003  0.5058182E+03  0.7546771E-02  0.9386884E-01
        -11   -1    0    0    0    0  0.00000000000E+00  0.00000000000E+00  0.50000000000E+03  0.50000000000E+03  0.00000000000E+00 0.  1.
         11   -1    0    0    0    0 -0.00000000000E+00 -0.00000000000E+00 -0.50000000000E+03  0.50000000000E+03  0.00000000000E+00 0. -1.
        -11    1    1    2    0    0 -0.11360343747E+02 -0.16947389705E+01  0.49404828255E+03  0.49418178340E+03  0.00000000000E+00 0.  1.
         11    1    1    2    0    0 -0.72759951083E+01  0.69425297327E+01 -0.16441197809E+03  0.16471926835E+03  0.00000000000E+00 0. -1.
        -15    1    1    2    0    0  0.12796867020E+02 -0.51941166482E+00 -0.33258333300E+03  0.33283458461E+03  0.17770000000E+01 0. -1.
         15    1    1    2    0    0  0.58394718352E+01 -0.47283790974E+01  0.29470285415E+01  0.82643636432E+01  0.17770000000E+01 0.  1.
</event>
<event>
 6    1  0.3411206E-003  0.5058077E+03  0.7546771E-02  0.9386907E-01
        -11   -1    0    0    0    0  0.00000000000E+00  0.00000000000E+00  0.50000000000E+03  0.50000000000E+03  0.00000000000E+00 0.  1.
         11   -1    0    0    0    0 -0.00000000000E+00 -0.00000000000E+00 -0.50000000000E+03  0.50000000000E+03  0.00000000000E+00 0. -1.
        -11    1    1    2    0    0  0.13419455490E+02  0.54696948947E+01  0.49397976196E+03  0.49419227490E+03  0.00000000000E+00 0.  1.
         11    1    1    2    0    0  0.88616074995E+01  0.22094618244E+02 -0.36223053785E+03  0.36301193203E+03  0.00000000000E+00 0. -1.
        -15    1    1    2    0    0  0.46008445497E+01 -0.14900292700E+02 -0.13023672709E+02  0.20395104142E+02  0.17770000000E+01 0. -1.
         15    1    1    2    0    0 -0.26881907539E+02 -0.12664020439E+02 -0.11872555140E+03  0.12240068893E+03  0.17770000000E+01 0.  1.
</event>
<event>
 6    1  0.3411206E-003  0.5033920E+03  0.7546771E-02  0.9392252E-01
        -11   -1    0    0    0    0  0.00000000000E+00  0.00000000000E+00  0.50000000000E+03  0.50000000000E+03  0.00000000000E+00 0. -1.
         11   -1    0    0    0    0 -0.00000000000E+00 -0.00000000000E+00 -0.50000000000E+03  0.50000000000E+03  0.00000000000E+00 0. -1.
        -11    1    1    2    0    0  0.78357382717E+01  0.12368774524E+02  0.49639206072E+03  0.49660795737E+03  0.00000000000E+00 0. -1.
         11    1    1    2    0    0  0.92005661208E+01  0.84581566914E+01 -0.40069469324E+03  0.40088954591E+03  0.00000000000E+00 0. -1.
        -15    1    1    2    0    0 -0.70440953190E+01  0.13084111871E+01 -0.58644919605E+01  0.94276833661E+01  0.17770000000E+01 0.  1.
         15    1    1    2    0    0 -0.99922090736E+01 -0.22135342403E+02 -0.89832875523E+02  0.93074813345E+02  0.17770000000E+01 0. -1.
</event>
<event>
 6    1  0.5571560E-003  0.5079460E+03  0.7546771E-02  0.9382203E-01
        -11   -1    0    0    0    0  0.00000000000E+00  0.00000000000E+00  0.50000000000E+03  0.50000000000E+03  0.00000000000E+00 0. -1.
         11   -1    0    0    0    0 -0.00000000000E+00 -0.00000000000E+00 -0.50000000000E+03  0.50000000000E+03  0.00000000000E+00 0. -1.
        -11    1    1    2    0    0 -0.64094889269E+01 -0.82061449383E+01  0.49194384974E+03  0.49205403530E+03  0.00000000000E+00 0. -1.
         11    1    1    2    0    0 -0.33534015530E+00  0.78783617518E+00 -0.50988836165E+02  0.50996024868E+02  0.00000000000E+00 0. -1.
        -15    1    1    2    0    0  0.63877469671E+01 -0.24214019811E+01 -0.44578428763E+03  0.44584016791E+03  0.17770000000E+01 0. -1.
         15    1    1    2    0    0  0.35708211513E+00  0.98397107443E+01  0.48292740583E+01  0.11109771919E+02  0.17770000000E+01 0.  1.
</event>
<event>
 6    1  0.3411206E-003  0.5019028E+03  0.7546771E-02  0.9395562E-01
        -11   -1    0    0    0    0  0.00000000000E+00  0.00000000000E+00  0.50000000000E+03  0.50000000000E+03  0.00000000000E+00 0.  1.
         11   -1    0    0    0    0 -0.00000000000E+00 -0.00000000000E+00 -0.50000000000E+03  0.50000000000E+03  0.00000000000E+00 0. -1.
        -11    1    1    2    0    0 -0.81379592468E+01 -0.69489874688E+01  0.49798223910E+03  0.49809720464E+03  0.00000000000E+00 0.  1.
         11    1    1    2    0    0  0.71604284207E+01 -0.10955598948E+02 -0.42158023827E+03  0.42178334981E+03  0.00000000000E+00 0. -1.
        -15    1    1    2    0    0  0.26446158890E+01 -0.10288055959E+01 -0.38694939810E+01  0.51169470218E+01  0.17770000000E+01 0. -1.
         15    1    1    2    0    0 -0.16670850628E+01  0.18933392012E+02 -0.72532506854E+02  0.75002498527E+02  0.17770000000E+01 0.  1.
</event>
<event>
 6    1  0.3411206E-003  0.4876265E+03  0.7546771E-02  0.9427930E-01
        -11   -1    0    0    0    0  0.00000000000E+00  0.00000000000E+00  0.50000000000E+03  0.50000000000E+03  0.00000000000E+00 0. -1.
         11   -1    0    0    0    0 -0.00000000000E+00 -0.00000000000E+00 -0.50000000000E+03  0.50000000000E+03  0.00000000000E+00 0. -1.
        -11    1    1    2    0    0 -0.30683627111E+01  0.63858118003E+01  0.48724148894E+03  0.48729299399E+03  0.00000000000E+00 0. -1.
         11    1    1    2    0    0 -0.22643162937E+01 -0.11053159558E+02 -0.48785549367E+03  0.48798594464E+03  0.00000000000E+00 0. -1.
        -15    1    1    2    0    0  0.37120791927E+01 -0.37801846323E+01  0.10255224484E+02  0.11678899178E+02  0.17770000000E+01 0.  1.
         15    1    1    2    0    0  0.16205998121E+01  0.84475323899E+01 -0.96412197611E+01  0.13042162195E+02  0.17770000000E+01 0.  1.
</event>
<event>
 6    1  0.3411206E-003  0.5319764E+03  0.7546771E-02  0.9330972E-01
        -11   -1    0    0    0    0  0.00000000000E+00  0.00000000000E+00  0.50000000000E+03  0.50000000000E+03  0.00000000000E+00 0.  1.
         11   -1    0    0    0    0 -0.00000000000E+00 -0.00000000000E+00 -0.50000000000E+03  0.50000000000E+03  0.00000000000E+00 0. -1.
        -11    1    1    2    0    0 -0.36686759212E+02  0.26323831058E+02  0.46584030759E+03  0.46802356197E+03  0.00000000000E+00 0.  1.
         11    1    1    2    0    0 -0.22434105707E+01  0.17555755802E+02 -0.41481138196E+03  0.41518877641E+03  0.00000000000E+00 0. -1.
        -15    1    1    2    0    0 -0.27977023910E+01  0.41564918592E+01 -0.52841078794E+02  0.53107823344E+02  0.17770000000E+01 0. -1.
         15    1    1    2    0    0  0.41727872173E+02 -0.48036078720E+02  0.18121531711E+01  0.63679838277E+02  0.17770000000E+01 0.  1.
</event>
<event>
 6    1  0.3411206E-003  0.5016687E+03  0.7546771E-02  0.9396084E-01
        -11   -1    0    0    0    0  0.00000000000E+00  0.00000000000E+00  0.50000000000E+03  0.50000000000E+03  0.00000000000E+00 0.  1.
         11   -1    0    0    0    0 -0.00000000000E+00 -0.00000000000E+00 -0.50000000000E+03  0.50000000000E+03  0.00000000000E+00 0. -1.
        -11    1    1    2    0    0 -0.33021870810E+01 -0.61880758299E+01  0.46419942239E+03  0.46425241030E+03  0.00000000000E+00 0.  1.
         11    1    1    2    0    0  0.57906431850E+01 -0.48891763902E+01 -0.49827362951E+03  0.49833126077E+03  0.00000000000E+00 0. -1.
        -15    1    1    2    0    0  0.19984453214E+01  0.11196497892E+01  0.15715710415E+02  0.15980884900E+02  0.17770000000E+01 0.  1.
         15    1    1    2    0    0 -0.44869014254E+01  0.99576024309E+01  0.18358496701E+02  0.21435444028E+02  0.17770000000E+01 0. -1.
</event>
<event>
 6    1  0.3411206E-003  0.5112015E+03  0.7546771E-02  0.9375088E-01
        -11   -1    0    0    0    0  0.00000000000E+00  0.00000000000E+00  0.50000000000E+03  0.50000000000E+03  0.00000000000E+00 0. -1.
         11   -1    0    0    0    0 -0.00000000000E+00 -0.00000000000E+00 -0.50000000000E+03  0.50000000000E+03  0.00000000000E+00 0.  1.
        -11    1    1    2    0    0 -0.95227113166E+01 -0.21008309070E+01  0.44445028272E+03  0.44455725090E+03  0.00000000000E+00 0. -1.
         11    1    1    2    0    0  0.83265568991E+00 -0.14720075889E+02 -0.48857604417E+03  0.48879845016E+03  0.00000000000E+00 0.  1.
        -15    1    1    2    0    0 -0.74266674210E+01  0.52758378023E+01 -0.71009717410E+01  0.11686375921E+02  0.17770000000E+01 0. -1.
         15    1    1    2    0    0  0.16116723048E+02  0.11545068994E+02  0.51226733188E+02  0.54957923013E+02  0.17770000000E+01 0.  1.
</event>
<event>
 6    1  0.3411206E-003  0.5182880E+03  0.7546771E-02  0.9359794E-01
        -11   -1    0    0    0    0  0.00000000000E+00  0.00000000000E+00  0.50000000000E+03  0.50000000000E+03  0.00000000000E+00 0.  1.
         11   -1    0    0    0    0 -0.00000000000E+00 -0.00000000000E+00 -0.50000000000E+03  0.50000000000E+03  0.00000000000E+00 0. -1.
        -11    1    1    2    0    0 -0.32708981288E+02 -0.72658637883E-01  0.43302024236E+03  0.43425385782E+03  0.00000000000E+00 0.  1.
         11    1    1    2    0    0  0.13122875679E+01 -0.86105434746E+01 -0.48163320008E+03  0.48171195021E+03  0.00000000000E+00 0. -1.
        -15    1    1    2    0    0  0.60418421626E+01  0.11008995610E+02 -0.12498774330E+02  0.17806710246E+02  0.17770000000E+01 0. -1.
         15    1    1    2    0    0  0.25354851558E+02 -0.23257934973E+01  0.61111732046E+02  0.66227481724E+02  0.17770000000E+01 0.  1.
</event>
<event>
 6    1  0.3411206E-003  0.5005085E+03  0.7546771E-02  0.9398673E-01
        -11   -1    0    0    0    0  0.00000000000E+00  0.00000000000E+00  0.50000000000E+03  0.50000000000E+03  0.00000000000E+00 0.  1.
         11   -1    0    0    0    0 -0.00000000000E+00 -0.00000000000E+00 -0.50000000000E+03  0.50000000000E+03  0.00000000000E+00 0. -1.
        -11    1    1    2    0    0 -0.23851502594E+01  0.59152285609E+01  0.32337736518E+03  0.32344025597E+03  0.00000000000E+00 0.  1.
         11    1    1    2    0    0 -0.99138849729E+01 -0.11544415593E+02 -0.49925962034E+03  0.49949146854E+03  0.00000000000E+00 0. -1.
        -15    1    1    2    0    0  0.43035575846E+01  0.21691047937E+01  0.14022904893E+03  0.14032308975E+03  0.17770000000E+01 0.  1.
         15    1    1    2    0    0  0.79954776477E+01  0.34600822384E+01  0.35653206229E+02  0.36745185744E+02  0.17770000000E+01 0. -1.
</event>
<event>
 6    1  0.3411206E-003  0.5019847E+03  0.7546771E-02  0.9395380E-01
        -11   -1    0    0    0    0  0.00000000000E+00  0.00000000000E+00  0.50000000000E+03  0.50000000000E+03  0.00000000000E+00 0. -1.
         11   -1    0    0    0    0 -0.00000000000E+00 -0.00000000000E+00 -0.50000000000E+03  0.50000000000E+03  0.00000000000E+00 0.  1.
        -11    1    1    2    0    0 -0.16365258544E+02  0.40614818312E+01  0.49772980880E+03  0.49801534102E+03  0.00000000000E+00 0. -1.
         11    1    1    2    0    0  0.78440074949E+01  0.68728714847E+01 -0.42281022714E+03  0.42293882890E+03  0.00000000000E+00 0.  1.
        -15    1    1    2    0    0  0.11062231599E+02 -0.15482864039E+01 -0.17887379563E+02  0.21163322881E+02  0.17770000000E+01 0. -1.
         15    1    1    2    0    0 -0.25409805498E+01 -0.93860669120E+01 -0.57032202102E+02  0.57882507201E+02  0.17770000000E+01 0.  1.
</event>
<event>
 6    1  0.3411206E-003  0.5026725E+03  0.7546771E-02  0.9393850E-01
        -11   -1    0    0    0    0  0.00000000000E+00  0.00000000000E+00  0.50000000000E+03  0.50000000000E+03  0.00000000000E+00 0. -1.
         11   -1    0    0    0    0 -0.00000000000E+00 -0.00000000000E+00 -0.50000000000E+03  0.50000000000E+03  0.00000000000E+00 0. -1.
        -11    1    1    2    0    0 -0.49454641721E+01  0.58728195838E+01  0.49726826748E+03  0.49732753540E+03  0.00000000000E+00 0. -1.
         11    1    1    2    0    0  0.65244199079E+01 -0.30523374623E+01 -0.49292355263E+03  0.49297617950E+03  0.00000000000E+00 0. -1.
        -15    1    1    2    0    0 -0.37307327596E+01  0.68360724425E+00 -0.21436559330E+01  0.47051754002E+01  0.17770000000E+01 0. -1.
         15    1    1    2    0    0  0.21517770239E+01 -0.35040893658E+01 -0.22010589220E+01  0.49911096985E+01  0.17770000000E+01 0.  1.
</event>
<event>
 6    1  0.3411206E-003  0.5038721E+03  0.7546771E-02  0.9391187E-01
        -11   -1    0    0    0    0  0.00000000000E+00  0.00000000000E+00  0.50000000000E+03  0.50000000000E+03  0.00000000000E+00 0. -1.
         11   -1    0    0    0    0 -0.00000000000E+00 -0.00000000000E+00 -0.50000000000E+03  0.50000000000E+03  0.00000000000E+00 0. -1.
        -11    1    1    2    0    0  0.59054344683E+01 -0.41886873245E+01  0.40222284022E+03  0.40228799690E+03  0.00000000000E+00 0. -1.
         11    1    1    2    0    0 -0.67083337407E+01  0.67515883353E+01 -0.49603660118E+03  0.49612790226E+03  0.00000000000E+00 0. -1.
        -15    1    1    2    0    0 -0.47064949347E+01 -0.19692155278E+02  0.41004019686E+02  0.45764827471E+02  0.17770000000E+01 0.  1.
         15    1    1    2    0    0  0.55093942071E+01  0.17129254267E+02  0.52809741276E+02  0.55819273365E+02  0.17770000000E+01 0. -1.
</event>
<event>
 6    1  0.3411206E-003  0.5013441E+03  0.7546771E-02  0.9396807E-01
        -11   -1    0    0    0    0  0.00000000000E+00  0.00000000000E+00  0.50000000000E+03  0.50000000000E+03  0.00000000000E+00 0.  1.
         11   -1    0    0    0    0 -0.00000000000E+00 -0.00000000000E+00 -0.50000000000E+03  0.50000000000E+03  0.00000000000E+00 0.  1.
        -11    1    1    2    0    0 -0.13773693137E-01 -0.70873687620E+01  0.21031915768E+03  0.21043853989E+03  0.00000000000E+00 0.  1.
         11    1    1    2    0    0 -0.46334374732E+01  0.53206606286E+02 -0.49578757177E+03  0.49865592147E+03  0.00000000000E+00 0.  1.
        -15    1    1    2    0    0  0.53234132709E+01  0.23532618549E+01  0.58221194466E+02  0.58538378729E+02  0.17770000000E+01 0. -1.
         15    1    1    2    0    0 -0.67620210464E+00 -0.48472499379E+02  0.22724721963E+03  0.23236715991E+03  0.17770000000E+01 0.  1.
</event>
<event>
 6    1  0.3411206E-003  0.5003484E+03  0.7546771E-02  0.9399031E-01
        -11   -1    0    0    0    0  0.00000000000E+00  0.00000000000E+00  0.50000000000E+03  0.50000000000E+03  0.00000000000E+00 0.  1.
         11   -1    0    0    0    0 -0.00000000000E+00 -0.00000000000E+00 -0.50000000000E+03  0.50000000000E+03  0.00000000000E+00 0.  1.
        -11    1    1    2    0    0  0.93358659793E+01 -0.27586581062E+01  0.49955680423E+03  0.49965164789E+03  0.00000000000E+00 0.  1.
         11    1    1    2    0    0  0.66897220934E+01  0.27046947062E+00 -0.23070307048E+03  0.23080019988E+03  0.00000000000E+00 0.  1.
        -15    1    1    2    0    0 -0.23313538577E+01  0.45073930224E+01 -0.72586428958E+02  0.72785295222E+02  0.17770000000E+01 0. -1.
         15    1    1    2    0    0 -0.13694234215E+02 -0.20192043868E+01 -0.19626730479E+03  0.19676285700E+03  0.17770000000E+01 0.  1.
</event>
<event>
 6    1  0.3411206E-003  0.5072314E+03  0.7546771E-02  0.9383773E-01
        -11   -1    0    0    0    0  0.00000000000E+00  0.00000000000E+00  0.50000000000E+03  0.50000000000E+03  0.00000000000E+00 0.  1.
         11   -1    0    0    0    0 -0.00000000000E+00 -0.00000000000E+00 -0.50000000000E+03  0.50000000000E+03  0.00000000000E+00 0. -1.
        -11    1    1    2    0    0 -0.75582194638E+00 -0.81783818180E+01  0.49270011514E+03  0.49276856703E+03  0.00000000000E+00 0.  1.
         11    1    1    2    0    0 -0.89850036387E+01 -0.40449939087E+02 -0.24928835841E+03  0.25270855447E+03  0.00000000000E+00 0. -1.
        -15    1    1    2    0    0  0.66357333826E+01  0.64500590797E+01 -0.22680840694E+01  0.96921697263E+01  0.17770000000E+01 0.  1.
         15    1    1    2    0    0  0.31050922024E+01  0.42178261826E+02 -0.24114367266E+03  0.24483070878E+03  0.17770000000E+01 0. -1.
</event>
<event>
 6    1  0.8682979E-003  0.3484035E+03  0.7546771E-02  0.9822482E-01
        -11   -1    0    0    0    0  0.00000000000E+00  0.00000000000E+00  0.50000000000E+03  0.50000000000E+03  0.00000000000E+00 0. -1.
         11   -1    0    0    0    0 -0.00000000000E+00 -0.00000000000E+00 -0.50000000000E+03  0.50000000000E+03  0.00000000000E+00 0. -1.
        -11    1    1    2    0    0 -0.14001074622E+01 -0.77625758555E+00  0.99159465998E+02  0.99172388162E+02  0.00000000000E+00 0. -1.
         11    1    1    2    0    0 -0.19959076445E+01 -0.14688863368E+03 -0.38103702576E+03  0.40837417812E+03  0.00000000000E+00 0. -1.
        -15    1    1    2    0    0  0.11823049011E+02 -0.28488242896E+02  0.31200860610E+03  0.31353451562E+03  0.17770000000E+01 0.  1.
         15    1    1    2    0    0 -0.84270339047E+01  0.17615313416E+03 -0.30131046340E+02  0.17891891811E+03  0.17770000000E+01 0. -1.
</event>
<event>
 6    1  0.3411206E-003  0.5033178E+03  0.7546771E-02  0.9392416E-01
        -11   -1    0    0    0    0  0.00000000000E+00  0.00000000000E+00  0.50000000000E+03  0.50000000000E+03  0.00000000000E+00 0.  1.
         11   -1    0    0    0    0 -0.00000000000E+00 -0.00000000000E+00 -0.50000000000E+03  0.50000000000E+03  0.00000000000E+00 0. -1.
        -11    1    1    2    0    0  0.53968223004E+01  0.10139742347E+02  0.45241198687E+03  0.45255778187E+03  0.00000000000E+00 0.  1.
         11    1    1    2    0    0  0.20079015938E+01  0.75719503756E+01 -0.49662038764E+03  0.49668216750E+03  0.00000000000E+00 0. -1.
        -15    1    1    2    0    0 -0.93235118034E+01 -0.17419066819E+02  0.27857168725E+02  0.34198411360E+02  0.17770000000E+01 0.  1.
         15    1    1    2    0    0  0.19187879092E+01 -0.29262590363E+00  0.16351232042E+02  0.16561639269E+02  0.17770000000E+01 0. -1.
</event>
<event>
 6    1  0.3411206E-003  0.5001453E+03  0.7546771E-02  0.9399485E-01
        -11   -1    0    0    0    0  0.00000000000E+00  0.00000000000E+00  0.50000000000E+03  0.50000000000E+03  0.00000000000E+00 0. -1.
         11   -1    0    0    0    0 -0.00000000000E+00 -0.00000000000E+00 -0.50000000000E+03  0.50000000000E+03  0.00000000000E+00 0.  1.
        -11    1    1    2    0    0 -0.76744865826E+01 -0.97849621634E+00  0.49979483110E+03  0.49985470728E+03  0.00000000000E+00 0. -1.
         11    1    1    2    0    0 -0.31527060132E+01  0.28151643480E+00 -0.20918446091E+03  0.20920840684E+03  0.00000000000E+00 0.  1.
        -15    1    1    2    0    0  0.53744749747E+00  0.16118173536E+01 -0.25209845217E+02  0.25329445905E+02  0.17770000000E+01 0. -1.
         15    1    1    2    0    0  0.10289745098E+02 -0.91483757203E+00 -0.26540052497E+03  0.26560743997E+03  0.17770000000E+01 0.  1.
</event>
<event>
 6    1  0.3411206E-003  0.5229393E+03  0.7546771E-02  0.9349895E-01
        -11   -1    0    0    0    0  0.00000000000E+00  0.00000000000E+00  0.50000000000E+03  0.50000000000E+03  0.00000000000E+00 0.  1.
         11   -1    0    0    0    0 -0.00000000000E+00 -0.00000000000E+00 -0.50000000000E+03  0.50000000000E+03  0.00000000000E+00 0.  1.
        -11    1    1    2    0    0 -0.38205105840E+01  0.11033726444E+02  0.28630498498E+03  0.28654298777E+03  0.00000000000E+00 0.  1.
         11    1    1    2    0    0 -0.51566694739E+01 -0.54029280307E+01 -0.47700224890E+03  0.47706071765E+03  0.00000000000E+00 0.  1.
        -15    1    1    2    0    0  0.80813526579E+01  0.80017366303E+01 -0.21161805062E+02  0.24089744132E+02  0.17770000000E+01 0.  1.
         15    1    1    2    0    0  0.89582740000E+00 -0.13632535044E+02  0.21185906899E+03  0.21230655044E+03  0.17770000000E+01 0.  1.
</event>
<event>
 6    1  0.3411206E-003  0.5060354E+03  0.7546771E-02  0.9386405E-01
        -11   -1    0    0    0    0  0.00000000000E+00  0.00000000000E+00  0.50000000000E+03  0.50000000000E+03  0.00000000000E+00 0.  1.
         11   -1    0    0    0    0 -0.00000000000E+00 -0.00000000000E+00 -0.50000000000E+03  0.50000000000E+03  0.00000000000E+00 0.  1.
        -11    1    1    2    0    0 -0.62330138703E+01 -0.68747974265E+01  0.42581859113E+03  0.42591969413E+03  0.00000000000E+00 0.  1.
         11    1    1    2    0    0 -0.21148423522E+01  0.76535640580E+01 -0.49390073195E+03  0.49396455604E+03  0.00000000000E+00 0.  1.
        -15    1    1    2    0    0  0.12293891295E+02 -0.14138935127E+01  0.62555842734E+00  0.12517504160E+02  0.17770000000E+01 0. -1.
         15    1    1    2    0    0 -0.39460350730E+01  0.63512688124E+00  0.67456582398E+02  0.67598245664E+02  0.17770000000E+01 0.  1.
</event>
<event>
 6    1  0.3411206E-003  0.5163531E+03  0.7546771E-02  0.9363944E-01
        -11   -1    0    0    0    0  0.00000000000E+00  0.00000000000E+00  0.50000000000E+03  0.50000000000E+03  0.00000000000E+00 0.  1.
         11   -1    0    0    0    0 -0.00000000000E+00 -0.00000000000E+00 -0.50000000000E+03  0.50000000000E+03  0.00000000000E+00 0.  1.
        -11    1    1    2    0    0 -0.98234220528E+01  0.36335291647E+01  0.29951044705E+03  0.29969352687E+03  0.00000000000E+00 0.  1.
         11    1    1    2    0    0  0.15495967352E+02  0.10126149009E+02 -0.48329255266E+03  0.48364693254E+03  0.00000000000E+00 0.  1.
        -15    1    1    2    0    0  0.46066763950E+02 -0.32883644741E+01  0.14194285779E+03  0.14927790422E+03  0.17770000000E+01 0.  1.
         15    1    1    2    0    0 -0.51739309249E+02 -0.10471313699E+02  0.41839247823E+02  0.67381636367E+02  0.17770000000E+01 0.  1.
</event>
<event>
 6    1  0.3411206E-003  0.5153121E+03  0.7546771E-02  0.9366185E-01
        -11   -1    0    0    0    0  0.00000000000E+00  0.00000000000E+00  0.50000000000E+03  0.50000000000E+03  0.00000000000E+00 0. -1.
         11   -1    0    0    0    0 -0.00000000000E+00 -0.00000000000E+00 -0.50000000000E+03  0.50000000000E+03  0.00000000000E+00 0. -1.
        -11    1    1    2    0    0 -0.24075546817E+02  0.14950702307E+02  0.35407841809E+03  0.35521075661E+03  0.00000000000E+00 0. -1.
         11    1    1    2    0    0 -0.38874161016E-01 -0.40454348117E+02 -0.48299664266E+03  0.48468785069E+03  0.00000000000E+00 0. -1.
        -15    1    1    2    0    0  0.36259492663E+02  0.26242784490E+02  0.13782249626E+03  0.14491940088E+03  0.17770000000E+01 0. -1.
         15    1    1    2    0    0 -0.12145071685E+02 -0.73913867998E+00 -0.89042716946E+01  0.15181991820E+02  0.17770000000E+01 0.  1.
</event>
<event>
 6    1  0.5449794E-003  0.5002082E+03  0.7546771E-02  0.9399344E-01
        -11   -1    0    0    0    0  0.00000000000E+00  0.00000000000E+00  0.50000000000E+03  0.50000000000E+03  0.00000000000E+00 0.  1.
         11   -1    0    0    0    0 -0.00000000000E+00 -0.00000000000E+00 -0.50000000000E+03  0.50000000000E+03  0.00000000000E+00 0. -1.
        -11    1    1    2    0    0 -0.53455024968E+01  0.54064703543E+01  0.49973400168E+03  0.49979183342E+03  0.00000000000E+00 0.  1.
         11    1    1    2    0    0 -0.30138812180E+01  0.15222823961E+01 -0.23240159494E+03  0.23242612193E+03  0.00000000000E+00 0. -1.
        -15    1    1    2    0    0  0.28881079954E+00 -0.24184715991E+01 -0.16244150371E+03  0.16246948105E+03  0.17770000000E+01 0.  1.
         15    1    1    2    0    0  0.80705729153E+01 -0.45102811513E+01 -0.10489090304E+03  0.10531256360E+03  0.17770000000E+01 0. -1.
</event>
<event>
 6    1  0.3411206E-003  0.5017782E+03  0.7546771E-02  0.9395840E-01
        -11   -1    0    0    0    0  0.00000000000E+00  0.00000000000E+00  0.50000000000E+03  0.50000000000E+03  0.00000000000E+00 0. -1.
         11   -1    0    0    0    0 -0.00000000000E+00 -0.00000000000E+00 -0.50000000000E+03  0.50000000000E+03  0.00000000000E+00 0.  1.
        -11    1    1    2    0    0  0.14811394613E+02  0.33193124812E+01  0.40895023152E+03  0.40923182563E+03  0.00000000000E+00 0. -1.
         11    1    1    2    0    0  0.45116444457E+01 -0.55240928263E+01 -0.49817070611E+03  0.49822176083E+03  0.00000000000E+00 0.  1.
        -15    1    1    2    0    0 -0.58771664327E+01 -0.29170739358E+01  0.10543520347E+02  0.12544877677E+02  0.17770000000E+01 0.  1.
         15    1    1    2    0    0 -0.13445872626E+02  0.51218542808E+01  0.78676954248E+02  0.80001535864E+02  0.17770000000E+01 0. -1.
</event>
<event>
 6    1  0.3411206E-003  0.5119387E+03  0.7546771E-02  0.9373485E-01
        -11   -1    0    0    0    0  0.00000000000E+00  0.00000000000E+00  0.50000000000E+03  0.50000000000E+03  0.00000000000E+00 0. -1.
         11   -1    0    0    0    0 -0.00000000000E+00 -0.00000000000E+00 -0.50000000000E+03  0.50000000000E+03  0.00000000000E+00 0. -1.
        -11    1    1    2    0    0  0.71039263303E+00 -0.14645206798E+02  0.44704174967E+03  0.44728213992E+03  0.00000000000E+00 0. -1.
         11    1    1    2    0    0  0.42514486460E+01 -0.61982733839E+01 -0.48800343346E+03  0.48806131221E+03  0.00000000000E+00 0. -1.
        -15    1    1    2    0    0 -0.10912714757E+02 -0.10950336005E+02  0.52076275465E+01  0.16409579996E+02  0.17770000000E+01 0.  1.
         15    1    1    2    0    0  0.59508734776E+01  0.31793816187E+02  0.35754056242E+02  0.48246967880E+02  0.17770000000E+01 0. -1.
</event>
<event>
 6    1  0.3411206E-003  0.5053499E+03  0.7546771E-02  0.9387918E-01
        -11   -1    0    0    0    0  0.00000000000E+00  0.00000000000E+00  0.50000000000E+03  0.50000000000E+03  0.00000000000E+00 0.  1.
         11   -1    0    0    0    0 -0.00000000000E+00 -0.00000000000E+00 -0.50000000000E+03  0.50000000000E+03  0.00000000000E+00 0.  1.
        -11    1    1    2    0    0  0.13486729124E+01 -0.11023638921E+02  0.49452543160E+03  0.49465012083E+03  0.00000000000E+00 0.  1.
         11    1    1    2    0    0 -0.18471855495E+01  0.16744468692E+02 -0.44109511352E+03  0.44141668353E+03  0.00000000000E+00 0.  1.
        -15    1    1    2    0    0 -0.27151567532E+01  0.11257912366E+02 -0.54824143829E+01  0.12935503991E+02  0.17770000000E+01 0. -1.
         15    1    1    2    0    0  0.32136693903E+01 -0.16978742136E+02 -0.47947903697E+02  0.50997691648E+02  0.17770000000E+01 0.  1.
</event>
<event>
 6    1  0.3411206E-003  0.5018745E+03  0.7546771E-02  0.9395625E-01
        -11   -1    0    0    0    0  0.00000000000E+00  0.00000000000E+00  0.50000000000E+03  0.50000000000E+03  0.00000000000E+00 0. -1.
         11   -1    0    0    0    0 -0.00000000000E+00 -0.00000000000E+00 -0.50000000000E+03  0.50000000000E+03  0.00000000000E+00 0.  1.
        -11    1    1    2    0    0 -0.31507393020E+01  0.16658702539E+02  0.39673831529E+03  0.39710040336E+03  0.00000000000E+00 0. -1.
         11    1    1    2    0    0  0.11813611231E+02 -0.34792188023E+01 -0.49797319991E+03  0.49812546030E+03  0.00000000000E+00 0.  1.
        -15    1    1    2    0    0  0.11541973777E+01 -0.14107692047E+02  0.80391925559E+02  0.81647893853E+02  0.17770000000E+01 0.  1.
         15    1    1    2    0    0 -0.98170693067E+01  0.92820831098E+00  0.20842959058E+02  0.23126242490E+02  0.17770000000E+01 0. -1.
</event>
<event>
 6    1  0.3411206E-003  0.5056063E+03  0.7546771E-02  0.9387352E-01
        -11   -1    0    0    0    0  0.00000000000E+00  0.00000000000E+00  0.50000000000E+03  0.50000000000E+03  0.00000000000E+00 0. -1.
         11   -1    0    0    0    0 -0.00000000000E+00 -0.00000000000E+00 -0.50000000000E+03  0.50000000000E+03  0.00000000000E+00 0. -1.
        -11    1    1    2    0    0 -0.98023205284E+01 -0.94025786923E+00  0.39173399971E+03  0.39185774983E+03  0.00000000000E+00 0. -1.
         11    1    1    2    0    0  0.15385577317E+02  0.85559257985E+01 -0.49408013132E+03  0.49439366503E+03  0.00000000000E+00 0. -1.
        -15    1    1    2    0    0 -0.16889540550E+02 -0.22403014759E+02  0.41747559889E+02  0.50330588472E+02  0.17770000000E+01 0.  1.
         15    1    1    2    0    0  0.11306283761E+02  0.14787346829E+02  0.60598571713E+02  0.63417996668E+02  0.17770000000E+01 0. -1.
</event>
<event>
 6    1  0.4960135E-003  0.5089859E+03  0.7546771E-02  0.9379925E-01
        -11   -1    0    0    0    0  0.00000000000E+00  0.00000000000E+00  0.50000000000E+03  0.50000000000E+03  0.00000000000E+00 0. -1.
         11   -1    0    0    0    0 -0.00000000000E+00 -0.00000000000E+00 -0.50000000000E+03  0.50000000000E+03  0.00000000000E+00 0. -1.
        -11    1    1    2    0    0 -0.19753502244E+02 -0.25148267947E+01  0.49061013482E+03  0.49101408289E+03  0.00000000000E+00 0. -1.
         11    1    1    2    0    0  0.15944637731E+01 -0.27730048052E+01 -0.22050095386E+03  0.22052415406E+03  0.00000000000E+00 0. -1.
        -15    1    1    2    0    0  0.36347258278E+01  0.74676783525E+01  0.69705056266E+01  0.10987407770E+02  0.17770000000E+01 0.  1.
         15    1    1    2    0    0  0.14524312643E+02 -0.21798467526E+01 -0.27707968659E+03  0.27747435528E+03  0.17770000000E+01 0. -1.
</event>
<event>
 6    1  0.3411206E-003  0.5166566E+03  0.7546771E-02  0.9363292E-01
        -11   -1    0    0    0    0  0.00000000000E+00  0.00000000000E+00  0.50000000000E+03  0.50000000000E+03  0.00000000000E+00 0.  1.
         11   -1    0    0    0    0 -0.00000000000E+00 -0.00000000000E+00 -0.50000000000E+03  0.50000000000E+03  0.00000000000E+00 0.  1.
        -11    1    1    2    0    0 -0.17588370352E+02 -0.18130004677E+02  0.48268294442E+03  0.48334343140E+03  0.00000000000E+00 0.  1.
         11    1    1    2    0    0 -0.39116004964E+00  0.79836155733E+01 -0.45578752754E+03  0.45585761087E+03  0.00000000000E+00 0.  1.
        -15    1    1    2    0    0  0.13354716947E+02  0.16949917657E+02  0.93534445776E+01  0.23585860760E+02  0.17770000000E+01 0. -1.
         15    1    1    2    0    0  0.46248134543E+01 -0.68035285531E+01 -0.36248861456E+02  0.37213096970E+02  0.17770000000E+01 0.  1.
</event>
<event>
 6    1  0.3411206E-003  0.5011626E+03  0.7546771E-02  0.9397212E-01
        -11   -1    0    0    0    0  0.00000000000E+00  0.00000000000E+00  0.50000000000E+03  0.50000000000E+03  0.00000000000E+00 0.  1.
         11   -1    0    0    0    0 -0.00000000000E+00 -0.00000000000E+00 -0.50000000000E+03  0.50000000000E+03  0.00000000000E+00 0.  1.
        -11    1    1    2    0    0 -0.49870742009E+01  0.43595400066E+01  0.41185156894E+03  0.41190483286E+03  0.00000000000E+00 0.  1.
         11    1    1    2    0    0  0.75922332590E+01 -0.69166715406E+01 -0.49873162140E+03  0.49883736081E+03  0.00000000000E+00 0.  1.
        -15    1    1    2    0    0 -0.44001182205E+01  0.47046141729E+01  0.85341809635E+02  0.85603017678E+02  0.17770000000E+01 0.  1.
         15    1    1    2    0    0  0.17949591623E+01 -0.21474826389E+01  0.15382428322E+01  0.36547886519E+01  0.17770000000E+01 0. -1.
</event>
<event>
 6    1  0.3411206E-003  0.5081794E+03  0.7546771E-02  0.9381691E-01
        -11   -1    0    0    0    0  0.00000000000E+00  0.00000000000E+00  0.50000000000E+03  0.50000000000E+03  0.00000000000E+00 0. -1.
         11   -1    0    0    0    0 -0.00000000000E+00 -0.00000000000E+00 -0.50000000000E+03  0.50000000000E+03  0.00000000000E+00 0.  1.
        -11    1    1    2    0    0  0.32062887696E+01  0.35346579397E+02  0.49053831249E+03  0.49182059431E+03  0.00000000000E+00 0. -1.
         11    1    1    2    0    0  0.91595900708E+01  0.13479638124E+02 -0.37827373839E+03  0.37862464248E+03  0.00000000000E+00 0.  1.
        -15    1    1    2    0    0  0.85588104550E+01 -0.10791912530E+01 -0.36655598171E+02  0.37698919035E+02  0.17770000000E+01 0. -1.
         15    1    1    2    0    0 -0.20924689295E+02 -0.47747026268E+02 -0.75608975929E+02  0.91855844178E+02  0.17770000000E+01 0.  1.
</event>
<event>
 6    1  0.3411206E-003  0.5045534E+03  0.7546771E-02  0.9389678E-01
        -11   -1    0    0    0    0  0.00000000000E+00  0.00000000000E+00  0.50000000000E+03  0.50000000000E+03  0.00000000000E+00 0.  1.
         11   -1    0    0    0    0 -0.00000000000E+00 -0.00000000000E+00 -0.50000000000E+03  0.50000000000E+03  0.00000000000E+00 0.  1.
        -11    1    1    2    0    0 -0.45363210178E+01  0.81381806422E+01  0.49535893854E+03  0.49544655230E+03  0.00000000000E+00 0.  1.
         11    1    1    2    0    0 -0.44217337628E+01  0.77723967179E+01 -0.46774301075E+03  0.46782847924E+03  0.00000000000E+00 0.  1.
        -15    1    1    2    0    0  0.22825860205E+01 -0.24894513005E+01 -0.18927543120E+02  0.19308474416E+02  0.17770000000E+01 0. -1.
         15    1    1    2    0    0  0.66754687602E+01 -0.13421126060E+02 -0.86883846668E+01  0.17416494050E+02  0.17770000000E+01 0.  1.
</event>
<event>
 6    1  0.3411206E-003  0.5093453E+03  0.7546771E-02  0.9379138E-01
        -11   -1    0    0    0    0  0.00000000000E+00  0.00000000000E+00  0.50000000000E+03  0.50000000000E+03  0.00000000000E+00 0.  1.
         11   -1    0    0    0    0 -0.00000000000E+00 -0.00000000000E+00 -0.50000000000E+03  0.50000000000E+03  0.00000000000E+00 0.  1.
        -11    1    1    2    0    0 -0.85371878556E+01  0.15276374134E+02  0.49034249170E+03  0.49065467526E+03  0.00000000000E+00 0.  1.
         11    1    1    2    0    0 -0.46236144561E+01  0.10672246779E+02 -0.25436672689E+02  0.27969608139E+02  0.00000000000E+00 0.  1.
        -15    1    1    2    0    0 -0.59898987465E+01 -0.73470137762E+01  0.48936292860E+01  0.10814935738E+02  0.17770000000E+01 0. -1.
         15    1    1    2    0    0  0.19150701058E+02 -0.18601607137E+02 -0.46979944830E+03  0.47056078087E+03  0.17770000000E+01 0.  1.
</event>
<event>
 6    1  0.3411206E-003  0.5426469E+03  0.7546771E-02  0.9309135E-01
        -11   -1    0    0    0    0  0.00000000000E+00  0.00000000000E+00  0.50000000000E+03  0.50000000000E+03  0.00000000000E+00 0.  1.
         11   -1    0    0    0    0 -0.00000000000E+00 -0.00000000000E+00 -0.50000000000E+03  0.50000000000E+03  0.00000000000E+00 0.  1.
        -11    1    1    2    0    0 -0.44922230431E+01 -0.28845382193E+01  0.38164859817E+03  0.38168593518E+03  0.00000000000E+00 0.  1.
         11    1    1    2    0    0 -0.48019551187E+02  0.15651831119E+02 -0.45455579930E+03  0.45735307126E+03  0.00000000000E+00 0.  1.
        -15    1    1    2    0    0  0.11475774303E+02 -0.31064093907E+02  0.10209954497E+03  0.10735057587E+03  0.17770000000E+01 0. -1.
         15    1    1    2    0    0  0.41035999927E+02  0.18296801008E+02 -0.29192343841E+02  0.53610417692E+02  0.17770000000E+01 0.  1.
</event>
<event>
 6    1  0.3411206E-003  0.5294595E+03  0.7546771E-02  0.9336202E-01
        -11   -1    0    0    0    0  0.00000000000E+00  0.00000000000E+00  0.50000000000E+03  0.50000000000E+03  0.00000000000E+00 0.  1.
         11   -1    0    0    0    0 -0.00000000000E+00 -0.00000000000E+00 -0.50000000000E+03  0.50000000000E+03  0.00000000000E+00 0. -1.
        -11    1    1    2    0    0  0.12969061612E+02 -0.44055213567E+00  0.47036150567E+03  0.47054047293E+03  0.00000000000E+00 0.  1.
         11    1    1    2    0    0  0.58965431250E+01  0.42021034562E+01 -0.45270961090E+03  0.45276751064E+03  0.00000000000E+00 0. -1.
        -15    1    1    2    0    0 -0.13602880116E+02  0.81561249917E+01  0.26328545232E+02  0.30788159175E+02  0.17770000000E+01 0.  1.
         15    1    1    2    0    0 -0.52627246206E+01 -0.11917676312E+02 -0.43980440006E+02  0.45903857259E+02  0.17770000000E+01 0. -1.
</event>
<event>
 6    1  0.3411206E-003  0.5015670E+03  0.7546771E-02  0.9396310E-01
        -11   -1    0    0    0    0  0.00000000000E+00  0.00000000000E+00  0.50000000000E+03  0.50000000000E+03  0.00000000000E+00 0. -1.
         11   -1    0    0    0    0 -0.00000000000E+00 -0.00000000000E+00 -0.50000000000E+03  0.50000000000E+03  0.00000000000E+00 0.  1.
        -11    1    1    2    0    0  0.73985980202E+00  0.78089200800E+00  0.55870998055E+02  0.55881352959E+02  0.00000000000E+00 0. -1.
         11    1    1    2    0    0 -0.32565340649E+00 -0.14033960682E+02 -0.49823526583E+03  0.49843298267E+03  0.00000000000E+00 0.  1.
        -15    1    1    2    0    0 -0.27903713093E+00  0.18891318011E+02  0.53317015825E+02  0.56593477216E+02  0.17770000000E+01 0.  1.
         15    1    1    2    0    0 -0.13516926459E+00 -0.56382493365E+01  0.38904725195E+03  0.38909218715E+03  0.17770000000E+01 0. -1.
</event>
<event>
 6    1  0.3411206E-003  0.5021506E+03  0.7546771E-02  0.9395010E-01
        -11   -1    0    0    0    0  0.00000000000E+00  0.00000000000E+00  0.50000000000E+03  0.50000000000E+03  0.00000000000E+00 0.  1.
         11   -1    0    0    0    0 -0.00000000000E+00 -0.00000000000E+00 -0.50000000000E+03  0.50000000000E+03  0.00000000000E+00 0. -1.
        -11    1    1    2    0    0  0.25668405987E+01  0.10811108218E+02  0.49772535603E+03  0.49784937357E+03  0.00000000000E+00 0.  1.
         11    1    1    2    0    0  0.68138760879E+01 -0.70383244766E+01 -0.47655084688E+03  0.47665152531E+03  0.00000000000E+00 0. -1.
        -15    1    1    2    0    0 -0.55855981504E+01 -0.50986811063E+01 -0.63407756029E+01  0.10027892100E+02  0.17770000000E+01 0.  1.
         15    1    1    2    0    0 -0.37951185362E+01  0.13258973650E+01 -0.14833733550E+02  0.15471209020E+02  0.17770000000E+01 0. -1.
</event>
<event>
 6    1  0.3411206E-003  0.5188784E+03  0.7546771E-02  0.9358531E-01
        -11   -1    0    0    0    0  0.00000000000E+00  0.00000000000E+00  0.50000000000E+03  0.50000000000E+03  0.00000000000E+00 0.  1.
         11   -1    0    0    0    0 -0.00000000000E+00 -0.00000000000E+00 -0.50000000000E+03  0.50000000000E+03  0.00000000000E+00 0. -1.
        -11    1    1    2    0    0  0.17559803448E+02  0.26873034585E+02  0.48004946578E+03  0.48112160238E+03  0.00000000000E+00 0.  1.
         11    1    1    2    0    0 -0.10795170472E+02  0.22830419365E+01 -0.41199496233E+03  0.41214269006E+03  0.00000000000E+00 0. -1.
        -15    1    1    2    0    0  0.24206873952E+02 -0.76050157428E+01 -0.63848856211E+02  0.68728765298E+02  0.17770000000E+01 0.  1.
         15    1    1    2    0    0 -0.30971506928E+02 -0.21551060779E+02 -0.42056472355E+01  0.38006942257E+02  0.17770000000E+01 0. -1.
</event>
<event>
 6    1  0.3411206E-003  0.5033246E+03  0.7546771E-02  0.9392401E-01
        -11   -1    0    0    0    0  0.00000000000E+00  0.00000000000E+00  0.50000000000E+03  0.50000000000E+03  0.00000000000E+00 0.  1.
         11   -1    0    0    0    0 -0.00000000000E+00 -0.00000000000E+00 -0.50000000000E+03  0.50000000000E+03  0.00000000000E+00 0.  1.
        -11    1    1    2    0    0  0.76469074121E+01 -0.10352303104E+02  0.49650866585E+03  0.49667544799E+03  0.00000000000E+00 0.  1.
         11    1    1    2    0    0  0.11216154955E+02  0.18239799286E+02 -0.31248259331E+03  0.31321536286E+03  0.00000000000E+00 0.  1.
        -15    1    1    2    0    0 -0.22969883506E+02  0.12907524820E+02 -0.98703849504E+02  0.10217547348E+03  0.17770000000E+01 0.  1.
         15    1    1    2    0    0  0.41068211395E+01 -0.20795021002E+02 -0.85322223032E+02  0.87933715664E+02  0.17770000000E+01 0. -1.
</event>
<event>
 6    1  0.3411206E-003  0.5005073E+03  0.7546771E-02  0.9398675E-01
        -11   -1    0    0    0    0  0.00000000000E+00  0.00000000000E+00  0.50000000000E+03  0.50000000000E+03  0.00000000000E+00 0.  1.
         11   -1    0    0    0    0 -0.00000000000E+00 -0.00000000000E+00 -0.50000000000E+03  0.50000000000E+03  0.00000000000E+00 0.  1.
        -11    1    1    2    0    0 -0.73836151839E+01  0.11609393371E+02  0.49930322267E+03  0.49949274665E+03  0.00000000000E+00 0.  1.
         11    1    1    2    0    0  0.19147396969E+01 -0.33477751236E+01 -0.18508309145E+03  0.18512326858E+03  0.00000000000E+00 0.  1.
        -15    1    1    2    0    0  0.10847733806E+02 -0.11164679083E+02 -0.11502463347E+03  0.11608680985E+03  0.17770000000E+01 0.  1.
         15    1    1    2    0    0 -0.53788583193E+01  0.29030608361E+01 -0.19919549775E+03  0.19929717492E+03  0.17770000000E+01 0. -1.
</event>
<event>
 6    1  0.3411206E-003  0.5090101E+03  0.7546771E-02  0.9379872E-01
        -11   -1    0    0    0    0  0.00000000000E+00  0.00000000000E+00  0.50000000000E+03  0.50000000000E+03  0.00000000000E+00 0.  1.
         11   -1    0    0    0    0 -0.00000000000E+00 -0.00000000000E+00 -0.50000000000E+03  0.50000000000E+03  0.00000000000E+00 0. -1.
        -11    1    1    2    0    0  0.16976093326E+02 -0.44359007413E+00  0.45051726807E+03  0.45083721380E+03  0.00000000000E+00 0.  1.
         11    1    1    2    0    0  0.28940248732E+01  0.66086062260E+01 -0.49093692751E+03  0.49098993457E+03  0.00000000000E+00 0. -1.
        -15    1    1    2    0    0 -0.14776284224E+02 -0.65982302897E+01  0.46949313141E+02  0.49691759396E+02  0.17770000000E+01 0.  1.
         15    1    1    2    0    0 -0.50938339751E+01  0.43321413786E+00 -0.65296536968E+01  0.84810922324E+01  0.17770000000E+01 0. -1.
</event>
<event>
 6    1  0.3411206E-003  0.5039635E+03  0.7546771E-02  0.9390984E-01
        -11   -1    0    0    0    0  0.00000000000E+00  0.00000000000E+00  0.50000000000E+03  0.50000000000E+03  0.00000000000E+00 0. -1.
         11   -1    0    0    0    0 -0.00000000000E+00 -0.00000000000E+00 -0.50000000000E+03  0.50000000000E+03  0.00000000000E+00 0.  1.
        -11    1    1    2    0    0 -0.42786489120E+01  0.20550052239E+02  0.19372093334E+03  0.19485484725E+03  0.00000000000E+00 0. -1.
         11    1    1    2    0    0 -0.12263765010E+02  0.24529991278E+02 -0.49527777269E+03  0.49603648306E+03  0.00000000000E+00 0.  1.
        -15    1    1    2    0    0  0.28901124630E+02 -0.45885702058E+02  0.26414820470E+03  0.26966313139E+03  0.17770000000E+01 0. -1.
         15    1    1    2    0    0 -0.12358710708E+02  0.80565854094E+00  0.37408634654E+02  0.39445538299E+02  0.17770000000E+01 0.  1.
</event>
<event>
 6    1  0.3411206E-003  0.5066332E+03  0.7546771E-02  0.9385088E-01
        -11   -1    0    0    0    0  0.00000000000E+00  0.00000000000E+00  0.50000000000E+03  0.50000000000E+03  0.00000000000E+00 0.  1.
         11   -1    0    0    0    0 -0.00000000000E+00 -0.00000000000E+00 -0.50000000000E+03  0.50000000000E+03  0.00000000000E+00 0.  1.
        -11    1    1    2    0    0 -0.87888427076E+01  0.36245271500E+01  0.49327516508E+03  0.49336676969E+03  0.00000000000E+00 0.  1.
         11    1    1    2    0    0  0.21531329766E+01  0.62074746160E+01 -0.27350389148E+03  0.27358279803E+03  0.00000000000E+00 0.  1.
        -15    1    1    2    0    0  0.32328777516E+00 -0.71280493218E+01 -0.22443876243E+03  0.22455918910E+03  0.17770000000E+01 0.  1.
         15    1    1    2    0    0  0.63124219559E+01 -0.27039524443E+01  0.46674888261E+01  0.84912431782E+01  0.17770000000E+01 0. -1.
</event>
<event>
 6    1  0.3411206E-003  0.5181512E+03  0.7546771E-02  0.9360086E-01
        -11   -1    0    0    0    0  0.00000000000E+00  0.00000000000E+00  0.50000000000E+03  0.50000000000E+03  0.00000000000E+00 0.  1.
         11   -1    0    0    0    0 -0.00000000000E+00 -0.00000000000E+00 -0.50000000000E+03  0.50000000000E+03  0.00000000000E+00 0.  1.
        -11    1    1    2    0    0 -0.38667901896E+01  0.84113211530E+01  0.48175983649E+03  0.48184877549E+03  0.00000000000E+00 0.  1.
         11    1    1    2    0    0  0.37980891156E+01  0.93295365648E+01 -0.44619419951E+03  0.44630788634E+03  0.00000000000E+00 0.  1.
        -15    1    1    2    0    0 -0.19692085145E+02 -0.30262287672E+02 -0.31672324627E+02  0.48061191712E+02  0.17770000000E+01 0.  1.
         15    1    1    2    0    0  0.19760786219E+02  0.12521429954E+02 -0.38933123523E+01  0.23782146458E+02  0.17770000000E+01 0. -1.
</event>
<event>
 6    1  0.3411206E-003  0.5134349E+03  0.7546771E-02  0.9370240E-01
        -11   -1    0    0    0    0  0.00000000000E+00  0.00000000000E+00  0.50000000000E+03  0.50000000000E+03  0.00000000000E+00 0. -1.
         11   -1    0    0    0    0 -0.00000000000E+00 -0.00000000000E+00 -0.50000000000E+03  0.50000000000E+03  0.00000000000E+00 0.  1.
        -11    1    1    2    0    0  0.77768505471E+01 -0.14739201886E+01  0.48650072334E+03  0.48656510936E+03  0.00000000000E+00 0. -1.
         11    1    1    2    0    0 -0.77115081125E+01 -0.47994167178E+01 -0.47025622279E+03  0.47034393462E+03  0.00000000000E+00 0.  1.
        -15    1    1    2    0    0 -0.10132103953E+02  0.39994721538E+01  0.99630227105E+01  0.14868586300E+02  0.17770000000E+01 0. -1.
         15    1    1    2    0    0  0.10066761518E+02  0.22738647526E+01 -0.26207523256E+02  0.28222369720E+02  0.17770000000E+01 0.  1.
</event>
<event>
 6    1  0.3411206E-003  0.5346429E+03  0.7546771E-02  0.9325465E-01
        -11   -1    0    0    0    0  0.00000000000E+00  0.00000000000E+00  0.50000000000E+03  0.50000000000E+03  0.00000000000E+00 0.  1.
         11   -1    0    0    0    0 -0.00000000000E+00 -0.00000000000E+00 -0.50000000000E+03  0.50000000000E+03  0.00000000000E+00 0. -1.
        -11    1    1    2    0    0  0.42815997041E+01 -0.47215531592E+01  0.41765468143E+03  0.41770331347E+03  0.00000000000E+00 0.  1.
         11    1    1    2    0    0 -0.17858099813E+02 -0.11779910833E+02 -0.46486505977E+03  0.46535706917E+03  0.00000000000E+00 0. -1.
        -15    1    1    2    0    0  0.13392074858E+02  0.78568715519E+01  0.80754837587E+02  0.82253143541E+02  0.17770000000E+01 0.  1.
         15    1    1    2    0    0  0.18442525116E+00  0.86445924400E+01 -0.33544459245E+02  0.34686473821E+02  0.17770000000E+01 0. -1.
</event>
<event>
 6    1  0.3411206E-003  0.5002208E+03  0.7546771E-02  0.9399316E-01
        -11   -1    0    0    0    0  0.00000000000E+00  0.00000000000E+00  0.50000000000E+03  0.50000000000E+03  0.00000000000E+00 0. -1.
         11   -1    0    0    0    0 -0.00000000000E+00 -0.00000000000E+00 -0.50000000000E+03  0.50000000000E+03  0.00000000000E+00 0.  1.
        -11    1    1    2    0    0  0.89452026274E+00 -0.45337666662E+00  0.20328367103E+02  0.20353088856E+02  0.00000000000E+00 0. -1.
         11    1    1    2    0    0  0.39696990446E+01  0.11148327297E+02 -0.49963908612E+03  0.49977921134E+03  0.00000000000E+00 0.  1.
        -15    1    1    2    0    0 -0.12528112283E+01 -0.94421554977E+01  0.46000908657E+03  0.46011111842E+03  0.17770000000E+01 0. -1.
         15    1    1    2    0    0 -0.36114080790E+01 -0.12527951323E+01  0.19301632448E+02  0.19756581387E+02  0.17770000000E+01 0. -1.
</event>
<event>
 6    1  0.3411206E-003  0.3777777E+03  0.7546771E-02  0.9724440E-01
        -11   -1    0    0    0    0  0.00000000000E+00  0.00000000000E+00  0.50000000000E+03  0.50000000000E+03  0.00000000000E+00 0. -1.
         11   -1    0    0    0    0 -0.00000000000E+00 -0.00000000000E+00 -0.50000000000E+03  0.50000000000E+03  0.00000000000E+00 0. -1.
        -11    1    1    2    0    0 -0.53463702011E+01  0.76243959199E+00  0.97500792642E+02  0.97650240933E+02  0.00000000000E+00 0. -1.
         11    1    1    2    0    0  0.47094433910E+02  0.35566625942E+02 -0.44074648059E+03  0.44468003187E+03  0.00000000000E+00 0. -1.
        -15    1    1    2    0    0 -0.95792336524E+02  0.73146684353E+02  0.34077981938E+02  0.12526402417E+03  0.17770000000E+01 0.  1.
         15    1    1    2    0    0  0.54044272816E+02 -0.10947574989E+03  0.30916770601E+03  0.33240570303E+03  0.17770000000E+01 0. -1.
</event>
<event>
 6    1  0.3411206E-003  0.5033014E+03  0.7546771E-02  0.9392453E-01
        -11   -1    0    0    0    0  0.00000000000E+00  0.00000000000E+00  0.50000000000E+03  0.50000000000E+03  0.00000000000E+00 0.  1.
         11   -1    0    0    0    0 -0.00000000000E+00 -0.00000000000E+00 -0.50000000000E+03  0.50000000000E+03  0.00000000000E+00 0.  1.
        -11    1    1    2    0    0  0.69588061415E+00  0.65820620041E+01  0.47818230697E+03  0.47822811136E+03  0.00000000000E+00 0.  1.
         11    1    1    2    0    0 -0.19847950573E+01  0.65088029823E+01 -0.49665195699E+03  0.49669857087E+03  0.00000000000E+00 0.  1.
        -15    1    1    2    0    0  0.45494112653E+00 -0.68017357051E+01  0.19822652346E+01  0.73183115874E+01  0.17770000000E+01 0.  1.
         15    1    1    2    0    0  0.83397331665E+00 -0.62891292814E+01  0.16487384783E+02  0.17755006184E+02  0.17770000000E+01 0.  1.
</event>
<event>
 6    1  0.3411206E-003  0.5172429E+03  0.7546771E-02  0.9362033E-01
        -11   -1    0    0    0    0  0.00000000000E+00  0.00000000000E+00  0.50000000000E+03  0.50000000000E+03  0.00000000000E+00 0.  1.
         11   -1    0    0    0    0 -0.00000000000E+00 -0.00000000000E+00 -0.50000000000E+03  0.50000000000E+03  0.00000000000E+00 0. -1.
        -11    1    1    2    0    0  0.11331336303E+02  0.13978810972E+01  0.44296818499E+03  0.44311529670E+03  0.00000000000E+00 0.  1.
         11    1    1    2    0    0 -0.20923662970E+02  0.26603831095E+02 -0.48156915982E+03  0.48275710165E+03  0.00000000000E+00 0. -1.
        -15    1    1    2    0    0  0.21539540793E+02 -0.18766489291E+01  0.39791296598E+02  0.45320841152E+02  0.17770000000E+01 0.  1.
         15    1    1    2    0    0 -0.11947214126E+02 -0.26125063263E+02 -0.11903217693E+01  0.28806760505E+02  0.17770000000E+01 0. -1.
</event>
<event>
 6    1  0.3411206E-003  0.5024969E+03  0.7546771E-02  0.9394240E-01
        -11   -1    0    0    0    0  0.00000000000E+00  0.00000000000E+00  0.50000000000E+03  0.50000000000E+03  0.00000000000E+00 0. -1.
         11   -1    0    0    0    0 -0.00000000000E+00 -0.00000000000E+00 -0.50000000000E+03  0.50000000000E+03  0.00000000000E+00 0. -1.
        -11    1    1    2    0    0  0.54659032843E+01 -0.13410014973E+01  0.10825633868E+03  0.10840253340E+03  0.00000000000E+00 0. -1.
         11    1    1    2    0    0  0.40482933162E+02  0.18142382506E+02 -0.49552124292E+03  0.49750308151E+03  0.00000000000E+00 0. -1.
        -15    1    1    2    0    0  0.34587771044E+01 -0.15238635369E+02  0.19268436752E+03  0.19332512088E+03  0.17770000000E+01 0. -1.
         15    1    1    2    0    0 -0.49407613551E+02 -0.15627456392E+01  0.19458053673E+03  0.20076926421E+03  0.17770000000E+01 0.  1.
</event>
<event>
 6    1  0.3411206E-003  0.5001284E+03  0.7546771E-02  0.9399523E-01
        -11   -1    0    0    0    0  0.00000000000E+00  0.00000000000E+00  0.50000000000E+03  0.50000000000E+03  0.00000000000E+00 0.  1.
         11   -1    0    0    0    0 -0.00000000000E+00 -0.00000000000E+00 -0.50000000000E+03  0.50000000000E+03  0.00000000000E+00 0. -1.
        -11    1    1    2    0    0 -0.15803554763E+01  0.36402153606E+01  0.25500070827E+03  0.25503158610E+03  0.00000000000E+00 0.  1.
         11    1    1    2    0    0 -0.98984664059E+01 -0.94696156559E+00 -0.49977271409E+03  0.49987162564E+03  0.00000000000E+00 0. -1.
        -15    1    1    2    0    0  0.45025756484E+01 -0.34453674066E+00  0.75793990098E+02  0.75949184044E+02  0.17770000000E+01 0. -1.
         15    1    1    2    0    0  0.69762462339E+01 -0.23487170543E+01  0.16897801572E+03  0.16914760421E+03  0.17770000000E+01 0.  1.
</event>
<event>
 6    1  0.3411206E-003  0.5012208E+03  0.7546771E-02  0.9397082E-01
        -11   -1    0    0    0    0  0.00000000000E+00  0.00000000000E+00  0.50000000000E+03  0.50000000000E+03  0.00000000000E+00 0. -1.
         11   -1    0    0    0    0 -0.00000000000E+00 -0.00000000000E+00 -0.50000000000E+03  0.50000000000E+03  0.00000000000E+00 0.  1.
        -11    1    1    2    0    0 -0.22844901624E+01 -0.11742853665E+02  0.38630382887E+03  0.38648901887E+03  0.00000000000E+00 0. -1.
         11    1    1    2    0    0  0.11211730542E+02 -0.74670468948E+01 -0.49859726563E+03  0.49877920264E+03  0.00000000000E+00 0.  1.
        -15    1    1    2    0    0 -0.40695716407E+01  0.14160098998E+02  0.92001958124E+02  0.93191136084E+02  0.17770000000E+01 0.  1.
         15    1    1    2    0    0 -0.48576687386E+01  0.50498015616E+01  0.20291478633E+02  0.21540642412E+02  0.17770000000E+01 0. -1.
</event>
<event>
 6    1  0.3411206E-003  0.5005285E+03  0.7546771E-02  0.9398628E-01
        -11   -1    0    0    0    0  0.00000000000E+00  0.00000000000E+00  0.50000000000E+03  0.50000000000E+03  0.00000000000E+00 0.  1.
         11   -1    0    0    0    0 -0.00000000000E+00 -0.00000000000E+00 -0.50000000000E+03  0.50000000000E+03  0.00000000000E+00 0. -1.
        -11    1    1    2    0    0  0.32324571331E+01 -0.23222378576E+01  0.26574873374E+03  0.26577853760E+03  0.00000000000E+00 0.  1.
         11    1    1    2    0    0  0.10959404423E+02 -0.44844997223E+01 -0.49933114622E+03  0.49947153359E+03  0.00000000000E+00 0. -1.
        -15    1    1    2    0    0 -0.42197845651E+01  0.10850876016E+02  0.92536354679E+02  0.93282810627E+02  0.17770000000E+01 0.  1.
         15    1    1    2    0    0 -0.99720769909E+01 -0.40441384362E+01  0.14104605780E+03  0.14146711818E+03  0.17770000000E+01 0. -1.
</event>
<event>
 6    1  0.3411206E-003  0.5001074E+03  0.7546771E-02  0.9399569E-01
        -11   -1    0    0    0    0  0.00000000000E+00  0.00000000000E+00  0.50000000000E+03  0.50000000000E+03  0.00000000000E+00 0. -1.
         11   -1    0    0    0    0 -0.00000000000E+00 -0.00000000000E+00 -0.50000000000E+03  0.50000000000E+03  0.00000000000E+00 0. -1.
        -11    1    1    2    0    0 -0.96068213289E+01 -0.16072903174E+02  0.49954173061E+03  0.49989255831E+03  0.00000000000E+00 0. -1.
         11    1    1    2    0    0  0.54629370584E+00  0.13673189441E+01 -0.19314627262E+02  0.19370669173E+02  0.00000000000E+00 0. -1.
        -15    1    1    2    0    0  0.10090195623E+02  0.36586166792E+01 -0.22726104911E+03  0.22752129504E+03  0.17770000000E+01 0.  1.
         15    1    1    2    0    0 -0.10296680002E+01  0.11046967551E+02 -0.25296605424E+03  0.25321547748E+03  0.17770000000E+01 0. -1.
</event>
<event>
 6    1  0.3411206E-003  0.5034034E+03  0.7546771E-02  0.9392226E-01
        -11   -1    0    0    0    0  0.00000000000E+00  0.00000000000E+00  0.50000000000E+03  0.50000000000E+03  0.00000000000E+00 0. -1.
         11   -1    0    0    0    0 -0.00000000000E+00 -0.00000000000E+00 -0.50000000000E+03  0.50000000000E+03  0.00000000000E+00 0.  1.
        -11    1    1    2    0    0  0.16776565097E+01 -0.70856948388E+01  0.42738699835E+03  0.42744902381E+03  0.00000000000E+00 0. -1.
         11    1    1    2    0    0 -0.42132446744E+01  0.61316475904E+01 -0.49654090266E+03  0.49659663365E+03  0.00000000000E+00 0.  1.
        -15    1    1    2    0    0  0.83601606603E+01  0.69252926011E+01  0.65922433811E+02  0.66833950747E+02  0.17770000000E+01 0. -1.
         15    1    1    2    0    0 -0.58245724956E+01 -0.59712453526E+01  0.32314705032E+01  0.91203917915E+01  0.17770000000E+01 0.  1.
</event>
<event>
 6    1  0.3411206E-003  0.5018895E+03  0.7546771E-02  0.9395592E-01
        -11   -1    0    0    0    0  0.00000000000E+00  0.00000000000E+00  0.50000000000E+03  0.50000000000E+03  0.00000000000E+00 0. -1.
         11   -1    0    0    0    0 -0.00000000000E+00 -0.00000000000E+00 -0.50000000000E+03  0.50000000000E+03  0.00000000000E+00 0.  1.
        -11    1    1    2    0    0 -0.23197036982E+01 -0.13621098940E+02  0.49791880111E+03  0.49811047757E+03  0.00000000000E+00 0. -1.
         11    1    1    2    0    0 -0.66010863905E+01  0.73215306732E+01 -0.40256040014E+03  0.40268108338E+03  0.00000000000E+00 0.  1.
        -15    1    1    2    0    0  0.14673681178E+01  0.92662961319E+01 -0.11495365160E+02  0.14943846973E+02  0.17770000000E+01 0. -1.
         15    1    1    2    0    0  0.74534219709E+01 -0.29667278653E+01 -0.83863035810E+02  0.84264592075E+02  0.17770000000E+01 0.  1.
</event>
<event>
 6    1  0.3411206E-003  0.5024864E+03  0.7546771E-02  0.9394263E-01
        -11   -1    0    0    0    0  0.00000000000E+00  0.00000000000E+00  0.50000000000E+03  0.50000000000E+03  0.00000000000E+00 0. -1.
         11   -1    0    0    0    0 -0.00000000000E+00 -0.00000000000E+00 -0.50000000000E+03  0.50000000000E+03  0.00000000000E+00 0.  1.
        -11    1    1    2    0    0 -0.61931684197E+01  0.17808078985E+02  0.49715619970E+03  0.49751358767E+03  0.00000000000E+00 0. -1.
         11    1    1    2    0    0  0.27993839044E+01  0.84344457204E+01 -0.39522899496E+03  0.39532889457E+03  0.00000000000E+00 0.  1.
        -15    1    1    2    0    0  0.83300672731E+01 -0.26465381976E+02 -0.86917452117E+02  0.91255726809E+02  0.17770000000E+01 0. -1.
         15    1    1    2    0    0 -0.49362827577E+01  0.22285726968E+00 -0.15009752618E+02  0.15901790952E+02  0.17770000000E+01 0.  1.
</event>
<event>
 6    1  0.3411206E-003  0.5099765E+03  0.7546771E-02  0.9377759E-01
        -11   -1    0    0    0    0  0.00000000000E+00  0.00000000000E+00  0.50000000000E+03  0.50000000000E+03  0.00000000000E+00 0.  1.
         11   -1    0    0    0    0 -0.00000000000E+00 -0.00000000000E+00 -0.50000000000E+03  0.50000000000E+03  0.00000000000E+00 0. -1.
        -11    1    1    2    0    0 -0.76915113155E+01  0.31017752480E+01  0.48995328512E+03  0.49002347082E+03  0.00000000000E+00 0.  1.
         11    1    1    2    0    0 -0.16352064334E+02 -0.47792839996E+01 -0.28655148345E+03  0.28705745806E+03  0.00000000000E+00 0. -1.
        -15    1    1    2    0    0  0.95301672000E+01  0.52626128420E+01 -0.20711862421E+03  0.20741215346E+03  0.17770000000E+01 0.  1.
         15    1    1    2    0    0  0.14513408449E+02 -0.35851040904E+01  0.37168225399E+01  0.15506917648E+02  0.17770000000E+01 0. -1.
</event>
<event>
 6    1  0.3411206E-003  0.5176724E+03  0.7546771E-02  0.9361112E-01
        -11   -1    0    0    0    0  0.00000000000E+00  0.00000000000E+00  0.50000000000E+03  0.50000000000E+03  0.00000000000E+00 0.  1.
         11   -1    0    0    0    0 -0.00000000000E+00 -0.00000000000E+00 -0.50000000000E+03  0.50000000000E+03  0.00000000000E+00 0. -1.
        -11    1    1    2    0    0  0.48970227126E+01 -0.44525638191E+01  0.46629429228E+03  0.46634126257E+03  0.00000000000E+00 0.  1.
         11    1    1    2    0    0  0.40236651547E+01 -0.53601389480E+01 -0.48228100508E+03  0.48232757420E+03  0.00000000000E+00 0. -1.
        -15    1    1    2    0    0 -0.51753190705E+00 -0.29989271263E+01  0.30171163097E+02  0.30376277172E+02  0.17770000000E+01 0.  1.
         15    1    1    2    0    0 -0.84031559603E+01  0.12811629893E+02 -0.14184450297E+02  0.20954886061E+02  0.17770000000E+01 0. -1.
</event>
<event>
 6    1  0.3411206E-003  0.5003372E+03  0.7546771E-02  0.9399055E-01
        -11   -1    0    0    0    0  0.00000000000E+00  0.00000000000E+00  0.50000000000E+03  0.50000000000E+03  0.00000000000E+00 0.  1.
         11   -1    0    0    0    0 -0.00000000000E+00 -0.00000000000E+00 -0.50000000000E+03  0.50000000000E+03  0.00000000000E+00 0.  1.
        -11    1    1    2    0    0 -0.33314416033E+01  0.79696080797E+01  0.49958811338E+03  0.49966278247E+03  0.00000000000E+00 0.  1.
         11    1    1    2    0    0 -0.32551807534E+01  0.34173179005E+01 -0.25594682919E+03  0.25599033895E+03  0.00000000000E+00 0.  1.
        -15    1    1    2    0    0  0.43188542366E+01 -0.11535341646E+02 -0.23267204423E+03  0.23300462336E+03  0.17770000000E+01 0.  1.
         15    1    1    2    0    0  0.22677681201E+01  0.14841566618E+00 -0.10969239954E+02  0.11342255226E+02  0.17770000000E+01 0.  1.
</event>
<event>
 6    1  0.3411206E-003  0.5031514E+03  0.7546771E-02  0.9392786E-01
        -11   -1    0    0    0    0  0.00000000000E+00  0.00000000000E+00  0.50000000000E+03  0.50000000000E+03  0.00000000000E+00 0.  1.
         11   -1    0    0    0    0 -0.00000000000E+00 -0.00000000000E+00 -0.50000000000E+03  0.50000000000E+03  0.00000000000E+00 0. -1.
        -11    1    1    2    0    0 -0.42417305370E+01 -0.63265536081E+01  0.49679018106E+03  0.49684857004E+03  0.00000000000E+00 0.  1.
         11    1    1    2    0    0 -0.81395345007E+01  0.27995380657E+01 -0.47306265163E+03  0.47314095342E+03  0.00000000000E+00 0. -1.
        -15    1    1    2    0    0  0.39883489371E+01  0.26919369668E+01 -0.19951159263E+02  0.20599998466E+02  0.17770000000E+01 0. -1.
         15    1    1    2    0    0  0.83929161007E+01  0.83507857552E+00 -0.37763701648E+01  0.94104780708E+01  0.17770000000E+01 0.  1.
</event>
<event>
 6    1  0.3411206E-003  0.5002503E+03  0.7546771E-02  0.9399250E-01
        -11   -1    0    0    0    0  0.00000000000E+00  0.00000000000E+00  0.50000000000E+03  0.50000000000E+03  0.00000000000E+00 0. -1.
         11   -1    0    0    0    0 -0.00000000000E+00 -0.00000000000E+00 -0.50000000000E+03  0.50000000000E+03  0.00000000000E+00 0. -1.
        -11    1    1    2    0    0 -0.79500148418E+01 -0.27195764739E+01  0.49967906659E+03  0.49974970577E+03  0.00000000000E+00 0. -1.
         11    1    1    2    0    0  0.22525790014E+00  0.60254925621E+01 -0.96526153367E+02  0.96714298765E+02  0.00000000000E+00 0. -1.
        -15    1    1    2    0    0  0.38986909962E+00 -0.36042330325E+00 -0.55719769199E+01  0.58725257486E+01  0.17770000000E+01 0. -1.
         15    1    1    2    0    0  0.73348878421E+01 -0.29454927850E+01 -0.39758093630E+03  0.39766346972E+03  0.17770000000E+01 0. -1.
</event>
<event>
 6    1  0.3411206E-003  0.5023346E+03  0.7546771E-02  0.9394601E-01
        -11   -1    0    0    0    0  0.00000000000E+00  0.00000000000E+00  0.50000000000E+03  0.50000000000E+03  0.00000000000E+00 0.  1.
         11   -1    0    0    0    0 -0.00000000000E+00 -0.00000000000E+00 -0.50000000000E+03  0.50000000000E+03  0.00000000000E+00 0.  1.
        -11    1    1    2    0    0  0.54135116159E+01  0.11218535399E+02  0.49750951037E+03  0.49766542431E+03  0.00000000000E+00 0.  1.
         11    1    1    2    0    0 -0.96584808946E+01  0.39104695457E+01 -0.45463974038E+03  0.45475913576E+03  0.00000000000E+00 0.  1.
        -15    1    1    2    0    0  0.20310129249E+00 -0.59869860180E+01 -0.32379640565E+02  0.32977023877E+02  0.17770000000E+01 0. -1.
         15    1    1    2    0    0  0.40418679862E+01 -0.91420189268E+01 -0.10490129424E+02  0.14598416051E+02  0.17770000000E+01 0.  1.
</event>
<event>
 6    1  0.3411206E-003  0.4484836E+03  0.7546771E-02  0.9523087E-01
        -11   -1    0    0    0    0  0.00000000000E+00  0.00000000000E+00  0.50000000000E+03  0.50000000000E+03  0.00000000000E+00 0.  1.
         11   -1    0    0    0    0 -0.00000000000E+00 -0.00000000000E+00 -0.50000000000E+03  0.50000000000E+03  0.00000000000E+00 0. -1.
        -11    1    1    2    0    0  0.49679681205E+01  0.80589695039E+01  0.45549731300E+03  0.45559568681E+03  0.00000000000E+00 0.  1.
         11    1    1    2    0    0  0.31702222945E+00  0.54409692800E+02 -0.44033853871E+03  0.44368743936E+03  0.00000000000E+00 0. -1.
        -15    1    1    2    0    0  0.77557937763E+01 -0.75655183760E+02  0.96396610869E+00  0.76078552342E+02  0.17770000000E+01 0.  1.
         15    1    1    2    0    0 -0.13040784126E+02  0.13186521456E+02 -0.16122740396E+02  0.24638321485E+02  0.17770000000E+01 0. -1.
</event>
<event>
 6    1  0.3411206E-003  0.5023178E+03  0.7546771E-02  0.9394638E-01
        -11   -1    0    0    0    0  0.00000000000E+00  0.00000000000E+00  0.50000000000E+03  0.50000000000E+03  0.00000000000E+00 0. -1.
         11   -1    0    0    0    0 -0.00000000000E+00 -0.00000000000E+00 -0.50000000000E+03  0.50000000000E+03  0.00000000000E+00 0. -1.
        -11    1    1    2    0    0  0.24418894333E+02  0.20720333799E+02  0.49665074531E+03  0.49768220528E+03  0.00000000000E+00 0. -1.
         11    1    1    2    0    0  0.21067764441E+01  0.60073820979E+01 -0.32750914394E+03  0.32757100987E+03  0.00000000000E+00 0. -1.
        -15    1    1    2    0    0 -0.69291075831E+00 -0.17491131599E+01 -0.55184557938E+02  0.55245205095E+02  0.17770000000E+01 0.  1.
         15    1    1    2    0    0 -0.25832760018E+02 -0.24978602737E+02 -0.11395704344E+03  0.11950157975E+03  0.17770000000E+01 0.  1.
</event>
<event>
 6    1  0.3411206E-003  0.5039940E+03  0.7546771E-02  0.9390917E-01
        -11   -1    0    0    0    0  0.00000000000E+00  0.00000000000E+00  0.50000000000E+03  0.50000000000E+03  0.00000000000E+00 0.  1.
         11   -1    0    0    0    0 -0.00000000000E+00 -0.00000000000E+00 -0.50000000000E+03  0.50000000000E+03  0.00000000000E+00 0.  1.
        -11    1    1    2    0    0  0.47412070493E+01 -0.53489247088E+01  0.49595454276E+03  0.49600604686E+03  0.00000000000E+00 0.  1.
         11    1    1    2    0    0  0.42785205186E+01 -0.38153611673E+01 -0.41063892281E+03  0.41067893499E+03  0.00000000000E+00 0.  1.
        -15    1    1    2    0    0 -0.51433963209E+01 -0.11296167798E+02 -0.55531620058E+02  0.56929574809E+02  0.17770000000E+01 0. -1.
         15    1    1    2    0    0 -0.38763312471E+01  0.20460453674E+02 -0.29783999895E+02  0.36385443342E+02  0.17770000000E+01 0.  1.
</event>
<event>
 6    1  0.3411206E-003  0.5222226E+03  0.7546771E-02  0.9351413E-01
        -11   -1    0    0    0    0  0.00000000000E+00  0.00000000000E+00  0.50000000000E+03  0.50000000000E+03  0.00000000000E+00 0. -1.
         11   -1    0    0    0    0 -0.00000000000E+00 -0.00000000000E+00 -0.50000000000E+03  0.50000000000E+03  0.00000000000E+00 0.  1.
        -11    1    1    2    0    0 -0.78935247187E+01  0.29543805480E+02  0.44558002562E+03  0.44662814891E+03  0.00000000000E+00 0. -1.
         11    1    1    2    0    0  0.59765566571E+01  0.10197978407E+02 -0.47763114749E+03  0.47777738649E+03  0.00000000000E+00 0.  1.
        -15    1    1    2    0    0 -0.45126313133E+01 -0.20247474593E+02 -0.14037177684E+02  0.25110240044E+02  0.17770000000E+01 0. -1.
         15    1    1    2    0    0  0.64295993749E+01 -0.19494309295E+02  0.46088299558E+02  0.50484224547E+02  0.17770000000E+01 0.  1.
</event>
<event>
 6    1  0.3411206E-003  0.5478529E+03  0.7546771E-02  0.9298674E-01
        -11   -1    0    0    0    0  0.00000000000E+00  0.00000000000E+00  0.50000000000E+03  0.50000000000E+03  0.00000000000E+00 0.  1.
         11   -1    0    0    0    0 -0.00000000000E+00 -0.00000000000E+00 -0.50000000000E+03  0.50000000000E+03  0.00000000000E+00 0. -1.
        -11    1    1    2    0    0 -0.13349226248E+02  0.71198526991E+01  0.43113353954E+03  0.43139891406E+03  0.00000000000E+00 0.  1.
         11    1    1    2    0    0  0.93917662441E+00 -0.18208882918E+02 -0.45177936929E+03  0.45214714860E+03  0.00000000000E+00 0. -1.
        -15    1    1    2    0    0  0.28529389291E+02 -0.12455855953E+00  0.63304630351E+02  0.69459164414E+02  0.17770000000E+01 0.  1.
         15    1    1    2    0    0 -0.16119339668E+02  0.11213588779E+02 -0.42658800594E+02  0.46994772919E+02  0.17770000000E+01 0. -1.
</event>
<event>
 6    1  0.3411206E-003  0.5025930E+03  0.7546771E-02  0.9394026E-01
        -11   -1    0    0    0    0  0.00000000000E+00  0.00000000000E+00  0.50000000000E+03  0.50000000000E+03  0.00000000000E+00 0.  1.
         11   -1    0    0    0    0 -0.00000000000E+00 -0.00000000000E+00 -0.50000000000E+03  0.50000000000E+03  0.00000000000E+00 0. -1.
        -11    1    1    2    0    0  0.74726404817E+01  0.24516195823E+01  0.49734486177E+03  0.49740703888E+03  0.00000000000E+00 0.  1.
         11    1    1    2    0    0  0.82293144416E+01 -0.89800444656E+01 -0.44067916040E+03  0.44084746253E+03  0.00000000000E+00 0. -1.
        -15    1    1    2    0    0 -0.15487377895E+01  0.84652831736E+01 -0.32018369422E+02  0.33202308916E+02  0.17770000000E+01 0. -1.
         15    1    1    2    0    0 -0.14153217134E+02 -0.19368582903E+01 -0.24647331955E+02  0.28543189674E+02  0.17770000000E+01 0.  1.
</event>
<event>
 6    1  0.3411206E-003  0.5052321E+03  0.7546771E-02  0.9388178E-01
        -11   -1    0    0    0    0  0.00000000000E+00  0.00000000000E+00  0.50000000000E+03  0.50000000000E+03  0.00000000000E+00 0.  1.
         11   -1    0    0    0    0 -0.00000000000E+00 -0.00000000000E+00 -0.50000000000E+03  0.50000000000E+03  0.00000000000E+00 0.  1.
        -11    1    1    2    0    0 -0.11681459299E+02  0.95430137472E+01  0.49453795846E+03  0.49476794355E+03  0.00000000000E+00 0.  1.
         11    1    1    2    0    0  0.39470154503E+01 -0.31751249209E+01 -0.33092673473E+03  0.33096550290E+03  0.00000000000E+00 0.  1.
        -15    1    1    2    0    0 -0.69013389272E+01  0.37035565037E+01 -0.15357385321E+03  0.15378371477E+03  0.17770000000E+01 0.  1.
         15    1    1    2    0    0  0.14635782776E+02 -0.10071445330E+02 -0.10037370518E+02  0.20482838778E+02  0.17770000000E+01 0.  1.
</event>
<event>
 6    1  0.3411206E-003  0.5066287E+03  0.7546771E-02  0.9385099E-01
        -11   -1    0    0    0    0  0.00000000000E+00  0.00000000000E+00  0.50000000000E+03  0.50000000000E+03  0.00000000000E+00 0. -1.
         11   -1    0    0    0    0 -0.00000000000E+00 -0.00000000000E+00 -0.50000000000E+03  0.50000000000E+03  0.00000000000E+00 0. -1.
        -11    1    1    2    0    0  0.68105375002E+01 -0.91092100269E+00  0.49332349665E+03  0.49337134650E+03  0.00000000000E+00 0. -1.
         11    1    1    2    0    0  0.11394520148E+02 -0.37173613559E+01 -0.44215994053E+03  0.44232235629E+03  0.00000000000E+00 0. -1.
        -15    1    1    2    0    0  0.16198997327E+01  0.14479525050E+02 -0.10753524402E+02  0.18195514196E+02  0.17770000000E+01 0.  1.
         15    1    1    2    0    0 -0.19824957381E+02 -0.98512426909E+01 -0.40410031721E+02  0.46110783017E+02  0.17770000000E+01 0. -1.
</event>
<event>
 6    1  0.3411206E-003  0.5004539E+03  0.7546771E-02  0.9398795E-01
        -11   -1    0    0    0    0  0.00000000000E+00  0.00000000000E+00  0.50000000000E+03  0.50000000000E+03  0.00000000000E+00 0. -1.
         11   -1    0    0    0    0 -0.00000000000E+00 -0.00000000000E+00 -0.50000000000E+03  0.50000000000E+03  0.00000000000E+00 0. -1.
        -11    1    1    2    0    0 -0.18187210515E+01 -0.15861034358E+02  0.49929093045E+03  0.49954610737E+03  0.00000000000E+00 0. -1.
         11    1    1    2    0    0 -0.14593483210E+01 -0.42575933038E+01 -0.22949111260E+03  0.22953524253E+03  0.00000000000E+00 0. -1.
        -15    1    1    2    0    0  0.77717865643E+01  0.98319338831E+01 -0.11279675717E+03  0.11350477411E+03  0.17770000000E+01 0.  1.
         15    1    1    2    0    0 -0.44937171918E+01  0.10286693779E+02 -0.15700306068E+03  0.15741387599E+03  0.17770000000E+01 0. -1.
</event>
<event>
 6    1  0.3411206E-003  0.5007416E+03  0.7546771E-02  0.9398152E-01
        -11   -1    0    0    0    0  0.00000000000E+00  0.00000000000E+00  0.50000000000E+03  0.50000000000E+03  0.00000000000E+00 0.  1.
         11   -1    0    0    0    0 -0.00000000000E+00 -0.00000000000E+00 -0.50000000000E+03  0.50000000000E+03  0.00000000000E+00 0. -1.
        -11    1    1    2    0    0 -0.79177349579E+01  0.38163755992E+01  0.49918102060E+03  0.49925839660E+03  0.00000000000E+00 0.  1.
         11    1    1    2    0    0 -0.75978960280E+01  0.20341956373E+00 -0.30356272026E+03  0.30365785769E+03  0.00000000000E+00 0. -1.
        -15    1    1    2    0    0  0.13844435583E+02  0.44142997093E+01 -0.10042475784E+03  0.10148617716E+03  0.17770000000E+01 0.  1.
         15    1    1    2    0    0  0.16711954031E+01 -0.84340948722E+01 -0.95193542500E+02  0.95597568552E+02  0.17770000000E+01 0. -1.
</event>
<event>
 6    1  0.3411206E-003  0.5039566E+03  0.7546771E-02  0.9391000E-01
        -11   -1    0    0    0    0  0.00000000000E+00  0.00000000000E+00  0.50000000000E+03  0.50000000000E+03  0.00000000000E+00 0.  1.
         11   -1    0    0    0    0 -0.00000000000E+00 -0.00000000000E+00 -0.50000000000E+03  0.50000000000E+03  0.00000000000E+00 0. -1.
        -11    1    1    2    0    0 -0.92662890199E+00 -0.12588602621E+02  0.41241050095E+03  0.41260362680E+03  0.00000000000E+00 0.  1.
         11    1    1    2    0    0  0.12971167753E+02  0.17190471244E+02 -0.49557571894E+03  0.49604340203E+03  0.00000000000E+00 0. -1.
        -15    1    1    2    0    0 -0.24568759543E+02 -0.44184029430E+01  0.58642604266E+02  0.63759383578E+02  0.17770000000E+01 0. -1.
         15    1    1    2    0    0  0.12524220692E+02 -0.18346567998E+00  0.24522613720E+02  0.27593587593E+02  0.17770000000E+01 0.  1.
</event>
<event>
 6    1  0.3411206E-003  0.5073301E+03  0.7546771E-02  0.9383556E-01
        -11   -1    0    0    0    0  0.00000000000E+00  0.00000000000E+00  0.50000000000E+03  0.50000000000E+03  0.00000000000E+00 0.  1.
         11   -1    0    0    0    0 -0.00000000000E+00 -0.00000000000E+00 -0.50000000000E+03  0.50000000000E+03  0.00000000000E+00 0.  1.
        -11    1    1    2    0    0 -0.43336698702E+01  0.93985806191E+01  0.49256118243E+03  0.49266990212E+03  0.00000000000E+00 0.  1.
         11    1    1    2    0    0 -0.15038861637E+02 -0.14050578258E+01 -0.45327976881E+03  0.45353135543E+03  0.00000000000E+00 0.  1.
        -15    1    1    2    0    0  0.44164188746E+01 -0.56120315165E+01  0.36681230195E+01  0.82226825856E+01  0.17770000000E+01 0. -1.
         15    1    1    2    0    0  0.14956112633E+02 -0.23814912768E+01 -0.42949536646E+02  0.45576059866E+02  0.17770000000E+01 0.  1.
</event>
<event>
 6    1  0.3411206E-003  0.5068805E+03  0.7546771E-02  0.9384544E-01
        -11   -1    0    0    0    0  0.00000000000E+00  0.00000000000E+00  0.50000000000E+03  0.50000000000E+03  0.00000000000E+00 0. -1.
         11   -1    0    0    0    0 -0.00000000000E+00 -0.00000000000E+00 -0.50000000000E+03  0.50000000000E+03  0.00000000000E+00 0.  1.
        -11    1    1    2    0    0 -0.37020810863E+01 -0.23483271953E+02  0.44468878287E+03  0.44532379577E+03  0.00000000000E+00 0. -1.
         11    1    1    2    0    0 -0.55251492695E+01  0.13100496124E+02 -0.49291451733E+03  0.49311953082E+03  0.00000000000E+00 0.  1.
        -15    1    1    2    0    0  0.73033296994E+01 -0.71122105502E+01  0.41271367463E+02  0.42548862086E+02  0.17770000000E+01 0. -1.
         15    1    1    2    0    0  0.19239006564E+01  0.17494986379E+02  0.69543669974E+01  0.19007811328E+02  0.17770000000E+01 0.  1.
</event>
<event>
 6    1  0.3411206E-003  0.4897486E+03  0.7546771E-02  0.9423045E-01
        -11   -1    0    0    0    0  0.00000000000E+00  0.00000000000E+00  0.50000000000E+03  0.50000000000E+03  0.00000000000E+00 0.  1.
         11   -1    0    0    0    0 -0.00000000000E+00 -0.00000000000E+00 -0.50000000000E+03  0.50000000000E+03  0.00000000000E+00 0.  1.
        -11    1    1    2    0    0 -0.69845921755E+00  0.11845055487E+02  0.49046234216E+03  0.49060585225E+03  0.00000000000E+00 0.  1.
         11    1    1    2    0    0 -0.68543876885E+01 -0.24161198673E+01 -0.48891315326E+03  0.48896716832E+03  0.00000000000E+00 0.  1.
        -15    1    1    2    0    0  0.19982994205E+01 -0.80254636326E+01  0.63005308521E+01  0.10547781052E+02  0.17770000000E+01 0. -1.
         15    1    1    2    0    0  0.55545474855E+01 -0.14034719874E+01 -0.78497197493E+01  0.98791983749E+01  0.17770000000E+01 0.  1.
</event>
<event>
 6    1  0.3411206E-003  0.5060247E+03  0.7546771E-02  0.9386429E-01
        -11   -1    0    0    0    0  0.00000000000E+00  0.00000000000E+00  0.50000000000E+03  0.50000000000E+03  0.00000000000E+00 0.  1.
         11   -1    0    0    0    0 -0.00000000000E+00 -0.00000000000E+00 -0.50000000000E+03  0.50000000000E+03  0.00000000000E+00 0. -1.
        -11    1    1    2    0    0 -0.80638290427E+01 -0.88700655071E+01  0.49382981142E+03  0.49397528890E+03  0.00000000000E+00 0.  1.
         11    1    1    2    0    0 -0.37812085605E+01  0.22454157474E+02 -0.27016964961E+03  0.27112750930E+03  0.00000000000E+00 0. -1.
        -15    1    1    2    0    0  0.15490613997E+02  0.89053254687E+01 -0.11095368982E+02  0.21107555177E+02  0.17770000000E+01 0.  1.
         15    1    1    2    0    0 -0.36455763939E+01 -0.22489417436E+02 -0.21256479283E+03  0.21378964662E+03  0.17770000000E+01 0. -1.
</event>
<event>
 6    1  0.3411206E-003  0.5015527E+03  0.7546771E-02  0.9396342E-01
        -11   -1    0    0    0    0  0.00000000000E+00  0.00000000000E+00  0.50000000000E+03  0.50000000000E+03  0.00000000000E+00 0. -1.
         11   -1    0    0    0    0 -0.00000000000E+00 -0.00000000000E+00 -0.50000000000E+03  0.50000000000E+03  0.00000000000E+00 0.  1.
        -11    1    1    2    0    0  0.21810478940E+01  0.72590563107E+01  0.49838962978E+03  0.49844726295E+03  0.00000000000E+00 0. -1.
         11    1    1    2    0    0 -0.22372715073E+01 -0.91048267813E+01 -0.43317731945E+03  0.43327877093E+03  0.00000000000E+00 0.  1.
        -15    1    1    2    0    0 -0.53698453519E+01  0.74989215542E+01 -0.51755506893E+02  0.52600943778E+02  0.17770000000E+01 0.  1.
         15    1    1    2    0    0  0.54260689653E+01 -0.56531510836E+01 -0.13456803441E+02  0.15673022345E+02  0.17770000000E+01 0. -1.
</event>
<event>
 6    1  0.3411206E-003  0.5003219E+03  0.7546771E-02  0.9399090E-01
        -11   -1    0    0    0    0  0.00000000000E+00  0.00000000000E+00  0.50000000000E+03  0.50000000000E+03  0.00000000000E+00 0. -1.
         11   -1    0    0    0    0 -0.00000000000E+00 -0.00000000000E+00 -0.50000000000E+03  0.50000000000E+03  0.00000000000E+00 0.  1.
        -11    1    1    2    0    0  0.36267055183E+01  0.29430481323E+01  0.33321041636E+03  0.33324314861E+03  0.00000000000E+00 0. -1.
         11    1    1    2    0    0 -0.71065375419E+01  0.11462318426E+02 -0.49949603710E+03  0.49967807506E+03  0.00000000000E+00 0.  1.
        -15    1    1    2    0    0  0.65278172902E-01 -0.10761147916E+02  0.10539394124E+03  0.10595681736E+03  0.17770000000E+01 0.  1.
         15    1    1    2    0    0  0.34145538507E+01 -0.36442186424E+01  0.60891679491E+02  0.61121958965E+02  0.17770000000E+01 0. -1.
</event>
<event>
 6    1  0.3411206E-003  0.5004236E+03  0.7546771E-02  0.9398862E-01
        -11   -1    0    0    0    0  0.00000000000E+00  0.00000000000E+00  0.50000000000E+03  0.50000000000E+03  0.00000000000E+00 0.  1.
         11   -1    0    0    0    0 -0.00000000000E+00 -0.00000000000E+00 -0.50000000000E+03  0.50000000000E+03  0.00000000000E+00 0.  1.
        -11    1    1    2    0    0  0.67141421689E+01  0.84826559205E+01  0.49945928326E+03  0.49957643139E+03  0.00000000000E+00 0.  1.
         11    1    1    2    0    0 -0.77148177468E+00 -0.26707412619E+01 -0.11448504236E+03  0.11451878871E+03  0.00000000000E+00 0.  1.
        -15    1    1    2    0    0 -0.11973247413E+01  0.65095300266E+01 -0.28060297842E+03  0.28068665233E+03  0.17770000000E+01 0. -1.
         15    1    1    2    0    0 -0.47453356529E+01 -0.12321444685E+02 -0.10437126248E+03  0.10521812757E+03  0.17770000000E+01 0.  1.
</event>
<event>
 6    1  0.3411206E-003  0.5064121E+03  0.7546771E-02  0.9385575E-01
        -11   -1    0    0    0    0  0.00000000000E+00  0.00000000000E+00  0.50000000000E+03  0.50000000000E+03  0.00000000000E+00 0.  1.
         11   -1    0    0    0    0 -0.00000000000E+00 -0.00000000000E+00 -0.50000000000E+03  0.50000000000E+03  0.00000000000E+00 0.  1.
        -11    1    1    2    0    0 -0.73617511896E+01  0.61090404173E+01  0.45684183595E+03  0.45694198628E+03  0.00000000000E+00 0.  1.
         11    1    1    2    0    0  0.37048028438E+01  0.73924096995E+01 -0.49351859611E+03  0.49358786249E+03  0.00000000000E+00 0.  1.
        -15    1    1    2    0    0  0.91785386422E+01  0.69350436598E+01  0.16332397887E+02  0.20056055243E+02  0.17770000000E+01 0.  1.
         15    1    1    2    0    0 -0.55215902964E+01 -0.20436493777E+02  0.20344362281E+02  0.29414095990E+02  0.17770000000E+01 0. -1.
</event>
<event>
 6    1  0.3411206E-003  0.5000618E+03  0.7546771E-02  0.9399671E-01
        -11   -1    0    0    0    0  0.00000000000E+00  0.00000000000E+00  0.50000000000E+03  0.50000000000E+03  0.00000000000E+00 0.  1.
         11   -1    0    0    0    0 -0.00000000000E+00 -0.00000000000E+00 -0.50000000000E+03  0.50000000000E+03  0.00000000000E+00 0. -1.
        -11    1    1    2    0    0 -0.22810067304E+01  0.84625117812E+01  0.49986139087E+03  0.49993822336E+03  0.00000000000E+00 0.  1.
         11    1    1    2    0    0  0.30895368268E+00  0.89087594352E+00 -0.59898860615E+02  0.59906281935E+02  0.00000000000E+00 0. -1.
        -15    1    1    2    0    0  0.38669758400E+01 -0.94447195406E+01 -0.33150423799E+03  0.33166605760E+03  0.17770000000E+01 0. -1.
         15    1    1    2    0    0 -0.18949227922E+01  0.91331815858E-01 -0.10845829226E+03  0.10848943711E+03  0.17770000000E+01 0. -1.
</event>
<event>
 6    1  0.3411206E-003  0.5052395E+03  0.7546771E-02  0.9388162E-01
        -11   -1    0    0    0    0  0.00000000000E+00  0.00000000000E+00  0.50000000000E+03  0.50000000000E+03  0.00000000000E+00 0. -1.
         11   -1    0    0    0    0 -0.00000000000E+00 -0.00000000000E+00 -0.50000000000E+03  0.50000000000E+03  0.00000000000E+00 0. -1.
        -11    1    1    2    0    0  0.25592338451E+01  0.68283044940E+01  0.49470676269E+03  0.49476050415E+03  0.00000000000E+00 0. -1.
         11    1    1    2    0    0  0.51405347570E+01 -0.45885891295E+01 -0.48275032737E+03  0.48279950168E+03  0.00000000000E+00 0. -1.
        -15    1    1    2    0    0 -0.50542279211E+01 -0.28576153928E+01 -0.16082147128E+02  0.17190240570E+02  0.17770000000E+01 0.  1.
         15    1    1    2    0    0 -0.26455406810E+01  0.61790002823E+00  0.41257118054E+01  0.52497535981E+01  0.17770000000E+01 0.  1.
</event>
<event>
 6    1  0.3411206E-003  0.5184456E+03  0.7546771E-02  0.9359457E-01
        -11   -1    0    0    0    0  0.00000000000E+00  0.00000000000E+00  0.50000000000E+03  0.50000000000E+03  0.00000000000E+00 0. -1.
         11   -1    0    0    0    0 -0.00000000000E+00 -0.00000000000E+00 -0.50000000000E+03  0.50000000000E+03  0.00000000000E+00 0. -1.
        -11    1    1    2    0    0  0.16553512850E+02 -0.36875531078E+01  0.48125564908E+03  0.48155437554E+03  0.00000000000E+00 0. -1.
         11    1    1    2    0    0  0.34947692497E+02 -0.18991257054E+02 -0.41589841646E+03  0.41779600509E+03  0.00000000000E+00 0. -1.
        -15    1    1    2    0    0  0.47078321237E+01  0.43768403183E+01  0.52925252619E+01  0.85140452855E+01  0.17770000000E+01 0. -1.
         15    1    1    2    0    0 -0.56209037471E+02  0.18301969844E+02 -0.70649757875E+02  0.92135574076E+02  0.17770000000E+01 0.  1.
</event>
<event>
 6    1  0.3411206E-003  0.5005465E+03  0.7546771E-02  0.9398588E-01
        -11   -1    0    0    0    0  0.00000000000E+00  0.00000000000E+00  0.50000000000E+03  0.50000000000E+03  0.00000000000E+00 0. -1.
         11   -1    0    0    0    0 -0.00000000000E+00 -0.00000000000E+00 -0.50000000000E+03  0.50000000000E+03  0.00000000000E+00 0. -1.
        -11    1    1    2    0    0  0.49672363346E+00 -0.49121524123E+01  0.29038273777E+03  0.29042470689E+03  0.00000000000E+00 0. -1.
         11    1    1    2    0    0  0.38354404837E+01  0.14773895844E+02 -0.49922018348E+03  0.49945347150E+03  0.00000000000E+00 0. -1.
        -15    1    1    2    0    0  0.53492003857E+01 -0.84993534025E+01  0.15760324688E+03  0.15793287850E+03  0.17770000000E+01 0.  1.
         15    1    1    2    0    0 -0.96813645028E+01 -0.13623900294E+01  0.51234198823E+02  0.52188943113E+02  0.17770000000E+01 0. -1.
</event>
<event>
 6    1  0.3411206E-003  0.5012222E+03  0.7546771E-02  0.9397079E-01
        -11   -1    0    0    0    0  0.00000000000E+00  0.00000000000E+00  0.50000000000E+03  0.50000000000E+03  0.00000000000E+00 0. -1.
         11   -1    0    0    0    0 -0.00000000000E+00 -0.00000000000E+00 -0.50000000000E+03  0.50000000000E+03  0.00000000000E+00 0. -1.
        -11    1    1    2    0    0 -0.10506120184E+02  0.11121432532E+00  0.49866711419E+03  0.49877778791E+03  0.00000000000E+00 0. -1.
         11    1    1    2    0    0 -0.62908637394E+01  0.63335079813E+01 -0.35366078795E+03  0.35377343204E+03  0.00000000000E+00 0. -1.
        -15    1    1    2    0    0  0.87540424579E+01 -0.27170921447E+01 -0.19528885949E+02  0.21646038078E+02  0.17770000000E+01 0. -1.
         15    1    1    2    0    0  0.80429414660E+01 -0.37276301619E+01 -0.12547744030E+03  0.12580274197E+03  0.17770000000E+01 0.  1.
</event>
<event>
 6    1  0.3411206E-003  0.5016085E+03  0.7546771E-02  0.9396218E-01
        -11   -1    0    0    0    0  0.00000000000E+00  0.00000000000E+00  0.50000000000E+03  0.50000000000E+03  0.00000000000E+00 0. -1.
         11   -1    0    0    0    0 -0.00000000000E+00 -0.00000000000E+00 -0.50000000000E+03  0.50000000000E+03  0.00000000000E+00 0. -1.
        -11    1    1    2    0    0  0.21378754780E+02 -0.41954786722E+01  0.49791506241E+03  0.49839147522E+03  0.00000000000E+00 0. -1.
         11    1    1    2    0    0 -0.76464056188E+01  0.31886643320E+01 -0.31627936584E+03  0.31638785115E+03  0.00000000000E+00 0. -1.
        -15    1    1    2    0    0 -0.24361937287E+02  0.71344816055E+00 -0.10356103014E+03  0.10640515819E+03  0.17770000000E+01 0. -1.
         15    1    1    2    0    0  0.10629588126E+02  0.29336617965E+00 -0.78074666428E+02  0.78815515441E+02  0.17770000000E+01 0.  1.
</event>
<event>
 6    1  0.3411206E-003  0.5014850E+03  0.7546771E-02  0.9396493E-01
        -11   -1    0    0    0    0  0.00000000000E+00  0.00000000000E+00  0.50000000000E+03  0.50000000000E+03  0.00000000000E+00 0. -1.
         11   -1    0    0    0    0 -0.00000000000E+00 -0.00000000000E+00 -0.50000000000E+03  0.50000000000E+03  0.00000000000E+00 0. -1.
        -11    1    1    2    0    0 -0.13775462222E+00  0.57859485269E+01  0.33267353245E+03  0.33272387256E+03  0.00000000000E+00 0. -1.
         11    1    1    2    0    0 -0.14602282001E+01 -0.76322365064E+01 -0.49845445658E+03  0.49851502343E+03  0.00000000000E+00 0. -1.
        -15    1    1    2    0    0 -0.61012475184E+01  0.12875354604E+02  0.45358415914E+02  0.47576712798E+02  0.17770000000E+01 0. -1.
         15    1    1    2    0    0  0.76992303407E+01 -0.11029066625E+02  0.12042250822E+03  0.12118439121E+03  0.17770000000E+01 0.  1.
</event>
<event>
 6    1  0.3411206E-003  0.5001910E+03  0.7546771E-02  0.9399383E-01
        -11   -1    0    0    0    0  0.00000000000E+00  0.00000000000E+00  0.50000000000E+03  0.50000000000E+03  0.00000000000E+00 0. -1.
         11   -1    0    0    0    0 -0.00000000000E+00 -0.00000000000E+00 -0.50000000000E+03  0.50000000000E+03  0.00000000000E+00 0. -1.
        -11    1    1    2    0    0  0.37218517632E+01 -0.22576731950E+01  0.20970935384E+03  0.20975452882E+03  0.00000000000E+00 0. -1.
         11    1    1    2    0    0  0.70912714498E+01  0.17068152685E+01 -0.49975582744E+03  0.49980904994E+03  0.00000000000E+00 0. -1.
        -15    1    1    2    0    0 -0.39571109214E+01 -0.61974005514E-01  0.21732510580E+03  0.21736840136E+03  0.17770000000E+01 0. -1.
         15    1    1    2    0    0 -0.68560122916E+01  0.61283193202E+00  0.72721367791E+02  0.73068019885E+02  0.17770000000E+01 0.  1.
</event>
<event>
 6    1  0.3411206E-003  0.5017360E+03  0.7546771E-02  0.9395934E-01
        -11   -1    0    0    0    0  0.00000000000E+00  0.00000000000E+00  0.50000000000E+03  0.50000000000E+03  0.00000000000E+00 0. -1.
         11   -1    0    0    0    0 -0.00000000000E+00 -0.00000000000E+00 -0.50000000000E+03  0.50000000000E+03  0.00000000000E+00 0. -1.
        -11    1    1    2    0    0  0.45401387848E+01  0.11827170210E+02  0.49810292151E+03  0.49826400154E+03  0.00000000000E+00 0. -1.
         11    1    1    2    0    0 -0.54921613475E+01  0.22047942805E+01 -0.15317163063E+03  0.15328592037E+03  0.00000000000E+00 0. -1.
        -15    1    1    2    0    0  0.17472917614E+02 -0.33463334651E+01 -0.28023472765E+03  0.28080448911E+03  0.17770000000E+01 0. -1.
         15    1    1    2    0    0 -0.16520895051E+02 -0.10685631026E+02 -0.64696563238E+02  0.67645588973E+02  0.17770000000E+01 0.  1.
</event>
<event>
 6    1  0.3411206E-003  0.5124344E+03  0.7546771E-02  0.9372409E-01
        -11   -1    0    0    0    0  0.00000000000E+00  0.00000000000E+00  0.50000000000E+03  0.50000000000E+03  0.00000000000E+00 0. -1.
         11   -1    0    0    0    0 -0.00000000000E+00 -0.00000000000E+00 -0.50000000000E+03  0.50000000000E+03  0.00000000000E+00 0.  1.
        -11    1    1    2    0    0 -0.17893612475E+02  0.52762923780E+01  0.41532784351E+03  0.41574660338E+03  0.00000000000E+00 0. -1.
         11    1    1    2    0    0  0.67949720965E+01  0.64769896587E+01 -0.48747525946E+03  0.48756563827E+03  0.00000000000E+00 0.  1.
        -15    1    1    2    0    0  0.27310898490E+02 -0.72110616096E+01  0.74406544724E+02  0.79607639160E+02  0.17770000000E+01 0.  1.
         15    1    1    2    0    0 -0.16212258112E+02 -0.45422204271E+01 -0.22591287781E+01  0.17080119184E+02  0.17770000000E+01 0. -1.
</event>
<event>
 6    1  0.3411206E-003  0.5050675E+03  0.7546771E-02  0.9388542E-01
        -11   -1    0    0    0    0  0.00000000000E+00  0.00000000000E+00  0.50000000000E+03  0.50000000000E+03  0.00000000000E+00 0. -1.
         11   -1    0    0    0    0 -0.00000000000E+00 -0.00000000000E+00 -0.50000000000E+03  0.50000000000E+03  0.00000000000E+00 0. -1.
        -11    1    1    2    0    0 -0.80711378982E+01  0.42063676802E+01  0.49484884628E+03  0.49493253830E+03  0.00000000000E+00 0. -1.
         11    1    1    2    0    0 -0.35052992282E+01  0.62486741075E+01 -0.30636706744E+03  0.30645083303E+03  0.00000000000E+00 0. -1.
        -15    1    1    2    0    0  0.52701530518E+01 -0.87552399327E+01 -0.19108368538E+03  0.19136499494E+03  0.17770000000E+01 0.  1.
         15    1    1    2    0    0  0.63062840746E+01 -0.16998018550E+01  0.26019065440E+01  0.72516337359E+01  0.17770000000E+01 0. -1.
</event>
<event>
 6    1  0.3411206E-003  0.5082836E+03  0.7546771E-02  0.9381463E-01
        -11   -1    0    0    0    0  0.00000000000E+00  0.00000000000E+00  0.50000000000E+03  0.50000000000E+03  0.00000000000E+00 0. -1.
         11   -1    0    0    0    0 -0.00000000000E+00 -0.00000000000E+00 -0.50000000000E+03  0.50000000000E+03  0.00000000000E+00 0. -1.
        -11    1    1    2    0    0  0.62344566540E+01  0.11760459157E+02  0.49153623334E+03  0.49171642797E+03  0.00000000000E+00 0. -1.
         11    1    1    2    0    0 -0.11704213839E+02 -0.12335780619E+01 -0.47460258116E+03  0.47474848117E+03  0.00000000000E+00 0. -1.
        -15    1    1    2    0    0  0.16080816046E+02 -0.57816473984E+01 -0.97127535582E+01  0.19736144559E+02  0.17770000000E+01 0. -1.
         15    1    1    2    0    0 -0.10611058861E+02 -0.47452336973E+01 -0.72208986232E+01  0.13798946298E+02  0.17770000000E+01 0.  1.
</event>
<event>
 6    1  0.3411206E-003  0.4870910E+03  0.7546771E-02  0.9429167E-01
        -11   -1    0    0    0    0  0.00000000000E+00  0.00000000000E+00  0.50000000000E+03  0.50000000000E+03  0.00000000000E+00 0. -1.
         11   -1    0    0    0    0 -0.00000000000E+00 -0.00000000000E+00 -0.50000000000E+03  0.50000000000E+03  0.00000000000E+00 0.  1.
        -11    1    1    2    0    0  0.99561330211E+01 -0.81128621924E+01  0.48869377945E+03  0.48886250949E+03  0.00000000000E+00 0. -1.
         11    1    1    2    0    0 -0.19254405350E+01 -0.66928551278E+01 -0.48542060372E+03  0.48547055951E+03  0.00000000000E+00 0.  1.
        -15    1    1    2    0    0 -0.84467599593E+01  0.11599308256E+02  0.60249078257E+01  0.15663618648E+02  0.17770000000E+01 0.  1.
         15    1    1    2    0    0  0.41606747319E+00  0.32064090642E+01 -0.92980835534E+01  0.10003312351E+02  0.17770000000E+01 0. -1.
</event>
<event>
 6    1  0.3411206E-003  0.4593292E+03  0.7546771E-02  0.9495715E-01
        -11   -1    0    0    0    0  0.00000000000E+00  0.00000000000E+00  0.50000000000E+03  0.50000000000E+03  0.00000000000E+00 0.  1.
         11   -1    0    0    0    0 -0.00000000000E+00 -0.00000000000E+00 -0.50000000000E+03  0.50000000000E+03  0.00000000000E+00 0.  1.
        -11    1    1    2    0    0 -0.17636627050E+02 -0.87356432290E+01  0.46135623351E+03  0.46177585068E+03  0.00000000000E+00 0.  1.
         11    1    1    2    0    0  0.25776103520E+01  0.64503717060E+01 -0.45696644942E+03  0.45701924168E+03  0.00000000000E+00 0.  1.
        -15    1    1    2    0    0  0.73859695625E+01 -0.12883564000E+02 -0.39455693493E+02  0.42195358107E+02  0.17770000000E+01 0. -1.
         15    1    1    2    0    0  0.76730471359E+01  0.15168835523E+02  0.35065909407E+02  0.39009549536E+02  0.17770000000E+01 0.  1.
</event>
<event>
 6    1  0.3411206E-003  0.5057510E+03  0.7546771E-02  0.9387033E-01
        -11   -1    0    0    0    0  0.00000000000E+00  0.00000000000E+00  0.50000000000E+03  0.50000000000E+03  0.00000000000E+00 0. -1.
         11   -1    0    0    0    0 -0.00000000000E+00 -0.00000000000E+00 -0.50000000000E+03  0.50000000000E+03  0.00000000000E+00 0. -1.
        -11    1    1    2    0    0  0.36738850053E+01 -0.14041016772E+00  0.86420929216E+02  0.86499099143E+02  0.00000000000E+00 0. -1.
         11    1    1    2    0    0 -0.42777950520E+01  0.11846295766E+02 -0.49408852474E+03  0.49424903089E+03  0.00000000000E+00 0. -1.
        -15    1    1    2    0    0  0.58257139616E+01 -0.18483892135E+02  0.10740461008E+02  0.22228550184E+02  0.17770000000E+01 0.  1.
         15    1    1    2    0    0 -0.52218039149E+01  0.67780065371E+01  0.39692713452E+03  0.39702331978E+03  0.17770000000E+01 0. -1.
</event>
<event>
 6    1  0.3411206E-003  0.5244014E+03  0.7546771E-02  0.9346806E-01
        -11   -1    0    0    0    0  0.00000000000E+00  0.00000000000E+00  0.50000000000E+03  0.50000000000E+03  0.00000000000E+00 0. -1.
         11   -1    0    0    0    0 -0.00000000000E+00 -0.00000000000E+00 -0.50000000000E+03  0.50000000000E+03  0.00000000000E+00 0.  1.
        -11    1    1    2    0    0 -0.25113894200E+00  0.10823314319E+02  0.43701819909E+03  0.43715227729E+03  0.00000000000E+00 0. -1.
         11    1    1    2    0    0  0.17187747050E+02 -0.31064577978E+01 -0.47527772704E+03  0.47559855609E+03  0.00000000000E+00 0.  1.
        -15    1    1    2    0    0 -0.41496736503E+01  0.27582968370E+02 -0.66060835266E+01  0.28719993107E+02  0.17770000000E+01 0.  1.
         15    1    1    2    0    0 -0.12786934458E+02 -0.35299824892E+02  0.44865611483E+02  0.58529173520E+02  0.17770000000E+01 0. -1.
</event>
<event>
 6    1  0.3411206E-003  0.5489544E+03  0.7546771E-02  0.9296476E-01
        -11   -1    0    0    0    0  0.00000000000E+00  0.00000000000E+00  0.50000000000E+03  0.50000000000E+03  0.00000000000E+00 0. -1.
         11   -1    0    0    0    0 -0.00000000000E+00 -0.00000000000E+00 -0.50000000000E+03  0.50000000000E+03  0.00000000000E+00 0.  1.
        -11    1    1    2    0    0 -0.63549519644E+01 -0.26356379952E+01  0.45099309796E+03  0.45104557021E+03  0.00000000000E+00 0. -1.
         11    1    1    2    0    0 -0.54241160904E+01  0.10887348037E-01 -0.40184095349E+03  0.40187755978E+03  0.00000000000E+00 0.  1.
        -15    1    1    2    0    0  0.43739028049E+01  0.43141261546E+01  0.48597486241E+02  0.49016488125E+02  0.17770000000E+01 0.  1.
         15    1    1    2    0    0  0.74051652499E+01 -0.16893755075E+01 -0.97749630705E+02  0.98060381878E+02  0.17770000000E+01 0.  1.
</event>
<event>
 6    1  0.3411206E-003  0.5029387E+03  0.7546771E-02  0.9393258E-01
        -11   -1    0    0    0    0  0.00000000000E+00  0.00000000000E+00  0.50000000000E+03  0.50000000000E+03  0.00000000000E+00 0. -1.
         11   -1    0    0    0    0 -0.00000000000E+00 -0.00000000000E+00 -0.50000000000E+03  0.50000000000E+03  0.00000000000E+00 0. -1.
        -11    1    1    2    0    0  0.59519873305E+01 -0.13385187436E+02  0.49684536171E+03  0.49706126670E+03  0.00000000000E+00 0. -1.
         11    1    1    2    0    0  0.34934836184E+01 -0.43874859350E+01 -0.10910561153E+03  0.10924966329E+03  0.00000000000E+00 0. -1.
        -15    1    1    2    0    0 -0.77435329744E+01 -0.89230649527E+00 -0.36043154910E+03  0.36052020447E+03  0.17770000000E+01 0. -1.
         15    1    1    2    0    0 -0.17019379745E+01  0.18664979866E+02 -0.27308201081E+02  0.33168865545E+02  0.17770000000E+01 0.  1.
</event>
<event>
 6    1  0.3411206E-003  0.5049736E+03  0.7546771E-02  0.9388749E-01
        -11   -1    0    0    0    0  0.00000000000E+00  0.00000000000E+00  0.50000000000E+03  0.50000000000E+03  0.00000000000E+00 0.  1.
         11   -1    0    0    0    0 -0.00000000000E+00 -0.00000000000E+00 -0.50000000000E+03  0.50000000000E+03  0.00000000000E+00 0.  1.
        -11    1    1    2    0    0  0.20349482838E+02  0.30838505887E+02  0.49364567301E+03  0.49502642897E+03  0.00000000000E+00 0.  1.
         11    1    1    2    0    0 -0.68461509139E+01  0.21525976953E+01 -0.26740263368E+03  0.26749891955E+03  0.00000000000E+00 0.  1.
        -15    1    1    2    0    0 -0.28638363272E+02 -0.44565039497E+02 -0.16917172344E+03  0.17728064851E+03  0.17770000000E+01 0.  1.
         15    1    1    2    0    0  0.15135031348E+02  0.11573935915E+02 -0.57071315892E+02  0.60194002967E+02  0.17770000000E+01 0. -1.
</event>
<event>
 6    1  0.3411206E-003  0.5019535E+03  0.7546771E-02  0.9395449E-01
        -11   -1    0    0    0    0  0.00000000000E+00  0.00000000000E+00  0.50000000000E+03  0.50000000000E+03  0.00000000000E+00 0. -1.
         11   -1    0    0    0    0 -0.00000000000E+00 -0.00000000000E+00 -0.50000000000E+03  0.50000000000E+03  0.00000000000E+00 0. -1.
        -11    1    1    2    0    0 -0.93943344918E+01  0.80061345195E+01  0.35742485821E+03  0.35763791882E+03  0.00000000000E+00 0. -1.
         11    1    1    2    0    0  0.43978379399E+01  0.12480574623E+02 -0.49787067723E+03  0.49804650081E+03  0.00000000000E+00 0. -1.
        -15    1    1    2    0    0 -0.60123595657E+01 -0.19521196539E+02  0.68447001507E+02  0.71451909185E+02  0.17770000000E+01 0. -1.
         15    1    1    2    0    0  0.11008856118E+02 -0.96551260283E+00  0.71998817510E+02  0.72863671192E+02  0.17770000000E+01 0.  1.
</event>
<event>
 6    1  0.3411206E-003  0.5002068E+03  0.7546771E-02  0.9399347E-01
        -11   -1    0    0    0    0  0.00000000000E+00  0.00000000000E+00  0.50000000000E+03  0.50000000000E+03  0.00000000000E+00 0.  1.
         11   -1    0    0    0    0 -0.00000000000E+00 -0.00000000000E+00 -0.50000000000E+03  0.50000000000E+03  0.00000000000E+00 0.  1.
        -11    1    1    2    0    0 -0.39652271355E+00 -0.87050580425E+01  0.49971722102E+03  0.49979319348E+03  0.00000000000E+00 0.  1.
         11    1    1    2    0    0  0.14543247446E+01  0.25716077030E+01 -0.20300278428E+03  0.20302428094E+03  0.00000000000E+00 0.  1.
        -15    1    1    2    0    0  0.38835340940E+01  0.92027694074E+00 -0.25816175702E+02  0.26183227525E+02  0.17770000000E+01 0. -1.
         15    1    1    2    0    0 -0.49413361251E+01  0.52131733987E+01 -0.27089826104E+03  0.27099929805E+03  0.17770000000E+01 0.  1.
</event>
<event>
 6    1  0.3411206E-003  0.5044640E+03  0.7546771E-02  0.9389876E-01
        -11   -1    0    0    0    0  0.00000000000E+00  0.00000000000E+00  0.50000000000E+03  0.50000000000E+03  0.00000000000E+00 0.  1.
         11   -1    0    0    0    0 -0.00000000000E+00 -0.00000000000E+00 -0.50000000000E+03  0.50000000000E+03  0.00000000000E+00 0.  1.
        -11    1    1    2    0    0 -0.96914606565E+01 -0.14322738489E+02  0.37955611712E+03  0.37994987997E+03  0.00000000000E+00 0.  1.
         11    1    1    2    0    0  0.60674407601E+00  0.69164305084E+01 -0.49548735116E+03  0.49553599295E+03  0.00000000000E+00 0.  1.
        -15    1    1    2    0    0  0.24642008888E+02  0.10224223535E+02  0.91763422760E+02  0.95579531462E+02  0.17770000000E+01 0.  1.
         15    1    1    2    0    0 -0.15557292307E+02 -0.28179155545E+01  0.24167811284E+02  0.28934595613E+02  0.17770000000E+01 0. -1.
</event>
<event>
 6    1  0.3411206E-003  0.5013418E+03  0.7546771E-02  0.9396812E-01
        -11   -1    0    0    0    0  0.00000000000E+00  0.00000000000E+00  0.50000000000E+03  0.50000000000E+03  0.00000000000E+00 0.  1.
         11   -1    0    0    0    0 -0.00000000000E+00 -0.00000000000E+00 -0.50000000000E+03  0.50000000000E+03  0.00000000000E+00 0. -1.
        -11    1    1    2    0    0  0.16026701669E+01  0.70119597643E+01  0.47378868696E+03  0.47384328213E+03  0.00000000000E+00 0.  1.
         11    1    1    2    0    0 -0.19209140784E+01 -0.11333933580E+02 -0.49852567483E+03  0.49865819599E+03  0.00000000000E+00 0. -1.
        -15    1    1    2    0    0 -0.43616329655E+01  0.37486005193E+00  0.55952835786E+01  0.73232021349E+01  0.17770000000E+01 0. -1.
         15    1    1    2    0    0  0.46798768770E+01  0.39471137641E+01  0.19141704292E+02  0.20175319746E+02  0.17770000000E+01 0. -1.
</event>
<event>
 6    1  0.3411206E-003  0.5021925E+03  0.7546771E-02  0.9394917E-01
        -11   -1    0    0    0    0  0.00000000000E+00  0.00000000000E+00  0.50000000000E+03  0.50000000000E+03  0.00000000000E+00 0.  1.
         11   -1    0    0    0    0 -0.00000000000E+00 -0.00000000000E+00 -0.50000000000E+03  0.50000000000E+03  0.00000000000E+00 0. -1.
        -11    1    1    2    0    0 -0.31933323687E+01 -0.28436813998E+01  0.30370001019E+03  0.30373011060E+03  0.00000000000E+00 0.  1.
         11    1    1    2    0    0 -0.10561033364E+02  0.26745828382E+00 -0.49769542692E+03  0.49780753804E+03  0.00000000000E+00 0. -1.
        -15    1    1    2    0    0 -0.13587571584E+01  0.19133102857E+01  0.17009823965E+03  0.17012370745E+03  0.17770000000E+01 0. -1.
         15    1    1    2    0    0  0.15113122891E+02  0.66291283034E+00  0.23897177079E+02  0.28338643903E+02  0.17770000000E+01 0.  1.
</event>
<event>
 6    1  0.3411206E-003  0.5017903E+03  0.7546771E-02  0.9395813E-01
        -11   -1    0    0    0    0  0.00000000000E+00  0.00000000000E+00  0.50000000000E+03  0.50000000000E+03  0.00000000000E+00 0.  1.
         11   -1    0    0    0    0 -0.00000000000E+00 -0.00000000000E+00 -0.50000000000E+03  0.50000000000E+03  0.00000000000E+00 0.  1.
        -11    1    1    2    0    0 -0.97888880250E+01  0.27161132139E+01  0.49810609870E+03  0.49820967992E+03  0.00000000000E+00 0.  1.
         11    1    1    2    0    0 -0.19606682702E+01  0.47926163364E+01 -0.35762698214E+03  0.35766446811E+03  0.00000000000E+00 0.  1.
        -15    1    1    2    0    0 -0.14533902435E+01 -0.60894857773E+01 -0.11630971989E+03  0.11649164283E+03  0.17770000000E+01 0.  1.
         15    1    1    2    0    0  0.13202946539E+02 -0.14192437730E+01 -0.24169396671E+02  0.27634209137E+02  0.17770000000E+01 0.  1.
</event>
<event>
 6    1  0.3411206E-003  0.5021049E+03  0.7546771E-02  0.9395112E-01
        -11   -1    0    0    0    0  0.00000000000E+00  0.00000000000E+00  0.50000000000E+03  0.50000000000E+03  0.00000000000E+00 0.  1.
         11   -1    0    0    0    0 -0.00000000000E+00 -0.00000000000E+00 -0.50000000000E+03  0.50000000000E+03  0.00000000000E+00 0. -1.
        -11    1    1    2    0    0 -0.11945443270E+02  0.34535600089E+01  0.26815710886E+03  0.26844525647E+03  0.00000000000E+00 0.  1.
         11    1    1    2    0    0  0.14858691258E+02  0.11136506266E+02 -0.49754869119E+03  0.49789507186E+03  0.00000000000E+00 0. -1.
        -15    1    1    2    0    0 -0.47254368920E+01 -0.20063469428E+02  0.49275099574E+02  0.53442171797E+02  0.17770000000E+01 0. -1.
         15    1    1    2    0    0  0.18121889033E+01  0.54734031529E+01  0.18011648275E+03  0.18021749987E+03  0.17770000000E+01 0.  1.
</event>
<event>
 6    1  0.3411206E-003  0.5082074E+03  0.7546771E-02  0.9381630E-01
        -11   -1    0    0    0    0  0.00000000000E+00  0.00000000000E+00  0.50000000000E+03  0.50000000000E+03  0.00000000000E+00 0.  1.
         11   -1    0    0    0    0 -0.00000000000E+00 -0.00000000000E+00 -0.50000000000E+03  0.50000000000E+03  0.00000000000E+00 0.  1.
        -11    1    1    2    0    0 -0.29785446003E+01  0.32314700435E+02  0.36964120767E+03  0.37106297848E+03  0.00000000000E+00 0.  1.
         11    1    1    2    0    0  0.11150088584E+02 -0.89888713044E+01 -0.49158397042E+03  0.49179256222E+03  0.00000000000E+00 0.  1.
        -15    1    1    2    0    0  0.52042364610E-01 -0.34172104447E+02  0.11800190046E+03  0.12286310134E+03  0.17770000000E+01 0.  1.
         15    1    1    2    0    0 -0.82235863484E+01  0.10846275316E+02  0.39408622940E+01  0.14281357964E+02  0.17770000000E+01 0. -1.
</event>
<event>
 6    1  0.3411206E-003  0.5140777E+03  0.7546771E-02  0.9368849E-01
        -11   -1    0    0    0    0  0.00000000000E+00  0.00000000000E+00  0.50000000000E+03  0.50000000000E+03  0.00000000000E+00 0.  1.
         11   -1    0    0    0    0 -0.00000000000E+00 -0.00000000000E+00 -0.50000000000E+03  0.50000000000E+03  0.00000000000E+00 0.  1.
        -11    1    1    2    0    0 -0.20473289282E+02 -0.18810244740E+02  0.43416625159E+03  0.43505553083E+03  0.00000000000E+00 0.  1.
         11    1    1    2    0    0 -0.56000275577E+01 -0.63344732753E+01 -0.48584870469E+03  0.48592226714E+03  0.00000000000E+00 0.  1.
        -15    1    1    2    0    0  0.56877371241E+01 -0.50563606211E+01  0.39941360944E+02  0.40698736828E+02  0.17770000000E+01 0.  1.
         15    1    1    2    0    0  0.20385579715E+02  0.30201078636E+02  0.11741092153E+02  0.38323465202E+02  0.17770000000E+01 0. -1.
</event>
<event>
 6    1  0.3411206E-003  0.5027607E+03  0.7546771E-02  0.9393654E-01
        -11   -1    0    0    0    0  0.00000000000E+00  0.00000000000E+00  0.50000000000E+03  0.50000000000E+03  0.00000000000E+00 0. -1.
         11   -1    0    0    0    0 -0.00000000000E+00 -0.00000000000E+00 -0.50000000000E+03  0.50000000000E+03  0.00000000000E+00 0. -1.
        -11    1    1    2    0    0 -0.86560307949E+01 -0.26967215071E+01  0.37414367251E+03  0.37425350614E+03  0.00000000000E+00 0. -1.
         11    1    1    2    0    0  0.62197429630E+00 -0.83704823440E+01 -0.49716849920E+03  0.49723934722E+03  0.00000000000E+00 0. -1.
        -15    1    1    2    0    0  0.64476859377E+01  0.75871876320E+01  0.12380579615E+03  0.12421823924E+03  0.17770000000E+01 0.  1.
         15    1    1    2    0    0  0.15863705609E+01  0.34800162191E+01 -0.78096946733E+00  0.42889074075E+01  0.17770000000E+01 0. -1.
</event>
<event>
 6    1  0.3411206E-003  0.5033781E+03  0.7546771E-02  0.9392283E-01
        -11   -1    0    0    0    0  0.00000000000E+00  0.00000000000E+00  0.50000000000E+03  0.50000000000E+03  0.00000000000E+00 0. -1.
         11   -1    0    0    0    0 -0.00000000000E+00 -0.00000000000E+00 -0.50000000000E+03  0.50000000000E+03  0.00000000000E+00 0.  1.
        -11    1    1    2    0    0  0.70556487567E+01  0.74978117149E+00  0.49657124739E+03  0.49662193678E+03  0.00000000000E+00 0. -1.
         11    1    1    2    0    0  0.88798916573E+01  0.45739097309E+01 -0.47241410561E+03  0.47251969304E+03  0.00000000000E+00 0.  1.
        -15    1    1    2    0    0 -0.18478651491E+01  0.51728846116E+00 -0.51096591657E+00  0.26647716843E+01  0.17770000000E+01 0. -1.
         15    1    1    2    0    0 -0.14087675265E+02 -0.58409793636E+01 -0.23646175863E+02  0.28193598498E+02  0.17770000000E+01 0.  1.
</event>
<event>
 6    1  0.3411206E-003  0.5030144E+03  0.7546771E-02  0.9393090E-01
        -11   -1    0    0    0    0  0.00000000000E+00  0.00000000000E+00  0.50000000000E+03  0.50000000000E+03  0.00000000000E+00 0.  1.
         11   -1    0    0    0    0 -0.00000000000E+00 -0.00000000000E+00 -0.50000000000E+03  0.50000000000E+03  0.00000000000E+00 0. -1.
        -11    1    1    2    0    0  0.59980406799E+01 -0.42351612797E+01  0.48440828513E+03  0.48446393032E+03  0.00000000000E+00 0.  1.
         11    1    1    2    0    0  0.21227103527E+00  0.75046066541E+01 -0.49692888069E+03  0.49698558997E+03  0.00000000000E+00 0. -1.
        -15    1    1    2    0    0  0.12306239222E+01  0.10772330745E+01 -0.83643471497E+00  0.25558204880E+01  0.17770000000E+01 0. -1.
         15    1    1    2    0    0 -0.74409356373E+01 -0.43466784489E+01  0.13357030273E+02  0.15994659215E+02  0.17770000000E+01 0.  1.
</event>
<event>
 6    1  0.3411206E-003  0.5081476E+03  0.7546771E-02  0.9381761E-01
        -11   -1    0    0    0    0  0.00000000000E+00  0.00000000000E+00  0.50000000000E+03  0.50000000000E+03  0.00000000000E+00 0.  1.
         11   -1    0    0    0    0 -0.00000000000E+00 -0.00000000000E+00 -0.50000000000E+03  0.50000000000E+03  0.00000000000E+00 0. -1.
        -11    1    1    2    0    0  0.12877662548E+02 -0.24434601620E+01  0.34257976055E+03  0.34283042022E+03  0.00000000000E+00 0.  1.
         11    1    1    2    0    0 -0.16888632096E+01 -0.10447095166E+02 -0.49173849173E+03  0.49185235417E+03  0.00000000000E+00 0. -1.
        -15    1    1    2    0    0 -0.17144589801E+02  0.76783890169E+01  0.15447217920E+03  0.15562039228E+03  0.17770000000E+01 0.  1.
         15    1    1    2    0    0  0.59557904633E+01  0.52121663109E+01 -0.53134480261E+01  0.96968333296E+01  0.17770000000E+01 0. -1.
</event>
<event>
 6    1  0.3411206E-003  0.5008753E+03  0.7546771E-02  0.9397853E-01
        -11   -1    0    0    0    0  0.00000000000E+00  0.00000000000E+00  0.50000000000E+03  0.50000000000E+03  0.00000000000E+00 0. -1.
         11   -1    0    0    0    0 -0.00000000000E+00 -0.00000000000E+00 -0.50000000000E+03  0.50000000000E+03  0.00000000000E+00 0.  1.
        -11    1    1    2    0    0  0.32893111018E+01 -0.80878582766E+01  0.39726864799E+03  0.39736458284E+03  0.00000000000E+00 0. -1.
         11    1    1    2    0    0 -0.90166464275E+01 -0.39762780709E+01 -0.49902745106E+03  0.49912474153E+03  0.00000000000E+00 0.  1.
        -15    1    1    2    0    0 -0.35104395400E+00  0.84537950911E+01  0.81920587262E+02  0.82375543881E+02  0.17770000000E+01 0. -1.
         15    1    1    2    0    0  0.60783792797E+01  0.36103412565E+01  0.19838215805E+02  0.21135131747E+02  0.17770000000E+01 0.  1.
</event>
<event>
 6    1  0.3411206E-003  0.5008835E+03  0.7546771E-02  0.9397835E-01
        -11   -1    0    0    0    0  0.00000000000E+00  0.00000000000E+00  0.50000000000E+03  0.50000000000E+03  0.00000000000E+00 0. -1.
         11   -1    0    0    0    0 -0.00000000000E+00 -0.00000000000E+00 -0.50000000000E+03  0.50000000000E+03  0.00000000000E+00 0.  1.
        -11    1    1    2    0    0  0.19466177277E+01  0.17531746693E+01  0.98603261481E+02  0.98638056128E+02  0.00000000000E+00 0. -1.
         11    1    1    2    0    0 -0.50816497879E+01  0.14612438472E+02 -0.49887666563E+03  0.49911649345E+03  0.00000000000E+00 0.  1.
        -15    1    1    2    0    0  0.81188099684E+01 -0.14622723969E+02  0.72528583267E+02  0.74453289057E+02  0.17770000000E+01 0. -1.
         15    1    1    2    0    0 -0.49837779082E+01 -0.17428891723E+01  0.32774482089E+03  0.32779216136E+03  0.17770000000E+01 0. -1.
</event>
<event>
 6    1  0.3411206E-003  0.5013113E+03  0.7546771E-02  0.9396880E-01
        -11   -1    0    0    0    0  0.00000000000E+00  0.00000000000E+00  0.50000000000E+03  0.50000000000E+03  0.00000000000E+00 0. -1.
         11   -1    0    0    0    0 -0.00000000000E+00 -0.00000000000E+00 -0.50000000000E+03  0.50000000000E+03  0.00000000000E+00 0.  1.
        -11    1    1    2    0    0 -0.14069511115E+02  0.96161332017E+01  0.49839746303E+03  0.49868873290E+03  0.00000000000E+00 0. -1.
         11    1    1    2    0    0  0.56660593435E+01  0.21370657780E+01 -0.39732917082E+03  0.39737531536E+03  0.00000000000E+00 0.  1.
        -15    1    1    2    0    0 -0.14390004814E+01 -0.31996557668E+01 -0.71059581132E+02  0.71168323847E+02  0.17770000000E+01 0. -1.
         15    1    1    2    0    0  0.98424522526E+01 -0.85535432129E+01 -0.30008711085E+02  0.32767627894E+02  0.17770000000E+01 0.  1.
</event>
<event>
 6    1  0.3411206E-003  0.5032054E+03  0.7546771E-02  0.9392666E-01
        -11   -1    0    0    0    0  0.00000000000E+00  0.00000000000E+00  0.50000000000E+03  0.50000000000E+03  0.00000000000E+00 0. -1.
         11   -1    0    0    0    0 -0.00000000000E+00 -0.00000000000E+00 -0.50000000000E+03  0.50000000000E+03  0.00000000000E+00 0.  1.
        -11    1    1    2    0    0  0.61644047925E+01 -0.38194303360E+01  0.49674168088E+03  0.49679461093E+03  0.00000000000E+00 0. -1.
         11    1    1    2    0    0 -0.61671727913E+01 -0.30058922645E+01 -0.48710954433E+03  0.48715785695E+03  0.00000000000E+00 0.  1.
        -15    1    1    2    0    0 -0.27471855877E+01  0.32164311485E+01 -0.10158361168E+02  0.11146411468E+02  0.17770000000E+01 0.  1.
         15    1    1    2    0    0  0.27499535865E+01  0.36088914520E+01  0.52622462548E+00  0.49011206470E+01  0.17770000000E+01 0. -1.
</event>
<event>
 6    1  0.3411206E-003  0.4173052E+03  0.7546771E-02  0.9606607E-01
        -11   -1    0    0    0    0  0.00000000000E+00  0.00000000000E+00  0.50000000000E+03  0.50000000000E+03  0.00000000000E+00 0. -1.
         11   -1    0    0    0    0 -0.00000000000E+00 -0.00000000000E+00 -0.50000000000E+03  0.50000000000E+03  0.00000000000E+00 0.  1.
        -11    1    1    2    0    0  0.10763384920E+01 -0.66084732808E+01  0.41371212080E+03  0.41376629795E+03  0.00000000000E+00 0. -1.
         11    1    1    2    0    0 -0.66470606497E+02 -0.28164059874E+00 -0.41819272765E+03  0.42344253248E+03  0.00000000000E+00 0.  1.
        -15    1    1    2    0    0  0.71429869199E+01  0.47835266663E+01  0.72594529210E+02  0.73123373758E+02  0.17770000000E+01 0. -1.
         15    1    1    2    0    0  0.58251281085E+02  0.21065872133E+01 -0.68113922356E+02  0.89667795810E+02  0.17770000000E+01 0.  1.
</event>
<event>
 6    1  0.3411206E-003  0.5144034E+03  0.7546771E-02  0.9368146E-01
        -11   -1    0    0    0    0  0.00000000000E+00  0.00000000000E+00  0.50000000000E+03  0.50000000000E+03  0.00000000000E+00 0. -1.
         11   -1    0    0    0    0 -0.00000000000E+00 -0.00000000000E+00 -0.50000000000E+03  0.50000000000E+03  0.00000000000E+00 0. -1.
        -11    1    1    2    0    0  0.23037716986E+01 -0.12524306245E+02  0.43929024505E+03  0.43947478313E+03  0.00000000000E+00 0. -1.
         11    1    1    2    0    0 -0.70047819461E+01 -0.10491846459E+02 -0.48543274764E+03  0.48559664156E+03  0.00000000000E+00 0. -1.
        -15    1    1    2    0    0  0.45277846561E+01  0.15854326533E+02 -0.92888833075E+01  0.19007934812E+02  0.17770000000E+01 0.  1.
         15    1    1    2    0    0  0.17322559136E+00  0.71618261712E+01  0.55431385902E+02  0.55920640494E+02  0.17770000000E+01 0. -1.
</event>
<event>
 6    1  0.3411206E-003  0.5014182E+03  0.7546771E-02  0.9396642E-01
        -11   -1    0    0    0    0  0.00000000000E+00  0.00000000000E+00  0.50000000000E+03  0.50000000000E+03  0.00000000000E+00 0. -1.
         11   -1    0    0    0    0 -0.00000000000E+00 -0.00000000000E+00 -0.50000000000E+03  0.50000000000E+03  0.00000000000E+00 0. -1.
        -11    1    1    2    0    0  0.10589427292E+02 -0.97165957728E+01  0.49837461613E+03  0.49858179490E+03  0.00000000000E+00 0. -1.
         11    1    1    2    0    0  0.57047097355E+00 -0.92395546834E+01 -0.39400194504E+03  0.39411067926E+03  0.00000000000E+00 0. -1.
        -15    1    1    2    0    0 -0.58984657233E+01  0.11068686491E+02 -0.34118588871E+02  0.36394279139E+02  0.17770000000E+01 0. -1.
         15    1    1    2    0    0 -0.52614325424E+01  0.78874639655E+01 -0.70254082218E+02  0.70913246700E+02  0.17770000000E+01 0.  1.
</event>
<event>
 6    1  0.3411206E-003  0.5030716E+03  0.7546771E-02  0.9392963E-01
        -11   -1    0    0    0    0  0.00000000000E+00  0.00000000000E+00  0.50000000000E+03  0.50000000000E+03  0.00000000000E+00 0.  1.
         11   -1    0    0    0    0 -0.00000000000E+00 -0.00000000000E+00 -0.50000000000E+03  0.50000000000E+03  0.00000000000E+00 0.  1.
        -11    1    1    2    0    0  0.13576166936E+02 -0.10473025190E+01  0.49674176071E+03  0.49692835095E+03  0.00000000000E+00 0.  1.
         11    1    1    2    0    0 -0.59994434339E+01 -0.43238572715E+01 -0.46537717062E+03  0.46543592470E+03  0.00000000000E+00 0.  1.
        -15    1    1    2    0    0 -0.63634326993E+01  0.14360052782E+00 -0.92170710516E+00  0.66724185884E+01  0.17770000000E+01 0. -1.
         15    1    1    2    0    0 -0.12132908029E+01  0.52275592627E+01 -0.30442882981E+02  0.30963305761E+02  0.17770000000E+01 0.  1.
</event>
<event>
 6    1  0.3411206E-003  0.5020408E+03  0.7546771E-02  0.9395255E-01
        -11   -1    0    0    0    0  0.00000000000E+00  0.00000000000E+00  0.50000000000E+03  0.50000000000E+03  0.00000000000E+00 0.  1.
         11   -1    0    0    0    0 -0.00000000000E+00 -0.00000000000E+00 -0.50000000000E+03  0.50000000000E+03  0.00000000000E+00 0. -1.
        -11    1    1    2    0    0  0.67739590695E+01 -0.20802495899E+01  0.49790873783E+03  0.49795916014E+03  0.00000000000E+00 0.  1.
         11    1    1    2    0    0  0.70339585613E+01  0.31801500539E+00 -0.44134657282E+03  0.44140273566E+03  0.00000000000E+00 0. -1.
        -15    1    1    2    0    0 -0.12029173264E+02  0.24619011436E+01 -0.56683626311E+02  0.58025452927E+02  0.17770000000E+01 0. -1.
         15    1    1    2    0    0 -0.17787443669E+01 -0.69966655908E+00  0.12146129817E+00  0.26126512710E+01  0.17770000000E+01 0.  1.
</event>
<event>
 6    1  0.3411206E-003  0.5007365E+03  0.7546771E-02  0.9398163E-01
        -11   -1    0    0    0    0  0.00000000000E+00  0.00000000000E+00  0.50000000000E+03  0.50000000000E+03  0.00000000000E+00 0. -1.
         11   -1    0    0    0    0 -0.00000000000E+00 -0.00000000000E+00 -0.50000000000E+03  0.50000000000E+03  0.00000000000E+00 0.  1.
        -11    1    1    2    0    0  0.10313023775E+01  0.74400610291E+01  0.43880357714E+03  0.43886785870E+03  0.00000000000E+00 0. -1.
         11    1    1    2    0    0  0.63198625143E+00 -0.87128640730E+01 -0.49918705395E+03  0.49926348578E+03  0.00000000000E+00 0.  1.
        -15    1    1    2    0    0  0.86982673549E+00  0.57316906091E+01  0.15269225394E+02  0.16429115890E+02  0.17770000000E+01 0.  1.
         15    1    1    2    0    0 -0.25331153644E+01 -0.44588875651E+01  0.45114251417E+02  0.45439539629E+02  0.17770000000E+01 0. -1.
</event>
<event>
 6    1  0.3411206E-003  0.5071800E+03  0.7546771E-02  0.9383886E-01
        -11   -1    0    0    0    0  0.00000000000E+00  0.00000000000E+00  0.50000000000E+03  0.50000000000E+03  0.00000000000E+00 0.  1.
         11   -1    0    0    0    0 -0.00000000000E+00 -0.00000000000E+00 -0.50000000000E+03  0.50000000000E+03  0.00000000000E+00 0.  1.
        -11    1    1    2    0    0 -0.13958051443E+02  0.41038507803E+02  0.49090995940E+03  0.49282002248E+03  0.00000000000E+00 0.  1.
         11    1    1    2    0    0  0.44353795784E+01  0.61032117375E+01 -0.38032305495E+03  0.38039788105E+03  0.00000000000E+00 0.  1.
        -15    1    1    2    0    0  0.81501574148E+01 -0.43812636276E+02 -0.53928248495E+02  0.69981325209E+02  0.17770000000E+01 0. -1.
         15    1    1    2    0    0  0.13725144495E+01 -0.33290832650E+01 -0.56658655956E+02  0.56800771253E+02  0.17770000000E+01 0.  1.
</event>
<event>
 6    1  0.3411206E-003  0.5031755E+03  0.7546771E-02  0.9392732E-01
        -11   -1    0    0    0    0  0.00000000000E+00  0.00000000000E+00  0.50000000000E+03  0.50000000000E+03  0.00000000000E+00 0.  1.
         11   -1    0    0    0    0 -0.00000000000E+00 -0.00000000000E+00 -0.50000000000E+03  0.50000000000E+03  0.00000000000E+00 0.  1.
        -11    1    1    2    0    0  0.90177192687E+01  0.40851427927E+01  0.26580841744E+03  0.26599271125E+03  0.00000000000E+00 0.  1.
         11    1    1    2    0    0  0.43014826978E+01  0.86863666745E+01 -0.49672990926E+03  0.49682447451E+03  0.00000000000E+00 0.  1.
        -15    1    1    2    0    0 -0.12111718985E+02  0.30472572567E+01  0.21221873040E+03  0.21259333662E+03  0.17770000000E+01 0.  1.
         15    1    1    2    0    0 -0.12074829817E+01 -0.15818766724E+02  0.18702761421E+02  0.24589477620E+02  0.17770000000E+01 0. -1.
</event>
<event>
 6    1  0.3411206E-003  0.5041365E+03  0.7546771E-02  0.9390601E-01
        -11   -1    0    0    0    0  0.00000000000E+00  0.00000000000E+00  0.50000000000E+03  0.50000000000E+03  0.00000000000E+00 0. -1.
         11   -1    0    0    0    0 -0.00000000000E+00 -0.00000000000E+00 -0.50000000000E+03  0.50000000000E+03  0.00000000000E+00 0.  1.
        -11    1    1    2    0    0 -0.72509706902E+01  0.19167796237E+01  0.44313498651E+03  0.44319845091E+03  0.00000000000E+00 0. -1.
         11    1    1    2    0    0 -0.76236073558E+01 -0.14037802965E+02 -0.49560609196E+03  0.49586346678E+03  0.00000000000E+00 0.  1.
        -15    1    1    2    0    0  0.11843919841E+02  0.60574884061E+01  0.74013161157E+01  0.15326735211E+02  0.17770000000E+01 0.  1.
         15    1    1    2    0    0  0.30306582053E+01  0.60635349349E+01  0.45069789331E+02  0.45611347101E+02  0.17770000000E+01 0. -1.
</event>
<event>
 6    1  0.3411206E-003  0.5114192E+03  0.7546771E-02  0.9374615E-01
        -11   -1    0    0    0    0  0.00000000000E+00  0.00000000000E+00  0.50000000000E+03  0.50000000000E+03  0.00000000000E+00 0. -1.
         11   -1    0    0    0    0 -0.00000000000E+00 -0.00000000000E+00 -0.50000000000E+03  0.50000000000E+03  0.00000000000E+00 0.  1.
        -11    1    1    2    0    0 -0.64444378442E+01  0.10993713077E+02  0.48841459112E+03  0.48858080736E+03  0.00000000000E+00 0. -1.
         11    1    1    2    0    0 -0.27104994897E+01 -0.17300877188E+02 -0.47431728850E+03  0.47464045058E+03  0.00000000000E+00 0.  1.
        -15    1    1    2    0    0  0.57788251039E+01  0.18800213323E+02 -0.13057375599E+02  0.23674788851E+02  0.17770000000E+01 0.  1.
         15    1    1    2    0    0  0.33761122299E+01 -0.12493049212E+02 -0.10399270195E+01  0.13103953206E+02  0.17770000000E+01 0. -1.
</event>
<event>
 6    1  0.3411206E-003  0.5008651E+03  0.7546771E-02  0.9397876E-01
        -11   -1    0    0    0    0  0.00000000000E+00  0.00000000000E+00  0.50000000000E+03  0.50000000000E+03  0.00000000000E+00 0.  1.
         11   -1    0    0    0    0 -0.00000000000E+00 -0.00000000000E+00 -0.50000000000E+03  0.50000000000E+03  0.00000000000E+00 0. -1.
        -11    1    1    2    0    0 -0.12655891020E+02 -0.80052119989E+01  0.49891019174E+03  0.49913488599E+03  0.00000000000E+00 0.  1.
         11    1    1    2    0    0 -0.80190198501E+01 -0.73772200024E+00 -0.27291130430E+03  0.27303008796E+03  0.00000000000E+00 0. -1.
        -15    1    1    2    0    0  0.17425254664E+01 -0.39373119530E+01 -0.18345199275E+02  0.18927305298E+02  0.17770000000E+01 0. -1.
         15    1    1    2    0    0  0.18932385404E+02  0.12680245952E+02 -0.20765368816E+03  0.20890772075E+03  0.17770000000E+01 0. -1.
</event>
<event>
 6    1  0.3411206E-003  0.4619471E+03  0.7546771E-02  0.9489228E-01
        -11   -1    0    0    0    0  0.00000000000E+00  0.00000000000E+00  0.50000000000E+03  0.50000000000E+03  0.00000000000E+00 0.  1.
         11   -1    0    0    0    0 -0.00000000000E+00 -0.00000000000E+00 -0.50000000000E+03  0.50000000000E+03  0.00000000000E+00 0. -1.
        -11    1    1    2    0    0  0.20414835868E+02  0.12150487872E+02  0.46675928024E+03  0.46736348335E+03  0.00000000000E+00 0.  1.
         11    1    1    2    0    0  0.47478229607E+01 -0.12630629989E+02 -0.45672859665E+03  0.45692787794E+03  0.00000000000E+00 0. -1.
        -15    1    1    2    0    0  0.44888939766E+00 -0.22415719810E+02 -0.28784553083E+02  0.36529087335E+02  0.17770000000E+01 0.  1.
         15    1    1    2    0    0 -0.25611548226E+02  0.22895861926E+02  0.18753869492E+02  0.39179551373E+02  0.17770000000E+01 0. -1.
</event>
<event>
 6    1  0.4462631E-003  0.5003644E+03  0.7546771E-02  0.9398995E-01
        -11   -1    0    0    0    0  0.00000000000E+00  0.00000000000E+00  0.50000000000E+03  0.50000000000E+03  0.00000000000E+00 0.  1.
         11   -1    0    0    0    0 -0.00000000000E+00 -0.00000000000E+00 -0.50000000000E+03  0.50000000000E+03  0.00000000000E+00 0.  1.
        -11    1    1    2    0    0 -0.13224644542E+02 -0.54179374635E+01  0.49943117454E+03  0.49963561059E+03  0.00000000000E+00 0.  1.
         11    1    1    2    0    0  0.71102337062E+00 -0.16071066828E+01 -0.10705310413E+03  0.10706752752E+03  0.00000000000E+00 0.  1.
        -15    1    1    2    0    0  0.51916827509E+01  0.69096846163E+00 -0.33735189951E+03  0.33739723301E+03  0.17770000000E+01 0.  1.
         15    1    1    2    0    0  0.73219384203E+01  0.63340756847E+01 -0.55026170892E+02  0.55899628882E+02  0.17770000000E+01 0. -1.
</event>
<event>
 6    1  0.3411206E-003  0.5191149E+03  0.7546771E-02  0.9358026E-01
        -11   -1    0    0    0    0  0.00000000000E+00  0.00000000000E+00  0.50000000000E+03  0.50000000000E+03  0.00000000000E+00 0.  1.
         11   -1    0    0    0    0 -0.00000000000E+00 -0.00000000000E+00 -0.50000000000E+03  0.50000000000E+03  0.00000000000E+00 0.  1.
        -11    1    1    2    0    0 -0.27107514577E+02  0.36235341155E+02  0.47875114863E+03  0.48088510022E+03  0.00000000000E+00 0.  1.
         11    1    1    2    0    0  0.57654739758E+02 -0.11412848292E+02 -0.29804294728E+03  0.30378268638E+03  0.00000000000E+00 0.  1.
        -15    1    1    2    0    0  0.25843624035E+01 -0.64786031200E+02 -0.92684287357E+02  0.11312578671E+03  0.17770000000E+01 0. -1.
         15    1    1    2    0    0 -0.33131587584E+02  0.39963538337E+02 -0.88023913994E+02  0.10220642669E+03  0.17770000000E+01 0.  1.
</event>
<event>
 6    1  0.3411206E-003  0.5150792E+03  0.7546771E-02  0.9366687E-01
        -11   -1    0    0    0    0  0.00000000000E+00  0.00000000000E+00  0.50000000000E+03  0.50000000000E+03  0.00000000000E+00 0. -1.
         11   -1    0    0    0    0 -0.00000000000E+00 -0.00000000000E+00 -0.50000000000E+03  0.50000000000E+03  0.00000000000E+00 0.  1.
        -11    1    1    2    0    0 -0.95238471483E+01  0.10365003392E+01  0.48482612072E+03  0.48492076191E+03  0.00000000000E+00 0. -1.
         11    1    1    2    0    0 -0.69279565161E+01 -0.10931713750E+02 -0.46420390571E+03  0.46438428593E+03  0.00000000000E+00 0.  1.
        -15    1    1    2    0    0  0.55786182922E+01 -0.14458447697E+02  0.19358023759E+01  0.15718548015E+02  0.17770000000E+01 0. -1.
         15    1    1    2    0    0  0.10873185372E+02  0.24353661108E+02 -0.22558017388E+02  0.34976404146E+02  0.17770000000E+01 0.  1.
</event>
<event>
 6    1  0.3411206E-003  0.4659618E+03  0.7546771E-02  0.9479369E-01
        -11   -1    0    0    0    0  0.00000000000E+00  0.00000000000E+00  0.50000000000E+03  0.50000000000E+03  0.00000000000E+00 0. -1.
         11   -1    0    0    0    0 -0.00000000000E+00 -0.00000000000E+00 -0.50000000000E+03  0.50000000000E+03  0.00000000000E+00 0. -1.
        -11    1    1    2    0    0 -0.32453782795E+01 -0.13550698287E+02  0.46624584407E+03  0.46645400740E+03  0.00000000000E+00 0. -1.
         11    1    1    2    0    0  0.20131870807E+02 -0.15687842136E+02 -0.46538210970E+03  0.46608143993E+03  0.00000000000E+00 0. -1.
        -15    1    1    2    0    0 -0.93022396919E+01  0.21175232680E+02  0.28081902497E+02  0.36423524255E+02  0.17770000000E+01 0.  1.
         15    1    1    2    0    0 -0.75842528352E+01  0.80633077430E+01 -0.28945636865E+02  0.31041028420E+02  0.17770000000E+01 0. -1.
</event>
<event>
 6    1  0.3411206E-003  0.5016129E+03  0.7546771E-02  0.9396208E-01
        -11   -1    0    0    0    0  0.00000000000E+00  0.00000000000E+00  0.50000000000E+03  0.50000000000E+03  0.00000000000E+00 0. -1.
         11   -1    0    0    0    0 -0.00000000000E+00 -0.00000000000E+00 -0.50000000000E+03  0.50000000000E+03  0.00000000000E+00 0. -1.
        -11    1    1    2    0    0  0.20937857254E+01  0.62655694816E+01  0.35798946919E+03  0.35805041733E+03  0.00000000000E+00 0. -1.
         11    1    1    2    0    0 -0.93445484649E+01 -0.68000846627E+01 -0.49825309808E+03  0.49838711007E+03  0.00000000000E+00 0. -1.
        -15    1    1    2    0    0 -0.19274016426E+01 -0.10912215955E+02  0.10078923588E+03  0.10141212517E+03  0.17770000000E+01 0. -1.
         15    1    1    2    0    0  0.91781643821E+01  0.11446731137E+02  0.39474393017E+02  0.42150347427E+02  0.17770000000E+01 0.  1.
</event>
<event>
 6    1  0.3411206E-003  0.2880402E+03  0.7546771E-02  0.1006106E+00
        -11   -1    0    0    0    0  0.00000000000E+00  0.00000000000E+00  0.50000000000E+03  0.50000000000E+03  0.00000000000E+00 0. -1.
         11   -1    0    0    0    0 -0.00000000000E+00 -0.00000000000E+00 -0.50000000000E+03  0.50000000000E+03  0.00000000000E+00 0.  1.
        -11    1    1    2    0    0 -0.31339164960E+01 -0.10187617638E+02  0.43792483530E+03  0.43805452897E+03  0.00000000000E+00 0. -1.
         11    1    1    2    0    0 -0.39977401869E+01  0.32400481910E+01 -0.13704621978E+03  0.13714279491E+03  0.00000000000E+00 0.  1.
        -15    1    1    2    0    0 -0.65151512633E+02  0.13658318888E+03 -0.15761605420E+03  0.21850781531E+03  0.17770000000E+01 0. -1.
         15    1    1    2    0    0  0.72283169316E+02 -0.12963561943E+03 -0.14326256132E+03  0.20629486081E+03  0.17770000000E+01 0.  1.
</event>
<event>
 6    1  0.3411206E-003  0.5366348E+03  0.7546771E-02  0.9321373E-01
        -11   -1    0    0    0    0  0.00000000000E+00  0.00000000000E+00  0.50000000000E+03  0.50000000000E+03  0.00000000000E+00 0. -1.
         11   -1    0    0    0    0 -0.00000000000E+00 -0.00000000000E+00 -0.50000000000E+03  0.50000000000E+03  0.00000000000E+00 0.  1.
        -11    1    1    2    0    0  0.12077468131E+02  0.67263665855E+01  0.41329556746E+03  0.41352670449E+03  0.00000000000E+00 0. -1.
         11    1    1    2    0    0 -0.14086501823E+02  0.24681014342E+01 -0.46314442784E+03  0.46336517143E+03  0.00000000000E+00 0.  1.
        -15    1    1    2    0    0 -0.11428920193E+02 -0.10225080942E+02 -0.34433828032E+02  0.37736172818E+02  0.17770000000E+01 0.  1.
         15    1    1    2    0    0  0.13437953885E+02  0.10306129228E+01  0.84282688412E+02  0.85371951264E+02  0.17770000000E+01 0. -1.
</event>
<event>
 6    1  0.3411206E-003  0.5028924E+03  0.7546771E-02  0.9393361E-01
        -11   -1    0    0    0    0  0.00000000000E+00  0.00000000000E+00  0.50000000000E+03  0.50000000000E+03  0.00000000000E+00 0.  1.
         11   -1    0    0    0    0 -0.00000000000E+00 -0.00000000000E+00 -0.50000000000E+03  0.50000000000E+03  0.00000000000E+00 0.  1.
        -11    1    1    2    0    0 -0.87587960873E+01 -0.14358419481E+02  0.49682303626E+03  0.49710764436E+03  0.00000000000E+00 0.  1.
         11    1    1    2    0    0 -0.11490386566E+02 -0.12272265289E+02 -0.36840508520E+03  0.36878848176E+03  0.00000000000E+00 0.  1.
        -15    1    1    2    0    0 -0.29378728206E+01  0.80970888585E+01 -0.33613083662E+02  0.34744655229E+02  0.17770000000E+01 0.  1.
         15    1    1    2    0    0  0.23187055474E+02  0.18533595912E+02 -0.94804867400E+02  0.99359218649E+02  0.17770000000E+01 0. -1.
</event>
<event>
 6    1  0.3411206E-003  0.5079261E+03  0.7546771E-02  0.9382247E-01
        -11   -1    0    0    0    0  0.00000000000E+00  0.00000000000E+00  0.50000000000E+03  0.50000000000E+03  0.00000000000E+00 0. -1.
         11   -1    0    0    0    0 -0.00000000000E+00 -0.00000000000E+00 -0.50000000000E+03  0.50000000000E+03  0.00000000000E+00 0. -1.
        -11    1    1    2    0    0  0.85352102894E+01 -0.17145979117E+02  0.49170103608E+03  0.49207392056E+03  0.00000000000E+00 0. -1.
         11    1    1    2    0    0  0.10613420356E+02  0.89195394851E+01 -0.46349950079E+03  0.46370679325E+03  0.00000000000E+00 0. -1.
        -15    1    1    2    0    0 -0.14733120572E+02 -0.16099967901E+00 -0.30836549734E+02  0.34221941663E+02  0.17770000000E+01 0.  1.
         15    1    1    2    0    0 -0.44155100734E+01  0.83874393113E+01  0.26350144460E+01  0.99973445244E+01  0.17770000000E+01 0. -1.
</event>
<event>
 6    1  0.3411206E-003  0.5083171E+03  0.7546771E-02  0.9381390E-01
        -11   -1    0    0    0    0  0.00000000000E+00  0.00000000000E+00  0.50000000000E+03  0.50000000000E+03  0.00000000000E+00 0.  1.
         11   -1    0    0    0    0 -0.00000000000E+00 -0.00000000000E+00 -0.50000000000E+03  0.50000000000E+03  0.00000000000E+00 0.  1.
        -11    1    1    2    0    0 -0.19152232730E+02 -0.50905573965E+01  0.43548361751E+03  0.43593428738E+03  0.00000000000E+00 0.  1.
         11    1    1    2    0    0 -0.10073539282E+02 -0.43560066884E+00 -0.49157953625E+03  0.49168293280E+03  0.00000000000E+00 0.  1.
        -15    1    1    2    0    0  0.13970997680E+02 -0.68646410480E+01  0.48948964741E+02  0.51395242495E+02  0.17770000000E+01 0. -1.
         15    1    1    2    0    0  0.15254774333E+02  0.12390799113E+02  0.71469540024E+01  0.20987537329E+02  0.17770000000E+01 0.  1.
</event>
<event>
 6    1  0.3411206E-003  0.4653791E+03  0.7546771E-02  0.9480793E-01
        -11   -1    0    0    0    0  0.00000000000E+00  0.00000000000E+00  0.50000000000E+03  0.50000000000E+03  0.00000000000E+00 0.  1.
         11   -1    0    0    0    0 -0.00000000000E+00 -0.00000000000E+00 -0.50000000000E+03  0.50000000000E+03  0.00000000000E+00 0.  1.
        -11    1    1    2    0    0  0.64559769444E+01  0.32811195730E+00  0.46705255909E+03  0.46709729206E+03  0.00000000000E+00 0.  1.
         11    1    1    2    0    0  0.10032296713E+02 -0.92190926887E+01 -0.46365538902E+03  0.46385553615E+03  0.00000000000E+00 0.  1.
        -15    1    1    2    0    0 -0.97785791922E+01 -0.14815459315E+01 -0.34288132501E+02  0.35730230181E+02  0.17770000000E+01 0.  1.
         15    1    1    2    0    0 -0.67096944652E+01  0.10372526663E+02  0.30890962433E+02  0.33316941610E+02  0.17770000000E+01 0. -1.
</event>
<event>
 6    1  0.3411206E-003  0.5007854E+03  0.7546771E-02  0.9398054E-01
        -11   -1    0    0    0    0  0.00000000000E+00  0.00000000000E+00  0.50000000000E+03  0.50000000000E+03  0.00000000000E+00 0.  1.
         11   -1    0    0    0    0 -0.00000000000E+00 -0.00000000000E+00 -0.50000000000E+03  0.50000000000E+03  0.00000000000E+00 0.  1.
        -11    1    1    2    0    0  0.70440510875E+01  0.22216752428E+01  0.49915991591E+03  0.49921455923E+03  0.00000000000E+00 0.  1.
         11    1    1    2    0    0  0.61487774834E+01  0.24966958136E+01 -0.33830046036E+03  0.33836554557E+03  0.00000000000E+00 0.  1.
        -15    1    1    2    0    0  0.15676930097E+01  0.31675222518E+01 -0.62987604810E+02  0.63111702142E+02  0.17770000000E+01 0.  1.
         15    1    1    2    0    0 -0.14760521581E+02 -0.78858933082E+01 -0.97871850744E+02  0.99308193054E+02  0.17770000000E+01 0. -1.
</event>
<event>
 6    1  0.3411206E-003  0.5039922E+03  0.7546771E-02  0.9390921E-01
        -11   -1    0    0    0    0  0.00000000000E+00  0.00000000000E+00  0.50000000000E+03  0.50000000000E+03  0.00000000000E+00 0.  1.
         11   -1    0    0    0    0 -0.00000000000E+00 -0.00000000000E+00 -0.50000000000E+03  0.50000000000E+03  0.00000000000E+00 0. -1.
        -11    1    1    2    0    0  0.33958568047E+01  0.58454345562E+01  0.40908659282E+03  0.40914244631E+03  0.00000000000E+00 0.  1.
         11    1    1    2    0    0  0.35677783905E+00 -0.88041299004E+01 -0.49592955224E+03  0.49600782330E+03  0.00000000000E+00 0. -1.
        -15    1    1    2    0    0 -0.47415699018E+01 -0.71715205716E+01  0.83543324698E+02  0.84003321500E+02  0.17770000000E+01 0. -1.
         15    1    1    2    0    0  0.98893525798E+00  0.10130215916E+02  0.32996347249E+01  0.10846408888E+02  0.17770000000E+01 0. -1.
</event>
<event>
 6    1  0.3411206E-003  0.3935772E+03  0.7546771E-02  0.9675571E-01
        -11   -1    0    0    0    0  0.00000000000E+00  0.00000000000E+00  0.50000000000E+03  0.50000000000E+03  0.00000000000E+00 0.  1.
         11   -1    0    0    0    0 -0.00000000000E+00 -0.00000000000E+00 -0.50000000000E+03  0.50000000000E+03  0.00000000000E+00 0. -1.
        -11    1    1    2    0    0  0.47772537953E+02 -0.44641988579E+02  0.41860488520E+03  0.42368050750E+03  0.00000000000E+00 0.  1.
         11    1    1    2    0    0  0.76283964670E+02  0.19637934957E+02 -0.36689630397E+03  0.37525696479E+03  0.00000000000E+00 0. -1.
        -15    1    1    2    0    0 -0.11792561291E+03 -0.30091708743E+02  0.48932931071E+01  0.12181569341E+03  0.17770000000E+01 0.  1.
         15    1    1    2    0    0 -0.61308897140E+01  0.55095762365E+02 -0.56601874334E+02  0.79246834299E+02  0.17770000000E+01 0. -1.
</event>
<event>
 6    1  0.3411206E-003  0.5130849E+03  0.7546771E-02  0.9370998E-01
        -11   -1    0    0    0    0  0.00000000000E+00  0.00000000000E+00  0.50000000000E+03  0.50000000000E+03  0.00000000000E+00 0. -1.
         11   -1    0    0    0    0 -0.00000000000E+00 -0.00000000000E+00 -0.50000000000E+03  0.50000000000E+03  0.00000000000E+00 0. -1.
        -11    1    1    2    0    0  0.53481189230E+01  0.12682649672E+02  0.44640607144E+03  0.44661821794E+03  0.00000000000E+00 0. -1.
         11    1    1    2    0    0 -0.10375124021E+02  0.13189584832E+02 -0.48662587188E+03  0.48691513381E+03  0.00000000000E+00 0. -1.
        -15    1    1    2    0    0  0.47358955603E+01  0.12656488500E+02  0.15565614072E+02  0.20689646646E+02  0.17770000000E+01 0.  1.
         15    1    1    2    0    0  0.29110953788E+00 -0.38528723004E+02  0.24654186372E+02  0.45777001603E+02  0.17770000000E+01 0. -1.
</event>
<event>
 6    1  0.3411206E-003  0.5070199E+03  0.7546771E-02  0.9384238E-01
        -11   -1    0    0    0    0  0.00000000000E+00  0.00000000000E+00  0.50000000000E+03  0.50000000000E+03  0.00000000000E+00 0.  1.
         11   -1    0    0    0    0 -0.00000000000E+00 -0.00000000000E+00 -0.50000000000E+03  0.50000000000E+03  0.00000000000E+00 0.  1.
        -11    1    1    2    0    0 -0.10216408113E+01  0.71761153329E+01  0.46014019174E+03  0.46019727991E+03  0.00000000000E+00 0.  1.
         11    1    1    2    0    0 -0.85660060295E+01  0.18427671372E+01 -0.49290227801E+03  0.49298014961E+03  0.00000000000E+00 0.  1.
        -15    1    1    2    0    0  0.12086300714E+02  0.68452423179E+00  0.34403755580E+02  0.36514700674E+02  0.17770000000E+01 0.  1.
         15    1    1    2    0    0 -0.24986538727E+01 -0.97034067019E+01 -0.16416693098E+01  0.10307869805E+02  0.17770000000E+01 0. -1.
</event>
<event>
 6    1  0.3411206E-003  0.5081919E+03  0.7546771E-02  0.9381664E-01
        -11   -1    0    0    0    0  0.00000000000E+00  0.00000000000E+00  0.50000000000E+03  0.50000000000E+03  0.00000000000E+00 0. -1.
         11   -1    0    0    0    0 -0.00000000000E+00 -0.00000000000E+00 -0.50000000000E+03  0.50000000000E+03  0.00000000000E+00 0.  1.
        -11    1    1    2    0    0 -0.27122746652E+01  0.84790447382E+01  0.49172754883E+03  0.49180812611E+03  0.00000000000E+00 0. -1.
         11    1    1    2    0    0  0.51369800288E+01  0.50982445300E+01 -0.45815680260E+03  0.45821396359E+03  0.00000000000E+00 0.  1.
        -15    1    1    2    0    0  0.42071839502E+01 -0.11040100595E+02  0.32942236744E+01  0.12393298857E+02  0.17770000000E+01 0. -1.
         15    1    1    2    0    0 -0.66318893138E+01 -0.25371886733E+01 -0.36864969905E+02  0.37584611443E+02  0.17770000000E+01 0. -1.
</event>
<event>
 6    1  0.3411206E-003  0.5119026E+03  0.7546771E-02  0.9373564E-01
        -11   -1    0    0    0    0  0.00000000000E+00  0.00000000000E+00  0.50000000000E+03  0.50000000000E+03  0.00000000000E+00 0.  1.
         11   -1    0    0    0    0 -0.00000000000E+00 -0.00000000000E+00 -0.50000000000E+03  0.50000000000E+03  0.00000000000E+00 0. -1.
        -11    1    1    2    0    0  0.11529743348E+02  0.32998679662E+01  0.48795000886E+03  0.48809736248E+03  0.00000000000E+00 0.  1.
         11    1    1    2    0    0  0.50988654687E+01  0.77820251207E+01 -0.43535171743E+03  0.43545111805E+03  0.00000000000E+00 0. -1.
        -15    1    1    2    0    0 -0.34008482068E+01 -0.29981149778E+01 -0.59278299633E+02  0.59477970698E+02  0.17770000000E+01 0. -1.
         15    1    1    2    0    0 -0.13227760610E+02 -0.80837781091E+01  0.66800081983E+01  0.16973548768E+02  0.17770000000E+01 0.  1.
</event>
<event>
 6    1  0.3411206E-003  0.5256553E+03  0.7546771E-02  0.9344166E-01
        -11   -1    0    0    0    0  0.00000000000E+00  0.00000000000E+00  0.50000000000E+03  0.50000000000E+03  0.00000000000E+00 0. -1.
         11   -1    0    0    0    0 -0.00000000000E+00 -0.00000000000E+00 -0.50000000000E+03  0.50000000000E+03  0.00000000000E+00 0.  1.
        -11    1    1    2    0    0  0.29333080654E+02  0.78539794591E+01  0.47337170888E+03  0.47434469469E+03  0.00000000000E+00 0. -1.
         11    1    1    2    0    0  0.61346754686E+01 -0.87604082376E+00 -0.43895073627E+03  0.43899447668E+03  0.00000000000E+00 0.  1.
        -15    1    1    2    0    0 -0.64918562394E+01 -0.37349450849E+01 -0.52001110196E+02  0.52567739183E+02  0.17770000000E+01 0.  1.
         15    1    1    2    0    0 -0.28975899883E+02 -0.32429935504E+01  0.17580137582E+02  0.34093089440E+02  0.17770000000E+01 0. -1.
</event>
<event>
 6    1  0.3411206E-003  0.5009004E+03  0.7546771E-02  0.9397797E-01
        -11   -1    0    0    0    0  0.00000000000E+00  0.00000000000E+00  0.50000000000E+03  0.50000000000E+03  0.00000000000E+00 0.  1.
         11   -1    0    0    0    0 -0.00000000000E+00 -0.00000000000E+00 -0.50000000000E+03  0.50000000000E+03  0.00000000000E+00 0. -1.
        -11    1    1    2    0    0  0.71625474635E+01  0.18096487716E+01  0.32588718824E+03  0.32597091339E+03  0.00000000000E+00 0.  1.
         11    1    1    2    0    0 -0.42475297472E+01 -0.59477885482E+01 -0.49904609501E+03  0.49909961194E+03  0.00000000000E+00 0. -1.
        -15    1    1    2    0    0 -0.58238729718E+01 -0.71117561214E+01  0.12525444950E+03  0.12560385910E+03  0.17770000000E+01 0.  1.
         15    1    1    2    0    0  0.29088552555E+01  0.11249895898E+02  0.47904457268E+02  0.49325615574E+02  0.17770000000E+01 0. -1.
</event>
<event>
 6    1  0.3411206E-003  0.5219552E+03  0.7546771E-02  0.9351980E-01
        -11   -1    0    0    0    0  0.00000000000E+00  0.00000000000E+00  0.50000000000E+03  0.50000000000E+03  0.00000000000E+00 0. -1.
         11   -1    0    0    0    0 -0.00000000000E+00 -0.00000000000E+00 -0.50000000000E+03  0.50000000000E+03  0.00000000000E+00 0. -1.
        -11    1    1    2    0    0  0.95341959133E+01 -0.65486532334E+01  0.45873119516E+03  0.45887699350E+03  0.00000000000E+00 0. -1.
         11    1    1    2    0    0  0.15830185774E+02  0.14312565384E+01 -0.47778045075E+03  0.47804477028E+03  0.00000000000E+00 0. -1.
        -15    1    1    2    0    0 -0.12746417081E+02 -0.82252717109E+00 -0.18745692451E+02  0.22753162721E+02  0.17770000000E+01 0. -1.
         15    1    1    2    0    0 -0.12617964607E+02  0.59399238661E+01  0.37794948043E+02  0.40325073502E+02  0.17770000000E+01 0. -1.
</event>
<event>
 6    1  0.3411206E-003  0.5002475E+03  0.7546771E-02  0.9399256E-01
        -11   -1    0    0    0    0  0.00000000000E+00  0.00000000000E+00  0.50000000000E+03  0.50000000000E+03  0.00000000000E+00 0.  1.
         11   -1    0    0    0    0 -0.00000000000E+00 -0.00000000000E+00 -0.50000000000E+03  0.50000000000E+03  0.00000000000E+00 0.  1.
        -11    1    1    2    0    0 -0.25569233293E+00 -0.45944962684E+00  0.35379128420E+02  0.35383035488E+02  0.00000000000E+00 0.  1.
         11    1    1    2    0    0 -0.56722124533E+01 -0.71688780531E+01 -0.49966886611E+03  0.49975248130E+03  0.00000000000E+00 0.  1.
        -15    1    1    2    0    0  0.13507819447E+01  0.85945080423E+01  0.43871064645E+03  0.43880050047E+03  0.17770000000E+01 0.  1.
         15    1    1    2    0    0  0.45771228416E+01 -0.96618036243E+00  0.25579091248E+02  0.26063982736E+02  0.17770000000E+01 0. -1.
</event>
<event>
 6    1  0.3411206E-003  0.5019994E+03  0.7546771E-02  0.9395347E-01
        -11   -1    0    0    0    0  0.00000000000E+00  0.00000000000E+00  0.50000000000E+03  0.50000000000E+03  0.00000000000E+00 0. -1.
         11   -1    0    0    0    0 -0.00000000000E+00 -0.00000000000E+00 -0.50000000000E+03  0.50000000000E+03  0.00000000000E+00 0.  1.
        -11    1    1    2    0    0 -0.55343234621E+01 -0.54440354484E+01  0.32901879528E+03  0.32911036736E+03  0.00000000000E+00 0. -1.
         11    1    1    2    0    0  0.16556961565E+02  0.55548775605E+01 -0.49769432128E+03  0.49800062960E+03  0.00000000000E+00 0.  1.
        -15    1    1    2    0    0 -0.82037035799E+00  0.10141566180E+02  0.14295134645E+03  0.14332400201E+03  0.17770000000E+01 0.  1.
         15    1    1    2    0    0 -0.10202267745E+02 -0.10252408292E+02  0.25724179556E+02  0.29565001027E+02  0.17770000000E+01 0. -1.
</event>
<event>
 6    1  0.3411206E-003  0.5033377E+03  0.7546771E-02  0.9392372E-01
        -11   -1    0    0    0    0  0.00000000000E+00  0.00000000000E+00  0.50000000000E+03  0.50000000000E+03  0.00000000000E+00 0.  1.
         11   -1    0    0    0    0 -0.00000000000E+00 -0.00000000000E+00 -0.50000000000E+03  0.50000000000E+03  0.00000000000E+00 0. -1.
        -11    1    1    2    0    0  0.25455980364E+02  0.10165705461E+02  0.49590529791E+03  0.49666227258E+03  0.00000000000E+00 0.  1.
         11    1    1    2    0    0  0.55451657510E+01  0.51629344118E+01 -0.29621543175E+03  0.29631231288E+03  0.00000000000E+00 0. -1.
        -15    1    1    2    0    0 -0.19716459247E+02 -0.26769133082E+02 -0.16989699111E+03  0.17312847995E+03  0.17770000000E+01 0.  1.
         15    1    1    2    0    0 -0.11284686868E+02  0.11440493209E+02 -0.29792875044E+02  0.33896934596E+02  0.17770000000E+01 0. -1.
</event>
<event>
 6    1  0.3411206E-003  0.5006447E+03  0.7546771E-02  0.9398368E-01
        -11   -1    0    0    0    0  0.00000000000E+00  0.00000000000E+00  0.50000000000E+03  0.50000000000E+03  0.00000000000E+00 0. -1.
         11   -1    0    0    0    0 -0.00000000000E+00 -0.00000000000E+00 -0.50000000000E+03  0.50000000000E+03  0.00000000000E+00 0.  1.
        -11    1    1    2    0    0  0.68077156118E+00  0.28948020886E+01  0.20992367296E+03  0.20994473510E+03  0.00000000000E+00 0. -1.
         11    1    1    2    0    0 -0.13521064049E+02  0.17159036922E+01 -0.49916930609E+03  0.49935534406E+03  0.00000000000E+00 0.  1.
        -15    1    1    2    0    0 -0.20881612406E+01 -0.17803261138E+01  0.20805218231E+03  0.20807786589E+03  0.17770000000E+01 0.  1.
         15    1    1    2    0    0  0.14928453729E+02 -0.28303796670E+01  0.81193450816E+02  0.82622054950E+02  0.17770000000E+01 0. -1.
</event>
<event>
 6    1  0.3411206E-003  0.5073566E+03  0.7546771E-02  0.9383498E-01
        -11   -1    0    0    0    0  0.00000000000E+00  0.00000000000E+00  0.50000000000E+03  0.50000000000E+03  0.00000000000E+00 0.  1.
         11   -1    0    0    0    0 -0.00000000000E+00 -0.00000000000E+00 -0.50000000000E+03  0.50000000000E+03  0.00000000000E+00 0.  1.
        -11    1    1    2    0    0 -0.59730115276E+01 -0.54600732428E+01  0.49257695539E+03  0.49264342708E+03  0.00000000000E+00 0.  1.
         11    1    1    2    0    0  0.30849167644E+01 -0.44279924306E+00 -0.18632201023E+03  0.18634807291E+03  0.00000000000E+00 0.  1.
        -15    1    1    2    0    0  0.92469883042E+01  0.14025243778E+02 -0.25043236902E+01  0.17077576580E+02  0.17770000000E+01 0.  1.
         15    1    1    2    0    0 -0.63588935411E+01 -0.81223712917E+01 -0.30375062147E+03  0.30393092343E+03  0.17770000000E+01 0. -1.
</event>
<event>
 6    1  0.3411206E-003  0.5174070E+03  0.7546771E-02  0.9361681E-01
        -11   -1    0    0    0    0  0.00000000000E+00  0.00000000000E+00  0.50000000000E+03  0.50000000000E+03  0.00000000000E+00 0. -1.
         11   -1    0    0    0    0 -0.00000000000E+00 -0.00000000000E+00 -0.50000000000E+03  0.50000000000E+03  0.00000000000E+00 0. -1.
        -11    1    1    2    0    0 -0.60227289080E+01 -0.52741302449E+01  0.48252657816E+03  0.48259298415E+03  0.00000000000E+00 0. -1.
         11    1    1    2    0    0  0.53636927591E+01  0.16650864690E+02 -0.39530616523E+03  0.39569304361E+03  0.00000000000E+00 0. -1.
        -15    1    1    2    0    0 -0.91770284692E+01 -0.24721602445E+02 -0.98236885121E+02  0.10173012733E+03  0.17770000000E+01 0.  1.
         15    1    1    2    0    0  0.98360646181E+01  0.13344867999E+02  0.11016472184E+02  0.19983844912E+02  0.17770000000E+01 0. -1.
</event>
<event>
 6    1  0.3411206E-003  0.5044969E+03  0.7546771E-02  0.9389803E-01
        -11   -1    0    0    0    0  0.00000000000E+00  0.00000000000E+00  0.50000000000E+03  0.50000000000E+03  0.00000000000E+00 0. -1.
         11   -1    0    0    0    0 -0.00000000000E+00 -0.00000000000E+00 -0.50000000000E+03  0.50000000000E+03  0.00000000000E+00 0.  1.
        -11    1    1    2    0    0 -0.79786793190E+01 -0.11553425380E+02  0.49530408748E+03  0.49550305755E+03  0.00000000000E+00 0. -1.
         11    1    1    2    0    0  0.69199411151E+01  0.16200472796E+01 -0.47312917737E+03  0.47318255317E+03  0.00000000000E+00 0.  1.
        -15    1    1    2    0    0  0.82365556586E+01  0.90760509479E+01 -0.65569331495E+01  0.14013088569E+02  0.17770000000E+01 0. -1.
         15    1    1    2    0    0 -0.71778174547E+01  0.85732715208E+00 -0.15617976959E+02  0.17301300718E+02  0.17770000000E+01 0.  1.
</event>
<event>
 6    1  0.3411206E-003  0.5004972E+03  0.7546771E-02  0.9398698E-01
        -11   -1    0    0    0    0  0.00000000000E+00  0.00000000000E+00  0.50000000000E+03  0.50000000000E+03  0.00000000000E+00 0.  1.
         11   -1    0    0    0    0 -0.00000000000E+00 -0.00000000000E+00 -0.50000000000E+03  0.50000000000E+03  0.00000000000E+00 0. -1.
        -11    1    1    2    0    0 -0.27016012652E+01 -0.29776360127E+01  0.17058126074E+03  0.17062863617E+03  0.00000000000E+00 0.  1.
         11    1    1    2    0    0 -0.11329078377E+02  0.10519031044E+02 -0.49926350438E+03  0.49950279763E+03  0.00000000000E+00 0. -1.
        -15    1    1    2    0    0 -0.13437039959E+01 -0.80931461867E+01  0.45810522559E+02  0.46573235466E+02  0.17770000000E+01 0. -1.
         15    1    1    2    0    0  0.15374383638E+02  0.55175115577E+00  0.28287172108E+03  0.28329533073E+03  0.17770000000E+01 0.  1.
</event>
<event>
 6    1  0.3411206E-003  0.5021186E+03  0.7546771E-02  0.9395082E-01
        -11   -1    0    0    0    0  0.00000000000E+00  0.00000000000E+00  0.50000000000E+03  0.50000000000E+03  0.00000000000E+00 0.  1.
         11   -1    0    0    0    0 -0.00000000000E+00 -0.00000000000E+00 -0.50000000000E+03  0.50000000000E+03  0.00000000000E+00 0.  1.
        -11    1    1    2    0    0  0.62589565182E+01  0.15071407786E+02  0.49761388486E+03  0.49788141186E+03  0.00000000000E+00 0.  1.
         11    1    1    2    0    0  0.45762742152E+01  0.24663150811E+00 -0.29544586707E+03  0.29548140970E+03  0.00000000000E+00 0.  1.
        -15    1    1    2    0    0 -0.42760120707E+01 -0.55153105312E+01 -0.18790931022E+03  0.18804725344E+03  0.17770000000E+01 0.  1.
         15    1    1    2    0    0 -0.65592186627E+01 -0.98027287629E+01 -0.14258707575E+02  0.18589924997E+02  0.17770000000E+01 0.  1.
</event>
<event>
 6    1  0.3411206E-003  0.5015682E+03  0.7546771E-02  0.9396308E-01
        -11   -1    0    0    0    0  0.00000000000E+00  0.00000000000E+00  0.50000000000E+03  0.50000000000E+03  0.00000000000E+00 0. -1.
         11   -1    0    0    0    0 -0.00000000000E+00 -0.00000000000E+00 -0.50000000000E+03  0.50000000000E+03  0.00000000000E+00 0.  1.
        -11    1    1    2    0    0 -0.14581240617E+02 -0.28900560344E+01  0.49821012072E+03  0.49843183023E+03  0.00000000000E+00 0. -1.
         11    1    1    2    0    0 -0.34191088444E+01  0.65743612871E+01 -0.42220732370E+03  0.42227234899E+03  0.00000000000E+00 0.  1.
        -15    1    1    2    0    0  0.10043541609E+02 -0.87500414919E+00 -0.18442510062E+02  0.21093180573E+02  0.17770000000E+01 0. -1.
         15    1    1    2    0    0  0.79568078523E+01 -0.28093011035E+01 -0.57560286954E+02  0.58202640207E+02  0.17770000000E+01 0.  1.
</event>
<event>
 6    1  0.3411206E-003  0.5001403E+03  0.7546771E-02  0.9399496E-01
        -11   -1    0    0    0    0  0.00000000000E+00  0.00000000000E+00  0.50000000000E+03  0.50000000000E+03  0.00000000000E+00 0. -1.
         11   -1    0    0    0    0 -0.00000000000E+00 -0.00000000000E+00 -0.50000000000E+03  0.50000000000E+03  0.00000000000E+00 0.  1.
        -11    1    1    2    0    0  0.76162386555E+01  0.71877988456E+01  0.49974998686E+03  0.49985970123E+03  0.00000000000E+00 0. -1.
         11    1    1    2    0    0 -0.32958380639E+01  0.36908736412E+01 -0.14548561857E+03  0.14556974380E+03  0.00000000000E+00 0.  1.
        -15    1    1    2    0    0 -0.54642184892E+01 -0.82569373011E+01 -0.31546034519E+03  0.31562069294E+03  0.17770000000E+01 0.  1.
         15    1    1    2    0    0  0.11438178976E+01 -0.26217351857E+01 -0.38804023096E+02  0.38949862031E+02  0.17770000000E+01 0. -1.
</event>
<event>
 6    1  0.3411206E-003  0.5003717E+03  0.7546771E-02  0.9398978E-01
        -11   -1    0    0    0    0  0.00000000000E+00  0.00000000000E+00  0.50000000000E+03  0.50000000000E+03  0.00000000000E+00 0. -1.
         11   -1    0    0    0    0 -0.00000000000E+00 -0.00000000000E+00 -0.50000000000E+03  0.50000000000E+03  0.00000000000E+00 0. -1.
        -11    1    1    2    0    0  0.14757155232E+02 -0.85787473471E+01  0.49933660885E+03  0.49962827929E+03  0.00000000000E+00 0. -1.
         11    1    1    2    0    0  0.57886825741E+00  0.75509804215E+00 -0.19358310845E+02  0.19381678470E+02  0.00000000000E+00 0. -1.
        -15    1    1    2    0    0 -0.12654920491E+02  0.11225967848E+02 -0.14730780025E+03  0.14828659788E+03  0.17770000000E+01 0. -1.
         15    1    1    2    0    0 -0.26811029983E+01 -0.34023185433E+01 -0.33267049775E+03  0.33270344435E+03  0.17770000000E+01 0. -1.
</event>
<event>
 6    1  0.3411206E-003  0.5048135E+03  0.7546771E-02  0.9389103E-01
        -11   -1    0    0    0    0  0.00000000000E+00  0.00000000000E+00  0.50000000000E+03  0.50000000000E+03  0.00000000000E+00 0. -1.
         11   -1    0    0    0    0 -0.00000000000E+00 -0.00000000000E+00 -0.50000000000E+03  0.50000000000E+03  0.00000000000E+00 0.  1.
        -11    1    1    2    0    0 -0.10972060589E+02  0.89439771415E+00  0.49506413096E+03  0.49518651014E+03  0.00000000000E+00 0. -1.
         11    1    1    2    0    0 -0.13327065351E+01 -0.62159245445E+01 -0.46853226019E+03  0.46857538632E+03  0.00000000000E+00 0.  1.
        -15    1    1    2    0    0  0.11191439616E+02  0.70260752775E+01 -0.29409375591E+02  0.32290604766E+02  0.17770000000E+01 0. -1.
         15    1    1    2    0    0  0.11133275084E+01 -0.17045484472E+01  0.28775048244E+01  0.39474987732E+01  0.17770000000E+01 0.  1.
</event>
<event>
 6    1  0.3411206E-003  0.5004014E+03  0.7546771E-02  0.9398912E-01
        -11   -1    0    0    0    0  0.00000000000E+00  0.00000000000E+00  0.50000000000E+03  0.50000000000E+03  0.00000000000E+00 0.  1.
         11   -1    0    0    0    0 -0.00000000000E+00 -0.00000000000E+00 -0.50000000000E+03  0.50000000000E+03  0.00000000000E+00 0. -1.
        -11    1    1    2    0    0 -0.39104804259E+01  0.28532165399E+01  0.24688810774E+03  0.24693555930E+03  0.00000000000E+00 0.  1.
         11    1    1    2    0    0  0.61122249755E+01  0.55909711779E+01 -0.49952992292E+03  0.49959860102E+03  0.00000000000E+00 0. -1.
        -15    1    1    2    0    0  0.68978910142E+01 -0.98230233764E+00  0.14285188146E+03  0.14303273606E+03  0.17770000000E+01 0. -1.
         15    1    1    2    0    0 -0.90996355638E+01 -0.74618853801E+01  0.10978993371E+03  0.11043310362E+03  0.17770000000E+01 0.  1.
</event>
<event>
 6    1  0.3411206E-003  0.5003631E+03  0.7546771E-02  0.9398998E-01
        -11   -1    0    0    0    0  0.00000000000E+00  0.00000000000E+00  0.50000000000E+03  0.50000000000E+03  0.00000000000E+00 0.  1.
         11   -1    0    0    0    0 -0.00000000000E+00 -0.00000000000E+00 -0.50000000000E+03  0.50000000000E+03  0.00000000000E+00 0.  1.
        -11    1    1    2    0    0  0.73029293451E+01 -0.10115353226E+02  0.49948112961E+03  0.49963692015E+03  0.00000000000E+00 0.  1.
         11    1    1    2    0    0  0.61784869360E+01 -0.32732013623E+01 -0.93896634489E+02  0.94156601024E+02  0.00000000000E+00 0.  1.
        -15    1    1    2    0    0 -0.12595132810E+02  0.50527446174E+01 -0.27580909703E+03  0.27614848059E+03  0.17770000000E+01 0.  1.
         15    1    1    2    0    0 -0.88628347118E+00  0.83358099712E+01 -0.12977539809E+03  0.13005799823E+03  0.17770000000E+01 0. -1.
</event>
<event>
 6    1  0.3411206E-003  0.5328637E+03  0.7546771E-02  0.9329136E-01
        -11   -1    0    0    0    0  0.00000000000E+00  0.00000000000E+00  0.50000000000E+03  0.50000000000E+03  0.00000000000E+00 0. -1.
         11   -1    0    0    0    0 -0.00000000000E+00 -0.00000000000E+00 -0.50000000000E+03  0.50000000000E+03  0.00000000000E+00 0. -1.
        -11    1    1    2    0    0 -0.93882324676E+01  0.13413103987E+01  0.16414303868E+03  0.16441677277E+03  0.00000000000E+00 0. -1.
         11    1    1    2    0    0  0.14827828912E+01  0.13731080118E+02 -0.46693207704E+03  0.46713628180E+03  0.00000000000E+00 0. -1.
        -15    1    1    2    0    0  0.38954181187E+01 -0.30923271524E+02 -0.25154346053E+02  0.40091418763E+02  0.17770000000E+01 0.  1.
         15    1    1    2    0    0  0.40100314577E+01  0.15850881008E+02  0.32794338441E+03  0.32835552666E+03  0.17770000000E+01 0. -1.
</event>
<event>
 6    1  0.3411206E-003  0.5028146E+03  0.7546771E-02  0.9393534E-01
        -11   -1    0    0    0    0  0.00000000000E+00  0.00000000000E+00  0.50000000000E+03  0.50000000000E+03  0.00000000000E+00 0.  1.
         11   -1    0    0    0    0 -0.00000000000E+00 -0.00000000000E+00 -0.50000000000E+03  0.50000000000E+03  0.00000000000E+00 0.  1.
        -11    1    1    2    0    0 -0.14843900564E+01 -0.68030325577E+01  0.21414723869E+03  0.21426041282E+03  0.00000000000E+00 0.  1.
         11    1    1    2    0    0  0.76053357519E+01  0.40790206196E+01 -0.49711048388E+03  0.49718539070E+03  0.00000000000E+00 0.  1.
        -15    1    1    2    0    0  0.11418842788E+02 -0.19231056954E+02  0.19268474804E+03  0.19398658041E+03  0.17770000000E+01 0.  1.
         15    1    1    2    0    0 -0.17539788484E+02  0.21955068892E+02  0.90278497159E+02  0.94567616066E+02  0.17770000000E+01 0. -1.
</event>
<event>
 6    1  0.3411206E-003  0.5038987E+03  0.7546771E-02  0.9391128E-01
        -11   -1    0    0    0    0  0.00000000000E+00  0.00000000000E+00  0.50000000000E+03  0.50000000000E+03  0.00000000000E+00 0.  1.
         11   -1    0    0    0    0 -0.00000000000E+00 -0.00000000000E+00 -0.50000000000E+03  0.50000000000E+03  0.00000000000E+00 0. -1.
        -11    1    1    2    0    0 -0.10629069131E+02 -0.39196347335E+01  0.38494839881E+03  0.38511506124E+03  0.00000000000E+00 0.  1.
         11    1    1    2    0    0  0.15250048875E+01  0.82592157651E+01 -0.49603016452E+03  0.49610126426E+03  0.00000000000E+00 0. -1.
        -15    1    1    2    0    0 -0.47619728302E+01  0.15758967947E+02  0.58200475853E+02  0.60510119604E+02  0.17770000000E+01 0. -1.
         15    1    1    2    0    0  0.13866037074E+02 -0.20098548978E+02  0.52881289852E+02  0.58273554899E+02  0.17770000000E+01 0. -1.
</event>
<event>
 6    1  0.3411206E-003  0.5156899E+03  0.7546771E-02  0.9365371E-01
        -11   -1    0    0    0    0  0.00000000000E+00  0.00000000000E+00  0.50000000000E+03  0.50000000000E+03  0.00000000000E+00 0.  1.
         11   -1    0    0    0    0 -0.00000000000E+00 -0.00000000000E+00 -0.50000000000E+03  0.50000000000E+03  0.00000000000E+00 0. -1.
        -11    1    1    2    0    0  0.14468812009E+02  0.64653845444E+01  0.46395477431E+03  0.46422535511E+03  0.00000000000E+00 0.  1.
         11    1    1    2    0    0 -0.15159946194E+02 -0.14455527912E+01 -0.48407062789E+03  0.48431011385E+03  0.00000000000E+00 0. -1.
        -15    1    1    2    0    0 -0.35053579896E+01 -0.15165416287E+01 -0.15154379004E+02  0.15728965800E+02  0.17770000000E+01 0.  1.
         15    1    1    2    0    0  0.41964921744E+01 -0.35032901245E+01  0.35270232581E+02  0.35735565248E+02  0.17770000000E+01 0. -1.
</event>
<event>
 6    1  0.3411206E-003  0.5844227E+03  0.7546771E-02  0.9228499E-01
        -11   -1    0    0    0    0  0.00000000000E+00  0.00000000000E+00  0.50000000000E+03  0.50000000000E+03  0.00000000000E+00 0. -1.
         11   -1    0    0    0    0 -0.00000000000E+00 -0.00000000000E+00 -0.50000000000E+03  0.50000000000E+03  0.00000000000E+00 0.  1.
        -11    1    1    2    0    0  0.27971186650E+01  0.48660237241E+01  0.41553940218E+03  0.41557730547E+03  0.00000000000E+00 0. -1.
         11    1    1    2    0    0  0.52300832840E+00  0.11627754801E+02 -0.34368418115E+03  0.34388122163E+03  0.00000000000E+00 0.  1.
        -15    1    1    2    0    0 -0.48924928826E+02  0.75627645122E+02  0.30845967493E+02  0.95225105970E+02  0.17770000000E+01 0. -1.
         15    1    1    2    0    0  0.45604801832E+02 -0.92121423647E+02 -0.10270118852E+03  0.14531636693E+03  0.17770000000E+01 0.  1.
</event>
<event>
 6    1  0.3411206E-003  0.5004036E+03  0.7546771E-02  0.9398907E-01
        -11   -1    0    0    0    0  0.00000000000E+00  0.00000000000E+00  0.50000000000E+03  0.50000000000E+03  0.00000000000E+00 0.  1.
         11   -1    0    0    0    0 -0.00000000000E+00 -0.00000000000E+00 -0.50000000000E+03  0.50000000000E+03  0.00000000000E+00 0. -1.
        -11    1    1    2    0    0  0.91127180565E+01  0.54644731925E+01  0.49948334518E+03  0.49959635128E+03  0.00000000000E+00 0.  1.
         11    1    1    2    0    0  0.34705395614E+01 -0.27919383608E+01 -0.26779315363E+03  0.26783019377E+03  0.00000000000E+00 0. -1.
        -15    1    1    2    0    0 -0.46188830747E+01 -0.25049058885E+00 -0.16820216359E+02  0.17534943220E+02  0.17770000000E+01 0. -1.
         15    1    1    2    0    0 -0.79643745432E+01 -0.24220442429E+01 -0.21486997519E+03  0.21503851173E+03  0.17770000000E+01 0.  1.
</event>
<event>
 6    1  0.3411206E-003  0.5042711E+03  0.7546771E-02  0.9390303E-01
        -11   -1    0    0    0    0  0.00000000000E+00  0.00000000000E+00  0.50000000000E+03  0.50000000000E+03  0.00000000000E+00 0. -1.
         11   -1    0    0    0    0 -0.00000000000E+00 -0.00000000000E+00 -0.50000000000E+03  0.50000000000E+03  0.00000000000E+00 0. -1.
        -11    1    1    2    0    0  0.11719796031E+02 -0.36010332878E+01  0.49557726687E+03  0.49572890626E+03  0.00000000000E+00 0. -1.
         11    1    1    2    0    0  0.35681813117E+01 -0.56665083318E+01 -0.29688046388E+03  0.29695597496E+03  0.00000000000E+00 0. -1.
        -15    1    1    2    0    0 -0.12020227648E+02  0.94929443866E+00 -0.46349517446E+01  0.13039460852E+02  0.17770000000E+01 0. -1.
         15    1    1    2    0    0 -0.32677496954E+01  0.83182471809E+01 -0.19406185125E+03  0.19427565793E+03  0.17770000000E+01 0. -1.
</event>
<event>
 6    1  0.3411206E-003  0.5074051E+03  0.7546771E-02  0.9383391E-01
        -11   -1    0    0    0    0  0.00000000000E+00  0.00000000000E+00  0.50000000000E+03  0.50000000000E+03  0.00000000000E+00 0.  1.
         11   -1    0    0    0    0 -0.00000000000E+00 -0.00000000000E+00 -0.50000000000E+03  0.50000000000E+03  0.00000000000E+00 0. -1.
        -11    1    1    2    0    0  0.32179059377E+01  0.52171376620E+01  0.23872502958E+03  0.23880371269E+03  0.00000000000E+00 0.  1.
         11    1    1    2    0    0  0.45915069319E+01 -0.81578811002E+01 -0.49250592721E+03  0.49259488558E+03  0.00000000000E+00 0. -1.
        -15    1    1    2    0    0  0.16150776365E+02  0.16812342357E+02  0.14064531259E+02  0.27284999565E+02  0.17770000000E+01 0. -1.
         15    1    1    2    0    0 -0.23960189235E+02 -0.13871598919E+02  0.23971636637E+03  0.24131640217E+03  0.17770000000E+01 0.  1.
</event>
<event>
 6    1  0.3411206E-003  0.5101570E+03  0.7546771E-02  0.9377365E-01
        -11   -1    0    0    0    0  0.00000000000E+00  0.00000000000E+00  0.50000000000E+03  0.50000000000E+03  0.00000000000E+00 0. -1.
         11   -1    0    0    0    0 -0.00000000000E+00 -0.00000000000E+00 -0.50000000000E+03  0.50000000000E+03  0.00000000000E+00 0. -1.
        -11    1    1    2    0    0  0.79393443601E+01 -0.12071630069E+02  0.17805315187E+03  0.17863841225E+03  0.00000000000E+00 0. -1.
         11    1    1    2    0    0 -0.93546431253E+01  0.43869264222E+01 -0.48973403355E+03  0.48984301372E+03  0.00000000000E+00 0. -1.
        -15    1    1    2    0    0 -0.24282450382E+02  0.23178997459E+02  0.21762139209E+02  0.40045620880E+02  0.17770000000E+01 0.  1.
         15    1    1    2    0    0  0.25697749147E+02 -0.15494293812E+02  0.28991874248E+03  0.29147295315E+03  0.17770000000E+01 0. -1.
</event>
<event>
 6    1  0.3411206E-003  0.5052039E+03  0.7546771E-02  0.9388240E-01
        -11   -1    0    0    0    0  0.00000000000E+00  0.00000000000E+00  0.50000000000E+03  0.50000000000E+03  0.00000000000E+00 0. -1.
         11   -1    0    0    0    0 -0.00000000000E+00 -0.00000000000E+00 -0.50000000000E+03  0.50000000000E+03  0.00000000000E+00 0. -1.
        -11    1    1    2    0    0  0.57056531367E+01 -0.35981284904E+01  0.49475008322E+03  0.49479606491E+03  0.00000000000E+00 0. -1.
         11    1    1    2    0    0 -0.73545662236E+00 -0.79167142230E+01 -0.33501978344E+03  0.33511411572E+03  0.00000000000E+00 0. -1.
        -15    1    1    2    0    0 -0.46094258888E+01 -0.39197449235E+01  0.27415504748E+01  0.68764115129E+01  0.17770000000E+01 0. -1.
         15    1    1    2    0    0 -0.36077062559E+00  0.15434587637E+02 -0.16247185025E+03  0.16321340786E+03  0.17770000000E+01 0.  1.
</event>
<event>
 6    1  0.3411206E-003  0.5050750E+03  0.7546771E-02  0.9388525E-01
        -11   -1    0    0    0    0  0.00000000000E+00  0.00000000000E+00  0.50000000000E+03  0.50000000000E+03  0.00000000000E+00 0. -1.
         11   -1    0    0    0    0 -0.00000000000E+00 -0.00000000000E+00 -0.50000000000E+03  0.50000000000E+03  0.00000000000E+00 0. -1.
        -11    1    1    2    0    0 -0.30905858449E+01 -0.10247468220E+02  0.45764676076E+03  0.45777190822E+03  0.00000000000E+00 0. -1.
         11    1    1    2    0    0 -0.16597088333E+02 -0.19340372821E+01 -0.49464286912E+03  0.49492501635E+03  0.00000000000E+00 0. -1.
        -15    1    1    2    0    0  0.53250781186E+01  0.77226852574E+01  0.28240393756E+02  0.29810633892E+02  0.17770000000E+01 0.  1.
         15    1    1    2    0    0  0.14362596060E+02  0.44588202449E+01  0.87557146033E+01  0.17492441532E+02  0.17770000000E+01 0. -1.
</event>
<event>
 6    1  0.3411206E-003  0.5063030E+03  0.7546771E-02  0.9385816E-01
        -11   -1    0    0    0    0  0.00000000000E+00  0.00000000000E+00  0.50000000000E+03  0.50000000000E+03  0.00000000000E+00 0.  1.
         11   -1    0    0    0    0 -0.00000000000E+00 -0.00000000000E+00 -0.50000000000E+03  0.50000000000E+03  0.00000000000E+00 0. -1.
        -11    1    1    2    0    0 -0.55517681947E+01 -0.60685697679E+01  0.35967269486E+03  0.35976672594E+03  0.00000000000E+00 0.  1.
         11    1    1    2    0    0 -0.89525487404E+01 -0.83350567611E+01 -0.49354548190E+03  0.49369703666E+03  0.00000000000E+00 0. -1.
        -15    1    1    2    0    0  0.21221030682E+02  0.23260477532E+02  0.13123973549E+03  0.13497558246E+03  0.17770000000E+01 0.  1.
         15    1    1    2    0    0 -0.67167137467E+01 -0.88568510032E+01  0.26330515472E+01  0.11560654942E+02  0.17770000000E+01 0. -1.
</event>
<event>
 6    1  0.3411206E-003  0.5010950E+03  0.7546771E-02  0.9397363E-01
        -11   -1    0    0    0    0  0.00000000000E+00  0.00000000000E+00  0.50000000000E+03  0.50000000000E+03  0.00000000000E+00 0.  1.
         11   -1    0    0    0    0 -0.00000000000E+00 -0.00000000000E+00 -0.50000000000E+03  0.50000000000E+03  0.00000000000E+00 0.  1.
        -11    1    1    2    0    0  0.17290498058E+01  0.62771811696E+01  0.20281776997E+03  0.20292225218E+03  0.00000000000E+00 0.  1.
         11    1    1    2    0    0 -0.14186607176E+02  0.73717013099E+01 -0.49864881131E+03  0.49890503988E+03  0.00000000000E+00 0.  1.
        -15    1    1    2    0    0  0.38845928170E+01 -0.74595571285E+01  0.27086895597E+03  0.27100532115E+03  0.17770000000E+01 0. -1.
         15    1    1    2    0    0  0.85729645530E+01 -0.61893253511E+01  0.24962085367E+02  0.27167386779E+02  0.17770000000E+01 0.  1.
</event>
<event>
 6    1  0.3411206E-003  0.5059645E+03  0.7546771E-02  0.9386562E-01
        -11   -1    0    0    0    0  0.00000000000E+00  0.00000000000E+00  0.50000000000E+03  0.50000000000E+03  0.00000000000E+00 0. -1.
         11   -1    0    0    0    0 -0.00000000000E+00 -0.00000000000E+00 -0.50000000000E+03  0.50000000000E+03  0.00000000000E+00 0. -1.
        -11    1    1    2    0    0 -0.14310470991E+02  0.61514235116E+01  0.49378989248E+03  0.49403551239E+03  0.00000000000E+00 0. -1.
         11    1    1    2    0    0  0.49162856057E+01 -0.35008234621E+00 -0.30410689981E+03  0.30414683778E+03  0.00000000000E+00 0. -1.
        -15    1    1    2    0    0 -0.61313689365E+01  0.25649542580E+01 -0.18259962890E+03  0.18272918453E+03  0.17770000000E+01 0. -1.
         15    1    1    2    0    0  0.15525554322E+02 -0.83662954234E+01 -0.70833637729E+01  0.19088465299E+02  0.17770000000E+01 0. -1.
</event>
<event>
 6    1  0.3411206E-003  0.5607641E+03  0.7546771E-02  0.9273252E-01
        -11   -1    0    0    0    0  0.00000000000E+00  0.00000000000E+00  0.50000000000E+03  0.50000000000E+03  0.00000000000E+00 0. -1.
         11   -1    0    0    0    0 -0.00000000000E+00 -0.00000000000E+00 -0.50000000000E+03  0.50000000000E+03  0.00000000000E+00 0. -1.
        -11    1    1    2    0    0  0.11447808096E+02 -0.34300132588E+01  0.30228994521E+03  0.30252607868E+03  0.00000000000E+00 0. -1.
         11    1    1    2    0    0  0.32761657434E+02 -0.12050611640E+02 -0.43784655465E+03  0.43923586927E+03  0.00000000000E+00 0. -1.
        -15    1    1    2    0    0 -0.36516201510E+01 -0.16738301307E+02  0.18547896544E+03  0.18627696961E+03  0.17770000000E+01 0. -1.
         15    1    1    2    0    0 -0.40557845379E+02  0.32218926206E+02 -0.49922356001E+02  0.71961082436E+02  0.17770000000E+01 0.  1.
</event>
<event>
 6    1  0.3411206E-003  0.5240637E+03  0.7546771E-02  0.9347519E-01
        -11   -1    0    0    0    0  0.00000000000E+00  0.00000000000E+00  0.50000000000E+03  0.50000000000E+03  0.00000000000E+00 0. -1.
         11   -1    0    0    0    0 -0.00000000000E+00 -0.00000000000E+00 -0.50000000000E+03  0.50000000000E+03  0.00000000000E+00 0.  1.
        -11    1    1    2    0    0 -0.45140191052E+01  0.17608035406E+02  0.47558905032E+03  0.47593630253E+03  0.00000000000E+00 0. -1.
         11    1    1    2    0    0 -0.11621602052E+02 -0.27675048401E+01 -0.18822002092E+03  0.18859877251E+03  0.00000000000E+00 0.  1.
        -15    1    1    2    0    0  0.26352688179E+02 -0.21272644828E+02 -0.30887857294E+03  0.31073480678E+03  0.17770000000E+01 0.  1.
         15    1    1    2    0    0 -0.10217067022E+02  0.64321142624E+01  0.21509543548E+02  0.24730118177E+02  0.17770000000E+01 0. -1.
</event>
<event>
 6    1  0.3563978E-003  0.5007748E+03  0.7546771E-02  0.9398078E-01
        -11   -1    0    0    0    0  0.00000000000E+00  0.00000000000E+00  0.50000000000E+03  0.50000000000E+03  0.00000000000E+00 0.  1.
         11   -1    0    0    0    0 -0.00000000000E+00 -0.00000000000E+00 -0.50000000000E+03  0.50000000000E+03  0.00000000000E+00 0.  1.
        -11    1    1    2    0    0  0.46870373463E+01 -0.14921411401E+02  0.49898019186E+03  0.49922524847E+03  0.00000000000E+00 0.  1.
         11    1    1    2    0    0 -0.35926734236E+01  0.65263906880E+00 -0.19927315421E+03  0.19930660608E+03  0.00000000000E+00 0.  1.
        -15    1    1    2    0    0 -0.38426866618E+01  0.11092418223E+02 -0.40092854716E+02  0.41813905714E+02  0.17770000000E+01 0. -1.
         15    1    1    2    0    0  0.27483227390E+01  0.31763541097E+01 -0.25961418293E+03  0.25965423973E+03  0.17770000000E+01 0.  1.
</event>
<event>
 6    1  0.3411206E-003  0.5035966E+03  0.7546771E-02  0.9391798E-01
        -11   -1    0    0    0    0  0.00000000000E+00  0.00000000000E+00  0.50000000000E+03  0.50000000000E+03  0.00000000000E+00 0. -1.
         11   -1    0    0    0    0 -0.00000000000E+00 -0.00000000000E+00 -0.50000000000E+03  0.50000000000E+03  0.00000000000E+00 0. -1.
        -11    1    1    2    0    0 -0.76337718967E+00 -0.13112703338E+01  0.60070589880E+02  0.60089749069E+02  0.00000000000E+00 0. -1.
         11    1    1    2    0    0  0.13036022534E+02 -0.37350252583E+02 -0.49482460774E+03  0.49640343641E+03  0.00000000000E+00 0. -1.
        -15    1    1    2    0    0 -0.13188105851E+02 -0.10110094319E+02  0.29500971122E+03  0.29548270269E+03  0.17770000000E+01 0. -1.
         15    1    1    2    0    0  0.91546050619E+00  0.48771617236E+02  0.13974430664E+03  0.14802411183E+03  0.17770000000E+01 0.  1.
</event>
<event>
 6    1  0.3411206E-003  0.5036927E+03  0.7546771E-02  0.9391585E-01
        -11   -1    0    0    0    0  0.00000000000E+00  0.00000000000E+00  0.50000000000E+03  0.50000000000E+03  0.00000000000E+00 0.  1.
         11   -1    0    0    0    0 -0.00000000000E+00 -0.00000000000E+00 -0.50000000000E+03  0.50000000000E+03  0.00000000000E+00 0. -1.
        -11    1    1    2    0    0  0.75411693805E+00 -0.71387058877E+01  0.49625541883E+03  0.49630733476E+03  0.00000000000E+00 0.  1.
         11    1    1    2    0    0  0.58242000715E+01  0.34096777724E+01 -0.48932669729E+03  0.48937323577E+03  0.00000000000E+00 0. -1.
        -15    1    1    2    0    0 -0.69007415156E+01  0.47842358634E+01 -0.82010710130E+01  0.11871160054E+02  0.17770000000E+01 0.  1.
         15    1    1    2    0    0  0.32242450602E+00 -0.10552077480E+01  0.12723494728E+01  0.24482694163E+01  0.17770000000E+01 0.  1.
</event>
<event>
 6    1  0.3411206E-003  0.5146386E+03  0.7546771E-02  0.9367637E-01
        -11   -1    0    0    0    0  0.00000000000E+00  0.00000000000E+00  0.50000000000E+03  0.50000000000E+03  0.00000000000E+00 0.  1.
         11   -1    0    0    0    0 -0.00000000000E+00 -0.00000000000E+00 -0.50000000000E+03  0.50000000000E+03  0.00000000000E+00 0. -1.
        -11    1    1    2    0    0 -0.22068452139E+02 -0.19863333948E+02  0.48445234621E+03  0.48536135442E+03  0.00000000000E+00 0.  1.
         11    1    1    2    0    0 -0.71169787073E+01  0.54829146620E+01 -0.45996116301E+03  0.46004889438E+03  0.00000000000E+00 0. -1.
        -15    1    1    2    0    0  0.20760536041E+02  0.37134809268E+01  0.52805759095E+01  0.21813573945E+02  0.17770000000E+01 0. -1.
         15    1    1    2    0    0  0.84248948053E+01  0.10666938360E+02 -0.29771759109E+02  0.32776177262E+02  0.17770000000E+01 0.  1.
</event>
<event>
 6    1  0.3411206E-003  0.4314010E+03  0.7546771E-02  0.9567916E-01
        -11   -1    0    0    0    0  0.00000000000E+00  0.00000000000E+00  0.50000000000E+03  0.50000000000E+03  0.00000000000E+00 0.  1.
         11   -1    0    0    0    0 -0.00000000000E+00 -0.00000000000E+00 -0.50000000000E+03  0.50000000000E+03  0.00000000000E+00 0. -1.
        -11    1    1    2    0    0  0.48997318131E+01 -0.98051273398E+01  0.70512987692E+02  0.71359857954E+02  0.00000000000E+00 0.  1.
         11    1    1    2    0    0  0.37303953506E+01  0.60021778730E+01 -0.47383714585E+03  0.47388984245E+03  0.00000000000E+00 0. -1.
        -15    1    1    2    0    0  0.94896781454E+01  0.58103046769E+02  0.13091048312E+02  0.60336981281E+02  0.17770000000E+01 0. -1.
         15    1    1    2    0    0 -0.18119805309E+02 -0.54300097303E+02  0.39023310985E+03  0.39441331831E+03  0.17770000000E+01 0.  1.
</event>
<event>
 6    1  0.3411206E-003  0.5011291E+03  0.7546771E-02  0.9397287E-01
        -11   -1    0    0    0    0  0.00000000000E+00  0.00000000000E+00  0.50000000000E+03  0.50000000000E+03  0.00000000000E+00 0. -1.
         11   -1    0    0    0    0 -0.00000000000E+00 -0.00000000000E+00 -0.50000000000E+03  0.50000000000E+03  0.00000000000E+00 0.  1.
        -11    1    1    2    0    0  0.52702769813E+01 -0.82316964895E+01  0.22567280620E+03  0.22588437773E+03  0.00000000000E+00 0. -1.
         11    1    1    2    0    0 -0.10953688767E+02 -0.10610872534E+02 -0.49863776813E+03  0.49887092291E+03  0.00000000000E+00 0.  1.
        -15    1    1    2    0    0 -0.10093356349E+02  0.12762372046E+02  0.17961487256E+03  0.18035912552E+03  0.17770000000E+01 0.  1.
         15    1    1    2    0    0  0.15776768135E+02  0.60801969773E+01  0.93350089372E+02  0.94885573839E+02  0.17770000000E+01 0. -1.
</event>
<event>
 6    1  0.3411206E-003  0.5031570E+03  0.7546771E-02  0.9392773E-01
        -11   -1    0    0    0    0  0.00000000000E+00  0.00000000000E+00  0.50000000000E+03  0.50000000000E+03  0.00000000000E+00 0.  1.
         11   -1    0    0    0    0 -0.00000000000E+00 -0.00000000000E+00 -0.50000000000E+03  0.50000000000E+03  0.00000000000E+00 0. -1.
        -11    1    1    2    0    0 -0.35882763066E+01  0.96823885440E+01  0.49673568429E+03  0.49684299776E+03  0.00000000000E+00 0.  1.
         11    1    1    2    0    0 -0.19610524365E+01 -0.63666775781E+01 -0.46715347277E+03  0.46720097113E+03  0.00000000000E+00 0. -1.
        -15    1    1    2    0    0 -0.18205974673E+00 -0.75802443590E+01 -0.29545255703E+01  0.83294778131E+01  0.17770000000E+01 0.  1.
         15    1    1    2    0    0  0.57313884898E+01  0.42645333931E+01 -0.26627685951E+02  0.27626553299E+02  0.17770000000E+01 0. -1.
</event>
<event>
 6    1  0.3411206E-003  0.5004278E+03  0.7546771E-02  0.9398853E-01
        -11   -1    0    0    0    0  0.00000000000E+00  0.00000000000E+00  0.50000000000E+03  0.50000000000E+03  0.00000000000E+00 0.  1.
         11   -1    0    0    0    0 -0.00000000000E+00 -0.00000000000E+00 -0.50000000000E+03  0.50000000000E+03  0.00000000000E+00 0. -1.
        -11    1    1    2    0    0 -0.92521736421E+00  0.71248545412E+01  0.31356827866E+03  0.31365057781E+03  0.00000000000E+00 0.  1.
         11    1    1    2    0    0 -0.58934658419E+01 -0.33121097554E+01 -0.49952648285E+03  0.49957222709E+03  0.00000000000E+00 0. -1.
        -15    1    1    2    0    0  0.67454072306E+01  0.13540756939E+01  0.34687565262E+02  0.35407893929E+02  0.17770000000E+01 0. -1.
         15    1    1    2    0    0  0.73275975519E-01 -0.51668204797E+01  0.15127063893E+03  0.15136930117E+03  0.17770000000E+01 0.  1.
</event>
<event>
 6    1  0.3411206E-003  0.5003321E+03  0.7546771E-02  0.9399067E-01
        -11   -1    0    0    0    0  0.00000000000E+00  0.00000000000E+00  0.50000000000E+03  0.50000000000E+03  0.00000000000E+00 0.  1.
         11   -1    0    0    0    0 -0.00000000000E+00 -0.00000000000E+00 -0.50000000000E+03  0.50000000000E+03  0.00000000000E+00 0. -1.
        -11    1    1    2    0    0  0.60729202537E+00  0.10594766039E+01  0.86836628033E+02  0.86845214390E+02  0.00000000000E+00 0.  1.
         11    1    1    2    0    0 -0.62161788191E+01 -0.99443359737E+01 -0.49953029788E+03  0.49966793894E+03  0.00000000000E+00 0. -1.
        -15    1    1    2    0    0  0.90808566168E+01  0.40355312465E+01  0.68778293339E+02  0.69515169805E+02  0.17770000000E+01 0. -1.
         15    1    1    2    0    0 -0.34719698231E+01  0.48493281233E+01  0.34391537651E+03  0.34397167687E+03  0.17770000000E+01 0.  1.
</event>
<event>
 6    1  0.3411206E-003  0.5018868E+03  0.7546771E-02  0.9395598E-01
        -11   -1    0    0    0    0  0.00000000000E+00  0.00000000000E+00  0.50000000000E+03  0.50000000000E+03  0.00000000000E+00 0. -1.
         11   -1    0    0    0    0 -0.00000000000E+00 -0.00000000000E+00 -0.50000000000E+03  0.50000000000E+03  0.00000000000E+00 0.  1.
        -11    1    1    2    0    0  0.72468642666E+00  0.33037224101E+01  0.15740441077E+03  0.15744074531E+03  0.00000000000E+00 0. -1.
         11    1    1    2    0    0  0.60044123302E+01 -0.13228854294E+02 -0.49790131400E+03  0.49811321408E+03  0.00000000000E+00 0.  1.
        -15    1    1    2    0    0 -0.14429346477E+01  0.53384977894E+00 -0.11554580233E+01  0.26191350152E+01  0.17770000000E+01 0.  1.
         15    1    1    2    0    0 -0.52861641092E+01  0.93912821045E+01  0.34165236126E+03  0.34182690560E+03  0.17770000000E+01 0. -1.
</event>
<event>
 6    1  0.3411206E-003  0.5010393E+03  0.7546771E-02  0.9397487E-01
        -11   -1    0    0    0    0  0.00000000000E+00  0.00000000000E+00  0.50000000000E+03  0.50000000000E+03  0.00000000000E+00 0.  1.
         11   -1    0    0    0    0 -0.00000000000E+00 -0.00000000000E+00 -0.50000000000E+03  0.50000000000E+03  0.00000000000E+00 0.  1.
        -11    1    1    2    0    0 -0.15531170545E+01 -0.10949794642E+02  0.49883811571E+03  0.49896069571E+03  0.00000000000E+00 0.  1.
         11    1    1    2    0    0  0.25892706955E+01 -0.96428543414E+01 -0.33822893691E+03  0.33837627388E+03  0.00000000000E+00 0.  1.
        -15    1    1    2    0    0  0.33638573786E+01  0.33813613285E+00 -0.11696514917E+02  0.12304310737E+02  0.17770000000E+01 0.  1.
         15    1    1    2    0    0 -0.44000110197E+01  0.20254512850E+02 -0.14891266388E+03  0.15035871967E+03  0.17770000000E+01 0. -1.
</event>
<event>
 6    1  0.3411206E-003  0.4631715E+03  0.7546771E-02  0.9486210E-01
        -11   -1    0    0    0    0  0.00000000000E+00  0.00000000000E+00  0.50000000000E+03  0.50000000000E+03  0.00000000000E+00 0. -1.
         11   -1    0    0    0    0 -0.00000000000E+00 -0.00000000000E+00 -0.50000000000E+03  0.50000000000E+03  0.00000000000E+00 0. -1.
        -11    1    1    2    0    0 -0.91820883500E+01 -0.34637353994E+01  0.46800337684E+03  0.46810625817E+03  0.00000000000E+00 0. -1.
         11    1    1    2    0    0  0.46334831937E+01  0.47966950082E+02 -0.45684882979E+03  0.45938344631E+03  0.00000000000E+00 0. -1.
        -15    1    1    2    0    0 -0.92605619446E+00 -0.30295545294E+02 -0.33628042172E+02  0.45306518230E+02  0.17770000000E+01 0.  1.
         15    1    1    2    0    0  0.54746613508E+01 -0.14207669389E+02  0.22473495126E+02  0.27203777285E+02  0.17770000000E+01 0. -1.
</event>
<event>
 6    1  0.3411206E-003  0.5014361E+03  0.7546771E-02  0.9396602E-01
        -11   -1    0    0    0    0  0.00000000000E+00  0.00000000000E+00  0.50000000000E+03  0.50000000000E+03  0.00000000000E+00 0.  1.
         11   -1    0    0    0    0 -0.00000000000E+00 -0.00000000000E+00 -0.50000000000E+03  0.50000000000E+03  0.00000000000E+00 0.  1.
        -11    1    1    2    0    0  0.28999569131E+01  0.30664419692E+01  0.27018614182E+03  0.27021910378E+03  0.00000000000E+00 0.  1.
         11    1    1    2    0    0  0.20313027362E+01  0.82225774274E+01 -0.49849197632E+03  0.49856392511E+03  0.00000000000E+00 0.  1.
        -15    1    1    2    0    0 -0.51085209024E+01 -0.68210773978E+01  0.22545747932E+03  0.22562547904E+03  0.17770000000E+01 0. -1.
         15    1    1    2    0    0  0.17726125311E+00 -0.44679419988E+01  0.28483551754E+01  0.55914920604E+01  0.17770000000E+01 0.  1.
</event>
<event>
 6    1  0.3411206E-003  0.4453355E+03  0.7546771E-02  0.9531187E-01
        -11   -1    0    0    0    0  0.00000000000E+00  0.00000000000E+00  0.50000000000E+03  0.50000000000E+03  0.00000000000E+00 0. -1.
         11   -1    0    0    0    0 -0.00000000000E+00 -0.00000000000E+00 -0.50000000000E+03  0.50000000000E+03  0.00000000000E+00 0.  1.
        -11    1    1    2    0    0 -0.48599228896E+01  0.38549127443E+01  0.45477717421E+03  0.45481947779E+03  0.00000000000E+00 0. -1.
         11    1    1    2    0    0 -0.29063881580E+02 -0.35883732274E+01 -0.43571807581E+03  0.43670107308E+03  0.00000000000E+00 0.  1.
        -15    1    1    2    0    0  0.30834812922E+02 -0.39669417568E+00 -0.59946669562E+02  0.67436666398E+02  0.17770000000E+01 0.  1.
         15    1    1    2    0    0  0.30889915472E+01  0.13015465878E+00  0.40887571171E+02  0.41042782731E+02  0.17770000000E+01 0. -1.
</event>
<event>
 6    1  0.3411206E-003  0.5006596E+03  0.7546771E-02  0.9398335E-01
        -11   -1    0    0    0    0  0.00000000000E+00  0.00000000000E+00  0.50000000000E+03  0.50000000000E+03  0.00000000000E+00 0.  1.
         11   -1    0    0    0    0 -0.00000000000E+00 -0.00000000000E+00 -0.50000000000E+03  0.50000000000E+03  0.00000000000E+00 0.  1.
        -11    1    1    2    0    0 -0.44970040962E+00 -0.18359514315E+02  0.36708135475E+03  0.36754046716E+03  0.00000000000E+00 0.  1.
         11    1    1    2    0    0  0.73610932140E+01  0.11361600087E+02 -0.49915681641E+03  0.49934036389E+03  0.00000000000E+00 0.  1.
        -15    1    1    2    0    0  0.17063779972E+01  0.43036356607E+00  0.72326474405E+02  0.72369700618E+02  0.17770000000E+01 0. -1.
         15    1    1    2    0    0 -0.86177708016E+01  0.65675506619E+01  0.59748987256E+02  0.60749468330E+02  0.17770000000E+01 0.  1.
</event>
<event>
 6    1  0.3411206E-003  0.5210090E+03  0.7546771E-02  0.9353990E-01
        -11   -1    0    0    0    0  0.00000000000E+00  0.00000000000E+00  0.50000000000E+03  0.50000000000E+03  0.00000000000E+00 0. -1.
         11   -1    0    0    0    0 -0.00000000000E+00 -0.00000000000E+00 -0.50000000000E+03  0.50000000000E+03  0.00000000000E+00 0.  1.
        -11    1    1    2    0    0  0.42597403681E+01  0.84821722418E+01  0.47889695991E+03  0.47899101333E+03  0.00000000000E+00 0. -1.
         11    1    1    2    0    0  0.15371993570E+02  0.17344314335E+02 -0.40892320692E+03  0.40957943379E+03  0.00000000000E+00 0.  1.
        -15    1    1    2    0    0  0.10982716928E+02 -0.10994925343E+02  0.13885417817E+02  0.20915807691E+02  0.17770000000E+01 0.  1.
         15    1    1    2    0    0 -0.30614450867E+02 -0.14831561234E+02 -0.83859170812E+02  0.90513745192E+02  0.17770000000E+01 0. -1.
</event>
<event>
 6    1  0.3411206E-003  0.5007024E+03  0.7546771E-02  0.9398240E-01
        -11   -1    0    0    0    0  0.00000000000E+00  0.00000000000E+00  0.50000000000E+03  0.50000000000E+03  0.00000000000E+00 0. -1.
         11   -1    0    0    0    0 -0.00000000000E+00 -0.00000000000E+00 -0.50000000000E+03  0.50000000000E+03  0.00000000000E+00 0. -1.
        -11    1    1    2    0    0  0.10239487803E+02 -0.10228475664E+01  0.49919159027E+03  0.49929764382E+03  0.00000000000E+00 0. -1.
         11    1    1    2    0    0 -0.41507507706E+01  0.40079870703E+01 -0.39158913265E+03  0.39163164007E+03  0.00000000000E+00 0. -1.
        -15    1    1    2    0    0 -0.31169150033E+01 -0.87913702497E+01 -0.83499354489E+02  0.84037511143E+02  0.17770000000E+01 0. -1.
         15    1    1    2    0    0 -0.29718220292E+01  0.58062307459E+01 -0.24103103127E+02  0.25033204969E+02  0.17770000000E+01 0.  1.
</event>
<event>
 6    1  0.3411206E-003  0.5042902E+03  0.7546771E-02  0.9390261E-01
        -11   -1    0    0    0    0  0.00000000000E+00  0.00000000000E+00  0.50000000000E+03  0.50000000000E+03  0.00000000000E+00 0. -1.
         11   -1    0    0    0    0 -0.00000000000E+00 -0.00000000000E+00 -0.50000000000E+03  0.50000000000E+03  0.00000000000E+00 0.  1.
        -11    1    1    2    0    0  0.85784063349E+01  0.48113796565E+01  0.49561221750E+03  0.49570980277E+03  0.00000000000E+00 0. -1.
         11    1    1    2    0    0 -0.93051517157E+01 -0.34678099498E+01 -0.46211528957E+03  0.46222197309E+03  0.00000000000E+00 0.  1.
        -15    1    1    2    0    0  0.64332470913E+01 -0.12451300669E+01  0.11702847560E+01  0.68894348412E+01  0.17770000000E+01 0. -1.
         15    1    1    2    0    0 -0.57065017104E+01 -0.98439639822E-01 -0.34667212683E+02  0.35178789296E+02  0.17770000000E+01 0.  1.
</event>
<event>
 6    1  0.3411206E-003  0.5012159E+03  0.7546771E-02  0.9397093E-01
        -11   -1    0    0    0    0  0.00000000000E+00  0.00000000000E+00  0.50000000000E+03  0.50000000000E+03  0.00000000000E+00 0. -1.
         11   -1    0    0    0    0 -0.00000000000E+00 -0.00000000000E+00 -0.50000000000E+03  0.50000000000E+03  0.00000000000E+00 0.  1.
        -11    1    1    2    0    0  0.25432089189E+01  0.99724443452E+01  0.48103060811E+03  0.48114068992E+03  0.00000000000E+00 0. -1.
         11    1    1    2    0    0 -0.48759680200E+01 -0.12521338482E+02 -0.49860311152E+03  0.49878414350E+03  0.00000000000E+00 0.  1.
        -15    1    1    2    0    0  0.40396854335E+01  0.45775276461E+01  0.13303591685E+02  0.14745036401E+02  0.17770000000E+01 0.  1.
         15    1    1    2    0    0 -0.17069263324E+01 -0.20286335088E+01  0.42689117263E+01  0.53301301808E+01  0.17770000000E+01 0. -1.
</event>
<event>
 6    1  0.3411206E-003  0.5802859E+03  0.7546771E-02  0.9236161E-01
        -11   -1    0    0    0    0  0.00000000000E+00  0.00000000000E+00  0.50000000000E+03  0.50000000000E+03  0.00000000000E+00 0. -1.
         11   -1    0    0    0    0 -0.00000000000E+00 -0.00000000000E+00 -0.50000000000E+03  0.50000000000E+03  0.00000000000E+00 0.  1.
        -11    1    1    2    0    0  0.20074546299E+02 -0.22757260014E+02  0.38870239819E+03  0.38988515572E+03  0.00000000000E+00 0. -1.
         11    1    1    2    0    0 -0.78969302047E+00  0.21017350841E+02 -0.41918684321E+03  0.41971414341E+03  0.00000000000E+00 0.  1.
        -15    1    1    2    0    0  0.68619644238E+01  0.38091886365E+02 -0.70205972840E+02  0.80187996071E+02  0.17770000000E+01 0. -1.
         15    1    1    2    0    0 -0.26146817702E+02 -0.36351977192E+02  0.10069041786E+03  0.11021270480E+03  0.17770000000E+01 0.  1.
</event>
<event>
 6    1  0.3411206E-003  0.5021807E+03  0.7546771E-02  0.9394943E-01
        -11   -1    0    0    0    0  0.00000000000E+00  0.00000000000E+00  0.50000000000E+03  0.50000000000E+03  0.00000000000E+00 0. -1.
         11   -1    0    0    0    0 -0.00000000000E+00 -0.00000000000E+00 -0.50000000000E+03  0.50000000000E+03  0.00000000000E+00 0.  1.
        -11    1    1    2    0    0  0.74228929190E+01  0.23435810065E+01  0.49775839385E+03  0.49781925471E+03  0.00000000000E+00 0. -1.
         11    1    1    2    0    0 -0.36559623754E+01  0.63091894010E+01 -0.43487568547E+03  0.43493681580E+03  0.00000000000E+00 0.  1.
        -15    1    1    2    0    0 -0.55019526869E+01 -0.74117461192E+01 -0.81512805327E+01  0.12442128726E+02  0.17770000000E+01 0. -1.
         15    1    1    2    0    0  0.17350221433E+01 -0.12410242882E+01 -0.54731427851E+02  0.54801800761E+02  0.17770000000E+01 0.  1.
</event>
<event>
 6    1  0.3411206E-003  0.5003432E+03  0.7546771E-02  0.9399042E-01
        -11   -1    0    0    0    0  0.00000000000E+00  0.00000000000E+00  0.50000000000E+03  0.50000000000E+03  0.00000000000E+00 0. -1.
         11   -1    0    0    0    0 -0.00000000000E+00 -0.00000000000E+00 -0.50000000000E+03  0.50000000000E+03  0.00000000000E+00 0. -1.
        -11    1    1    2    0    0  0.93209719966E+01 -0.11633657885E+02  0.49943433932E+03  0.49965676400E+03  0.00000000000E+00 0. -1.
         11    1    1    2    0    0 -0.19234186244E+01  0.24941045772E+01 -0.15439887510E+03  0.15443099666E+03  0.00000000000E+00 0. -1.
        -15    1    1    2    0    0 -0.85575155383E+01  0.12398955687E+02 -0.13647400761E+03  0.13731452092E+03  0.17770000000E+01 0. -1.
         15    1    1    2    0    0  0.11599621661E+01 -0.32594023800E+01 -0.20856145661E+03  0.20859771842E+03  0.17770000000E+01 0. -1.
</event>
<event>
 6    1  0.3411206E-003  0.4700752E+03  0.7546771E-02  0.9469377E-01
        -11   -1    0    0    0    0  0.00000000000E+00  0.00000000000E+00  0.50000000000E+03  0.50000000000E+03  0.00000000000E+00 0.  1.
         11   -1    0    0    0    0 -0.00000000000E+00 -0.00000000000E+00 -0.50000000000E+03  0.50000000000E+03  0.00000000000E+00 0.  1.
        -11    1    1    2    0    0 -0.17154301424E+02  0.27993593163E+02  0.46561108649E+03  0.46676717449E+03  0.00000000000E+00 0.  1.
         11    1    1    2    0    0  0.16898612828E+01  0.98940811542E+01 -0.47420640127E+03  0.47431261788E+03  0.00000000000E+00 0.  1.
        -15    1    1    2    0    0  0.14623143701E+02 -0.38195633436E+02  0.21240038693E+02  0.46119840827E+02  0.17770000000E+01 0. -1.
         15    1    1    2    0    0  0.84129643930E+00  0.30795911814E+00 -0.12644723915E+02  0.12800366807E+02  0.17770000000E+01 0.  1.
</event>
<event>
 6    1  0.3411206E-003  0.5008109E+03  0.7546771E-02  0.9397997E-01
        -11   -1    0    0    0    0  0.00000000000E+00  0.00000000000E+00  0.50000000000E+03  0.50000000000E+03  0.00000000000E+00 0. -1.
         11   -1    0    0    0    0 -0.00000000000E+00 -0.00000000000E+00 -0.50000000000E+03  0.50000000000E+03  0.00000000000E+00 0. -1.
        -11    1    1    2    0    0 -0.82003447858E+01 -0.30808806771E+01  0.49911223943E+03  0.49918910748E+03  0.00000000000E+00 0. -1.
         11    1    1    2    0    0  0.39710298025E+01 -0.36361783748E+01 -0.24023907386E+03  0.24029940382E+03  0.00000000000E+00 0. -1.
        -15    1    1    2    0    0 -0.27938793119E+01 -0.20584133677E+01 -0.21930136441E+03  0.21933601845E+03  0.17770000000E+01 0. -1.
         15    1    1    2    0    0  0.70231942953E+01  0.87754724196E+01 -0.39571801158E+02  0.41175470248E+02  0.17770000000E+01 0.  1.
</event>
<event>
 6    1  0.3411206E-003  0.5035391E+03  0.7546771E-02  0.9391925E-01
        -11   -1    0    0    0    0  0.00000000000E+00  0.00000000000E+00  0.50000000000E+03  0.50000000000E+03  0.00000000000E+00 0. -1.
         11   -1    0    0    0    0 -0.00000000000E+00 -0.00000000000E+00 -0.50000000000E+03  0.50000000000E+03  0.00000000000E+00 0. -1.
        -11    1    1    2    0    0 -0.96822492108E-02 -0.42873080054E+01  0.96534822184E+02  0.96629979809E+02  0.00000000000E+00 0. -1.
         11    1    1    2    0    0  0.16214966639E+02  0.21205238140E+01 -0.49619152482E+03  0.49646092602E+03  0.00000000000E+00 0. -1.
        -15    1    1    2    0    0 -0.10748409206E+02 -0.38961444617E+01  0.57610828583E+01  0.12925016318E+02  0.17770000000E+01 0.  1.
         15    1    1    2    0    0 -0.54568751842E+01  0.60629286531E+01  0.39389561978E+03  0.39398407785E+03  0.17770000000E+01 0. -1.
</event>
<event>
 6    1  0.3411206E-003  0.5059152E+03  0.7546771E-02  0.9386670E-01
        -11   -1    0    0    0    0  0.00000000000E+00  0.00000000000E+00  0.50000000000E+03  0.50000000000E+03  0.00000000000E+00 0.  1.
         11   -1    0    0    0    0 -0.00000000000E+00 -0.00000000000E+00 -0.50000000000E+03  0.50000000000E+03  0.00000000000E+00 0.  1.
        -11    1    1    2    0    0  0.12290749172E+02 -0.10564909844E+01  0.49393080139E+03  0.49408482597E+03  0.00000000000E+00 0.  1.
         11    1    1    2    0    0 -0.69905256588E+01 -0.45832301576E+01 -0.48296070791E+03  0.48303304114E+03  0.00000000000E+00 0.  1.
        -15    1    1    2    0    0 -0.11670290754E+02  0.42996055864E+01 -0.10015900670E+02  0.16067304992E+02  0.17770000000E+01 0.  1.
         15    1    1    2    0    0  0.63700672411E+01  0.13401155556E+01 -0.95419281359E+00  0.68148278984E+01  0.17770000000E+01 0. -1.
</event>
<event>
 6    1  0.3411206E-003  0.4711370E+03  0.7546771E-02  0.9466815E-01
        -11   -1    0    0    0    0  0.00000000000E+00  0.00000000000E+00  0.50000000000E+03  0.50000000000E+03  0.00000000000E+00 0. -1.
         11   -1    0    0    0    0 -0.00000000000E+00 -0.00000000000E+00 -0.50000000000E+03  0.50000000000E+03  0.00000000000E+00 0.  1.
        -11    1    1    2    0    0 -0.24737215475E+01 -0.18798838519E+02  0.47338754694E+03  0.47376712130E+03  0.00000000000E+00 0. -1.
         11    1    1    2    0    0  0.36240406821E+01 -0.66747478589E+01 -0.46880153319E+03  0.46886305405E+03  0.00000000000E+00 0.  1.
        -15    1    1    2    0    0 -0.13113307732E+02  0.22473402692E+02  0.17920847180E+02  0.31643753900E+02  0.17770000000E+01 0. -1.
         15    1    1    2    0    0  0.11962988598E+02  0.30001836856E+01 -0.22506860933E+02  0.25726070753E+02  0.17770000000E+01 0.  1.
</event>
<event>
 6    1  0.3411206E-003  0.4876508E+03  0.7546771E-02  0.9427874E-01
        -11   -1    0    0    0    0  0.00000000000E+00  0.00000000000E+00  0.50000000000E+03  0.50000000000E+03  0.00000000000E+00 0.  1.
         11   -1    0    0    0    0 -0.00000000000E+00 -0.00000000000E+00 -0.50000000000E+03  0.50000000000E+03  0.00000000000E+00 0.  1.
        -11    1    1    2    0    0  0.96829012772E+01 -0.18206721300E+01  0.48719955461E+03  0.48729916831E+03  0.00000000000E+00 0.  1.
         11    1    1    2    0    0 -0.11006780276E+02 -0.36674556401E+01 -0.48788103084E+03  0.48801895423E+03  0.00000000000E+00 0.  1.
        -15    1    1    2    0    0  0.10194677599E+02  0.57359087391E+01 -0.61574889704E+01  0.13338084563E+02  0.17770000000E+01 0.  1.
         15    1    1    2    0    0 -0.88707986000E+01 -0.24778096903E+00  0.68389651956E+01  0.11343792891E+02  0.17770000000E+01 0. -1.
</event>
<event>
 6    1  0.3411206E-003  0.5042387E+03  0.7546771E-02  0.9390375E-01
        -11   -1    0    0    0    0  0.00000000000E+00  0.00000000000E+00  0.50000000000E+03  0.50000000000E+03  0.00000000000E+00 0.  1.
         11   -1    0    0    0    0 -0.00000000000E+00 -0.00000000000E+00 -0.50000000000E+03  0.50000000000E+03  0.00000000000E+00 0. -1.
        -11    1    1    2    0    0  0.58699553275E+01  0.64235082657E+01  0.49568491931E+03  0.49576129041E+03  0.00000000000E+00 0.  1.
         11    1    1    2    0    0 -0.11130979806E+02 -0.38405256160E+01 -0.48476740031E+03  0.48491038425E+03  0.00000000000E+00 0. -1.
        -15    1    1    2    0    0  0.38901208140E+01 -0.17867873342E+00  0.28702160652E+01  0.51537205297E+01  0.17770000000E+01 0.  1.
         15    1    1    2    0    0  0.13709036647E+01 -0.24043039164E+01 -0.13787735070E+02  0.14174604810E+02  0.17770000000E+01 0. -1.
</event>
<event>
 6    1  0.3411206E-003  0.5056753E+03  0.7546771E-02  0.9387200E-01
        -11   -1    0    0    0    0  0.00000000000E+00  0.00000000000E+00  0.50000000000E+03  0.50000000000E+03  0.00000000000E+00 0.  1.
         11   -1    0    0    0    0 -0.00000000000E+00 -0.00000000000E+00 -0.50000000000E+03  0.50000000000E+03  0.00000000000E+00 0. -1.
        -11    1    1    2    0    0 -0.52779470248E+01 -0.47939265040E+01  0.31108229959E+03  0.31116400109E+03  0.00000000000E+00 0.  1.
         11    1    1    2    0    0  0.12183369006E+02 -0.96008660564E+01 -0.49408124334E+03  0.49432467683E+03  0.00000000000E+00 0. -1.
        -15    1    1    2    0    0 -0.49682322235E+01 -0.32440868421E+01 -0.35317137745E+01  0.71300885023E+01  0.17770000000E+01 0. -1.
         15    1    1    2    0    0 -0.19371897575E+01  0.17638879403E+02  0.18653065752E+03  0.18738123357E+03  0.17770000000E+01 0.  1.
</event>
<event>
 6    1  0.3411206E-003  0.5019241E+03  0.7546771E-02  0.9395515E-01
        -11   -1    0    0    0    0  0.00000000000E+00  0.00000000000E+00  0.50000000000E+03  0.50000000000E+03  0.00000000000E+00 0. -1.
         11   -1    0    0    0    0 -0.00000000000E+00 -0.00000000000E+00 -0.50000000000E+03  0.50000000000E+03  0.00000000000E+00 0.  1.
        -11    1    1    2    0    0 -0.51321936680E+01  0.15950926820E+00  0.33921206999E+03  0.33925092967E+03  0.00000000000E+00 0. -1.
         11    1    1    2    0    0  0.66401810676E+01  0.79305073698E+01 -0.49796844517E+03  0.49807585500E+03  0.00000000000E+00 0.  1.
        -15    1    1    2    0    0  0.60276054736E+00 -0.48192879990E+01  0.15365151401E+01  0.53951334433E+01  0.17770000000E+01 0.  1.
         15    1    1    2    0    0 -0.21107479470E+01 -0.32707286389E+01  0.15721986003E+03  0.15727808188E+03  0.17770000000E+01 0. -1.
</event>
<event>
 6    1  0.3411206E-003  0.4652095E+03  0.7546771E-02  0.9481208E-01
        -11   -1    0    0    0    0  0.00000000000E+00  0.00000000000E+00  0.50000000000E+03  0.50000000000E+03  0.00000000000E+00 0.  1.
         11   -1    0    0    0    0 -0.00000000000E+00 -0.00000000000E+00 -0.50000000000E+03  0.50000000000E+03  0.00000000000E+00 0. -1.
        -11    1    1    2    0    0 -0.59398630455E+01  0.80847785171E+01  0.47039631265E+03  0.47050328009E+03  0.00000000000E+00 0.  1.
         11    1    1    2    0    0 -0.31076609020E+02  0.61247290799E+01 -0.45973140706E+03  0.46082126098E+03  0.00000000000E+00 0. -1.
        -15    1    1    2    0    0  0.30982168471E+02 -0.85458051294E+01 -0.32204394985E+02  0.45532475595E+02  0.17770000000E+01 0. -1.
         15    1    1    2    0    0  0.60343035944E+01 -0.56637024676E+01  0.21539489394E+02  0.23142983340E+02  0.17770000000E+01 0. -1.
</event>
<event>
 6    1  0.3528367E-003  0.5072510E+03  0.7546771E-02  0.9383730E-01
        -11   -1    0    0    0    0  0.00000000000E+00  0.00000000000E+00  0.50000000000E+03  0.50000000000E+03  0.00000000000E+00 0. -1.
         11   -1    0    0    0    0 -0.00000000000E+00 -0.00000000000E+00 -0.50000000000E+03  0.50000000000E+03  0.00000000000E+00 0. -1.
        -11    1    1    2    0    0  0.25239374069E+01  0.70967660994E+01  0.49269145335E+03  0.49274902593E+03  0.00000000000E+00 0. -1.
         11    1    1    2    0    0  0.43086822765E+01  0.44526171384E+01 -0.45698123165E+03  0.45702323422E+03  0.00000000000E+00 0. -1.
        -15    1    1    2    0    0 -0.49928317580E+00 -0.87507214134E+00 -0.37505889798E+02  0.37561476721E+02  0.17770000000E+01 0. -1.
         15    1    1    2    0    0 -0.63333365076E+01 -0.10674311096E+02  0.17956680923E+01  0.12666263127E+02  0.17770000000E+01 0.  1.
</event>
<event>
 6    1  0.3411206E-003  0.5136227E+03  0.7546771E-02  0.9369833E-01
        -11   -1    0    0    0    0  0.00000000000E+00  0.00000000000E+00  0.50000000000E+03  0.50000000000E+03  0.00000000000E+00 0.  1.
         11   -1    0    0    0    0 -0.00000000000E+00 -0.00000000000E+00 -0.50000000000E+03  0.50000000000E+03  0.00000000000E+00 0. -1.
        -11    1    1    2    0    0 -0.62287310075E+01  0.10934826261E+01  0.42774268318E+03  0.42778942928E+03  0.00000000000E+00 0.  1.
         11    1    1    2    0    0  0.67648840742E+01  0.37033689047E+01 -0.48631610522E+03  0.48637725357E+03  0.00000000000E+00 0. -1.
        -15    1    1    2    0    0 -0.80350413244E+01 -0.63486892867E+01 -0.11395908639E+02  0.15423754648E+02  0.17770000000E+01 0.  1.
         15    1    1    2    0    0  0.74988882577E+01  0.15518377558E+01  0.69969330685E+02  0.70409562497E+02  0.17770000000E+01 0. -1.
</event>
<event>
 6    1  0.3411206E-003  0.5237787E+03  0.7546771E-02  0.9348121E-01
        -11   -1    0    0    0    0  0.00000000000E+00  0.00000000000E+00  0.50000000000E+03  0.50000000000E+03  0.00000000000E+00 0. -1.
         11   -1    0    0    0    0 -0.00000000000E+00 -0.00000000000E+00 -0.50000000000E+03  0.50000000000E+03  0.00000000000E+00 0.  1.
        -11    1    1    2    0    0  0.30579156097E+02 -0.12972164651E+02  0.43305944931E+03  0.43433149607E+03  0.00000000000E+00 0. -1.
         11    1    1    2    0    0 -0.85229515313E+00  0.10115608629E+02 -0.47611307178E+03  0.47622128162E+03  0.00000000000E+00 0.  1.
        -15    1    1    2    0    0 -0.52036844776E+02  0.89353857061E+01  0.39549746077E+02  0.65992533484E+02  0.17770000000E+01 0. -1.
         15    1    1    2    0    0  0.22309983832E+02 -0.60788296841E+01  0.35038763964E+01  0.23454688821E+02  0.17770000000E+01 0.  1.
</event>
<event>
 6    1  0.3411206E-003  0.5021444E+03  0.7546771E-02  0.9395024E-01
        -11   -1    0    0    0    0  0.00000000000E+00  0.00000000000E+00  0.50000000000E+03  0.50000000000E+03  0.00000000000E+00 0.  1.
         11   -1    0    0    0    0 -0.00000000000E+00 -0.00000000000E+00 -0.50000000000E+03  0.50000000000E+03  0.00000000000E+00 0. -1.
        -11    1    1    2    0    0 -0.44721848541E+01  0.12488790695E+02  0.49767885959E+03  0.49785561924E+03  0.00000000000E+00 0.  1.
         11    1    1    2    0    0 -0.10218581952E+01  0.12800081690E+01 -0.72588504450E+02  0.72606980335E+02  0.00000000000E+00 0. -1.
        -15    1    1    2    0    0 -0.19468625970E+02  0.20371636823E+01 -0.31262194145E+03  0.31323922717E+03  0.17770000000E+01 0.  1.
         15    1    1    2    0    0  0.24962669019E+02 -0.15805962546E+02 -0.11246841369E+03  0.11629817325E+03  0.17770000000E+01 0. -1.
</event>
<event>
 6    1  0.3411206E-003  0.5018718E+03  0.7546771E-02  0.9395631E-01
        -11   -1    0    0    0    0  0.00000000000E+00  0.00000000000E+00  0.50000000000E+03  0.50000000000E+03  0.00000000000E+00 0.  1.
         11   -1    0    0    0    0 -0.00000000000E+00 -0.00000000000E+00 -0.50000000000E+03  0.50000000000E+03  0.00000000000E+00 0. -1.
        -11    1    1    2    0    0  0.28097938916E+01  0.62221736046E+01  0.49808146050E+03  0.49812824822E+03  0.00000000000E+00 0.  1.
         11    1    1    2    0    0 -0.51231405493E+01  0.11836229900E+01 -0.16962594566E+03  0.16970742168E+03  0.00000000000E+00 0. -1.
        -15    1    1    2    0    0  0.16173496970E+02 -0.68345406801E+01 -0.44602575660E+02  0.47967076574E+02  0.17770000000E+01 0.  1.
         15    1    1    2    0    0 -0.13860150312E+02 -0.57125591455E+00 -0.28385293918E+03  0.28419725352E+03  0.17770000000E+01 0. -1.
</event>
<event>
 6    1  0.3411206E-003  0.5078187E+03  0.7546771E-02  0.9382483E-01
        -11   -1    0    0    0    0  0.00000000000E+00  0.00000000000E+00  0.50000000000E+03  0.50000000000E+03  0.00000000000E+00 0. -1.
         11   -1    0    0    0    0 -0.00000000000E+00 -0.00000000000E+00 -0.50000000000E+03  0.50000000000E+03  0.00000000000E+00 0.  1.
        -11    1    1    2    0    0 -0.42737889909E+01  0.13110796510E+02  0.49198808314E+03  0.49218130014E+03  0.00000000000E+00 0. -1.
         11    1    1    2    0    0  0.41994282884E+01  0.11900482811E+02 -0.45502202075E+03  0.45519698600E+03  0.00000000000E+00 0.  1.
        -15    1    1    2    0    0 -0.11321716632E+02 -0.21335970457E+01 -0.92807250508E+01  0.14900439266E+02  0.17770000000E+01 0.  1.
         15    1    1    2    0    0  0.11396077334E+02 -0.22877682275E+02 -0.27685337336E+02  0.37721274598E+02  0.17770000000E+01 0. -1.
</event>
<event>
 6    1  0.3411206E-003  0.5366321E+03  0.7546771E-02  0.9321378E-01
        -11   -1    0    0    0    0  0.00000000000E+00  0.00000000000E+00  0.50000000000E+03  0.50000000000E+03  0.00000000000E+00 0.  1.
         11   -1    0    0    0    0 -0.00000000000E+00 -0.00000000000E+00 -0.50000000000E+03  0.50000000000E+03  0.00000000000E+00 0. -1.
        -11    1    1    2    0    0  0.13039227465E+02  0.29322725318E+02  0.29314827390E+03  0.29489956623E+03  0.00000000000E+00 0.  1.
         11    1    1    2    0    0  0.10352365558E+02 -0.15861201881E+02 -0.46298058915E+03  0.46336786156E+03  0.00000000000E+00 0. -1.
        -15    1    1    2    0    0 -0.23537515498E+02 -0.30553649537E+02  0.20178834606E+03  0.20544886096E+03  0.17770000000E+01 0.  1.
         15    1    1    2    0    0  0.14592247494E+00  0.17092126099E+02 -0.31956030807E+02  0.36283711248E+02  0.17770000000E+01 0. -1.
</event>
<event>
 6    1  0.3411206E-003  0.5065126E+03  0.7546771E-02  0.9385354E-01
        -11   -1    0    0    0    0  0.00000000000E+00  0.00000000000E+00  0.50000000000E+03  0.50000000000E+03  0.00000000000E+00 0.  1.
         11   -1    0    0    0    0 -0.00000000000E+00 -0.00000000000E+00 -0.50000000000E+03  0.50000000000E+03  0.00000000000E+00 0.  1.
        -11    1    1    2    0    0  0.28825758709E+02  0.11278819129E+02  0.49251561929E+03  0.49348735685E+03  0.00000000000E+00 0.  1.
         11    1    1    2    0    0  0.11991748596E+02  0.14794280641E+02 -0.34933294635E+03  0.34985165453E+03  0.00000000000E+00 0.  1.
        -15    1    1    2    0    0  0.23386277437E+01 -0.50092371387E+01 -0.62370476261E+02  0.62640208129E+02  0.17770000000E+01 0. -1.
         15    1    1    2    0    0 -0.43156135049E+02 -0.21063862631E+02 -0.80812196687E+02  0.94020780488E+02  0.17770000000E+01 0. -1.
</event>
<event>
 6    1  0.3411206E-003  0.5071020E+03  0.7546771E-02  0.9384057E-01
        -11   -1    0    0    0    0  0.00000000000E+00  0.00000000000E+00  0.50000000000E+03  0.50000000000E+03  0.00000000000E+00 0. -1.
         11   -1    0    0    0    0 -0.00000000000E+00 -0.00000000000E+00 -0.50000000000E+03  0.50000000000E+03  0.00000000000E+00 0. -1.
        -11    1    1    2    0    0 -0.37529436754E+01  0.61949955214E+01  0.49284479110E+03  0.49289801244E+03  0.00000000000E+00 0. -1.
         11    1    1    2    0    0  0.84633703797E+01  0.11970125840E+01 -0.48418424956E+03  0.48425969169E+03  0.00000000000E+00 0. -1.
        -15    1    1    2    0    0  0.56297001293E+01 -0.15099838302E+01  0.23545177580E+01  0.65326149118E+01  0.17770000000E+01 0.  1.
         15    1    1    2    0    0 -0.10340126834E+02 -0.58820242753E+01 -0.11015059301E+02  0.16309680957E+02  0.17770000000E+01 0. -1.
</event>
<event>
 6    1  0.3411206E-003  0.5108830E+03  0.7546771E-02  0.9375782E-01
        -11   -1    0    0    0    0  0.00000000000E+00  0.00000000000E+00  0.50000000000E+03  0.50000000000E+03  0.00000000000E+00 0. -1.
         11   -1    0    0    0    0 -0.00000000000E+00 -0.00000000000E+00 -0.50000000000E+03  0.50000000000E+03  0.00000000000E+00 0.  1.
        -11    1    1    2    0    0  0.11244987429E+02 -0.81348035362E+01  0.27143696191E+03  0.27179155444E+03  0.00000000000E+00 0. -1.
         11    1    1    2    0    0 -0.16896012390E+02 -0.30410296661E+02 -0.48787822365E+03  0.48911698242E+03  0.00000000000E+00 0.  1.
        -15    1    1    2    0    0  0.28334292535E+02  0.62141357299E+02  0.15676525100E+03  0.17100550304E+03  0.17770000000E+01 0. -1.
         15    1    1    2    0    0 -0.22683267575E+02 -0.23596257101E+02  0.59676010741E+02  0.68085960110E+02  0.17770000000E+01 0.  1.
</event>
<event>
 6    1  0.3411206E-003  0.5018328E+03  0.7546771E-02  0.9395718E-01
        -11   -1    0    0    0    0  0.00000000000E+00  0.00000000000E+00  0.50000000000E+03  0.50000000000E+03  0.00000000000E+00 0. -1.
         11   -1    0    0    0    0 -0.00000000000E+00 -0.00000000000E+00 -0.50000000000E+03  0.50000000000E+03  0.00000000000E+00 0. -1.
        -11    1    1    2    0    0 -0.99458357522E+01  0.30787925505E+01  0.49805837706E+03  0.49816718636E+03  0.00000000000E+00 0. -1.
         11    1    1    2    0    0  0.47436813399E+00  0.39780773214E+01 -0.23285325135E+03  0.23288771283E+03  0.00000000000E+00 0. -1.
        -15    1    1    2    0    0  0.52566321149E+01 -0.30091604142E+01 -0.35960758899E+01  0.72647586605E+01  0.17770000000E+01 0.  1.
         15    1    1    2    0    0  0.42148355033E+01 -0.40477094577E+01 -0.26160904982E+03  0.26168034214E+03  0.17770000000E+01 0. -1.
</event>
<event>
 6    1  0.3411206E-003  0.5002989E+03  0.7546771E-02  0.9399141E-01
        -11   -1    0    0    0    0  0.00000000000E+00  0.00000000000E+00  0.50000000000E+03  0.50000000000E+03  0.00000000000E+00 0.  1.
         11   -1    0    0    0    0 -0.00000000000E+00 -0.00000000000E+00 -0.50000000000E+03  0.50000000000E+03  0.00000000000E+00 0.  1.
        -11    1    1    2    0    0  0.47682035014E+01  0.74127028960E+01  0.40411614080E+03  0.40421224522E+03  0.00000000000E+00 0.  1.
         11    1    1    2    0    0 -0.60056270939E+01 -0.33202633444E+01 -0.49965394241E+03  0.49970106451E+03  0.00000000000E+00 0.  1.
        -15    1    1    2    0    0 -0.90739523079E+00  0.16264888310E+01  0.54316071477E+02  0.54377037265E+02  0.17770000000E+01 0.  1.
         15    1    1    2    0    0  0.21448188233E+01 -0.57189283826E+01  0.41221730130E+02  0.41709653002E+02  0.17770000000E+01 0. -1.
</event>
<event>
 6    1  0.3411206E-003  0.5139173E+03  0.7546771E-02  0.9369196E-01
        -11   -1    0    0    0    0  0.00000000000E+00  0.00000000000E+00  0.50000000000E+03  0.50000000000E+03  0.00000000000E+00 0.  1.
         11   -1    0    0    0    0 -0.00000000000E+00 -0.00000000000E+00 -0.50000000000E+03  0.50000000000E+03  0.00000000000E+00 0. -1.
        -11    1    1    2    0    0  0.96728849892E+01 -0.41972875736E+01  0.32388072363E+03  0.32405231841E+03  0.00000000000E+00 0.  1.
         11    1    1    2    0    0 -0.63087295185E+01 -0.90265877375E+01 -0.48595797424E+03  0.48608274201E+03  0.00000000000E+00 0. -1.
        -15    1    1    2    0    0  0.18057505541E+02  0.20301176087E+02  0.10427228462E+01  0.27248050514E+02  0.17770000000E+01 0. -1.
         15    1    1    2    0    0 -0.21421661012E+02 -0.70773007763E+01  0.16103452776E+03  0.16261688906E+03  0.17770000000E+01 0.  1.
</event>
<event>
 6    1  0.3411206E-003  0.5040912E+03  0.7546771E-02  0.9390702E-01
        -11   -1    0    0    0    0  0.00000000000E+00  0.00000000000E+00  0.50000000000E+03  0.50000000000E+03  0.00000000000E+00 0.  1.
         11   -1    0    0    0    0 -0.00000000000E+00 -0.00000000000E+00 -0.50000000000E+03  0.50000000000E+03  0.00000000000E+00 0. -1.
        -11    1    1    2    0    0 -0.98170557247E+01 -0.56423941566E+01  0.45580117956E+03  0.45594180164E+03  0.00000000000E+00 0.  1.
         11    1    1    2    0    0 -0.56766690795E+01  0.17053043601E+02 -0.49558299411E+03  0.49590879697E+03  0.00000000000E+00 0. -1.
        -15    1    1    2    0    0  0.11991035958E+02 -0.22471161410E+01  0.34969211762E+02  0.37078807620E+02  0.17770000000E+01 0.  1.
         15    1    1    2    0    0  0.35026888460E+01 -0.91635333036E+01  0.48126027853E+01  0.11070593766E+02  0.17770000000E+01 0. -1.
</event>
<event>
 6    1  0.3411206E-003  0.5227021E+03  0.7546771E-02  0.9350397E-01
        -11   -1    0    0    0    0  0.00000000000E+00  0.00000000000E+00  0.50000000000E+03  0.50000000000E+03  0.00000000000E+00 0.  1.
         11   -1    0    0    0    0 -0.00000000000E+00 -0.00000000000E+00 -0.50000000000E+03  0.50000000000E+03  0.00000000000E+00 0.  1.
        -11    1    1    2    0    0 -0.23668360352E+02 -0.52643283622E+00  0.47671037757E+03  0.47729786559E+03  0.00000000000E+00 0.  1.
         11    1    1    2    0    0  0.69077096309E+01  0.28316661626E+01 -0.39503742892E+03  0.39510796630E+03  0.00000000000E+00 0.  1.
        -15    1    1    2    0    0 -0.22867554616E+01 -0.77531681655E+01 -0.10012271027E+03  0.10046420112E+03  0.17770000000E+01 0.  1.
         15    1    1    2    0    0  0.19047406183E+02  0.54479348392E+01  0.18449761612E+02  0.27129966989E+02  0.17770000000E+01 0. -1.
</event>
<event>
 6    1  0.3411206E-003  0.5125254E+03  0.7546771E-02  0.9372211E-01
        -11   -1    0    0    0    0  0.00000000000E+00  0.00000000000E+00  0.50000000000E+03  0.50000000000E+03  0.00000000000E+00 0.  1.
         11   -1    0    0    0    0 -0.00000000000E+00 -0.00000000000E+00 -0.50000000000E+03  0.50000000000E+03  0.00000000000E+00 0. -1.
        -11    1    1    2    0    0 -0.27676601846E+01  0.87733244734E+01  0.42142372180E+03  0.42152412085E+03  0.00000000000E+00 0.  1.
         11    1    1    2    0    0 -0.18060388662E+01 -0.69064114120E+01 -0.48742230303E+03  0.48747457552E+03  0.00000000000E+00 0. -1.
        -15    1    1    2    0    0 -0.24888222536E+02 -0.96960724307E+01  0.49545301507E+02  0.56314581345E+02  0.17770000000E+01 0.  1.
         15    1    1    2    0    0  0.29461921587E+02  0.78291593693E+01  0.16453279718E+02  0.34686722279E+02  0.17770000000E+01 0. -1.
</event>
<event>
 6    1  0.3411206E-003  0.4635727E+03  0.7546771E-02  0.9485223E-01
        -11   -1    0    0    0    0  0.00000000000E+00  0.00000000000E+00  0.50000000000E+03  0.50000000000E+03  0.00000000000E+00 0. -1.
         11   -1    0    0    0    0 -0.00000000000E+00 -0.00000000000E+00 -0.50000000000E+03  0.50000000000E+03  0.00000000000E+00 0.  1.
        -11    1    1    2    0    0 -0.13314801611E+02 -0.28090041508E+02  0.46779210302E+03  0.46882383260E+03  0.00000000000E+00 0. -1.
         11    1    1    2    0    0  0.62557888713E+01  0.57674647223E+01 -0.45858395492E+03  0.45866288520E+03  0.00000000000E+00 0.  1.
        -15    1    1    2    0    0  0.63531473200E+00 -0.11468128296E+02 -0.30075593421E+02  0.32243148730E+02  0.17770000000E+01 0. -1.
         15    1    1    2    0    0  0.64236980080E+01  0.33790705081E+02  0.20867445329E+02  0.40270133468E+02  0.17770000000E+01 0.  1.
</event>
<event>
 6    1  0.3411206E-003  0.5052668E+03  0.7546771E-02  0.9388101E-01
        -11   -1    0    0    0    0  0.00000000000E+00  0.00000000000E+00  0.50000000000E+03  0.50000000000E+03  0.00000000000E+00 0. -1.
         11   -1    0    0    0    0 -0.00000000000E+00 -0.00000000000E+00 -0.50000000000E+03  0.50000000000E+03  0.00000000000E+00 0. -1.
        -11    1    1    2    0    0 -0.12685871017E+01 -0.69458537310E+01  0.35849191272E+03  0.35856143921E+03  0.00000000000E+00 0. -1.
         11    1    1    2    0    0  0.90363224686E+01  0.10807200841E+01 -0.49464951946E+03  0.49473323133E+03  0.00000000000E+00 0. -1.
        -15    1    1    2    0    0 -0.46169474090E+01 -0.29047130079E+01 -0.35037389148E+01  0.67221630758E+01  0.17770000000E+01 0. -1.
         15    1    1    2    0    0 -0.31507879580E+01  0.87698466547E+01  0.13966134565E+03  0.13998316639E+03  0.17770000000E+01 0.  1.
</event>
<event>
 6    1  0.3411206E-003  0.5094187E+03  0.7546771E-02  0.9378978E-01
        -11   -1    0    0    0    0  0.00000000000E+00  0.00000000000E+00  0.50000000000E+03  0.50000000000E+03  0.00000000000E+00 0. -1.
         11   -1    0    0    0    0 -0.00000000000E+00 -0.00000000000E+00 -0.50000000000E+03  0.50000000000E+03  0.00000000000E+00 0. -1.
        -11    1    1    2    0    0 -0.11476860451E+01 -0.95519368565E+01  0.48281560114E+03  0.48291144259E+03  0.00000000000E+00 0. -1.
         11    1    1    2    0    0 -0.78987978063E+01  0.98102741444E+01 -0.49041962628E+03  0.49058133100E+03  0.00000000000E+00 0. -1.
        -15    1    1    2    0    0  0.49130551768E+01 -0.10600499852E+02 -0.16311993672E+01  0.11930098434E+02  0.17770000000E+01 0. -1.
         15    1    1    2    0    0  0.41334286747E+01  0.10342162564E+02  0.92352245092E+01  0.14577127970E+02  0.17770000000E+01 0.  1.
</event>
<event>
 6    1  0.3411206E-003  0.5000762E+03  0.7546771E-02  0.9399639E-01
        -11   -1    0    0    0    0  0.00000000000E+00  0.00000000000E+00  0.50000000000E+03  0.50000000000E+03  0.00000000000E+00 0. -1.
         11   -1    0    0    0    0 -0.00000000000E+00 -0.00000000000E+00 -0.50000000000E+03  0.50000000000E+03  0.00000000000E+00 0.  1.
        -11    1    1    2    0    0 -0.39980080970E+01  0.79430276566E+01  0.49984475491E+03  0.49992384897E+03  0.00000000000E+00 0. -1.
         11    1    1    2    0    0  0.16431348453E+01 -0.14823858934E+01 -0.11936841684E+03  0.11938892871E+03  0.00000000000E+00 0.  1.
        -15    1    1    2    0    0 -0.82690292988E+00  0.15769465514E+01 -0.17901998372E+03  0.17903765757E+03  0.17770000000E+01 0.  1.
         15    1    1    2    0    0  0.31817761816E+01 -0.80375883146E+01 -0.20145635435E+03  0.20164956474E+03  0.17770000000E+01 0.  1.
</event>
<event>
 6    1  0.3411206E-003  0.3178514E+03  0.7546771E-02  0.9936110E-01
        -11   -1    0    0    0    0  0.00000000000E+00  0.00000000000E+00  0.50000000000E+03  0.50000000000E+03  0.00000000000E+00 0. -1.
         11   -1    0    0    0    0 -0.00000000000E+00 -0.00000000000E+00 -0.50000000000E+03  0.50000000000E+03  0.00000000000E+00 0. -1.
        -11    1    1    2    0    0  0.49533723989E+00 -0.34348021336E+01  0.19528444911E+03  0.19531528176E+03  0.00000000000E+00 0. -1.
         11    1    1    2    0    0  0.36939846410E+01 -0.58403772316E+01 -0.33415167322E+03  0.33422312344E+03  0.00000000000E+00 0. -1.
        -15    1    1    2    0    0  0.33942366334E+02  0.62254275742E+01  0.30145293359E+03  0.30342687600E+03  0.17770000000E+01 0. -1.
         15    1    1    2    0    0 -0.38131688215E+02  0.30497517909E+01 -0.16258570947E+03  0.16703471881E+03  0.17770000000E+01 0.  1.
</event>
<event>
 6    1  0.3411206E-003  0.5032866E+03  0.7546771E-02  0.9392486E-01
        -11   -1    0    0    0    0  0.00000000000E+00  0.00000000000E+00  0.50000000000E+03  0.50000000000E+03  0.00000000000E+00 0.  1.
         11   -1    0    0    0    0 -0.00000000000E+00 -0.00000000000E+00 -0.50000000000E+03  0.50000000000E+03  0.00000000000E+00 0.  1.
        -11    1    1    2    0    0  0.25527746446E+01  0.88613426553E+01  0.49662783683E+03  0.49671344693E+03  0.00000000000E+00 0.  1.
         11    1    1    2    0    0 -0.59728928338E+01 -0.28238414686E+01 -0.48576186652E+03  0.48580679338E+03  0.00000000000E+00 0.  1.
        -15    1    1    2    0    0  0.59898250016E+01 -0.63563773012E+01 -0.36897276878E+01  0.96464167106E+01  0.17770000000E+01 0. -1.
         15    1    1    2    0    0 -0.25697068124E+01  0.31887611454E+00 -0.71762426170E+01  0.78333429758E+01  0.17770000000E+01 0.  1.
</event>
<event>
 6    1  0.3411206E-003  0.5258971E+03  0.7546771E-02  0.9343657E-01
        -11   -1    0    0    0    0  0.00000000000E+00  0.00000000000E+00  0.50000000000E+03  0.50000000000E+03  0.00000000000E+00 0.  1.
         11   -1    0    0    0    0 -0.00000000000E+00 -0.00000000000E+00 -0.50000000000E+03  0.50000000000E+03  0.00000000000E+00 0. -1.
        -11    1    1    2    0    0  0.71601634093E+02  0.44982813275E+02  0.46650113572E+03  0.47410289719E+03  0.00000000000E+00 0.  1.
         11    1    1    2    0    0  0.71606728820E+01  0.43838215417E+01 -0.20299972606E+03  0.20317328049E+03  0.00000000000E+00 0. -1.
        -15    1    1    2    0    0 -0.41937259704E+00  0.53379594163E+02 -0.10842790343E+03  0.12086904036E+03  0.17770000000E+01 0. -1.
         15    1    1    2    0    0 -0.78342934378E+02 -0.10274622898E+03 -0.15507350623E+03  0.20185478196E+03  0.17770000000E+01 0.  1.
</event>
<event>
 6    1  0.3411206E-003  0.5048747E+03  0.7546771E-02  0.9388968E-01
        -11   -1    0    0    0    0  0.00000000000E+00  0.00000000000E+00  0.50000000000E+03  0.50000000000E+03  0.00000000000E+00 0. -1.
         11   -1    0    0    0    0 -0.00000000000E+00 -0.00000000000E+00 -0.50000000000E+03  0.50000000000E+03  0.00000000000E+00 0.  1.
        -11    1    1    2    0    0 -0.54623985493E-01  0.68467009323E+01  0.49507799601E+03  0.49512534013E+03  0.00000000000E+00 0. -1.
         11    1    1    2    0    0  0.12155670099E+01 -0.96263410924E+01 -0.47667540514E+03  0.47677414560E+03  0.00000000000E+00 0.  1.
        -15    1    1    2    0    0  0.36639797425E+01  0.10391766706E+02 -0.14027070150E+02  0.17925679592E+02  0.17770000000E+01 0. -1.
         15    1    1    2    0    0 -0.48249227668E+01 -0.76121265459E+01 -0.43755207247E+01  0.10174834685E+02  0.17770000000E+01 0.  1.
</event>
<event>
 6    1  0.3411206E-003  0.5374849E+03  0.7546771E-02  0.9319632E-01
        -11   -1    0    0    0    0  0.00000000000E+00  0.00000000000E+00  0.50000000000E+03  0.50000000000E+03  0.00000000000E+00 0. -1.
         11   -1    0    0    0    0 -0.00000000000E+00 -0.00000000000E+00 -0.50000000000E+03  0.50000000000E+03  0.00000000000E+00 0.  1.
        -11    1    1    2    0    0 -0.83004664434E+01 -0.75511258040E+00  0.42937727498E+03  0.42945816119E+03  0.00000000000E+00 0. -1.
         11    1    1    2    0    0  0.26090230152E+02  0.12757897944E+02 -0.46160239881E+03  0.46251512262E+03  0.00000000000E+00 0.  1.
        -15    1    1    2    0    0  0.21165991716E+02 -0.20637209851E+02  0.54695889348E+02  0.62198807676E+02  0.17770000000E+01 0. -1.
         15    1    1    2    0    0 -0.38955755424E+02  0.86344244875E+01 -0.22470765521E+02  0.45827908516E+02  0.17770000000E+01 0.  1.
</event>
<event>
 6    1  0.3411206E-003  0.5007290E+03  0.7546771E-02  0.9398180E-01
        -11   -1    0    0    0    0  0.00000000000E+00  0.00000000000E+00  0.50000000000E+03  0.50000000000E+03  0.00000000000E+00 0.  1.
         11   -1    0    0    0    0 -0.00000000000E+00 -0.00000000000E+00 -0.50000000000E+03  0.50000000000E+03  0.00000000000E+00 0. -1.
        -11    1    1    2    0    0 -0.21254007323E+02  0.96492653728E+01  0.49872506643E+03  0.49927100160E+03  0.00000000000E+00 0.  1.
         11    1    1    2    0    0  0.14643456114E+01 -0.13189336995E+01 -0.81536468643E+02  0.81560282080E+02  0.00000000000E+00 0. -1.
        -15    1    1    2    0    0  0.21781838081E+02  0.10469373898E+01 -0.13103463065E+03  0.13284869855E+03  0.17770000000E+01 0.  1.
         15    1    1    2    0    0 -0.19921763697E+01 -0.93772690631E+01 -0.28615396714E+03  0.28632001778E+03  0.17770000000E+01 0. -1.
</event>
<event>
 6    1  0.3411206E-003  0.5414482E+03  0.7546771E-02  0.9311562E-01
        -11   -1    0    0    0    0  0.00000000000E+00  0.00000000000E+00  0.50000000000E+03  0.50000000000E+03  0.00000000000E+00 0. -1.
         11   -1    0    0    0    0 -0.00000000000E+00 -0.00000000000E+00 -0.50000000000E+03  0.50000000000E+03  0.00000000000E+00 0.  1.
        -11    1    1    2    0    0  0.23002558203E+01  0.14579728210E+01  0.15603265818E+03  0.15605642339E+03  0.00000000000E+00 0. -1.
         11    1    1    2    0    0  0.14905938117E+02  0.16651134454E+02 -0.45800683971E+03  0.45855175552E+03  0.00000000000E+00 0.  1.
        -15    1    1    2    0    0  0.27074160259E+02  0.75587079634E+02  0.16911084353E+02  0.82070453053E+02  0.17770000000E+01 0.  1.
         15    1    1    2    0    0 -0.44280354197E+02 -0.93696186909E+02  0.28506309717E+03  0.30332136804E+03  0.17770000000E+01 0. -1.
</event>
<event>
 6    1  0.3411206E-003  0.5090267E+03  0.7546771E-02  0.9379835E-01
        -11   -1    0    0    0    0  0.00000000000E+00  0.00000000000E+00  0.50000000000E+03  0.50000000000E+03  0.00000000000E+00 0.  1.
         11   -1    0    0    0    0 -0.00000000000E+00 -0.00000000000E+00 -0.50000000000E+03  0.50000000000E+03  0.00000000000E+00 0. -1.
        -11    1    1    2    0    0  0.53946030080E+01  0.74459877710E+01  0.49088715331E+03  0.49097325972E+03  0.00000000000E+00 0.  1.
         11    1    1    2    0    0  0.62117210497E+01  0.89252277636E+01 -0.38635815884E+03  0.38651115388E+03  0.00000000000E+00 0. -1.
        -15    1    1    2    0    0 -0.10841207640E+02  0.14879890712E+02 -0.64956318934E+01  0.19603415350E+02  0.17770000000E+01 0.  1.
         15    1    1    2    0    0 -0.76511641731E+00 -0.31251106247E+02 -0.98033362573E+02  0.10291217105E+03  0.17770000000E+01 0. -1.
</event>
<event>
 6    1  0.3411206E-003  0.5045252E+03  0.7546771E-02  0.9389741E-01
        -11   -1    0    0    0    0  0.00000000000E+00  0.00000000000E+00  0.50000000000E+03  0.50000000000E+03  0.00000000000E+00 0. -1.
         11   -1    0    0    0    0 -0.00000000000E+00 -0.00000000000E+00 -0.50000000000E+03  0.50000000000E+03  0.00000000000E+00 0. -1.
        -11    1    1    2    0    0  0.12772153990E+02  0.59407292097E+01  0.41542653822E+03  0.41566528462E+03  0.00000000000E+00 0. -1.
         11    1    1    2    0    0  0.73418149738E+01 -0.57184074670E+00 -0.49542006303E+03  0.49547479058E+03  0.00000000000E+00 0. -1.
        -15    1    1    2    0    0 -0.21726264611E+02 -0.39008141784E+01  0.82296868185E+02  0.85224287426E+02  0.17770000000E+01 0. -1.
         15    1    1    2    0    0  0.16122956467E+01 -0.14680742846E+01 -0.23033433787E+01  0.36356373688E+01  0.17770000000E+01 0. -1.
</event>
<event>
 6    1  0.3411206E-003  0.5019245E+03  0.7546771E-02  0.9395514E-01
        -11   -1    0    0    0    0  0.00000000000E+00  0.00000000000E+00  0.50000000000E+03  0.50000000000E+03  0.00000000000E+00 0.  1.
         11   -1    0    0    0    0 -0.00000000000E+00 -0.00000000000E+00 -0.50000000000E+03  0.50000000000E+03  0.00000000000E+00 0.  1.
        -11    1    1    2    0    0 -0.10980780592E+02  0.72452443445E+01  0.49790168098E+03  0.49807545114E+03  0.00000000000E+00 0.  1.
         11    1    1    2    0    0  0.16710802511E+02 -0.12882643707E+02 -0.41964395064E+03  0.42017408147E+03  0.00000000000E+00 0.  1.
        -15    1    1    2    0    0 -0.10276689546E+02  0.11567363081E+02 -0.45058083865E+02  0.47673922508E+02  0.17770000000E+01 0. -1.
         15    1    1    2    0    0  0.45466676264E+01 -0.59299637185E+01 -0.33199646472E+02  0.34076544882E+02  0.17770000000E+01 0.  1.
</event>
<event>
 6    1  0.3411206E-003  0.5008152E+03  0.7546771E-02  0.9397987E-01
        -11   -1    0    0    0    0  0.00000000000E+00  0.00000000000E+00  0.50000000000E+03  0.50000000000E+03  0.00000000000E+00 0. -1.
         11   -1    0    0    0    0 -0.00000000000E+00 -0.00000000000E+00 -0.50000000000E+03  0.50000000000E+03  0.00000000000E+00 0. -1.
        -11    1    1    2    0    0 -0.66428767473E+01 -0.52917523219E+01  0.33109144375E+03  0.33120035414E+03  0.00000000000E+00 0. -1.
         11    1    1    2    0    0 -0.76383760830E+01  0.44592070834E+01 -0.49910638698E+03  0.49918475020E+03  0.00000000000E+00 0. -1.
        -15    1    1    2    0    0  0.13177085512E+02  0.71086826701E+01  0.14090695673E+03  0.14171131619E+03  0.17770000000E+01 0. -1.
         15    1    1    2    0    0  0.11041673188E+01 -0.62761374317E+01  0.27107986492E+02  0.27903579469E+02  0.17770000000E+01 0.  1.
</event>
<event>
 6    1  0.3411206E-003  0.5003723E+03  0.7546771E-02  0.9398977E-01
        -11   -1    0    0    0    0  0.00000000000E+00  0.00000000000E+00  0.50000000000E+03  0.50000000000E+03  0.00000000000E+00 0. -1.
         11   -1    0    0    0    0 -0.00000000000E+00 -0.00000000000E+00 -0.50000000000E+03  0.50000000000E+03  0.00000000000E+00 0. -1.
        -11    1    1    2    0    0  0.21142322338E+00  0.59710548852E+01  0.31371977815E+03  0.31377666803E+03  0.00000000000E+00 0. -1.
         11    1    1    2    0    0 -0.59715786137E+01  0.39950831673E+01 -0.49957606840E+03  0.49962772997E+03  0.00000000000E+00 0. -1.
        -15    1    1    2    0    0  0.34097226726E+01  0.95863410905E+00  0.22374774224E+02  0.22722971606E+02  0.17770000000E+01 0. -1.
         15    1    1    2    0    0  0.23504327177E+01 -0.10924772162E+02  0.16348151602E+03  0.16387263039E+03  0.17770000000E+01 0.  1.
</event>
<event>
 6    1  0.3411206E-003  0.5737035E+03  0.7546771E-02  0.9248492E-01
        -11   -1    0    0    0    0  0.00000000000E+00  0.00000000000E+00  0.50000000000E+03  0.50000000000E+03  0.00000000000E+00 0.  1.
         11   -1    0    0    0    0 -0.00000000000E+00 -0.00000000000E+00 -0.50000000000E+03  0.50000000000E+03  0.00000000000E+00 0.  1.
        -11    1    1    2    0    0  0.51236420986E+01  0.29606297631E+01  0.38681920350E+03  0.38686446365E+03  0.00000000000E+00 0.  1.
         11    1    1    2    0    0 -0.44156421014E+01  0.54722798195E+02 -0.42274647549E+03  0.42629645210E+03  0.00000000000E+00 0.  1.
        -15    1    1    2    0    0  0.75324568452E+01 -0.10152951687E+03 -0.30952737367E+02  0.10642466998E+03  0.17770000000E+01 0. -1.
         15    1    1    2    0    0 -0.82404568424E+01  0.43846088910E+02  0.66880009354E+02  0.80414414266E+02  0.17770000000E+01 0.  1.
</event>
<event>
 6    1  0.3411206E-003  0.5003172E+03  0.7546771E-02  0.9399100E-01
        -11   -1    0    0    0    0  0.00000000000E+00  0.00000000000E+00  0.50000000000E+03  0.50000000000E+03  0.00000000000E+00 0.  1.
         11   -1    0    0    0    0 -0.00000000000E+00 -0.00000000000E+00 -0.50000000000E+03  0.50000000000E+03  0.00000000000E+00 0.  1.
        -11    1    1    2    0    0  0.85302151369E+01 -0.12988038582E+01  0.49960834356E+03  0.49968284783E+03  0.00000000000E+00 0.  1.
         11    1    1    2    0    0 -0.45037388429E+01 -0.58005558115E+01 -0.12342173043E+03  0.12364001639E+03  0.00000000000E+00 0.  1.
        -15    1    1    2    0    0  0.59492888530E+01  0.65413322529E+01 -0.19062690539E+03  0.19084013690E+03  0.17770000000E+01 0.  1.
         15    1    1    2    0    0 -0.99757651470E+01  0.55802741678E+00 -0.18555970774E+03  0.18583699888E+03  0.17770000000E+01 0. -1.
</event>
<event>
 6    1  0.3411206E-003  0.5041460E+03  0.7546771E-02  0.9390580E-01
        -11   -1    0    0    0    0  0.00000000000E+00  0.00000000000E+00  0.50000000000E+03  0.50000000000E+03  0.00000000000E+00 0.  1.
         11   -1    0    0    0    0 -0.00000000000E+00 -0.00000000000E+00 -0.50000000000E+03  0.50000000000E+03  0.00000000000E+00 0.  1.
        -11    1    1    2    0    0 -0.32341916104E+01  0.21532432679E+02  0.49537566374E+03  0.49585396426E+03  0.00000000000E+00 0.  1.
         11    1    1    2    0    0 -0.53203859575E+01 -0.24953666607E+01 -0.40554896763E+03  0.40559154146E+03  0.00000000000E+00 0.  1.
        -15    1    1    2    0    0  0.16005944812E+02 -0.23823344833E+01 -0.17334975245E+02  0.23780767075E+02  0.17770000000E+01 0. -1.
         15    1    1    2    0    0 -0.74513672444E+01 -0.16654731535E+02 -0.72491720868E+02  0.74773727202E+02  0.17770000000E+01 0.  1.
</event>
<event>
 6    1  0.3411206E-003  0.5027935E+03  0.7546771E-02  0.9393581E-01
        -11   -1    0    0    0    0  0.00000000000E+00  0.00000000000E+00  0.50000000000E+03  0.50000000000E+03  0.00000000000E+00 0.  1.
         11   -1    0    0    0    0 -0.00000000000E+00 -0.00000000000E+00 -0.50000000000E+03  0.50000000000E+03  0.00000000000E+00 0. -1.
        -11    1    1    2    0    0  0.69308433836E+01 -0.16826891905E+01  0.49715530371E+03  0.49720646018E+03  0.00000000000E+00 0.  1.
         11    1    1    2    0    0 -0.61459969659E+01  0.31843566994E+01 -0.47342425014E+03  0.47347485047E+03  0.00000000000E+00 0. -1.
        -15    1    1    2    0    0 -0.20750460771E+00 -0.45729161592E+01  0.39497815360E+00  0.49262924297E+01  0.17770000000E+01 0. -1.
         15    1    1    2    0    0 -0.57734180995E+00  0.30712486504E+01 -0.24126031728E+02  0.24392396926E+02  0.17770000000E+01 0.  1.
</event>
<event>
 6    1  0.3411206E-003  0.4679221E+03  0.7546771E-02  0.9474593E-01
        -11   -1    0    0    0    0  0.00000000000E+00  0.00000000000E+00  0.50000000000E+03  0.50000000000E+03  0.00000000000E+00 0.  1.
         11   -1    0    0    0    0 -0.00000000000E+00 -0.00000000000E+00 -0.50000000000E+03  0.50000000000E+03  0.00000000000E+00 0.  1.
        -11    1    1    2    0    0  0.28143193380E+02  0.14196236963E+02  0.46616258278E+03  0.46722706050E+03  0.00000000000E+00 0.  1.
         11    1    1    2    0    0  0.72106780311E+01 -0.11791425438E+01 -0.46932362592E+03  0.46938049609E+03  0.00000000000E+00 0.  1.
        -15    1    1    2    0    0 -0.17163424148E+02 -0.12572681611E+02  0.26317708288E+02  0.33888566655E+02  0.17770000000E+01 0. -1.
         15    1    1    2    0    0 -0.18190447263E+02 -0.44441280787E+00 -0.23156665144E+02  0.29503876762E+02  0.17770000000E+01 0.  1.
</event>
<event>
 6    1  0.3411206E-003  0.5037087E+03  0.7546771E-02  0.9391549E-01
        -11   -1    0    0    0    0  0.00000000000E+00  0.00000000000E+00  0.50000000000E+03  0.50000000000E+03  0.00000000000E+00 0.  1.
         11   -1    0    0    0    0 -0.00000000000E+00 -0.00000000000E+00 -0.50000000000E+03  0.50000000000E+03  0.00000000000E+00 0. -1.
        -11    1    1    2    0    0 -0.59535098903E+01 -0.48937911886E+01  0.49623148619E+03  0.49629132710E+03  0.00000000000E+00 0.  1.
         11    1    1    2    0    0 -0.31357708300E+01 -0.70639124963E+01 -0.43973895380E+03  0.43980686603E+03  0.00000000000E+00 0. -1.
        -15    1    1    2    0    0  0.38037391227E+01  0.36744374106E+01  0.89630051248E+00  0.56507526230E+01  0.17770000000E+01 0. -1.
         15    1    1    2    0    0  0.52855415977E+01  0.82832662742E+01 -0.57388832899E+02  0.58251054245E+02  0.17770000000E+01 0.  1.
</event>
<event>
 6    1  0.3411206E-003  0.5015766E+03  0.7546771E-02  0.9396289E-01
        -11   -1    0    0    0    0  0.00000000000E+00  0.00000000000E+00  0.50000000000E+03  0.50000000000E+03  0.00000000000E+00 0. -1.
         11   -1    0    0    0    0 -0.00000000000E+00 -0.00000000000E+00 -0.50000000000E+03  0.50000000000E+03  0.00000000000E+00 0.  1.
        -11    1    1    2    0    0 -0.10752428711E+01  0.81200350063E+01  0.49835606287E+03  0.49842337076E+03  0.00000000000E+00 0. -1.
         11    1    1    2    0    0  0.93641585346E+00 -0.98966461215E+01 -0.35215480552E+03  0.35229508587E+03  0.00000000000E+00 0.  1.
        -15    1    1    2    0    0  0.11350499914E+02  0.29501151931E+01 -0.12142943127E+03  0.12200738312E+03  0.17770000000E+01 0.  1.
         15    1    1    2    0    0 -0.11211672896E+02 -0.11735040779E+01 -0.24771826086E+02  0.27274160255E+02  0.17770000000E+01 0. -1.
</event>
<event>
 6    1  0.3411206E-003  0.5004262E+03  0.7546771E-02  0.9398857E-01
        -11   -1    0    0    0    0  0.00000000000E+00  0.00000000000E+00  0.50000000000E+03  0.50000000000E+03  0.00000000000E+00 0.  1.
         11   -1    0    0    0    0 -0.00000000000E+00 -0.00000000000E+00 -0.50000000000E+03  0.50000000000E+03  0.00000000000E+00 0.  1.
        -11    1    1    2    0    0 -0.57393660789E+01 -0.26905306351E+01  0.36049361914E+03  0.36054934298E+03  0.00000000000E+00 0.  1.
         11    1    1    2    0    0  0.13294856865E+02 -0.69935131258E+01 -0.49934788447E+03  0.49957379051E+03  0.00000000000E+00 0.  1.
        -15    1    1    2    0    0 -0.55882500669E+01  0.17115618895E+00  0.29503648532E+02  0.30081237324E+02  0.17770000000E+01 0.  1.
         15    1    1    2    0    0 -0.19672407196E+01  0.95128875719E+01  0.10935061679E+03  0.10979562919E+03  0.17770000000E+01 0. -1.
</event>
<event>
 6    1  0.3411206E-003  0.5013970E+03  0.7546771E-02  0.9396689E-01
        -11   -1    0    0    0    0  0.00000000000E+00  0.00000000000E+00  0.50000000000E+03  0.50000000000E+03  0.00000000000E+00 0. -1.
         11   -1    0    0    0    0 -0.00000000000E+00 -0.00000000000E+00 -0.50000000000E+03  0.50000000000E+03  0.00000000000E+00 0.  1.
        -11    1    1    2    0    0  0.14559653736E+02 -0.50594145903E+01  0.21079284436E+03  0.21135563495E+03  0.00000000000E+00 0. -1.
         11    1    1    2    0    0 -0.68513254431E+00  0.39455053100E+02 -0.49703900246E+03  0.49860298895E+03  0.00000000000E+00 0.  1.
        -15    1    1    2    0    0 -0.20213627673E+02 -0.16953392757E+02  0.20413163449E+03  0.20583704768E+03  0.17770000000E+01 0. -1.
         15    1    1    2    0    0  0.63391064815E+01 -0.17442245753E+02  0.82114523611E+02  0.84204328420E+02  0.17770000000E+01 0.  1.
</event>
<event>
 6    1  0.3411206E-003  0.5017105E+03  0.7546771E-02  0.9395990E-01
        -11   -1    0    0    0    0  0.00000000000E+00  0.00000000000E+00  0.50000000000E+03  0.50000000000E+03  0.00000000000E+00 0. -1.
         11   -1    0    0    0    0 -0.00000000000E+00 -0.00000000000E+00 -0.50000000000E+03  0.50000000000E+03  0.00000000000E+00 0. -1.
        -11    1    1    2    0    0  0.84455029246E+01 -0.38618064913E+01  0.49820294775E+03  0.49828949138E+03  0.00000000000E+00 0. -1.
         11    1    1    2    0    0 -0.27822946809E+01  0.15806436636E+02 -0.42417018344E+03  0.42447370840E+03  0.00000000000E+00 0. -1.
        -15    1    1    2    0    0 -0.50692596669E+01 -0.16352603934E+02 -0.59001555265E+02  0.61460933134E+02  0.17770000000E+01 0.  1.
         15    1    1    2    0    0 -0.59394857674E+00  0.44079737893E+01 -0.15031209046E+02  0.15775867083E+02  0.17770000000E+01 0. -1.
</event>
<event>
 6    1  0.3411206E-003  0.5016463E+03  0.7546771E-02  0.9396133E-01
        -11   -1    0    0    0    0  0.00000000000E+00  0.00000000000E+00  0.50000000000E+03  0.50000000000E+03  0.00000000000E+00 0. -1.
         11   -1    0    0    0    0 -0.00000000000E+00 -0.00000000000E+00 -0.50000000000E+03  0.50000000000E+03  0.00000000000E+00 0.  1.
        -11    1    1    2    0    0 -0.65996862269E+01 -0.13639717951E+02  0.49812327014E+03  0.49835367964E+03  0.00000000000E+00 0. -1.
         11    1    1    2    0    0  0.54946859249E+00 -0.96509089026E+01 -0.35544109014E+03  0.35557251092E+03  0.00000000000E+00 0.  1.
        -15    1    1    2    0    0 -0.95227703812E+00  0.24759586190E+01 -0.71235706768E+02  0.71307228598E+02  0.17770000000E+01 0.  1.
         15    1    1    2    0    0  0.70024946725E+01  0.20814668234E+02 -0.71446473222E+02  0.74766580838E+02  0.17770000000E+01 0. -1.
</event>
<event>
 6    1  0.3411206E-003  0.5016571E+03  0.7546771E-02  0.9396109E-01
        -11   -1    0    0    0    0  0.00000000000E+00  0.00000000000E+00  0.50000000000E+03  0.50000000000E+03  0.00000000000E+00 0. -1.
         11   -1    0    0    0    0 -0.00000000000E+00 -0.00000000000E+00 -0.50000000000E+03  0.50000000000E+03  0.00000000000E+00 0. -1.
        -11    1    1    2    0    0  0.26609700255E+01 -0.97164855554E+01  0.49824106092E+03  0.49834289965E+03  0.00000000000E+00 0. -1.
         11    1    1    2    0    0 -0.15156209835E+01  0.62831120433E+01 -0.46601804170E+03  0.46606286034E+03  0.00000000000E+00 0. -1.
        -15    1    1    2    0    0  0.15326196836E+01  0.74763990745E+01 -0.96145711779E+01  0.12403353343E+02  0.17770000000E+01 0. -1.
         15    1    1    2    0    0 -0.26779687256E+01 -0.40430255624E+01 -0.22608448043E+02  0.23190886661E+02  0.17770000000E+01 0.  1.
</event>
<event>
 6    1  0.3411206E-003  0.5003845E+03  0.7546771E-02  0.9398950E-01
        -11   -1    0    0    0    0  0.00000000000E+00  0.00000000000E+00  0.50000000000E+03  0.50000000000E+03  0.00000000000E+00 0. -1.
         11   -1    0    0    0    0 -0.00000000000E+00 -0.00000000000E+00 -0.50000000000E+03  0.50000000000E+03  0.00000000000E+00 0. -1.
        -11    1    1    2    0    0 -0.56805094681E+01 -0.25051791213E+01  0.36092750033E+03  0.36098089230E+03  0.00000000000E+00 0. -1.
         11    1    1    2    0    0 -0.42942684484E+01  0.55671857912E+01 -0.49956606260E+03  0.49961553739E+03  0.00000000000E+00 0. -1.
        -15    1    1    2    0    0  0.75724472591E+01 -0.24573981678E+01  0.46189060532E+02  0.46903814397E+02  0.17770000000E+01 0.  1.
         15    1    1    2    0    0  0.24023306574E+01 -0.60460850215E+00  0.92449501739E+02  0.92499755918E+02  0.17770000000E+01 0. -1.
</event>
<event>
 6    1  0.3411206E-003  0.5006158E+03  0.7546771E-02  0.9398433E-01
        -11   -1    0    0    0    0  0.00000000000E+00  0.00000000000E+00  0.50000000000E+03  0.50000000000E+03  0.00000000000E+00 0.  1.
         11   -1    0    0    0    0 -0.00000000000E+00 -0.00000000000E+00 -0.50000000000E+03  0.50000000000E+03  0.00000000000E+00 0.  1.
        -11    1    1    2    0    0 -0.49482782785E+01 -0.42806539688E+01  0.24282455058E+03  0.24291268353E+03  0.00000000000E+00 0.  1.
         11    1    1    2    0    0  0.68471222625E+01 -0.54254948491E+01 -0.49930773307E+03  0.49938415211E+03  0.00000000000E+00 0.  1.
        -15    1    1    2    0    0  0.18797830840E+01  0.10581925949E+02  0.24769154296E+03  0.24793097613E+03  0.17770000000E+01 0. -1.
         15    1    1    2    0    0 -0.37786270680E+01 -0.87577713139E+00  0.87916395339E+01  0.97721882297E+01  0.17770000000E+01 0.  1.
</event>
<event>
 6    1  0.3411206E-003  0.4594210E+03  0.7546771E-02  0.9495486E-01
        -11   -1    0    0    0    0  0.00000000000E+00  0.00000000000E+00  0.50000000000E+03  0.50000000000E+03  0.00000000000E+00 0. -1.
         11   -1    0    0    0    0 -0.00000000000E+00 -0.00000000000E+00 -0.50000000000E+03  0.50000000000E+03  0.00000000000E+00 0. -1.
        -11    1    1    2    0    0 -0.32642922124E+01 -0.13692411312E+02  0.45372806710E+03  0.45394635873E+03  0.00000000000E+00 0. -1.
         11    1    1    2    0    0 -0.29785622146E+02  0.23925060851E+01 -0.46466456977E+03  0.46562438700E+03  0.00000000000E+00 0. -1.
        -15    1    1    2    0    0  0.24925454717E+02  0.12536691347E+02 -0.28608293174E+02  0.40000488623E+02  0.17770000000E+01 0. -1.
         15    1    1    2    0    0  0.81244596419E+01 -0.12367861205E+01  0.39544795846E+02  0.40428765649E+02  0.17770000000E+01 0.  1.
</event>
<event>
 6    1  0.3411206E-003  0.5067095E+03  0.7546771E-02  0.9384921E-01
        -11   -1    0    0    0    0  0.00000000000E+00  0.00000000000E+00  0.50000000000E+03  0.50000000000E+03  0.00000000000E+00 0.  1.
         11   -1    0    0    0    0 -0.00000000000E+00 -0.00000000000E+00 -0.50000000000E+03  0.50000000000E+03  0.00000000000E+00 0.  1.
        -11    1    1    2    0    0 -0.11699444457E+02  0.22562283461E+02  0.90826519652E+02  0.94315376836E+02  0.00000000000E+00 0.  1.
         11    1    1    2    0    0 -0.58001074793E+00 -0.29315764471E+02 -0.49241826012E+03  0.49329047564E+03  0.00000000000E+00 0.  1.
        -15    1    1    2    0    0  0.15347999048E+02  0.40197834995E+02  0.33534885619E+03  0.33810270642E+03  0.17770000000E+01 0.  1.
         15    1    1    2    0    0 -0.30685438427E+01 -0.33444353984E+02  0.66242884278E+02  0.74291441103E+02  0.17770000000E+01 0. -1.
</event>
<event>
 6    1  0.3411206E-003  0.5282947E+03  0.7546771E-02  0.9338633E-01
        -11   -1    0    0    0    0  0.00000000000E+00  0.00000000000E+00  0.50000000000E+03  0.50000000000E+03  0.00000000000E+00 0. -1.
         11   -1    0    0    0    0 -0.00000000000E+00 -0.00000000000E+00 -0.50000000000E+03  0.50000000000E+03  0.00000000000E+00 0.  1.
        -11    1    1    2    0    0 -0.24326760536E+02  0.50317824610E+01  0.43881540229E+03  0.43951799440E+03  0.00000000000E+00 0. -1.
         11    1    1    2    0    0 -0.93970801434E+01  0.11253391460E+02 -0.47147740566E+03  0.47170529781E+03  0.00000000000E+00 0.  1.
        -15    1    1    2    0    0  0.31945405775E+01 -0.12320243680E+02 -0.22309803742E+02  0.25746428216E+02  0.17770000000E+01 0.  1.
         15    1    1    2    0    0  0.30529300102E+02 -0.39649302410E+01  0.54971807111E+02  0.63030279570E+02  0.17770000000E+01 0. -1.
</event>
<event>
 6    1  0.3411206E-003  0.5002132E+03  0.7546771E-02  0.9399333E-01
        -11   -1    0    0    0    0  0.00000000000E+00  0.00000000000E+00  0.50000000000E+03  0.50000000000E+03  0.00000000000E+00 0. -1.
         11   -1    0    0    0    0 -0.00000000000E+00 -0.00000000000E+00 -0.50000000000E+03  0.50000000000E+03  0.00000000000E+00 0.  1.
        -11    1    1    2    0    0  0.84000910399E+01 -0.11351573560E+01  0.49971488513E+03  0.49978677107E+03  0.00000000000E+00 0. -1.
         11    1    1    2    0    0  0.70189129703E+00  0.14355943537E+01 -0.93558289664E+02  0.93571935683E+02  0.00000000000E+00 0.  1.
        -15    1    1    2    0    0  0.41227909727E+01  0.34356329715E+01 -0.86529979896E+02  0.86714451674E+02  0.17770000000E+01 0. -1.
         15    1    1    2    0    0 -0.13224773310E+02 -0.37360699692E+01 -0.31962661557E+03  0.31992684157E+03  0.17770000000E+01 0.  1.
</event>
<event>
 6    1  0.3411206E-003  0.5015590E+03  0.7546771E-02  0.9396328E-01
        -11   -1    0    0    0    0  0.00000000000E+00  0.00000000000E+00  0.50000000000E+03  0.50000000000E+03  0.00000000000E+00 0. -1.
         11   -1    0    0    0    0 -0.00000000000E+00 -0.00000000000E+00 -0.50000000000E+03  0.50000000000E+03  0.00000000000E+00 0.  1.
        -11    1    1    2    0    0 -0.53433863903E+01 -0.25071776678E+01  0.42877850372E+03  0.42881912617E+03  0.00000000000E+00 0. -1.
         11    1    1    2    0    0 -0.11128915263E+02 -0.58623622812E+01 -0.49828229271E+03  0.49844103290E+03  0.00000000000E+00 0.  1.
        -15    1    1    2    0    0 -0.61779098028E+00 -0.72092387177E+00  0.62975681750E+01  0.66119959803E+01  0.17770000000E+01 0. -1.
         15    1    1    2    0    0  0.17090092633E+02  0.90904638208E+01  0.63206220821E+02  0.66127844953E+02  0.17770000000E+01 0. -1.
</event>
<event>
 6    1  0.3411206E-003  0.5166040E+03  0.7546771E-02  0.9363405E-01
        -11   -1    0    0    0    0  0.00000000000E+00  0.00000000000E+00  0.50000000000E+03  0.50000000000E+03  0.00000000000E+00 0.  1.
         11   -1    0    0    0    0 -0.00000000000E+00 -0.00000000000E+00 -0.50000000000E+03  0.50000000000E+03  0.00000000000E+00 0.  1.
        -11    1    1    2    0    0  0.91502985446E+01  0.46096024942E+01  0.48328745551E+03  0.48339604990E+03  0.00000000000E+00 0.  1.
         11    1    1    2    0    0 -0.33336462990E+02 -0.12097116368E+02 -0.43543377830E+03  0.43687553751E+03  0.00000000000E+00 0.  1.
        -15    1    1    2    0    0  0.42441610204E+02  0.87116885821E+01 -0.42171205926E+02  0.60487619667E+02  0.17770000000E+01 0. -1.
         15    1    1    2    0    0 -0.18255445758E+02 -0.12241747084E+01 -0.56824712847E+01  0.19240792927E+02  0.17770000000E+01 0.  1.
</event>
<event>
 6    1  0.3411206E-003  0.4850580E+03  0.7546771E-02  0.9433878E-01
        -11   -1    0    0    0    0  0.00000000000E+00  0.00000000000E+00  0.50000000000E+03  0.50000000000E+03  0.00000000000E+00 0. -1.
         11   -1    0    0    0    0 -0.00000000000E+00 -0.00000000000E+00 -0.50000000000E+03  0.50000000000E+03  0.00000000000E+00 0. -1.
        -11    1    1    2    0    0  0.82458518963E+00  0.18635682407E+02  0.48045146777E+03  0.48081345809E+03  0.00000000000E+00 0. -1.
         11    1    1    2    0    0  0.81517679158E+01 -0.13089605942E+01 -0.48947115921E+03  0.48954078522E+03  0.00000000000E+00 0. -1.
        -15    1    1    2    0    0  0.69126355529E+00 -0.69737367843E+01 -0.56504375673E+01  0.91758391301E+01  0.17770000000E+01 0. -1.
         15    1    1    2    0    0 -0.96676166608E+01 -0.10352985029E+02  0.14670129000E+02  0.20469917557E+02  0.17770000000E+01 0.  1.
</event>
<event>
 6    1  0.3411206E-003  0.5108795E+03  0.7546771E-02  0.9375790E-01
        -11   -1    0    0    0    0  0.00000000000E+00  0.00000000000E+00  0.50000000000E+03  0.50000000000E+03  0.00000000000E+00 0.  1.
         11   -1    0    0    0    0 -0.00000000000E+00 -0.00000000000E+00 -0.50000000000E+03  0.50000000000E+03  0.00000000000E+00 0. -1.
        -11    1    1    2    0    0  0.75231156043E+01  0.83911712366E+01  0.48899062376E+03  0.48912047509E+03  0.00000000000E+00 0.  1.
         11    1    1    2    0    0  0.25705303255E+02 -0.37729029058E+02 -0.38418261467E+03  0.38688567260E+03  0.00000000000E+00 0. -1.
        -15    1    1    2    0    0 -0.10542665357E+02  0.41929958905E+01  0.22416732270E+01  0.11700933092E+02  0.17770000000E+01 0.  1.
         15    1    1    2    0    0 -0.22685753503E+02  0.25144861931E+02 -0.10704968232E+03  0.11229291922E+03  0.17770000000E+01 0. -1.
</event>
<event>
 6    1  0.3411206E-003  0.5072740E+03  0.7546771E-02  0.9383679E-01
        -11   -1    0    0    0    0  0.00000000000E+00  0.00000000000E+00  0.50000000000E+03  0.50000000000E+03  0.00000000000E+00 0.  1.
         11   -1    0    0    0    0 -0.00000000000E+00 -0.00000000000E+00 -0.50000000000E+03  0.50000000000E+03  0.00000000000E+00 0. -1.
        -11    1    1    2    0    0 -0.14848598132E+02 -0.18928704058E+02  0.49213837218E+03  0.49272604363E+03  0.00000000000E+00 0.  1.
         11    1    1    2    0    0 -0.95062488046E+01  0.23301674551E+01 -0.45360785200E+03  0.45371343582E+03  0.00000000000E+00 0. -1.
        -15    1    1    2    0    0  0.26185459767E+01 -0.14078247624E+00  0.25929857361E+01  0.40936422371E+01  0.17770000000E+01 0. -1.
         15    1    1    2    0    0  0.21736300960E+02  0.16739319079E+02 -0.41123505915E+02  0.49466878316E+02  0.17770000000E+01 0.  1.
</event>
<event>
 6    1  0.3411206E-003  0.4205522E+03  0.7546771E-02  0.9597552E-01
        -11   -1    0    0    0    0  0.00000000000E+00  0.00000000000E+00  0.50000000000E+03  0.50000000000E+03  0.00000000000E+00 0. -1.
         11   -1    0    0    0    0 -0.00000000000E+00 -0.00000000000E+00 -0.50000000000E+03  0.50000000000E+03  0.00000000000E+00 0.  1.
        -11    1    1    2    0    0  0.43811396612E+02 -0.21205872239E+02  0.40838129835E+03  0.41127170136E+03  0.00000000000E+00 0. -1.
         11    1    1    2    0    0  0.50754236572E+01  0.61265065950E+01 -0.43163468219E+03  0.43170799492E+03  0.00000000000E+00 0.  1.
        -15    1    1    2    0    0 -0.43837451448E+02  0.15520775959E+02 -0.58689555460E+02  0.74901523916E+02  0.17770000000E+01 0. -1.
         15    1    1    2    0    0 -0.50493688214E+01 -0.44141031515E+00  0.81942939293E+02  0.82118779811E+02  0.17770000000E+01 0.  1.
</event>
<event>
 6    1  0.3411206E-003  0.5139030E+03  0.7546771E-02  0.9369227E-01
        -11   -1    0    0    0    0  0.00000000000E+00  0.00000000000E+00  0.50000000000E+03  0.50000000000E+03  0.00000000000E+00 0. -1.
         11   -1    0    0    0    0 -0.00000000000E+00 -0.00000000000E+00 -0.50000000000E+03  0.50000000000E+03  0.00000000000E+00 0.  1.
        -11    1    1    2    0    0  0.50534093881E+01  0.73732512337E+01  0.44261712845E+03  0.44270737986E+03  0.00000000000E+00 0. -1.
         11    1    1    2    0    0  0.17656699438E+02  0.13544620234E+02 -0.48558737379E+03  0.48609702052E+03  0.00000000000E+00 0.  1.
        -15    1    1    2    0    0 -0.33674963261E+02 -0.87193668498E+01  0.42147088308E+02  0.54676917348E+02  0.17770000000E+01 0. -1.
         15    1    1    2    0    0  0.10964854435E+02 -0.12198504618E+02  0.82315702764E+00  0.16518682277E+02  0.17770000000E+01 0.  1.
</event>
<event>
 6    1  0.3411206E-003  0.5095899E+03  0.7546771E-02  0.9378604E-01
        -11   -1    0    0    0    0  0.00000000000E+00  0.00000000000E+00  0.50000000000E+03  0.50000000000E+03  0.00000000000E+00 0. -1.
         11   -1    0    0    0    0 -0.00000000000E+00 -0.00000000000E+00 -0.50000000000E+03  0.50000000000E+03  0.00000000000E+00 0.  1.
        -11    1    1    2    0    0  0.56122624273E+01 -0.36979259885E+01  0.49036401982E+03  0.49041007746E+03  0.00000000000E+00 0. -1.
         11    1    1    2    0    0 -0.15280730279E+02  0.54282781155E+01 -0.44881261832E+03  0.44910548125E+03  0.00000000000E+00 0.  1.
        -15    1    1    2    0    0  0.12306867782E+02 -0.10356870728E+02 -0.47061040146E+02  0.49765680891E+02  0.17770000000E+01 0.  1.
         15    1    1    2    0    0 -0.26383999303E+01  0.86265186007E+01  0.55096386519E+01  0.10718760396E+02  0.17770000000E+01 0. -1.
</event>
<event>
 6    1  0.3411206E-003  0.5143831E+03  0.7546771E-02  0.9368189E-01
        -11   -1    0    0    0    0  0.00000000000E+00  0.00000000000E+00  0.50000000000E+03  0.50000000000E+03  0.00000000000E+00 0. -1.
         11   -1    0    0    0    0 -0.00000000000E+00 -0.00000000000E+00 -0.50000000000E+03  0.50000000000E+03  0.00000000000E+00 0. -1.
        -11    1    1    2    0    0 -0.57500787207E+01  0.20026911662E+02  0.45313180742E+03  0.45361059896E+03  0.00000000000E+00 0. -1.
         11    1    1    2    0    0 -0.39337861189E+01  0.74813856603E+01 -0.48554331534E+03  0.48561688281E+03  0.00000000000E+00 0. -1.
        -15    1    1    2    0    0  0.48108735151E+00 -0.23470073036E+02  0.41102840963E+02  0.47367468136E+02  0.17770000000E+01 0.  1.
         15    1    1    2    0    0  0.92027774881E+01 -0.40382242860E+01 -0.86913330425E+01  0.13405050091E+02  0.17770000000E+01 0. -1.
</event>
<event>
 6    1  0.3411206E-003  0.5083479E+03  0.7546771E-02  0.9381322E-01
        -11   -1    0    0    0    0  0.00000000000E+00  0.00000000000E+00  0.50000000000E+03  0.50000000000E+03  0.00000000000E+00 0. -1.
         11   -1    0    0    0    0 -0.00000000000E+00 -0.00000000000E+00 -0.50000000000E+03  0.50000000000E+03  0.00000000000E+00 0. -1.
        -11    1    1    2    0    0  0.17995820811E+01 -0.12994260781E+02  0.47310845865E+03  0.47329029459E+03  0.00000000000E+00 0. -1.
         11    1    1    2    0    0 -0.12379954991E+02  0.16061347611E+02 -0.49123375426E+03  0.49165214481E+03  0.00000000000E+00 0. -1.
        -15    1    1    2    0    0 -0.52352294258E+01  0.86024306801E+01  0.52587122228E+01  0.11498748801E+02  0.17770000000E+01 0. -1.
         15    1    1    2    0    0  0.15815602335E+02 -0.11669517510E+02  0.12866583386E+02  0.23558811795E+02  0.17770000000E+01 0.  1.
</event>
<event>
 6    1  0.3411206E-003  0.5010298E+03  0.7546771E-02  0.9397508E-01
        -11   -1    0    0    0    0  0.00000000000E+00  0.00000000000E+00  0.50000000000E+03  0.50000000000E+03  0.00000000000E+00 0. -1.
         11   -1    0    0    0    0 -0.00000000000E+00 -0.00000000000E+00 -0.50000000000E+03  0.50000000000E+03  0.00000000000E+00 0. -1.
        -11    1    1    2    0    0  0.71122609075E+01  0.34349079504E+01  0.44269662325E+03  0.44276707543E+03  0.00000000000E+00 0. -1.
         11    1    1    2    0    0 -0.73330421302E+01 -0.34457274588E+01 -0.49890445412E+03  0.49897024048E+03  0.00000000000E+00 0. -1.
        -15    1    1    2    0    0 -0.46854451635E+01 -0.36603800927E+01  0.44488125744E+02  0.44918847269E+02  0.17770000000E+01 0. -1.
         15    1    1    2    0    0  0.49062263863E+01  0.36711996012E+01  0.11719705128E+02  0.13343836822E+02  0.17770000000E+01 0.  1.
</event>
<event>
 6    1  0.3411206E-003  0.5344871E+03  0.7546771E-02  0.9325786E-01
        -11   -1    0    0    0    0  0.00000000000E+00  0.00000000000E+00  0.50000000000E+03  0.50000000000E+03  0.00000000000E+00 0. -1.
         11   -1    0    0    0    0 -0.00000000000E+00 -0.00000000000E+00 -0.50000000000E+03  0.50000000000E+03  0.00000000000E+00 0. -1.
        -11    1    1    2    0    0  0.63098657856E+02  0.28867598619E+02  0.28467152730E+03  0.29300624111E+03  0.00000000000E+00 0. -1.
         11    1    1    2    0    0 -0.37959928753E+02 -0.18493593034E+02 -0.46359392567E+03  0.46551293977E+03  0.00000000000E+00 0. -1.
        -15    1    1    2    0    0  0.57398637490E+02 -0.14565105521E+01  0.17664151656E+02  0.60099126378E+02  0.17770000000E+01 0.  1.
         15    1    1    2    0    0 -0.82537366593E+02 -0.89174950328E+01  0.16125824672E+03  0.18138169275E+03  0.17770000000E+01 0. -1.
</event>
<event>
 6    1  0.3411206E-003  0.5065035E+03  0.7546771E-02  0.9385374E-01
        -11   -1    0    0    0    0  0.00000000000E+00  0.00000000000E+00  0.50000000000E+03  0.50000000000E+03  0.00000000000E+00 0. -1.
         11   -1    0    0    0    0 -0.00000000000E+00 -0.00000000000E+00 -0.50000000000E+03  0.50000000000E+03  0.00000000000E+00 0.  1.
        -11    1    1    2    0    0 -0.89055032704E+01 -0.90191929473E+01  0.46422695169E+03  0.46439995317E+03  0.00000000000E+00 0. -1.
         11    1    1    2    0    0 -0.11220984994E+02 -0.30974563196E+01 -0.49335922936E+03  0.49349653893E+03  0.00000000000E+00 0.  1.
        -15    1    1    2    0    0  0.19282019994E+02  0.58811853394E+01  0.29244814462E+02  0.35564048391E+02  0.17770000000E+01 0. -1.
         15    1    1    2    0    0  0.84446827056E+00  0.62354639274E+01 -0.11253678954E+00  0.65394595021E+01  0.17770000000E+01 0.  1.
</event>
<event>
 6    1  0.3411206E-003  0.5135750E+03  0.7546771E-02  0.9369937E-01
        -11   -1    0    0    0    0  0.00000000000E+00  0.00000000000E+00  0.50000000000E+03  0.50000000000E+03  0.00000000000E+00 0.  1.
         11   -1    0    0    0    0 -0.00000000000E+00 -0.00000000000E+00 -0.50000000000E+03  0.50000000000E+03  0.00000000000E+00 0.  1.
        -11    1    1    2    0    0 -0.12059328931E+01  0.68085079213E+01  0.48637584040E+03  0.48642498721E+03  0.00000000000E+00 0.  1.
         11    1    1    2    0    0  0.16367966930E+01 -0.23283288103E+02 -0.38778556141E+03  0.38848736433E+03  0.00000000000E+00 0.  1.
        -15    1    1    2    0    0 -0.13613209868E+02  0.37402136688E+02 -0.90701008361E+02  0.99065987899E+02  0.17770000000E+01 0. -1.
         15    1    1    2    0    0  0.13182346068E+02 -0.20927356506E+02 -0.78892706315E+01  0.26021660560E+02  0.17770000000E+01 0.  1.
</event>
<event>
 6    1  0.3411206E-003  0.5036013E+03  0.7546771E-02  0.9391787E-01
        -11   -1    0    0    0    0  0.00000000000E+00  0.00000000000E+00  0.50000000000E+03  0.50000000000E+03  0.00000000000E+00 0. -1.
         11   -1    0    0    0    0 -0.00000000000E+00 -0.00000000000E+00 -0.50000000000E+03  0.50000000000E+03  0.00000000000E+00 0. -1.
        -11    1    1    2    0    0 -0.19216722772E+01  0.87065008881E+01  0.49631865839E+03  0.49639873755E+03  0.00000000000E+00 0. -1.
         11    1    1    2    0    0  0.10799643973E+02  0.16719800375E+01 -0.45134631173E+03  0.45147859411E+03  0.00000000000E+00 0. -1.
        -15    1    1    2    0    0 -0.14756918792E+02 -0.10633038789E+02 -0.23395340202E+02  0.29687166222E+02  0.17770000000E+01 0.  1.
         15    1    1    2    0    0  0.58789470962E+01  0.25455786327E+00 -0.21577006453E+02  0.22435502114E+02  0.17770000000E+01 0. -1.
</event>
<event>
 6    1  0.3411206E-003  0.5021268E+03  0.7546771E-02  0.9395063E-01
        -11   -1    0    0    0    0  0.00000000000E+00  0.00000000000E+00  0.50000000000E+03  0.50000000000E+03  0.00000000000E+00 0. -1.
         11   -1    0    0    0    0 -0.00000000000E+00 -0.00000000000E+00 -0.50000000000E+03  0.50000000000E+03  0.00000000000E+00 0.  1.
        -11    1    1    2    0    0 -0.40118703016E+01  0.30805348082E+01  0.36470498817E+03  0.36474006250E+03  0.00000000000E+00 0. -1.
         11    1    1    2    0    0 -0.11710552297E+02  0.13527988957E+01 -0.49773363053E+03  0.49787321083E+03  0.00000000000E+00 0.  1.
        -15    1    1    2    0    0  0.19702505939E+02  0.78189937871E+01  0.78804660288E+02  0.81625104081E+02  0.17770000000E+01 0.  1.
         15    1    1    2    0    0 -0.39800833409E+01 -0.12252327491E+02  0.54223982076E+02  0.55761622587E+02  0.17770000000E+01 0. -1.
</event>
<event>
 6    1  0.3411206E-003  0.5240782E+03  0.7546771E-02  0.9347488E-01
        -11   -1    0    0    0    0  0.00000000000E+00  0.00000000000E+00  0.50000000000E+03  0.50000000000E+03  0.00000000000E+00 0.  1.
         11   -1    0    0    0    0 -0.00000000000E+00 -0.00000000000E+00 -0.50000000000E+03  0.50000000000E+03  0.00000000000E+00 0.  1.
        -11    1    1    2    0    0 -0.51256798076E+02  0.38887139066E+02  0.47155282481E+03  0.47592177458E+03  0.00000000000E+00 0.  1.
         11    1    1    2    0    0  0.47589493271E+01  0.17260387678E+02 -0.31100222552E+03  0.31151717908E+03  0.00000000000E+00 0.  1.
        -15    1    1    2    0    0  0.19715705953E+02  0.76658936564E+01  0.13561884204E+02  0.25190423159E+02  0.17770000000E+01 0.  1.
         15    1    1    2    0    0  0.26782142796E+02 -0.63813420400E+02 -0.17411248349E+03  0.18737062318E+03  0.17770000000E+01 0. -1.
</event>
<event>
 6    1  0.3411206E-003  0.5002239E+03  0.7546771E-02  0.9399309E-01
        -11   -1    0    0    0    0  0.00000000000E+00  0.00000000000E+00  0.50000000000E+03  0.50000000000E+03  0.00000000000E+00 0.  1.
         11   -1    0    0    0    0 -0.00000000000E+00 -0.00000000000E+00 -0.50000000000E+03  0.50000000000E+03  0.00000000000E+00 0. -1.
        -11    1    1    2    0    0  0.27289056671E+00 -0.35853874262E+01  0.20914907377E+03  0.20917998119E+03  0.00000000000E+00 0.  1.
         11    1    1    2    0    0 -0.25881843563E+01 -0.86505470948E+01 -0.49969449479E+03  0.49977606864E+03  0.00000000000E+00 0. -1.
        -15    1    1    2    0    0 -0.95171629557E-01  0.10751059859E+02  0.27068049855E+03  0.27089976813E+03  0.17770000000E+01 0.  1.
         15    1    1    2    0    0  0.24104654192E+01  0.14848746622E+01  0.19864922474E+02  0.20144182043E+02  0.17770000000E+01 0. -1.
</event>
<event>
 6    1  0.3411206E-003  0.5010211E+03  0.7546771E-02  0.9397528E-01
        -11   -1    0    0    0    0  0.00000000000E+00  0.00000000000E+00  0.50000000000E+03  0.50000000000E+03  0.00000000000E+00 0.  1.
         11   -1    0    0    0    0 -0.00000000000E+00 -0.00000000000E+00 -0.50000000000E+03  0.50000000000E+03  0.00000000000E+00 0. -1.
        -11    1    1    2    0    0 -0.28985911303E+00  0.59180462821E+01  0.30069047520E+03  0.30074884733E+03  0.00000000000E+00 0.  1.
         11    1    1    2    0    0  0.12759280393E+02 -0.50426631749E+01 -0.49879023103E+03  0.49897887957E+03  0.00000000000E+00 0. -1.
        -15    1    1    2    0    0 -0.29155090692E+01 -0.31448764108E+01  0.17556984556E+03  0.17563120122E+03  0.17770000000E+01 0.  1.
         15    1    1    2    0    0 -0.95539122106E+01  0.22694933036E+01  0.22529910262E+02  0.24641071888E+02  0.17770000000E+01 0. -1.
</event>
<event>
 6    1  0.3411206E-003  0.5049164E+03  0.7546771E-02  0.9388876E-01
        -11   -1    0    0    0    0  0.00000000000E+00  0.00000000000E+00  0.50000000000E+03  0.50000000000E+03  0.00000000000E+00 0.  1.
         11   -1    0    0    0    0 -0.00000000000E+00 -0.00000000000E+00 -0.50000000000E+03  0.50000000000E+03  0.00000000000E+00 0.  1.
        -11    1    1    2    0    0 -0.61923067046E+01  0.56396993073E+01  0.49501270991E+03  0.49508356248E+03  0.00000000000E+00 0.  1.
         11    1    1    2    0    0  0.86836312067E+01  0.15895735296E+01 -0.44451237504E+03  0.44460002672E+03  0.00000000000E+00 0.  1.
        -15    1    1    2    0    0  0.19870298102E+00 -0.42020318622E+01  0.37359398001E+01  0.59001296456E+01  0.17770000000E+01 0.  1.
         15    1    1    2    0    0 -0.26900274831E+01 -0.30272409748E+01 -0.54236274666E+02  0.54416281152E+02  0.17770000000E+01 0. -1.
</event>
<event>
 6    1  0.3411206E-003  0.5034070E+03  0.7546771E-02  0.9392218E-01
        -11   -1    0    0    0    0  0.00000000000E+00  0.00000000000E+00  0.50000000000E+03  0.50000000000E+03  0.00000000000E+00 0. -1.
         11   -1    0    0    0    0 -0.00000000000E+00 -0.00000000000E+00 -0.50000000000E+03  0.50000000000E+03  0.00000000000E+00 0.  1.
        -11    1    1    2    0    0 -0.16569298891E+02 -0.27794373928E+01  0.49630875560E+03  0.49659304045E+03  0.00000000000E+00 0. -1.
         11    1    1    2    0    0  0.13410888558E+02  0.10268157880E+02 -0.40904079346E+03  0.40938937176E+03  0.00000000000E+00 0.  1.
        -15    1    1    2    0    0 -0.13126964890E+01 -0.16987546275E+02 -0.78130862658E+02  0.79986807220E+02  0.17770000000E+01 0.  1.
         15    1    1    2    0    0  0.44711068227E+01  0.94988257877E+01 -0.91370994816E+01  0.14030780573E+02  0.17770000000E+01 0. -1.
</event>
<event>
 6    1  0.3411206E-003  0.5005118E+03  0.7546771E-02  0.9398665E-01
        -11   -1    0    0    0    0  0.00000000000E+00  0.00000000000E+00  0.50000000000E+03  0.50000000000E+03  0.00000000000E+00 0. -1.
         11   -1    0    0    0    0 -0.00000000000E+00 -0.00000000000E+00 -0.50000000000E+03  0.50000000000E+03  0.00000000000E+00 0.  1.
        -11    1    1    2    0    0 -0.29247879665E+01  0.48570023866E+01  0.18063347595E+03  0.18072243218E+03  0.00000000000E+00 0. -1.
         11    1    1    2    0    0 -0.10981391632E+01  0.87432689336E+01 -0.49941042733E+03  0.49948816361E+03  0.00000000000E+00 0.  1.
        -15    1    1    2    0    0 -0.24808772838E+01 -0.19396546310E+01  0.87194118422E+01  0.94394324013E+01  0.17770000000E+01 0.  1.
         15    1    1    2    0    0  0.65038044135E+01 -0.11660616689E+02  0.31005753953E+03  0.31034997181E+03  0.17770000000E+01 0. -1.
</event>
<event>
 6    1  0.3411206E-003  0.5012380E+03  0.7546771E-02  0.9397044E-01
        -11   -1    0    0    0    0  0.00000000000E+00  0.00000000000E+00  0.50000000000E+03  0.50000000000E+03  0.00000000000E+00 0.  1.
         11   -1    0    0    0    0 -0.00000000000E+00 -0.00000000000E+00 -0.50000000000E+03  0.50000000000E+03  0.00000000000E+00 0.  1.
        -11    1    1    2    0    0  0.87603208025E+00 -0.56827043809E+01  0.38492767286E+03  0.38497061432E+03  0.00000000000E+00 0.  1.
         11    1    1    2    0    0 -0.51018275357E+01  0.56821018942E+01 -0.49870349863E+03  0.49876196174E+03  0.00000000000E+00 0.  1.
        -15    1    1    2    0    0  0.68928691304E-01  0.61298428805E+01  0.10227184776E+03  0.10247081681E+03  0.17770000000E+01 0.  1.
         15    1    1    2    0    0  0.41568667642E+01 -0.61292403938E+01  0.11503978019E+02  0.13796607132E+02  0.17770000000E+01 0.  1.
</event>
<event>
 6    1  0.3411206E-003  0.5178671E+03  0.7546771E-02  0.9360695E-01
        -11   -1    0    0    0    0  0.00000000000E+00  0.00000000000E+00  0.50000000000E+03  0.50000000000E+03  0.00000000000E+00 0.  1.
         11   -1    0    0    0    0 -0.00000000000E+00 -0.00000000000E+00 -0.50000000000E+03  0.50000000000E+03  0.00000000000E+00 0. -1.
        -11    1    1    2    0    0 -0.15039902629E+02 -0.72397341972E+01  0.48184391780E+03  0.48213294178E+03  0.00000000000E+00 0.  1.
         11    1    1    2    0    0 -0.13870917750E+01  0.47406562798E+02 -0.41375547354E+03  0.41646476214E+03  0.00000000000E+00 0. -1.
        -15    1    1    2    0    0  0.78062273896E+01 -0.38635985470E+02 -0.78393779667E+02  0.87763426203E+02  0.17770000000E+01 0.  1.
         15    1    1    2    0    0  0.86207670143E+01 -0.15308431301E+01  0.10305335408E+02  0.13638869875E+02  0.17770000000E+01 0. -1.
</event>
<event>
 6    1  0.3411206E-003  0.5121014E+03  0.7546771E-02  0.9373132E-01
        -11   -1    0    0    0    0  0.00000000000E+00  0.00000000000E+00  0.50000000000E+03  0.50000000000E+03  0.00000000000E+00 0. -1.
         11   -1    0    0    0    0 -0.00000000000E+00 -0.00000000000E+00 -0.50000000000E+03  0.50000000000E+03  0.00000000000E+00 0.  1.
        -11    1    1    2    0    0 -0.31146156968E+01  0.76752764402E-01  0.20171491364E+03  0.20173897270E+03  0.00000000000E+00 0. -1.
         11    1    1    2    0    0  0.10908339467E+02  0.24178396304E+01 -0.48777067500E+03  0.48789862595E+03  0.00000000000E+00 0.  1.
        -15    1    1    2    0    0  0.33135686098E+02 -0.34314243855E+02  0.51834794383E+02  0.70465911349E+02  0.17770000000E+01 0.  1.
         15    1    1    2    0    0 -0.40929409868E+02  0.31819651460E+02  0.23422096698E+03  0.23989649000E+03  0.17770000000E+01 0. -1.
</event>
<event>
 6    1  0.3411206E-003  0.5020649E+03  0.7546771E-02  0.9395201E-01
        -11   -1    0    0    0    0  0.00000000000E+00  0.00000000000E+00  0.50000000000E+03  0.50000000000E+03  0.00000000000E+00 0. -1.
         11   -1    0    0    0    0 -0.00000000000E+00 -0.00000000000E+00 -0.50000000000E+03  0.50000000000E+03  0.00000000000E+00 0.  1.
        -11    1    1    2    0    0 -0.27339522811E+00 -0.66895977114E+01  0.52194040774E+02  0.52621700418E+02  0.00000000000E+00 0. -1.
         11    1    1    2    0    0  0.50326460703E+01  0.21093489947E+02 -0.49746268630E+03  0.49793512339E+03  0.00000000000E+00 0.  1.
        -15    1    1    2    0    0 -0.14504731259E+02  0.48159420280E+01  0.38677634088E+03  0.38708226015E+03  0.17770000000E+01 0. -1.
         15    1    1    2    0    0  0.97454804173E+01 -0.19219834263E+02  0.58492304648E+02  0.62360916042E+02  0.17770000000E+01 0.  1.
</event>
<event>
 6    1  0.3411206E-003  0.5005605E+03  0.7546771E-02  0.9398557E-01
        -11   -1    0    0    0    0  0.00000000000E+00  0.00000000000E+00  0.50000000000E+03  0.50000000000E+03  0.00000000000E+00 0.  1.
         11   -1    0    0    0    0 -0.00000000000E+00 -0.00000000000E+00 -0.50000000000E+03  0.50000000000E+03  0.00000000000E+00 0. -1.
        -11    1    1    2    0    0 -0.29559582596E+01  0.13302721366E+01  0.37421729015E+02  0.37561857191E+02  0.00000000000E+00 0.  1.
         11    1    1    2    0    0 -0.92835166497E+00  0.79323823333E+01 -0.49937568522E+03  0.49943954540E+03  0.00000000000E+00 0. -1.
        -15    1    1    2    0    0  0.23179965891E+01 -0.71861789250E+01  0.45737486344E+03  0.45744063845E+03  0.17770000000E+01 0.  1.
         15    1    1    2    0    0  0.15663133355E+01 -0.20764755449E+01  0.45790927674E+01  0.55579589533E+01  0.17770000000E+01 0. -1.
</event>
<event>
 6    1  0.3411206E-003  0.5027769E+03  0.7546771E-02  0.9393618E-01
        -11   -1    0    0    0    0  0.00000000000E+00  0.00000000000E+00  0.50000000000E+03  0.50000000000E+03  0.00000000000E+00 0. -1.
         11   -1    0    0    0    0 -0.00000000000E+00 -0.00000000000E+00 -0.50000000000E+03  0.50000000000E+03  0.00000000000E+00 0.  1.
        -11    1    1    2    0    0  0.88483260544E+01  0.81355480545E+01  0.49707778541E+03  0.49722309355E+03  0.00000000000E+00 0. -1.
         11    1    1    2    0    0 -0.44303672767E+01 -0.22529421013E+01 -0.35920770260E+03  0.35924208761E+03  0.00000000000E+00 0.  1.
        -15    1    1    2    0    0 -0.11102166505E+01  0.12538514291E+02 -0.10419288878E+03  0.10496553111E+03  0.17770000000E+01 0. -1.
         15    1    1    2    0    0 -0.33077421272E+01 -0.18421120244E+02 -0.33677194027E+02  0.38569287724E+02  0.17770000000E+01 0.  1.
</event>
<event>
 6    1  0.3411206E-003  0.5014537E+03  0.7546771E-02  0.9396563E-01
        -11   -1    0    0    0    0  0.00000000000E+00  0.00000000000E+00  0.50000000000E+03  0.50000000000E+03  0.00000000000E+00 0.  1.
         11   -1    0    0    0    0 -0.00000000000E+00 -0.00000000000E+00 -0.50000000000E+03  0.50000000000E+03  0.00000000000E+00 0.  1.
        -11    1    1    2    0    0  0.64922078631E+01 -0.33572932452E+01  0.48358058506E+03  0.48363581591E+03  0.00000000000E+00 0.  1.
         11    1    1    2    0    0 -0.12459275012E+01  0.70670749303E+01 -0.49849460849E+03  0.49854625721E+03  0.00000000000E+00 0.  1.
        -15    1    1    2    0    0 -0.18705984816E+01 -0.47918038330E+00  0.11423195134E+02  0.11720745223E+02  0.17770000000E+01 0. -1.
         15    1    1    2    0    0 -0.33756818803E+01 -0.32306013018E+01  0.34908282972E+01  0.60971816545E+01  0.17770000000E+01 0.  1.
</event>
<event>
 6    1  0.3411206E-003  0.5042795E+03  0.7546771E-02  0.9390285E-01
        -11   -1    0    0    0    0  0.00000000000E+00  0.00000000000E+00  0.50000000000E+03  0.50000000000E+03  0.00000000000E+00 0. -1.
         11   -1    0    0    0    0 -0.00000000000E+00 -0.00000000000E+00 -0.50000000000E+03  0.50000000000E+03  0.00000000000E+00 0. -1.
        -11    1    1    2    0    0 -0.46321044297E+01 -0.56603014268E+01  0.49566653184E+03  0.49572049200E+03  0.00000000000E+00 0. -1.
         11    1    1    2    0    0  0.41146909838E+01 -0.98359338746E+01 -0.48316826559E+03  0.48328588760E+03  0.00000000000E+00 0. -1.
        -15    1    1    2    0    0 -0.71596226951E+00  0.94857601612E+00 -0.19599796089E+01  0.29002840373E+01  0.17770000000E+01 0. -1.
         15    1    1    2    0    0  0.12333757155E+01  0.14547659285E+02 -0.10538286639E+02  0.18093336359E+02  0.17770000000E+01 0.  1.
</event>
<event>
 6    1  0.3411206E-003  0.5006780E+03  0.7546771E-02  0.9398294E-01
        -11   -1    0    0    0    0  0.00000000000E+00  0.00000000000E+00  0.50000000000E+03  0.50000000000E+03  0.00000000000E+00 0.  1.
         11   -1    0    0    0    0 -0.00000000000E+00 -0.00000000000E+00 -0.50000000000E+03  0.50000000000E+03  0.00000000000E+00 0.  1.
        -11    1    1    2    0    0 -0.69194589053E+01  0.34274356055E+00  0.49927397694E+03  0.49932204080E+03  0.00000000000E+00 0.  1.
         11    1    1    2    0    0  0.52654363433E+01  0.10543039223E+01 -0.32373394696E+03  0.32377848105E+03  0.00000000000E+00 0.  1.
        -15    1    1    2    0    0 -0.47210128810E+01  0.40955957909E+01 -0.18209468020E+02  0.19334019812E+02  0.17770000000E+01 0.  1.
         15    1    1    2    0    0  0.63750354430E+01 -0.54926432738E+01 -0.15733056196E+03  0.15756545834E+03  0.17770000000E+01 0.  1.
</event>
<event>
 6    1  0.3411206E-003  0.5549355E+03  0.7546771E-02  0.9284638E-01
        -11   -1    0    0    0    0  0.00000000000E+00  0.00000000000E+00  0.50000000000E+03  0.50000000000E+03  0.00000000000E+00 0.  1.
         11   -1    0    0    0    0 -0.00000000000E+00 -0.00000000000E+00 -0.50000000000E+03  0.50000000000E+03  0.00000000000E+00 0.  1.
        -11    1    1    2    0    0  0.77281156379E+01 -0.71767773749E+01  0.44493953861E+03  0.44506451546E+03  0.00000000000E+00 0.  1.
         11    1    1    2    0    0 -0.13546172187E+02  0.35808414671E+01 -0.40686298401E+03  0.40710417459E+03  0.00000000000E+00 0.  1.
        -15    1    1    2    0    0  0.71851946736E+02 -0.61518865451E+01 -0.25186173480E+01  0.72180669990E+02  0.17770000000E+01 0.  1.
         15    1    1    2    0    0 -0.66033890187E+02  0.97478224528E+01 -0.35557937249E+02  0.75650639959E+02  0.17770000000E+01 0. -1.
</event>
<event>
 6    1  0.3411206E-003  0.5074507E+03  0.7546771E-02  0.9383291E-01
        -11   -1    0    0    0    0  0.00000000000E+00  0.00000000000E+00  0.50000000000E+03  0.50000000000E+03  0.00000000000E+00 0.  1.
         11   -1    0    0    0    0 -0.00000000000E+00 -0.00000000000E+00 -0.50000000000E+03  0.50000000000E+03  0.00000000000E+00 0.  1.
        -11    1    1    2    0    0  0.64924134764E+01  0.50786720779E+01  0.49248030873E+03  0.49254928568E+03  0.00000000000E+00 0.  1.
         11    1    1    2    0    0  0.14148300540E+02  0.10991905765E+02 -0.44394948897E+03  0.44431086545E+03  0.00000000000E+00 0.  1.
        -15    1    1    2    0    0 -0.23594544680E+02 -0.87295635592E+01 -0.16595108385E+02  0.30190448322E+02  0.17770000000E+01 0. -1.
         15    1    1    2    0    0  0.29538306641E+01 -0.73410142841E+01 -0.31935711368E+02  0.32949400539E+02  0.17770000000E+01 0.  1.
</event>
<event>
 6    1  0.3411206E-003  0.5008483E+03  0.7546771E-02  0.9397914E-01
        -11   -1    0    0    0    0  0.00000000000E+00  0.00000000000E+00  0.50000000000E+03  0.50000000000E+03  0.00000000000E+00 0.  1.
         11   -1    0    0    0    0 -0.00000000000E+00 -0.00000000000E+00 -0.50000000000E+03  0.50000000000E+03  0.00000000000E+00 0.  1.
        -11    1    1    2    0    0  0.41270471118E+01 -0.39063206021E+01  0.41720380861E+03  0.41724250716E+03  0.00000000000E+00 0.  1.
         11    1    1    2    0    0 -0.18260253094E+02  0.67774870702E+01 -0.49877153999E+03  0.49915170067E+03  0.00000000000E+00 0.  1.
        -15    1    1    2    0    0  0.15110990315E+02 -0.43644576499E+01  0.70238261366E+02  0.71999733386E+02  0.17770000000E+01 0.  1.
         15    1    1    2    0    0 -0.97778433281E+00  0.14932911818E+01  0.11329470013E+02  0.11606058786E+02  0.17770000000E+01 0. -1.
</event>
<event>
 6    1  0.3411206E-003  0.5074908E+03  0.7546771E-02  0.9383203E-01
        -11   -1    0    0    0    0  0.00000000000E+00  0.00000000000E+00  0.50000000000E+03  0.50000000000E+03  0.00000000000E+00 0. -1.
         11   -1    0    0    0    0 -0.00000000000E+00 -0.00000000000E+00 -0.50000000000E+03  0.50000000000E+03  0.00000000000E+00 0. -1.
        -11    1    1    2    0    0 -0.14955062557E+02 -0.44811369068E+02  0.49023831322E+03  0.49250920443E+03  0.00000000000E+00 0. -1.
         11    1    1    2    0    0  0.20856450213E+01 -0.43334595311E+01 -0.30368253231E+03  0.30372061046E+03  0.00000000000E+00 0. -1.
        -15    1    1    2    0    0 -0.11789733058E+01  0.55306668984E+02 -0.87624512243E+02  0.10364087267E+03  0.17770000000E+01 0.  1.
         15    1    1    2    0    0  0.14048390842E+02 -0.61618403841E+01 -0.98931268672E+02  0.10012931245E+03  0.17770000000E+01 0. -1.
</event>
<event>
 6    1  0.3411206E-003  0.5031327E+03  0.7546771E-02  0.9392827E-01
        -11   -1    0    0    0    0  0.00000000000E+00  0.00000000000E+00  0.50000000000E+03  0.50000000000E+03  0.00000000000E+00 0.  1.
         11   -1    0    0    0    0 -0.00000000000E+00 -0.00000000000E+00 -0.50000000000E+03  0.50000000000E+03  0.00000000000E+00 0. -1.
        -11    1    1    2    0    0  0.78069733886E+01 -0.63923959093E+00  0.49680560020E+03  0.49686734835E+03  0.00000000000E+00 0.  1.
         11    1    1    2    0    0 -0.35358719193E+01  0.59960319402E+01 -0.48199460099E+03  0.48204486323E+03  0.00000000000E+00 0. -1.
        -15    1    1    2    0    0  0.19235097218E+00 -0.85159797411E+01 -0.11603821213E+02  0.14503975509E+02  0.17770000000E+01 0. -1.
         15    1    1    2    0    0 -0.44634524415E+01  0.31591873918E+01 -0.32071780022E+01  0.65838129084E+01  0.17770000000E+01 0.  1.
</event>
<event>
 6    1  0.4595650E-003  0.5002213E+03  0.7546771E-02  0.9399315E-01
        -11   -1    0    0    0    0  0.00000000000E+00  0.00000000000E+00  0.50000000000E+03  0.50000000000E+03  0.00000000000E+00 0. -1.
         11   -1    0    0    0    0 -0.00000000000E+00 -0.00000000000E+00 -0.50000000000E+03  0.50000000000E+03  0.00000000000E+00 0.  1.
        -11    1    1    2    0    0 -0.87945886060E+01  0.59646267950E+01  0.49966568338E+03  0.49977866772E+03  0.00000000000E+00 0. -1.
         11    1    1    2    0    0 -0.15686431440E+01 -0.15438662976E+01 -0.14981598229E+03  0.14983214846E+03  0.00000000000E+00 0.  1.
        -15    1    1    2    0    0  0.16220613425E+01 -0.44053077290E+01 -0.26935384968E+03  0.26940061597E+03  0.17770000000E+01 0. -1.
         15    1    1    2    0    0  0.87411704075E+01 -0.15452768410E-01 -0.80495851411E+02  0.80988567850E+02  0.17770000000E+01 0.  1.
</event>
<event>
 6    1  0.3411206E-003  0.5013281E+03  0.7546771E-02  0.9396843E-01
        -11   -1    0    0    0    0  0.00000000000E+00  0.00000000000E+00  0.50000000000E+03  0.50000000000E+03  0.00000000000E+00 0.  1.
         11   -1    0    0    0    0 -0.00000000000E+00 -0.00000000000E+00 -0.50000000000E+03  0.50000000000E+03  0.00000000000E+00 0.  1.
        -11    1    1    2    0    0 -0.26658484745E+02 -0.67126778789E+01  0.49791362430E+03  0.49867194840E+03  0.00000000000E+00 0.  1.
         11    1    1    2    0    0  0.37676347068E+01  0.11731571640E+01 -0.36345707465E+02  0.36559291844E+02  0.00000000000E+00 0.  1.
        -15    1    1    2    0    0  0.42343441838E+01 -0.20992697218E+02 -0.15445262600E+03  0.15594035531E+03  0.17770000000E+01 0. -1.
         15    1    1    2    0    0  0.18656505855E+02  0.26532217933E+02 -0.30711529083E+03  0.30882840444E+03  0.17770000000E+01 0.  1.
</event>
<event>
 6    1  0.3411206E-003  0.5050487E+03  0.7546771E-02  0.9388583E-01
        -11   -1    0    0    0    0  0.00000000000E+00  0.00000000000E+00  0.50000000000E+03  0.50000000000E+03  0.00000000000E+00 0. -1.
         11   -1    0    0    0    0 -0.00000000000E+00 -0.00000000000E+00 -0.50000000000E+03  0.50000000000E+03  0.00000000000E+00 0.  1.
        -11    1    1    2    0    0  0.50970605041E+01 -0.64602963229E+01  0.49488290478E+03  0.49495131569E+03  0.00000000000E+00 0. -1.
         11    1    1    2    0    0 -0.21267662794E+01 -0.11802421636E+02 -0.47559404545E+03  0.47574522210E+03  0.00000000000E+00 0.  1.
        -15    1    1    2    0    0 -0.42420462951E+01  0.60842094558E+01 -0.17259101937E+01  0.78197862163E+01  0.17770000000E+01 0.  1.
         15    1    1    2    0    0  0.12717520704E+01  0.12178508503E+02 -0.17562949142E+02  0.21483675995E+02  0.17770000000E+01 0. -1.
</event>
<event>
 6    1  0.3411206E-003  0.5002873E+03  0.7546771E-02  0.9399167E-01
        -11   -1    0    0    0    0  0.00000000000E+00  0.00000000000E+00  0.50000000000E+03  0.50000000000E+03  0.00000000000E+00 0. -1.
         11   -1    0    0    0    0 -0.00000000000E+00 -0.00000000000E+00 -0.50000000000E+03  0.50000000000E+03  0.00000000000E+00 0.  1.
        -11    1    1    2    0    0  0.10877086802E+01 -0.52359766923E+01  0.29959266118E+03  0.29964038646E+03  0.00000000000E+00 0. -1.
         11    1    1    2    0    0 -0.66107951784E+01 -0.27769043602E+01 -0.49966120794E+03  0.49971265396E+03  0.00000000000E+00 0.  1.
        -15    1    1    2    0    0 -0.26638782591E+01  0.54587079056E+01  0.70939764583E+02  0.71221497229E+02  0.17770000000E+01 0.  1.
         15    1    1    2    0    0  0.81869647573E+01  0.25541731470E+01  0.12912878217E+03  0.12942546236E+03  0.17770000000E+01 0. -1.
</event>
<event>
 6    1  0.3411206E-003  0.5017157E+03  0.7546771E-02  0.9395979E-01
        -11   -1    0    0    0    0  0.00000000000E+00  0.00000000000E+00  0.50000000000E+03  0.50000000000E+03  0.00000000000E+00 0. -1.
         11   -1    0    0    0    0 -0.00000000000E+00 -0.00000000000E+00 -0.50000000000E+03  0.50000000000E+03  0.00000000000E+00 0.  1.
        -11    1    1    2    0    0  0.50365599472E+01  0.54693468055E+01  0.41544985514E+03  0.41551638094E+03  0.00000000000E+00 0. -1.
         11    1    1    2    0    0 -0.14980307289E+02 -0.24737017654E+01 -0.49805297197E+03  0.49828434824E+03  0.00000000000E+00 0.  1.
        -15    1    1    2    0    0 -0.21027887157E+01 -0.90990824349E+01  0.20175703801E+02  0.22303178572E+02  0.17770000000E+01 0.  1.
         15    1    1    2    0    0  0.12046536058E+02  0.61034373948E+01  0.62427413029E+02  0.63896092255E+02  0.17770000000E+01 0. -1.
</event>
<event>
 6    1  0.3411206E-003  0.5114178E+03  0.7546771E-02  0.9374618E-01
        -11   -1    0    0    0    0  0.00000000000E+00  0.00000000000E+00  0.50000000000E+03  0.50000000000E+03  0.00000000000E+00 0.  1.
         11   -1    0    0    0    0 -0.00000000000E+00 -0.00000000000E+00 -0.50000000000E+03  0.50000000000E+03  0.00000000000E+00 0.  1.
        -11    1    1    2    0    0  0.46338256451E+01  0.66987235830E+01  0.48851430146E+03  0.48858220185E+03  0.00000000000E+00 0.  1.
         11    1    1    2    0    0  0.13927342208E+02 -0.24376960880E+02 -0.46696132539E+03  0.46780453876E+03  0.00000000000E+00 0.  1.
        -15    1    1    2    0    0 -0.73092391890E+00 -0.39062402942E+01  0.38172371999E+01  0.57898179463E+01  0.17770000000E+01 0.  1.
         15    1    1    2    0    0 -0.17830243934E+02  0.21584477591E+02 -0.25370213273E+02  0.37823441437E+02  0.17770000000E+01 0. -1.
</event>
<event>
 6    1  0.3411206E-003  0.4844514E+03  0.7546771E-02  0.9435289E-01
        -11   -1    0    0    0    0  0.00000000000E+00  0.00000000000E+00  0.50000000000E+03  0.50000000000E+03  0.00000000000E+00 0.  1.
         11   -1    0    0    0    0 -0.00000000000E+00 -0.00000000000E+00 -0.50000000000E+03  0.50000000000E+03  0.00000000000E+00 0. -1.
        -11    1    1    2    0    0  0.10632774565E+00 -0.89188547822E+01  0.48132410631E+03  0.48140674340E+03  0.00000000000E+00 0.  1.
         11    1    1    2    0    0 -0.15683246329E+02  0.11016361751E+02 -0.48726489449E+03  0.48764167361E+03  0.00000000000E+00 0. -1.
        -15    1    1    2    0    0  0.17786497798E+02 -0.45440236332E+01 -0.52291559492E+01  0.19170536134E+02  0.17770000000E+01 0.  1.
         15    1    1    2    0    0 -0.22095792148E+01  0.24465166643E+01  0.11169944131E+02  0.11781046854E+02  0.17770000000E+01 0. -1.
</event>
<event>
 6    1  0.3411206E-003  0.5032921E+03  0.7546771E-02  0.9392473E-01
        -11   -1    0    0    0    0  0.00000000000E+00  0.00000000000E+00  0.50000000000E+03  0.50000000000E+03  0.00000000000E+00 0. -1.
         11   -1    0    0    0    0 -0.00000000000E+00 -0.00000000000E+00 -0.50000000000E+03  0.50000000000E+03  0.00000000000E+00 0.  1.
        -11    1    1    2    0    0 -0.30287802213E+01  0.74272294189E+01  0.49664316797E+03  0.49670793585E+03  0.00000000000E+00 0. -1.
         11    1    1    2    0    0  0.80518672210E+01  0.45210950396E+01 -0.44689859631E+03  0.44699399129E+03  0.00000000000E+00 0.  1.
        -15    1    1    2    0    0 -0.99285557155E+00 -0.41048712679E+01  0.10603155508E+01  0.47029489025E+01  0.17770000000E+01 0. -1.
         15    1    1    2    0    0 -0.40302314281E+01 -0.78434531906E+01 -0.50804887205E+02  0.51595123958E+02  0.17770000000E+01 0.  1.
</event>
<event>
 6    1  0.3411206E-003  0.5425048E+03  0.7546771E-02  0.9309423E-01
        -11   -1    0    0    0    0  0.00000000000E+00  0.00000000000E+00  0.50000000000E+03  0.50000000000E+03  0.00000000000E+00 0. -1.
         11   -1    0    0    0    0 -0.00000000000E+00 -0.00000000000E+00 -0.50000000000E+03  0.50000000000E+03  0.00000000000E+00 0.  1.
        -11    1    1    2    0    0 -0.79489799416E+02 -0.19984116037E+02  0.31137208822E+03  0.32197914595E+03  0.00000000000E+00 0. -1.
         11    1    1    2    0    0 -0.13690168939E+02 -0.23021405156E+01 -0.45728453125E+03  0.45749520555E+03  0.00000000000E+00 0.  1.
        -15    1    1    2    0    0  0.93649161905E+02 -0.14241428883E+00  0.16584235558E+03  0.19046529984E+03  0.17770000000E+01 0. -1.
         15    1    1    2    0    0 -0.46919354974E+00  0.22428670841E+02 -0.19929912552E+02  0.30060348661E+02  0.17770000000E+01 0.  1.
</event>
<event>
 6    1  0.3411206E-003  0.5021981E+03  0.7546771E-02  0.9394905E-01
        -11   -1    0    0    0    0  0.00000000000E+00  0.00000000000E+00  0.50000000000E+03  0.50000000000E+03  0.00000000000E+00 0. -1.
         11   -1    0    0    0    0 -0.00000000000E+00 -0.00000000000E+00 -0.50000000000E+03  0.50000000000E+03  0.00000000000E+00 0. -1.
        -11    1    1    2    0    0 -0.79042893326E+00  0.13981000467E+02  0.39871758780E+03  0.39896341684E+03  0.00000000000E+00 0. -1.
         11    1    1    2    0    0 -0.15961223311E+02 -0.49817135550E+00 -0.49754572679E+03  0.49780192755E+03  0.00000000000E+00 0. -1.
        -15    1    1    2    0    0  0.82013290338E+01 -0.10436902689E+02  0.87916106704E+02  0.88930255159E+02  0.17770000000E+01 0. -1.
         15    1    1    2    0    0  0.85503232106E+01 -0.30459264222E+01  0.10912032285E+02  0.14304400455E+02  0.17770000000E+01 0.  1.
</event>
<event>
 6    1  0.3411206E-003  0.5026902E+03  0.7546771E-02  0.9393810E-01
        -11   -1    0    0    0    0  0.00000000000E+00  0.00000000000E+00  0.50000000000E+03  0.50000000000E+03  0.00000000000E+00 0.  1.
         11   -1    0    0    0    0 -0.00000000000E+00 -0.00000000000E+00 -0.50000000000E+03  0.50000000000E+03  0.00000000000E+00 0. -1.
        -11    1    1    2    0    0 -0.94638246678E-01 -0.30771222828E+01  0.20158132745E+03  0.20160483431E+03  0.00000000000E+00 0.  1.
         11    1    1    2    0    0 -0.46062672992E+01 -0.16244528824E+02 -0.49702305618E+03  0.49730978353E+03  0.00000000000E+00 0. -1.
        -15    1    1    2    0    0 -0.16275017507E+01  0.42474567694E+01  0.27409624242E+03  0.27413974080E+03  0.17770000000E+01 0.  1.
         15    1    1    2    0    0  0.63284072966E+01  0.15074194338E+02  0.21345486311E+02  0.26945641367E+02  0.17770000000E+01 0.  1.
</event>
<event>
 6    1  0.3411206E-003  0.5041060E+03  0.7546771E-02  0.9390669E-01
        -11   -1    0    0    0    0  0.00000000000E+00  0.00000000000E+00  0.50000000000E+03  0.50000000000E+03  0.00000000000E+00 0. -1.
         11   -1    0    0    0    0 -0.00000000000E+00 -0.00000000000E+00 -0.50000000000E+03  0.50000000000E+03  0.00000000000E+00 0. -1.
        -11    1    1    2    0    0  0.37229973675E+01 -0.84389794367E+01  0.49580818130E+03  0.49589397025E+03  0.00000000000E+00 0. -1.
         11    1    1    2    0    0  0.22174254843E+01  0.96578956112E+01 -0.48672085697E+03  0.48682171741E+03  0.00000000000E+00 0. -1.
        -15    1    1    2    0    0 -0.12909730410E+01 -0.17310143168E+01  0.30608271481E+01  0.41460117931E+01  0.17770000000E+01 0.  1.
         15    1    1    2    0    0 -0.46494498107E+01  0.51209814233E+00 -0.12148151477E+02  0.13138300550E+02  0.17770000000E+01 0. -1.
</event>
<event>
 6    1  0.3411206E-003  0.5023423E+03  0.7546771E-02  0.9394584E-01
        -11   -1    0    0    0    0  0.00000000000E+00  0.00000000000E+00  0.50000000000E+03  0.50000000000E+03  0.00000000000E+00 0.  1.
         11   -1    0    0    0    0 -0.00000000000E+00 -0.00000000000E+00 -0.50000000000E+03  0.50000000000E+03  0.00000000000E+00 0.  1.
        -11    1    1    2    0    0 -0.16054851311E+01  0.82389628464E+01  0.49758694542E+03  0.49765774016E+03  0.00000000000E+00 0.  1.
         11    1    1    2    0    0 -0.96614581738E+01  0.85012816499E+01 -0.37024450134E+03  0.37046809085E+03  0.00000000000E+00 0.  1.
        -15    1    1    2    0    0 -0.37194152511E+01 -0.18283957799E+01 -0.23329636844E+01  0.50771576193E+01  0.17770000000E+01 0.  1.
         15    1    1    2    0    0  0.14986358556E+02 -0.14911848716E+02 -0.12500948040E+03  0.12679701137E+03  0.17770000000E+01 0. -1.
</event>
<event>
 6    1  0.3411206E-003  0.5256800E+03  0.7546771E-02  0.9344114E-01
        -11   -1    0    0    0    0  0.00000000000E+00  0.00000000000E+00  0.50000000000E+03  0.50000000000E+03  0.00000000000E+00 0. -1.
         11   -1    0    0    0    0 -0.00000000000E+00 -0.00000000000E+00 -0.50000000000E+03  0.50000000000E+03  0.00000000000E+00 0. -1.
        -11    1    1    2    0    0  0.16172818159E+02  0.11767981801E+02  0.45270096207E+03  0.45314258959E+03  0.00000000000E+00 0. -1.
         11    1    1    2    0    0  0.12248431855E+02 -0.21684891252E+01 -0.47415683325E+03  0.47431996473E+03  0.00000000000E+00 0. -1.
        -15    1    1    2    0    0 -0.14908989748E+02 -0.73440174548E+01  0.43456193590E+02  0.46559757925E+02  0.17770000000E+01 0.  1.
         15    1    1    2    0    0 -0.13512260267E+02 -0.22554752214E+01 -0.22000322409E+02  0.25977687755E+02  0.17770000000E+01 0. -1.
</event>
<event>
 6    1  0.3411206E-003  0.5144102E+03  0.7546771E-02  0.9368131E-01
        -11   -1    0    0    0    0  0.00000000000E+00  0.00000000000E+00  0.50000000000E+03  0.50000000000E+03  0.00000000000E+00 0.  1.
         11   -1    0    0    0    0 -0.00000000000E+00 -0.00000000000E+00 -0.50000000000E+03  0.50000000000E+03  0.00000000000E+00 0. -1.
        -11    1    1    2    0    0  0.66824514790E+01  0.73116195177E+01  0.39099645502E+03  0.39112190271E+03  0.00000000000E+00 0.  1.
         11    1    1    2    0    0  0.87888959262E+01  0.21440291316E+01 -0.48550553258E+03  0.48558981014E+03  0.00000000000E+00 0. -1.
        -15    1    1    2    0    0  0.13214407691E+01 -0.21939712394E+02  0.99324683304E+02  0.10174304707E+03  0.17770000000E+01 0. -1.
         15    1    1    2    0    0 -0.16792788174E+02  0.12484063745E+02 -0.48156057468E+01  0.21545240077E+02  0.17770000000E+01 0.  1.
</event>
<event>
 6    1  0.3411206E-003  0.5014997E+03  0.7546771E-02  0.9396460E-01
        -11   -1    0    0    0    0  0.00000000000E+00  0.00000000000E+00  0.50000000000E+03  0.50000000000E+03  0.00000000000E+00 0. -1.
         11   -1    0    0    0    0 -0.00000000000E+00 -0.00000000000E+00 -0.50000000000E+03  0.50000000000E+03  0.00000000000E+00 0. -1.
        -11    1    1    2    0    0  0.90837820947E+01 -0.44844425280E+01  0.40537804207E+03  0.40550460209E+03  0.00000000000E+00 0. -1.
         11    1    1    2    0    0  0.83720537993E+01  0.85656931535E+01 -0.49835636369E+03  0.49850027845E+03  0.00000000000E+00 0. -1.
        -15    1    1    2    0    0 -0.10616190597E+02  0.11708837435E+00  0.79372489505E+02  0.80099107559E+02  0.17770000000E+01 0.  1.
         15    1    1    2    0    0 -0.68396452968E+01 -0.41983389999E+01  0.13605832106E+02  0.15896011904E+02  0.17770000000E+01 0. -1.
</event>
<event>
 6    1  0.3411206E-003  0.5119515E+03  0.7546771E-02  0.9373457E-01
        -11   -1    0    0    0    0  0.00000000000E+00  0.00000000000E+00  0.50000000000E+03  0.50000000000E+03  0.00000000000E+00 0. -1.
         11   -1    0    0    0    0 -0.00000000000E+00 -0.00000000000E+00 -0.50000000000E+03  0.50000000000E+03  0.00000000000E+00 0.  1.
        -11    1    1    2    0    0 -0.21482881229E+02 -0.35670698153E+02  0.41444567854E+03  0.41653227169E+03  0.00000000000E+00 0. -1.
         11    1    1    2    0    0 -0.91842372440E+01  0.59662914587E+01 -0.48792558191E+03  0.48804848154E+03  0.00000000000E+00 0.  1.
        -15    1    1    2    0    0  0.94370419242E+01  0.16050495504E+02  0.10915950139E+01  0.18735673857E+02  0.17770000000E+01 0. -1.
         15    1    1    2    0    0  0.21230076549E+02  0.13653911191E+02  0.72388308351E+02  0.76683572921E+02  0.17770000000E+01 0.  1.
</event>
<event>
 6    1  0.3411206E-003  0.5130341E+03  0.7546771E-02  0.9371108E-01
        -11   -1    0    0    0    0  0.00000000000E+00  0.00000000000E+00  0.50000000000E+03  0.50000000000E+03  0.00000000000E+00 0. -1.
         11   -1    0    0    0    0 -0.00000000000E+00 -0.00000000000E+00 -0.50000000000E+03  0.50000000000E+03  0.00000000000E+00 0. -1.
        -11    1    1    2    0    0 -0.17697439389E+01 -0.76435424082E+01  0.48690274007E+03  0.48696594750E+03  0.00000000000E+00 0. -1.
         11    1    1    2    0    0 -0.47356491753E+01 -0.89713675945E+01 -0.46722099940E+03  0.46733111826E+03  0.00000000000E+00 0. -1.
        -15    1    1    2    0    0  0.43517426332E+01 -0.15523210223E+01  0.97893611567E+01  0.10969807900E+02  0.17770000000E+01 0.  1.
         15    1    1    2    0    0  0.21536504809E+01  0.18167231025E+02 -0.29471101826E+02  0.34733126340E+02  0.17770000000E+01 0. -1.
</event>
<event>
 6    1  0.3411206E-003  0.5068503E+03  0.7546771E-02  0.9384611E-01
        -11   -1    0    0    0    0  0.00000000000E+00  0.00000000000E+00  0.50000000000E+03  0.50000000000E+03  0.00000000000E+00 0. -1.
         11   -1    0    0    0    0 -0.00000000000E+00 -0.00000000000E+00 -0.50000000000E+03  0.50000000000E+03  0.00000000000E+00 0. -1.
        -11    1    1    2    0    0  0.99951269789E+01 -0.59847082758E+01  0.49301205028E+03  0.49314967406E+03  0.00000000000E+00 0. -1.
         11    1    1    2    0    0 -0.53384214448E+01  0.40194128800E+01 -0.25162870107E+03  0.25171741621E+03  0.00000000000E+00 0. -1.
        -15    1    1    2    0    0 -0.17408533431E+02  0.30031078002E+02 -0.47791904154E+02  0.59094386483E+02  0.17770000000E+01 0.  1.
         15    1    1    2    0    0  0.12751827897E+02 -0.28065782606E+02 -0.19359144506E+03  0.19603852325E+03  0.17770000000E+01 0. -1.
</event>
<event>
 6    1  0.3411206E-003  0.5059519E+03  0.7546771E-02  0.9386589E-01
        -11   -1    0    0    0    0  0.00000000000E+00  0.00000000000E+00  0.50000000000E+03  0.50000000000E+03  0.00000000000E+00 0.  1.
         11   -1    0    0    0    0 -0.00000000000E+00 -0.00000000000E+00 -0.50000000000E+03  0.50000000000E+03  0.00000000000E+00 0. -1.
        -11    1    1    2    0    0  0.16349782343E-01 -0.80482676083E+01  0.49398253635E+03  0.49404809594E+03  0.00000000000E+00 0.  1.
         11    1    1    2    0    0  0.40176010447E+01  0.64493515902E+01 -0.48481725069E+03  0.48487679035E+03  0.00000000000E+00 0. -1.
        -15    1    1    2    0    0  0.38853518018E+01 -0.62790325005E+01 -0.45895850264E+01  0.88737944241E+01  0.17770000000E+01 0.  1.
         15    1    1    2    0    0 -0.79193026289E+01  0.78779485186E+01 -0.45757006326E+01  0.12201319284E+02  0.17770000000E+01 0. -1.
</event>
<event>
 6    1  0.3411206E-003  0.4893846E+03  0.7546771E-02  0.9423881E-01
        -11   -1    0    0    0    0  0.00000000000E+00  0.00000000000E+00  0.50000000000E+03  0.50000000000E+03  0.00000000000E+00 0. -1.
         11   -1    0    0    0    0 -0.00000000000E+00 -0.00000000000E+00 -0.50000000000E+03  0.50000000000E+03  0.00000000000E+00 0. -1.
        -11    1    1    2    0    0 -0.78876147325E+01  0.82734900229E+01  0.49180177562E+03  0.49193460095E+03  0.00000000000E+00 0. -1.
         11    1    1    2    0    0  0.77533812559E+01  0.49936869544E+01 -0.48684978085E+03  0.48693712217E+03  0.00000000000E+00 0. -1.
        -15    1    1    2    0    0  0.42830675180E+01 -0.14648197335E+02 -0.18392186239E+01  0.15474327342E+02  0.17770000000E+01 0.  1.
         15    1    1    2    0    0 -0.41488340415E+01  0.13810203578E+01 -0.31127761485E+01  0.56539495472E+01  0.17770000000E+01 0. -1.
</event>
<event>
 6    1  0.3411206E-003  0.5007284E+03  0.7546771E-02  0.9398181E-01
        -11   -1    0    0    0    0  0.00000000000E+00  0.00000000000E+00  0.50000000000E+03  0.50000000000E+03  0.00000000000E+00 0. -1.
         11   -1    0    0    0    0 -0.00000000000E+00 -0.00000000000E+00 -0.50000000000E+03  0.50000000000E+03  0.00000000000E+00 0.  1.
        -11    1    1    2    0    0  0.19035299976E+02  0.37344319592E+01  0.49889461190E+03  0.49927159183E+03  0.00000000000E+00 0. -1.
         11    1    1    2    0    0  0.34601113327E+01  0.23616875101E+01 -0.23353837822E+03  0.23357594919E+03  0.00000000000E+00 0.  1.
        -15    1    1    2    0    0 -0.11746336570E+01  0.36425239774E+01 -0.10476109428E+03  0.10484604117E+03  0.17770000000E+01 0. -1.
         15    1    1    2    0    0 -0.21320777652E+02 -0.97386434467E+01 -0.16059513939E+03  0.16230641780E+03  0.17770000000E+01 0.  1.
</event>
<event>
 6    1  0.3411206E-003  0.5062188E+03  0.7546771E-02  0.9386001E-01
        -11   -1    0    0    0    0  0.00000000000E+00  0.00000000000E+00  0.50000000000E+03  0.50000000000E+03  0.00000000000E+00 0.  1.
         11   -1    0    0    0    0 -0.00000000000E+00 -0.00000000000E+00 -0.50000000000E+03  0.50000000000E+03  0.00000000000E+00 0. -1.
        -11    1    1    2    0    0  0.35795857882E+01  0.61824698150E+01  0.49372947051E+03  0.49378115235E+03  0.00000000000E+00 0.  1.
         11    1    1    2    0    0  0.21306937523E+01  0.60199486054E+01 -0.46427052291E+03  0.46431443880E+03  0.00000000000E+00 0. -1.
        -15    1    1    2    0    0 -0.11229818367E+02 -0.85971293245E+01 -0.29838141318E+01  0.14562978025E+02  0.17770000000E+01 0.  1.
         15    1    1    2    0    0  0.55195388267E+01 -0.36052890959E+01 -0.26475133466E+02  0.27341430822E+02  0.17770000000E+01 0. -1.
</event>
<event>
 6    1  0.3411206E-003  0.5065816E+03  0.7546771E-02  0.9385202E-01
        -11   -1    0    0    0    0  0.00000000000E+00  0.00000000000E+00  0.50000000000E+03  0.50000000000E+03  0.00000000000E+00 0.  1.
         11   -1    0    0    0    0 -0.00000000000E+00 -0.00000000000E+00 -0.50000000000E+03  0.50000000000E+03  0.00000000000E+00 0.  1.
        -11    1    1    2    0    0  0.15068592035E+02 -0.29845134490E+02  0.49228437821E+03  0.49341838590E+03  0.00000000000E+00 0.  1.
         11    1    1    2    0    0 -0.20791946878E+01 -0.65448208913E+01 -0.38452058179E+03  0.38458189707E+03  0.00000000000E+00 0.  1.
        -15    1    1    2    0    0 -0.10822566760E+02  0.29627369798E+02 -0.28962011919E+02  0.42858661386E+02  0.17770000000E+01 0. -1.
         15    1    1    2    0    0 -0.21668305870E+01  0.67625855835E+01 -0.78801784498E+02  0.79141055639E+02  0.17770000000E+01 0.  1.
</event>
<event>
 6    1  0.3411206E-003  0.4892089E+03  0.7546771E-02  0.9424285E-01
        -11   -1    0    0    0    0  0.00000000000E+00  0.00000000000E+00  0.50000000000E+03  0.50000000000E+03  0.00000000000E+00 0. -1.
         11   -1    0    0    0    0 -0.00000000000E+00 -0.00000000000E+00 -0.50000000000E+03  0.50000000000E+03  0.00000000000E+00 0.  1.
        -11    1    1    2    0    0  0.57709840115E+01  0.79893046622E+01  0.48760379789E+03  0.48770339035E+03  0.00000000000E+00 0. -1.
         11    1    1    2    0    0 -0.60258903106E+01 -0.13313602156E+02 -0.49051560734E+03  0.49073325178E+03  0.00000000000E+00 0.  1.
        -15    1    1    2    0    0 -0.23701455829E+00 -0.75779858152E+01  0.34538273877E+01  0.85187262862E+01  0.17770000000E+01 0. -1.
         15    1    1    2    0    0  0.49192085729E+00  0.12902283309E+02 -0.54201794049E+00  0.13044631584E+02  0.17770000000E+01 0.  1.
</event>
<event>
 6    1  0.3411206E-003  0.5327108E+03  0.7546771E-02  0.9329452E-01
        -11   -1    0    0    0    0  0.00000000000E+00  0.00000000000E+00  0.50000000000E+03  0.50000000000E+03  0.00000000000E+00 0.  1.
         11   -1    0    0    0    0 -0.00000000000E+00 -0.00000000000E+00 -0.50000000000E+03  0.50000000000E+03  0.00000000000E+00 0.  1.
        -11    1    1    2    0    0 -0.45432857088E+01 -0.69435282465E+01  0.31452599192E+03  0.31463542970E+03  0.00000000000E+00 0.  1.
         11    1    1    2    0    0  0.10724073232E+02 -0.29242846581E+01 -0.46715700927E+03  0.46728923431E+03  0.00000000000E+00 0.  1.
        -15    1    1    2    0    0  0.38521091882E+01  0.85704971489E+01 -0.31877574954E+02  0.33281070904E+02  0.17770000000E+01 0.  1.
         15    1    1    2    0    0 -0.10032896711E+02  0.12973157557E+01  0.18450859231E+03  0.18479426509E+03  0.17770000000E+01 0. -1.
</event>
<event>
 6    1  0.3411206E-003  0.4893449E+03  0.7546771E-02  0.9423972E-01
        -11   -1    0    0    0    0  0.00000000000E+00  0.00000000000E+00  0.50000000000E+03  0.50000000000E+03  0.00000000000E+00 0.  1.
         11   -1    0    0    0    0 -0.00000000000E+00 -0.00000000000E+00 -0.50000000000E+03  0.50000000000E+03  0.00000000000E+00 0.  1.
        -11    1    1    2    0    0 -0.78290869403E+01  0.11245567362E+01  0.49034036759E+03  0.49040415508E+03  0.00000000000E+00 0.  1.
         11    1    1    2    0    0  0.23056829713E+01 -0.96693940768E+01 -0.48823958125E+03  0.48834076427E+03  0.00000000000E+00 0.  1.
        -15    1    1    2    0    0  0.47016987587E+01  0.87536267619E+01  0.67793272463E+01  0.12159315754E+02  0.17770000000E+01 0.  1.
         15    1    1    2    0    0  0.82170521026E+00 -0.20878942126E+00 -0.88801135937E+01  0.90957648888E+01  0.17770000000E+01 0. -1.
</event>
<event>
 6    1  0.3411206E-003  0.5005035E+03  0.7546771E-02  0.9398684E-01
        -11   -1    0    0    0    0  0.00000000000E+00  0.00000000000E+00  0.50000000000E+03  0.50000000000E+03  0.00000000000E+00 0. -1.
         11   -1    0    0    0    0 -0.00000000000E+00 -0.00000000000E+00 -0.50000000000E+03  0.50000000000E+03  0.00000000000E+00 0. -1.
        -11    1    1    2    0    0 -0.26969786562E+01  0.71534791037E+01  0.49943799323E+03  0.49949650152E+03  0.00000000000E+00 0. -1.
         11    1    1    2    0    0  0.14318114731E+01 -0.57018478994E+01 -0.27287744349E+03  0.27294076339E+03  0.00000000000E+00 0. -1.
        -15    1    1    2    0    0  0.80160756065E+01 -0.71212023924E+01 -0.81184716900E+02  0.81909004259E+02  0.17770000000E+01 0.  1.
         15    1    1    2    0    0 -0.67509084234E+01  0.56695711882E+01 -0.14537583284E+03  0.14565373083E+03  0.17770000000E+01 0. -1.
</event>
<event>
 6    1  0.3411206E-003  0.5108617E+03  0.7546771E-02  0.9375829E-01
        -11   -1    0    0    0    0  0.00000000000E+00  0.00000000000E+00  0.50000000000E+03  0.50000000000E+03  0.00000000000E+00 0. -1.
         11   -1    0    0    0    0 -0.00000000000E+00 -0.00000000000E+00 -0.50000000000E+03  0.50000000000E+03  0.00000000000E+00 0.  1.
        -11    1    1    2    0    0  0.62242757945E+01 -0.48737308987E+01  0.48907440959E+03  0.48913829637E+03  0.00000000000E+00 0. -1.
         11    1    1    2    0    0  0.42496056311E+00  0.95439859255E+01 -0.24168668195E+03  0.24187542350E+03  0.00000000000E+00 0.  1.
        -15    1    1    2    0    0 -0.40652968071E+01 -0.18356776416E+02  0.21917989247E+01  0.19012090628E+02  0.17770000000E+01 0. -1.
         15    1    1    2    0    0 -0.25839395505E+01  0.13686521389E+02 -0.24957952656E+03  0.24997418951E+03  0.17770000000E+01 0.  1.
</event>
<event>
 6    1  0.3411206E-003  0.5020308E+03  0.7546771E-02  0.9395277E-01
        -11   -1    0    0    0    0  0.00000000000E+00  0.00000000000E+00  0.50000000000E+03  0.50000000000E+03  0.00000000000E+00 0.  1.
         11   -1    0    0    0    0 -0.00000000000E+00 -0.00000000000E+00 -0.50000000000E+03  0.50000000000E+03  0.00000000000E+00 0. -1.
        -11    1    1    2    0    0 -0.20934332567E+01 -0.11809917552E+01  0.15768251280E+03  0.15770083084E+03  0.00000000000E+00 0.  1.
         11    1    1    2    0    0 -0.29393619751E+02  0.21429746427E+02 -0.49663884821E+03  0.49796924048E+03  0.00000000000E+00 0. -1.
        -15    1    1    2    0    0  0.71031572937E+01 -0.33494528361E+01  0.25741770268E+03  0.25754359837E+03  0.17770000000E+01 0.  1.
         15    1    1    2    0    0  0.24383895714E+02 -0.16899301836E+02  0.81538632732E+02  0.86786330315E+02  0.17770000000E+01 0. -1.
</event>
<event>
 6    1  0.3411206E-003  0.4890409E+03  0.7546771E-02  0.9424671E-01
        -11   -1    0    0    0    0  0.00000000000E+00  0.00000000000E+00  0.50000000000E+03  0.50000000000E+03  0.00000000000E+00 0.  1.
         11   -1    0    0    0    0 -0.00000000000E+00 -0.00000000000E+00 -0.50000000000E+03  0.50000000000E+03  0.00000000000E+00 0. -1.
        -11    1    1    2    0    0 -0.98162533581E+01  0.58299349707E+01  0.49204602317E+03  0.49217845939E+03  0.00000000000E+00 0.  1.
         11    1    1    2    0    0  0.13322130387E+00  0.70468089042E+01 -0.48600362421E+03  0.48605472738E+03  0.00000000000E+00 0. -1.
        -15    1    1    2    0    0  0.80874597215E+01 -0.50378997689E+00 -0.20057535564E+01  0.85347281982E+01  0.17770000000E+01 0.  1.
         15    1    1    2    0    0  0.15955723328E+01 -0.12372953898E+02 -0.40366454046E+01  0.13232085034E+02  0.17770000000E+01 0. -1.
</event>
<event>
 6    1  0.3411206E-003  0.5011095E+03  0.7546771E-02  0.9397331E-01
        -11   -1    0    0    0    0  0.00000000000E+00  0.00000000000E+00  0.50000000000E+03  0.50000000000E+03  0.00000000000E+00 0.  1.
         11   -1    0    0    0    0 -0.00000000000E+00 -0.00000000000E+00 -0.50000000000E+03  0.50000000000E+03  0.00000000000E+00 0. -1.
        -11    1    1    2    0    0 -0.10845460110E+02 -0.89912481592E+01  0.30943908098E+03  0.30975960258E+03  0.00000000000E+00 0.  1.
         11    1    1    2    0    0 -0.96908154897E+01  0.14808943275E+02 -0.49857651215E+03  0.49889052424E+03  0.00000000000E+00 0. -1.
        -15    1    1    2    0    0 -0.30384005250E+01  0.14696922430E+00  0.47383240280E+02  0.47514025993E+02  0.17770000000E+01 0. -1.
         15    1    1    2    0    0  0.23574676125E+02 -0.59646643396E+01  0.14175419089E+03  0.14383584719E+03  0.17770000000E+01 0.  1.
</event>
<event>
 6    1  0.3411206E-003  0.5043651E+03  0.7546771E-02  0.9390095E-01
        -11   -1    0    0    0    0  0.00000000000E+00  0.00000000000E+00  0.50000000000E+03  0.50000000000E+03  0.00000000000E+00 0. -1.
         11   -1    0    0    0    0 -0.00000000000E+00 -0.00000000000E+00 -0.50000000000E+03  0.50000000000E+03  0.00000000000E+00 0.  1.
        -11    1    1    2    0    0  0.60241236821E+01 -0.19034417046E+01  0.43814479029E+03  0.43819033583E+03  0.00000000000E+00 0. -1.
         11    1    1    2    0    0 -0.16898493632E+02  0.16588629826E+02 -0.49506886850E+03  0.49563487194E+03  0.00000000000E+00 0.  1.
        -15    1    1    2    0    0  0.18218121188E+02 -0.63828864955E+01  0.48217195734E+02  0.51968229459E+02  0.17770000000E+01 0.  1.
         15    1    1    2    0    0 -0.73437512386E+01 -0.83023016256E+01  0.87068824733E+01  0.14206562777E+02  0.17770000000E+01 0. -1.
</event>
<event>
 6    1  0.3411206E-003  0.5181607E+03  0.7546771E-02  0.9360066E-01
        -11   -1    0    0    0    0  0.00000000000E+00  0.00000000000E+00  0.50000000000E+03  0.50000000000E+03  0.00000000000E+00 0.  1.
         11   -1    0    0    0    0 -0.00000000000E+00 -0.00000000000E+00 -0.50000000000E+03  0.50000000000E+03  0.00000000000E+00 0. -1.
        -11    1    1    2    0    0  0.76281227518E+00 -0.71035583688E+01  0.47058663713E+03  0.47064086677E+03  0.00000000000E+00 0.  1.
         11    1    1    2    0    0  0.15448562581E+01 -0.63080203703E+01 -0.48179548982E+03  0.48183925920E+03  0.00000000000E+00 0. -1.
        -15    1    1    2    0    0 -0.57213249739E+00  0.14743568348E+02 -0.15026134359E+02  0.21133920271E+02  0.17770000000E+01 0. -1.
         15    1    1    2    0    0 -0.17355360359E+01 -0.13319896094E+01  0.26234987041E+02  0.26385953757E+02  0.17770000000E+01 0.  1.
</event>
<event>
 6    1  0.3411206E-003  0.5045186E+03  0.7546771E-02  0.9389755E-01
        -11   -1    0    0    0    0  0.00000000000E+00  0.00000000000E+00  0.50000000000E+03  0.50000000000E+03  0.00000000000E+00 0.  1.
         11   -1    0    0    0    0 -0.00000000000E+00 -0.00000000000E+00 -0.50000000000E+03  0.50000000000E+03  0.00000000000E+00 0.  1.
        -11    1    1    2    0    0  0.13539838454E+02  0.49046363663E+01  0.46512469638E+03  0.46534757533E+03  0.00000000000E+00 0.  1.
         11    1    1    2    0    0  0.31643729929E+00  0.67949536734E+01 -0.49543473367E+03  0.49548142937E+03  0.00000000000E+00 0.  1.
        -15    1    1    2    0    0  0.14552006305E+01 -0.50048898787E+00 -0.97168086154E+00  0.25436176597E+01  0.17770000000E+01 0. -1.
         15    1    1    2    0    0 -0.15311476384E+02 -0.11199101052E+02  0.31281718147E+02  0.36627377638E+02  0.17770000000E+01 0.  1.
</event>
<event>
 6    1  0.3411206E-003  0.5030097E+03  0.7546771E-02  0.9393100E-01
        -11   -1    0    0    0    0  0.00000000000E+00  0.00000000000E+00  0.50000000000E+03  0.50000000000E+03  0.00000000000E+00 0. -1.
         11   -1    0    0    0    0 -0.00000000000E+00 -0.00000000000E+00 -0.50000000000E+03  0.50000000000E+03  0.00000000000E+00 0.  1.
        -11    1    1    2    0    0  0.78068080436E+01 -0.52330587383E+00  0.49692873617E+03  0.49699033082E+03  0.00000000000E+00 0. -1.
         11    1    1    2    0    0  0.81245969658E+01  0.22523145845E+01 -0.36629683785E+03  0.36639385287E+03  0.00000000000E+00 0.  1.
        -15    1    1    2    0    0  0.73107222471E+01 -0.10597246756E+02 -0.26188370097E+02  0.29235881309E+02  0.17770000000E+01 0.  1.
         15    1    1    2    0    0 -0.23242127256E+02  0.88682380454E+01 -0.10444352822E+03  0.10737993500E+03  0.17770000000E+01 0. -1.
</event>
<event>
 6    1  0.3411206E-003  0.5010528E+03  0.7546771E-02  0.9397457E-01
        -11   -1    0    0    0    0  0.00000000000E+00  0.00000000000E+00  0.50000000000E+03  0.50000000000E+03  0.00000000000E+00 0. -1.
         11   -1    0    0    0    0 -0.00000000000E+00 -0.00000000000E+00 -0.50000000000E+03  0.50000000000E+03  0.00000000000E+00 0. -1.
        -11    1    1    2    0    0 -0.96379752024E+00  0.54173781552E+01  0.24220604391E+03  0.24226853819E+03  0.00000000000E+00 0. -1.
         11    1    1    2    0    0 -0.16100162340E+02  0.91650865494E+01 -0.49860318916E+03  0.49894724599E+03  0.00000000000E+00 0. -1.
        -15    1    1    2    0    0  0.49837462916E+01  0.21815703479E+01  0.10047907235E+02  0.11563526499E+02  0.17770000000E+01 0.  1.
         15    1    1    2    0    0  0.12080213568E+02 -0.16764035053E+02  0.24634923802E+03  0.24722068933E+03  0.17770000000E+01 0. -1.
</event>
<event>
 6    1  0.3411206E-003  0.5007830E+03  0.7546771E-02  0.9398059E-01
        -11   -1    0    0    0    0  0.00000000000E+00  0.00000000000E+00  0.50000000000E+03  0.50000000000E+03  0.00000000000E+00 0. -1.
         11   -1    0    0    0    0 -0.00000000000E+00 -0.00000000000E+00 -0.50000000000E+03  0.50000000000E+03  0.00000000000E+00 0. -1.
        -11    1    1    2    0    0  0.66571991633E+01  0.17726839819E+01  0.31997421099E+03  0.32004836574E+03  0.00000000000E+00 0. -1.
         11    1    1    2    0    0  0.68895088435E+00 -0.95711339825E+01 -0.49912475001E+03  0.49921698422E+03  0.00000000000E+00 0. -1.
        -15    1    1    2    0    0 -0.23790846046E+01 -0.45367382079E+01  0.11823491236E+03  0.11835917484E+03  0.17770000000E+01 0.  1.
         15    1    1    2    0    0 -0.49670654431E+01  0.12335188208E+02  0.60915626656E+02  0.62375475206E+02  0.17770000000E+01 0. -1.
</event>
<event>
 6    1  0.3411206E-003  0.5066810E+03  0.7546771E-02  0.9384983E-01
        -11   -1    0    0    0    0  0.00000000000E+00  0.00000000000E+00  0.50000000000E+03  0.50000000000E+03  0.00000000000E+00 0. -1.
         11   -1    0    0    0    0 -0.00000000000E+00 -0.00000000000E+00 -0.50000000000E+03  0.50000000000E+03  0.00000000000E+00 0. -1.
        -11    1    1    2    0    0  0.63256139641E+01 -0.33895279586E+01  0.49326679723E+03  0.49331899977E+03  0.00000000000E+00 0. -1.
         11    1    1    2    0    0  0.81557557553E+01  0.48447358580E+01 -0.44977867151E+03  0.44987869605E+03  0.00000000000E+00 0. -1.
        -15    1    1    2    0    0  0.63057301964E+01  0.74432971411E+01 -0.29414069451E+01  0.10342848228E+02  0.17770000000E+01 0.  1.
         15    1    1    2    0    0 -0.20787099916E+02 -0.88985050405E+01 -0.40546718774E+02  0.46459455950E+02  0.17770000000E+01 0. -1.
</event>
<event>
 6    1  0.3411206E-003  0.5016793E+03  0.7546771E-02  0.9396060E-01
        -11   -1    0    0    0    0  0.00000000000E+00  0.00000000000E+00  0.50000000000E+03  0.50000000000E+03  0.00000000000E+00 0. -1.
         11   -1    0    0    0    0 -0.00000000000E+00 -0.00000000000E+00 -0.50000000000E+03  0.50000000000E+03  0.00000000000E+00 0. -1.
        -11    1    1    2    0    0 -0.19412758927E+01 -0.62829248604E+01  0.41772267707E+03  0.41777443511E+03  0.00000000000E+00 0. -1.
         11    1    1    2    0    0  0.17139823027E+01  0.66034510091E+01 -0.49827395652E+03  0.49832065886E+03  0.00000000000E+00 0. -1.
        -15    1    1    2    0    0 -0.73264647538E+01  0.39907029381E+01  0.67992555421E+02  0.68525528947E+02  0.17770000000E+01 0. -1.
         15    1    1    2    0    0  0.75537583437E+01 -0.43112290868E+01  0.12558724026E+02  0.15379377084E+02  0.17770000000E+01 0.  1.
</event>
<event>
 6    1  0.3411206E-003  0.5017590E+03  0.7546771E-02  0.9395882E-01
        -11   -1    0    0    0    0  0.00000000000E+00  0.00000000000E+00  0.50000000000E+03  0.50000000000E+03  0.00000000000E+00 0. -1.
         11   -1    0    0    0    0 -0.00000000000E+00 -0.00000000000E+00 -0.50000000000E+03  0.50000000000E+03  0.00000000000E+00 0.  1.
        -11    1    1    2    0    0  0.15234939357E+02  0.10657026038E+01  0.40283752272E+03  0.40312691403E+03  0.00000000000E+00 0. -1.
         11    1    1    2    0    0 -0.77861038244E+01  0.14104660915E+02 -0.49798047110E+03  0.49824102046E+03  0.00000000000E+00 0.  1.
        -15    1    1    2    0    0  0.64899163417E+01 -0.70745317231E+01  0.37719879891E+02  0.38962996307E+02  0.17770000000E+01 0.  1.
         15    1    1    2    0    0 -0.13938751875E+02 -0.80958317953E+01  0.57423068488E+02  0.59669069206E+02  0.17770000000E+01 0. -1.
</event>
<event>
 6    1  0.3412330E-003  0.5005353E+03  0.7546771E-02  0.9398613E-01
        -11   -1    0    0    0    0  0.00000000000E+00  0.00000000000E+00  0.50000000000E+03  0.50000000000E+03  0.00000000000E+00 0. -1.
         11   -1    0    0    0    0 -0.00000000000E+00 -0.00000000000E+00 -0.50000000000E+03  0.50000000000E+03  0.00000000000E+00 0.  1.
        -11    1    1    2    0    0 -0.11053503574E+02 -0.47476369610E+01  0.49931981173E+03  0.49946470785E+03  0.00000000000E+00 0. -1.
         11    1    1    2    0    0 -0.12280256803E+01  0.51424522541E+01 -0.31031170946E+03  0.31035674616E+03  0.00000000000E+00 0.  1.
        -15    1    1    2    0    0  0.32439137769E+01 -0.46218423103E+01 -0.14042446473E+03  0.14054918152E+03  0.17770000000E+01 0.  1.
         15    1    1    2    0    0  0.90376154775E+01  0.42270270172E+01 -0.48583637548E+02  0.49629364466E+02  0.17770000000E+01 0. -1.
</event>
<event>
 6    1  0.3411206E-003  0.5042858E+03  0.7546771E-02  0.9390271E-01
        -11   -1    0    0    0    0  0.00000000000E+00  0.00000000000E+00  0.50000000000E+03  0.50000000000E+03  0.00000000000E+00 0.  1.
         11   -1    0    0    0    0 -0.00000000000E+00 -0.00000000000E+00 -0.50000000000E+03  0.50000000000E+03  0.00000000000E+00 0. -1.
        -11    1    1    2    0    0 -0.12223779897E+02 -0.10266824625E+02  0.49545708561E+03  0.49571418395E+03  0.00000000000E+00 0.  1.
         11    1    1    2    0    0 -0.49008429484E+01  0.10471278258E+02 -0.34073905133E+03  0.34093513610E+03  0.00000000000E+00 0. -1.
        -15    1    1    2    0    0 -0.65581865918E+01 -0.94997687439E+01 -0.11838687964E+03  0.11896161741E+03  0.17770000000E+01 0. -1.
         15    1    1    2    0    0  0.23682809437E+02  0.92953151114E+01 -0.36331154651E+02  0.44389062540E+02  0.17770000000E+01 0.  1.
</event>
<event>
 6    1  0.3411206E-003  0.2930887E+03  0.7546771E-02  0.1003878E+00
        -11   -1    0    0    0    0  0.00000000000E+00  0.00000000000E+00  0.50000000000E+03  0.50000000000E+03  0.00000000000E+00 0.  1.
         11   -1    0    0    0    0 -0.00000000000E+00 -0.00000000000E+00 -0.50000000000E+03  0.50000000000E+03  0.00000000000E+00 0.  1.
        -11    1    1    2    0    0  0.90179567931E+01 -0.58473394323E+01  0.24406657437E+03  0.24430310609E+03  0.00000000000E+00 0.  1.
         11    1    1    2    0    0  0.35327093501E+01 -0.38490044178E+01 -0.34434732163E+03  0.34438695211E+03  0.00000000000E+00 0.  1.
        -15    1    1    2    0    0  0.44392989363E+02  0.43915920936E+02 -0.14462873842E+03  0.15754356643E+03  0.17770000000E+01 0.  1.
         15    1    1    2    0    0 -0.56943655506E+02 -0.34219577086E+02  0.24490948569E+03  0.25376637537E+03  0.17770000000E+01 0. -1.
</event>
<event>
 6    1  0.3411206E-003  0.5005069E+03  0.7546771E-02  0.9398676E-01
        -11   -1    0    0    0    0  0.00000000000E+00  0.00000000000E+00  0.50000000000E+03  0.50000000000E+03  0.00000000000E+00 0. -1.
         11   -1    0    0    0    0 -0.00000000000E+00 -0.00000000000E+00 -0.50000000000E+03  0.50000000000E+03  0.00000000000E+00 0.  1.
        -11    1    1    2    0    0  0.11537105226E+01  0.49442563830E+01  0.32135801764E+03  0.32139812106E+03  0.00000000000E+00 0. -1.
         11    1    1    2    0    0 -0.15236410968E+02 -0.94891565305E-01 -0.49926064761E+03  0.49949309453E+03  0.00000000000E+00 0.  1.
        -15    1    1    2    0    0  0.14831999348E+02  0.60258844652E+00  0.13155494519E+03  0.13240170939E+03  0.17770000000E+01 0. -1.
         15    1    1    2    0    0 -0.74929890217E+00 -0.54519532642E+01  0.46347684790E+02  0.46707075027E+02  0.17770000000E+01 0. -1.
</event>
<event>
 6    1  0.3411206E-003  0.5040210E+03  0.7546771E-02  0.9390857E-01
        -11   -1    0    0    0    0  0.00000000000E+00  0.00000000000E+00  0.50000000000E+03  0.50000000000E+03  0.00000000000E+00 0. -1.
         11   -1    0    0    0    0 -0.00000000000E+00 -0.00000000000E+00 -0.50000000000E+03  0.50000000000E+03  0.00000000000E+00 0.  1.
        -11    1    1    2    0    0  0.27152067188E+01 -0.83692562929E+01  0.49590093980E+03  0.49597899037E+03  0.00000000000E+00 0. -1.
         11    1    1    2    0    0  0.48760279573E+01 -0.11869883685E+02 -0.42336579296E+03  0.42356022528E+03  0.00000000000E+00 0.  1.
        -15    1    1    2    0    0  0.43596915911E+01 -0.16541735079E+01 -0.35030951452E+02  0.35384579825E+02  0.17770000000E+01 0.  1.
         15    1    1    2    0    0 -0.11950926267E+02  0.21893313486E+02 -0.37504195381E+02  0.45076204524E+02  0.17770000000E+01 0. -1.
</event>
<event>
 6    1  0.3411206E-003  0.5012927E+03  0.7546771E-02  0.9396922E-01
        -11   -1    0    0    0    0  0.00000000000E+00  0.00000000000E+00  0.50000000000E+03  0.50000000000E+03  0.00000000000E+00 0.  1.
         11   -1    0    0    0    0 -0.00000000000E+00 -0.00000000000E+00 -0.50000000000E+03  0.50000000000E+03  0.00000000000E+00 0.  1.
        -11    1    1    2    0    0 -0.11606747416E+02 -0.45457541019E+01  0.49855150474E+03  0.49870731231E+03  0.00000000000E+00 0.  1.
         11    1    1    2    0    0 -0.12860780086E+02  0.60444460831E+01 -0.28372408854E+03  0.28407973073E+03  0.00000000000E+00 0.  1.
        -15    1    1    2    0    0  0.60818443385E+01 -0.25614023737E+01 -0.14466477706E+02  0.15999572460E+02  0.17770000000E+01 0. -1.
         15    1    1    2    0    0  0.18385683164E+02  0.10627103925E+01 -0.20036093850E+03  0.20121338450E+03  0.17770000000E+01 0.  1.
</event>
<event>
 6    1  0.3411206E-003  0.4887258E+03  0.7546771E-02  0.9425396E-01
        -11   -1    0    0    0    0  0.00000000000E+00  0.00000000000E+00  0.50000000000E+03  0.50000000000E+03  0.00000000000E+00 0. -1.
         11   -1    0    0    0    0 -0.00000000000E+00 -0.00000000000E+00 -0.50000000000E+03  0.50000000000E+03  0.00000000000E+00 0.  1.
        -11    1    1    2    0    0  0.43669927288E+01  0.13547035917E+02  0.48798600700E+03  0.48819354342E+03  0.00000000000E+00 0. -1.
         11    1    1    2    0    0 -0.73039772737E+01  0.17384866532E+01 -0.48932527834E+03  0.48938287511E+03  0.00000000000E+00 0.  1.
        -15    1    1    2    0    0  0.11641255082E+01 -0.10354932444E+02  0.83655989613E+01  0.13480385347E+02  0.17770000000E+01 0. -1.
         15    1    1    2    0    0  0.17728590367E+01 -0.49305901262E+01 -0.70263276189E+01  0.89431961270E+01  0.17770000000E+01 0.  1.
</event>
<event>
 6    1  0.3411206E-003  0.5093689E+03  0.7546771E-02  0.9379087E-01
        -11   -1    0    0    0    0  0.00000000000E+00  0.00000000000E+00  0.50000000000E+03  0.50000000000E+03  0.00000000000E+00 0. -1.
         11   -1    0    0    0    0 -0.00000000000E+00 -0.00000000000E+00 -0.50000000000E+03  0.50000000000E+03  0.00000000000E+00 0.  1.
        -11    1    1    2    0    0  0.64554101743E+00  0.83455945262E+01  0.49055966312E+03  0.49063107194E+03  0.00000000000E+00 0. -1.
         11    1    1    2    0    0 -0.74649434355E+01  0.69991011563E+01 -0.46506697696E+03  0.46517954153E+03  0.00000000000E+00 0.  1.
        -15    1    1    2    0    0  0.83600627248E+01  0.12706882395E+01 -0.26002530526E+02  0.27400631747E+02  0.17770000000E+01 0. -1.
         15    1    1    2    0    0 -0.15406603067E+01 -0.16615383922E+02  0.50984436499E+00  0.16788754788E+02  0.17770000000E+01 0.  1.
</event>
<event>
 6    1  0.3411206E-003  0.5108925E+03  0.7546771E-02  0.9375761E-01
        -11   -1    0    0    0    0  0.00000000000E+00  0.00000000000E+00  0.50000000000E+03  0.50000000000E+03  0.00000000000E+00 0. -1.
         11   -1    0    0    0    0 -0.00000000000E+00 -0.00000000000E+00 -0.50000000000E+03  0.50000000000E+03  0.00000000000E+00 0.  1.
        -11    1    1    2    0    0  0.81930828799E+00  0.16633815710E+02  0.42764918138E+03  0.42797333729E+03  0.00000000000E+00 0. -1.
         11    1    1    2    0    0  0.76700617023E+01 -0.73481847137E+01 -0.48899214631E+03  0.48910749823E+03  0.00000000000E+00 0.  1.
        -15    1    1    2    0    0  0.11404108460E+02 -0.26635816064E+02  0.27748491804E+02  0.40157899765E+02  0.17770000000E+01 0. -1.
         15    1    1    2    0    0 -0.19893478450E+02  0.17350185067E+02  0.33594473126E+02  0.42761264719E+02  0.17770000000E+01 0.  1.
</event>
<event>
 6    1  0.3411206E-003  0.5011635E+03  0.7546771E-02  0.9397210E-01
        -11   -1    0    0    0    0  0.00000000000E+00  0.00000000000E+00  0.50000000000E+03  0.50000000000E+03  0.00000000000E+00 0. -1.
         11   -1    0    0    0    0 -0.00000000000E+00 -0.00000000000E+00 -0.50000000000E+03  0.50000000000E+03  0.00000000000E+00 0. -1.
        -11    1    1    2    0    0 -0.16332313274E+02  0.49178361334E+01  0.49854478991E+03  0.49883648334E+03  0.00000000000E+00 0. -1.
         11    1    1    2    0    0 -0.50540700098E+01 -0.78167984089E+01 -0.31109388234E+03  0.31123311133E+03  0.00000000000E+00 0. -1.
        -15    1    1    2    0    0  0.91472913846E+00 -0.38589318174E+00 -0.10062583902E+03  0.10064642493E+03  0.17770000000E+01 0.  1.
         15    1    1    2    0    0  0.20471654145E+02  0.32848554572E+01 -0.86825068551E+02  0.89283980404E+02  0.17770000000E+01 0. -1.
</event>
<event>
 6    1  0.3411206E-003  0.4879069E+03  0.7546771E-02  0.9427283E-01
        -11   -1    0    0    0    0  0.00000000000E+00  0.00000000000E+00  0.50000000000E+03  0.50000000000E+03  0.00000000000E+00 0.  1.
         11   -1    0    0    0    0 -0.00000000000E+00 -0.00000000000E+00 -0.50000000000E+03  0.50000000000E+03  0.00000000000E+00 0.  1.
        -11    1    1    2    0    0  0.82280419209E+00  0.76184122370E+01  0.49036202873E+03  0.49042189636E+03  0.00000000000E+00 0.  1.
         11    1    1    2    0    0  0.12369984388E+02 -0.19839244382E+01 -0.48534865764E+03  0.48551032115E+03  0.00000000000E+00 0.  1.
        -15    1    1    2    0    0 -0.46970911875E+01  0.23214804668E+01  0.58470101329E+01  0.80496704079E+01  0.17770000000E+01 0. -1.
         15    1    1    2    0    0 -0.84956973926E+01 -0.79559682655E+01 -0.10860381228E+02  0.16018112081E+02  0.17770000000E+01 0.  1.
</event>
<event>
 6    1  0.3411206E-003  0.5024273E+03  0.7546771E-02  0.9394395E-01
        -11   -1    0    0    0    0  0.00000000000E+00  0.00000000000E+00  0.50000000000E+03  0.50000000000E+03  0.00000000000E+00 0. -1.
         11   -1    0    0    0    0 -0.00000000000E+00 -0.00000000000E+00 -0.50000000000E+03  0.50000000000E+03  0.00000000000E+00 0. -1.
        -11    1    1    2    0    0  0.91477228535E+01  0.11857460916E+01  0.47580207865E+03  0.47589148435E+03  0.00000000000E+00 0. -1.
         11    1    1    2    0    0 -0.15941706946E+01  0.66779081005E+01 -0.49752535982E+03  0.49757272785E+03  0.00000000000E+00 0. -1.
        -15    1    1    2    0    0 -0.57913115261E+01 -0.43781653793E+01  0.20860366790E+02  0.22158976802E+02  0.17770000000E+01 0.  1.
         15    1    1    2    0    0 -0.17622406328E+01 -0.34854888128E+01  0.86291437394E+00  0.43768109999E+01  0.17770000000E+01 0. -1.
</event>
<event>
 6    1  0.3411206E-003  0.5035576E+03  0.7546771E-02  0.9391884E-01
        -11   -1    0    0    0    0  0.00000000000E+00  0.00000000000E+00  0.50000000000E+03  0.50000000000E+03  0.00000000000E+00 0. -1.
         11   -1    0    0    0    0 -0.00000000000E+00 -0.00000000000E+00 -0.50000000000E+03  0.50000000000E+03  0.00000000000E+00 0. -1.
        -11    1    1    2    0    0  0.11410463832E+02 -0.64881844170E+01  0.22685099381E+03  0.22723043065E+03  0.00000000000E+00 0. -1.
         11    1    1    2    0    0  0.12665037399E+02  0.36350142393E+01 -0.49626748166E+03  0.49644237315E+03  0.00000000000E+00 0. -1.
        -15    1    1    2    0    0 -0.13222136037E+02  0.23571447917E+02  0.62909815361E+02  0.68492631983E+02  0.17770000000E+01 0. -1.
         15    1    1    2    0    0 -0.10853365194E+02 -0.20718277739E+02  0.20650667249E+03  0.20783456421E+03  0.17770000000E+01 0.  1.
</event>
<event>
 6    1  0.3800572E-003  0.4291525E+03  0.7546771E-02  0.9573981E-01
        -11   -1    0    0    0    0  0.00000000000E+00  0.00000000000E+00  0.50000000000E+03  0.50000000000E+03  0.00000000000E+00 0.  1.
         11   -1    0    0    0    0 -0.00000000000E+00 -0.00000000000E+00 -0.50000000000E+03  0.50000000000E+03  0.00000000000E+00 0. -1.
        -11    1    1    2    0    0 -0.58881604791E+00  0.78658815928E+01  0.41382222003E+03  0.41389738896E+03  0.00000000000E+00 0.  1.
         11    1    1    2    0    0  0.28488332994E+02  0.35696594864E+02 -0.44415818437E+03  0.44650008370E+03  0.00000000000E+00 0. -1.
        -15    1    1    2    0    0 -0.34242442244E+02 -0.40189912550E+02 -0.41627813737E+02  0.67259248637E+02  0.17770000000E+01 0. -1.
         15    1    1    2    0    0  0.63429252981E+01 -0.33725639060E+01  0.71963778083E+02  0.72343278704E+02  0.17770000000E+01 0.  1.
</event>
<event>
 6    1  0.3411206E-003  0.5173853E+03  0.7546771E-02  0.9361727E-01
        -11   -1    0    0    0    0  0.00000000000E+00  0.00000000000E+00  0.50000000000E+03  0.50000000000E+03  0.00000000000E+00 0. -1.
         11   -1    0    0    0    0 -0.00000000000E+00 -0.00000000000E+00 -0.50000000000E+03  0.50000000000E+03  0.00000000000E+00 0.  1.
        -11    1    1    2    0    0  0.44795398712E+01  0.28495246246E+01  0.13510569702E+03  0.13520996796E+03  0.00000000000E+00 0. -1.
         11    1    1    2    0    0 -0.18646974104E+02  0.27681383904E+01 -0.48224633997E+03  0.48261465440E+03  0.00000000000E+00 0.  1.
        -15    1    1    2    0    0  0.17668716520E+02  0.20201883584E+02  0.35412196834E+03  0.35514197982E+03  0.17770000000E+01 0.  1.
         15    1    1    2    0    0 -0.35012822868E+01 -0.25819546599E+02 -0.69813253893E+01  0.27033397815E+02  0.17770000000E+01 0. -1.
</event>
<event>
 6    1  0.3411206E-003  0.5082264E+03  0.7546771E-02  0.9381588E-01
        -11   -1    0    0    0    0  0.00000000000E+00  0.00000000000E+00  0.50000000000E+03  0.50000000000E+03  0.00000000000E+00 0. -1.
         11   -1    0    0    0    0 -0.00000000000E+00 -0.00000000000E+00 -0.50000000000E+03  0.50000000000E+03  0.00000000000E+00 0. -1.
        -11    1    1    2    0    0 -0.29683272442E+02  0.10652497591E+02  0.37412409986E+03  0.37545094814E+03  0.00000000000E+00 0. -1.
         11    1    1    2    0    0 -0.10665597986E+02  0.11770647978E+02 -0.49151705798E+03  0.49177364856E+03  0.00000000000E+00 0. -1.
        -15    1    1    2    0    0  0.23758799817E+02  0.11732189736E+01  0.89450270149E+02  0.92576268937E+02  0.17770000000E+01 0.  1.
         15    1    1    2    0    0  0.16590070610E+02 -0.23596364543E+02  0.27942687976E+02  0.40199134354E+02  0.17770000000E+01 0. -1.
</event>
<event>
 6    1  0.3411206E-003  0.5038677E+03  0.7546771E-02  0.9391197E-01
        -11   -1    0    0    0    0  0.00000000000E+00  0.00000000000E+00  0.50000000000E+03  0.50000000000E+03  0.00000000000E+00 0. -1.
         11   -1    0    0    0    0 -0.00000000000E+00 -0.00000000000E+00 -0.50000000000E+03  0.50000000000E+03  0.00000000000E+00 0. -1.
        -11    1    1    2    0    0 -0.84083020515E+01  0.13103056538E+02  0.42648263538E+03  0.42676671369E+03  0.00000000000E+00 0. -1.
         11    1    1    2    0    0  0.42657148300E+01 -0.69674418026E+01 -0.49606499456E+03  0.49613226099E+03  0.00000000000E+00 0. -1.
        -15    1    1    2    0    0 -0.90972250890E+01 -0.41703195550E+01  0.59206167492E+02  0.60072282025E+02  0.17770000000E+01 0.  1.
         15    1    1    2    0    0  0.13239812310E+02 -0.19652951803E+01  0.10376191687E+02  0.17028743292E+02  0.17770000000E+01 0. -1.
</event>
<event>
 6    1  0.3411206E-003  0.5017869E+03  0.7546771E-02  0.9395820E-01
        -11   -1    0    0    0    0  0.00000000000E+00  0.00000000000E+00  0.50000000000E+03  0.50000000000E+03  0.00000000000E+00 0.  1.
         11   -1    0    0    0    0 -0.00000000000E+00 -0.00000000000E+00 -0.50000000000E+03  0.50000000000E+03  0.00000000000E+00 0. -1.
        -11    1    1    2    0    0  0.14138448197E+02 -0.20505435786E+02  0.49759008769E+03  0.49821307087E+03  0.00000000000E+00 0.  1.
         11    1    1    2    0    0 -0.55068143006E+01  0.17842712219E+02 -0.44885253814E+03  0.44924079109E+03  0.00000000000E+00 0. -1.
        -15    1    1    2    0    0  0.26459707112E+01 -0.42172464114E+01 -0.22550812566E+02  0.23162107086E+02  0.17770000000E+01 0. -1.
         15    1    1    2    0    0 -0.11277604607E+02  0.68799699782E+01 -0.26186736987E+02  0.29384030962E+02  0.17770000000E+01 0.  1.
</event>
<event>
 6    1  0.3411206E-003  0.3871247E+03  0.7546771E-02  0.9695227E-01
        -11   -1    0    0    0    0  0.00000000000E+00  0.00000000000E+00  0.50000000000E+03  0.50000000000E+03  0.00000000000E+00 0.  1.
         11   -1    0    0    0    0 -0.00000000000E+00 -0.00000000000E+00 -0.50000000000E+03  0.50000000000E+03  0.00000000000E+00 0.  1.
        -11    1    1    2    0    0 -0.57618341918E+02  0.97054690726E+02  0.41332818072E+03  0.42846198348E+03  0.00000000000E+00 0.  1.
         11    1    1    2    0    0  0.64650030665E+02  0.56285325728E+01 -0.11449430990E+03  0.13160643542E+03  0.00000000000E+00 0.  1.
        -15    1    1    2    0    0  0.52079000597E+02 -0.40188042862E+02  0.48724816037E+02  0.81881417422E+02  0.17770000000E+01 0. -1.
         15    1    1    2    0    0 -0.59110689344E+02 -0.62495180436E+02 -0.34755868685E+03  0.35805016367E+03  0.17770000000E+01 0.  1.
</event>
<event>
 6    1  0.3411206E-003  0.5208007E+03  0.7546771E-02  0.9354433E-01
        -11   -1    0    0    0    0  0.00000000000E+00  0.00000000000E+00  0.50000000000E+03  0.50000000000E+03  0.00000000000E+00 0. -1.
         11   -1    0    0    0    0 -0.00000000000E+00 -0.00000000000E+00 -0.50000000000E+03  0.50000000000E+03  0.00000000000E+00 0. -1.
        -11    1    1    2    0    0 -0.61524071342E+01  0.27729564078E+00  0.42700961096E+03  0.42705402101E+03  0.00000000000E+00 0. -1.
         11    1    1    2    0    0 -0.16042157401E+02 -0.83288991787E+01 -0.47885828116E+03  0.47919930594E+03  0.00000000000E+00 0. -1.
        -15    1    1    2    0    0 -0.16661495656E+01  0.85890770963E+01  0.65559545191E+02  0.66164643084E+02  0.17770000000E+01 0. -1.
         15    1    1    2    0    0  0.23860714101E+02 -0.53747355836E+00 -0.13710874990E+02  0.27582029970E+02  0.17770000000E+01 0.  1.
</event>
<event>
 6    1  0.3411206E-003  0.5000784E+03  0.7546771E-02  0.9399634E-01
        -11   -1    0    0    0    0  0.00000000000E+00  0.00000000000E+00  0.50000000000E+03  0.50000000000E+03  0.00000000000E+00 0.  1.
         11   -1    0    0    0    0 -0.00000000000E+00 -0.00000000000E+00 -0.50000000000E+03  0.50000000000E+03  0.00000000000E+00 0. -1.
        -11    1    1    2    0    0  0.52987409935E+01  0.69180016895E+01  0.49984563308E+03  0.49992158616E+03  0.00000000000E+00 0.  1.
         11    1    1    2    0    0 -0.53161089353E+00  0.12060548979E+01 -0.18919655756E+02  0.18965509550E+02  0.00000000000E+00 0. -1.
        -15    1    1    2    0    0  0.10275399062E+01 -0.36523106477E+01 -0.30123700989E+03  0.30126614325E+03  0.17770000000E+01 0.  1.
         15    1    1    2    0    0 -0.57946700061E+01 -0.44717459397E+01 -0.17968896743E+03  0.17984676104E+03  0.17770000000E+01 0. -1.
</event>
<event>
 6    1  0.3411206E-003  0.5003718E+03  0.7546771E-02  0.9398978E-01
        -11   -1    0    0    0    0  0.00000000000E+00  0.00000000000E+00  0.50000000000E+03  0.50000000000E+03  0.00000000000E+00 0.  1.
         11   -1    0    0    0    0 -0.00000000000E+00 -0.00000000000E+00 -0.50000000000E+03  0.50000000000E+03  0.00000000000E+00 0.  1.
        -11    1    1    2    0    0  0.83205144006E+01  0.18557939033E+00  0.49955887284E+03  0.49962819460E+03  0.00000000000E+00 0.  1.
         11    1    1    2    0    0 -0.73330471135E+01 -0.18685431739E+01 -0.41967203262E+03  0.41974025301E+03  0.00000000000E+00 0.  1.
        -15    1    1    2    0    0  0.25325753884E+01  0.30957252703E+01 -0.65534920832E+02  0.65680903088E+02  0.17770000000E+01 0.  1.
         15    1    1    2    0    0 -0.35200426755E+01 -0.14127614868E+01 -0.14351919387E+02  0.14950649302E+02  0.17770000000E+01 0. -1.
</event>
<event>
 6    1  0.3411206E-003  0.4840898E+03  0.7546771E-02  0.9436131E-01
        -11   -1    0    0    0    0  0.00000000000E+00  0.00000000000E+00  0.50000000000E+03  0.50000000000E+03  0.00000000000E+00 0.  1.
         11   -1    0    0    0    0 -0.00000000000E+00 -0.00000000000E+00 -0.50000000000E+03  0.50000000000E+03  0.00000000000E+00 0.  1.
        -11    1    1    2    0    0  0.90276407588E+01  0.31304405899E+01  0.48254765578E+03  0.48264224644E+03  0.00000000000E+00 0.  1.
         11    1    1    2    0    0  0.10264988749E+02  0.50242509909E+00 -0.48563262341E+03  0.48574135848E+03  0.00000000000E+00 0.  1.
        -15    1    1    2    0    0 -0.18073066566E+02 -0.67653570286E+01  0.11392506637E+02  0.22480051764E+02  0.17770000000E+01 0. -1.
         15    1    1    2    0    0 -0.12195629417E+01  0.31324913397E+01 -0.83075390068E+01  0.91363433118E+01  0.17770000000E+01 0.  1.
</event>
<event>
 6    1  0.3411206E-003  0.5193211E+03  0.7546771E-02  0.9357586E-01
        -11   -1    0    0    0    0  0.00000000000E+00  0.00000000000E+00  0.50000000000E+03  0.50000000000E+03  0.00000000000E+00 0. -1.
         11   -1    0    0    0    0 -0.00000000000E+00 -0.00000000000E+00 -0.50000000000E+03  0.50000000000E+03  0.00000000000E+00 0.  1.
        -11    1    1    2    0    0  0.62691968775E+01  0.30791578040E+01  0.47138288610E+03  0.47143462892E+03  0.00000000000E+00 0. -1.
         11    1    1    2    0    0  0.11357117835E+01  0.80007627559E+01 -0.48061098235E+03  0.48067891404E+03  0.00000000000E+00 0.  1.
        -15    1    1    2    0    0  0.10108184437E+02 -0.70396778209E+01  0.22336772951E+02  0.25569935692E+02  0.17770000000E+01 0. -1.
         15    1    1    2    0    0 -0.17513093098E+02 -0.40402427390E+01 -0.13108676700E+02  0.22316521348E+02  0.17770000000E+01 0.  1.
</event>
<event>
 6    1  0.3411206E-003  0.5049362E+03  0.7546771E-02  0.9388832E-01
        -11   -1    0    0    0    0  0.00000000000E+00  0.00000000000E+00  0.50000000000E+03  0.50000000000E+03  0.00000000000E+00 0.  1.
         11   -1    0    0    0    0 -0.00000000000E+00 -0.00000000000E+00 -0.50000000000E+03  0.50000000000E+03  0.00000000000E+00 0. -1.
        -11    1    1    2    0    0  0.10958805460E+02  0.56384891784E+01  0.43594898535E+03  0.43612315440E+03  0.00000000000E+00 0.  1.
         11    1    1    2    0    0  0.69469510085E+01  0.30180071594E+01 -0.49500590580E+03  0.49506384969E+03  0.00000000000E+00 0. -1.
        -15    1    1    2    0    0  0.48108291069E+01 -0.50390764513E+01  0.23043433715E+01  0.75501056649E+01  0.17770000000E+01 0.  1.
         15    1    1    2    0    0 -0.22716585575E+02 -0.36174198866E+01  0.56752577081E+02  0.61262890245E+02  0.17770000000E+01 0. -1.
</event>
<event>
 6    1  0.3411206E-003  0.5007062E+03  0.7546771E-02  0.9398231E-01
        -11   -1    0    0    0    0  0.00000000000E+00  0.00000000000E+00  0.50000000000E+03  0.50000000000E+03  0.00000000000E+00 0. -1.
         11   -1    0    0    0    0 -0.00000000000E+00 -0.00000000000E+00 -0.50000000000E+03  0.50000000000E+03  0.00000000000E+00 0. -1.
        -11    1    1    2    0    0 -0.25724346110E+00 -0.22754628223E+01  0.75958184363E+02  0.75992694892E+02  0.00000000000E+00 0. -1.
         11    1    1    2    0    0 -0.14069314233E+00  0.88742464160E+01 -0.49921488116E+03  0.49929377086E+03  0.00000000000E+00 0. -1.
        -15    1    1    2    0    0 -0.26107814787E+01  0.69637888593E+01  0.35255943940E+03  0.35264234938E+03  0.17770000000E+01 0. -1.
         15    1    1    2    0    0  0.30087180821E+01 -0.13562572453E+02  0.70697257402E+02  0.72071184874E+02  0.17770000000E+01 0.  1.
</event>
<event>
 6    1  0.3411206E-003  0.5012773E+03  0.7546771E-02  0.9396956E-01
        -11   -1    0    0    0    0  0.00000000000E+00  0.00000000000E+00  0.50000000000E+03  0.50000000000E+03  0.00000000000E+00 0. -1.
         11   -1    0    0    0    0 -0.00000000000E+00 -0.00000000000E+00 -0.50000000000E+03  0.50000000000E+03  0.00000000000E+00 0.  1.
        -11    1    1    2    0    0 -0.93863343133E+01  0.10174310876E+02  0.49853058466E+03  0.49872273230E+03  0.00000000000E+00 0. -1.
         11    1    1    2    0    0 -0.84032252617E+01 -0.51970936885E+01 -0.28172164634E+03  0.28189485627E+03  0.00000000000E+00 0.  1.
        -15    1    1    2    0    0 -0.55602673695E+01 -0.64843867923E+00 -0.99910296217E+02  0.10008277607E+03  0.17770000000E+01 0.  1.
         15    1    1    2    0    0  0.23349826944E+02 -0.43287785081E+01 -0.11689864211E+03  0.11929963536E+03  0.17770000000E+01 0. -1.
</event>
<event>
 6    1  0.3411206E-003  0.3586008E+03  0.7546771E-02  0.9787310E-01
        -11   -1    0    0    0    0  0.00000000000E+00  0.00000000000E+00  0.50000000000E+03  0.50000000000E+03  0.00000000000E+00 0.  1.
         11   -1    0    0    0    0 -0.00000000000E+00 -0.00000000000E+00 -0.50000000000E+03  0.50000000000E+03  0.00000000000E+00 0.  1.
        -11    1    1    2    0    0 -0.21490231556E+02 -0.66114711044E+01  0.12973208573E+03  0.13166607638E+03  0.00000000000E+00 0.  1.
         11    1    1    2    0    0 -0.10557896924E+02 -0.25549127204E+01 -0.34835094801E+03  0.34852027164E+03  0.00000000000E+00 0.  1.
        -15    1    1    2    0    0  0.47396852976E+02  0.27714293352E+02  0.36618673289E+03  0.37028424866E+03  0.17770000000E+01 0.  1.
         15    1    1    2    0    0 -0.15348724496E+02 -0.18547909527E+02 -0.14756787061E+03  0.14952940332E+03  0.17770000000E+01 0. -1.
</event>
<event>
 6    1  0.3411206E-003  0.5024879E+03  0.7546771E-02  0.9394260E-01
        -11   -1    0    0    0    0  0.00000000000E+00  0.00000000000E+00  0.50000000000E+03  0.50000000000E+03  0.00000000000E+00 0. -1.
         11   -1    0    0    0    0 -0.00000000000E+00 -0.00000000000E+00 -0.50000000000E+03  0.50000000000E+03  0.00000000000E+00 0. -1.
        -11    1    1    2    0    0  0.75521410568E+01  0.42840991798E+01  0.49743633542E+03  0.49751210652E+03  0.00000000000E+00 0. -1.
         11    1    1    2    0    0 -0.11215829338E+02 -0.31197592687E+01 -0.22619242188E+03  0.22649180878E+03  0.00000000000E+00 0. -1.
        -15    1    1    2    0    0 -0.14063144337E+01 -0.21934032828E+02 -0.64980130559E+02  0.68619637225E+02  0.17770000000E+01 0. -1.
         15    1    1    2    0    0  0.50700027145E+01  0.20769692917E+02 -0.20626378298E+03  0.20737644748E+03  0.17770000000E+01 0.  1.
</event>
<event>
 6    1  0.3411206E-003  0.4649739E+03  0.7546771E-02  0.9481785E-01
        -11   -1    0    0    0    0  0.00000000000E+00  0.00000000000E+00  0.50000000000E+03  0.50000000000E+03  0.00000000000E+00 0.  1.
         11   -1    0    0    0    0 -0.00000000000E+00 -0.00000000000E+00 -0.50000000000E+03  0.50000000000E+03  0.00000000000E+00 0. -1.
        -11    1    1    2    0    0 -0.27981739922E+02  0.12152539539E+02  0.46731217461E+03  0.46830687644E+03  0.00000000000E+00 0.  1.
         11    1    1    2    0    0 -0.33808053277E+01 -0.73677189452E+01 -0.46212529432E+03  0.46219638768E+03  0.00000000000E+00 0. -1.
        -15    1    1    2    0    0  0.24679109679E+02 -0.20367767435E+02 -0.26934472284E+02  0.41863204978E+02  0.17770000000E+01 0.  1.
         15    1    1    2    0    0  0.66834355709E+01  0.15582946841E+02  0.21747592003E+02  0.27633530904E+02  0.17770000000E+01 0. -1.
</event>
<event>
 6    1  0.3411206E-003  0.5008196E+03  0.7546771E-02  0.9397978E-01
        -11   -1    0    0    0    0  0.00000000000E+00  0.00000000000E+00  0.50000000000E+03  0.50000000000E+03  0.00000000000E+00 0. -1.
         11   -1    0    0    0    0 -0.00000000000E+00 -0.00000000000E+00 -0.50000000000E+03  0.50000000000E+03  0.00000000000E+00 0. -1.
        -11    1    1    2    0    0 -0.61198723079E+00 -0.69622357532E+01  0.66779279916E+02  0.67144020442E+02  0.00000000000E+00 0. -1.
         11    1    1    2    0    0 -0.70029769985E+01  0.28214873918E+01 -0.49912332327E+03  0.49918042260E+03  0.00000000000E+00 0. -1.
        -15    1    1    2    0    0 -0.27693070578E+01 -0.82775939616E+01  0.32325098302E+03  0.32337368999E+03  0.17770000000E+01 0. -1.
         15    1    1    2    0    0  0.10384271287E+02  0.12418342323E+02  0.10909306033E+03  0.11030186697E+03  0.17770000000E+01 0.  1.
</event>
<event>
 6    1  0.3411206E-003  0.5024876E+03  0.7546771E-02  0.9394261E-01
        -11   -1    0    0    0    0  0.00000000000E+00  0.00000000000E+00  0.50000000000E+03  0.50000000000E+03  0.00000000000E+00 0. -1.
         11   -1    0    0    0    0 -0.00000000000E+00 -0.00000000000E+00 -0.50000000000E+03  0.50000000000E+03  0.00000000000E+00 0. -1.
        -11    1    1    2    0    0  0.86786508441E+01  0.80830959151E+01  0.42402335167E+03  0.42418917735E+03  0.00000000000E+00 0. -1.
         11    1    1    2    0    0 -0.15166272703E+02  0.10640137278E+01 -0.49728008038E+03  0.49751243834E+03  0.00000000000E+00 0. -1.
        -15    1    1    2    0    0 -0.57980148148E+01 -0.97563515903E+01  0.55168957763E+02  0.56352240433E+02  0.17770000000E+01 0. -1.
         15    1    1    2    0    0  0.12285636674E+02  0.60924194737E+00  0.18087770949E+02  0.21946143878E+02  0.17770000000E+01 0.  1.
</event>
<event>
 6    1  0.3411206E-003  0.5096481E+03  0.7546771E-02  0.9378476E-01
        -11   -1    0    0    0    0  0.00000000000E+00  0.00000000000E+00  0.50000000000E+03  0.50000000000E+03  0.00000000000E+00 0. -1.
         11   -1    0    0    0    0 -0.00000000000E+00 -0.00000000000E+00 -0.50000000000E+03  0.50000000000E+03  0.00000000000E+00 0. -1.
        -11    1    1    2    0    0  0.33587827324E+02  0.53674209402E+01  0.48917079340E+03  0.49035193123E+03  0.00000000000E+00 0. -1.
         11    1    1    2    0    0 -0.74386878094E+00  0.50710672191E+01 -0.34132159704E+03  0.34136007626E+03  0.00000000000E+00 0. -1.
        -15    1    1    2    0    0 -0.39228564381E+02 -0.46598859631E+01 -0.28814052902E+02  0.48928541509E+02  0.17770000000E+01 0. -1.
         15    1    1    2    0    0  0.63846058375E+01 -0.57786021962E+01 -0.11903514346E+03  0.11935945100E+03  0.17770000000E+01 0.  1.
</event>
<event>
 6    1  0.3411206E-003  0.5195311E+03  0.7546771E-02  0.9357138E-01
        -11   -1    0    0    0    0  0.00000000000E+00  0.00000000000E+00  0.50000000000E+03  0.50000000000E+03  0.00000000000E+00 0. -1.
         11   -1    0    0    0    0 -0.00000000000E+00 -0.00000000000E+00 -0.50000000000E+03  0.50000000000E+03  0.00000000000E+00 0. -1.
        -11    1    1    2    0    0 -0.86559356397E+01 -0.30815526031E+01  0.33137070402E+03  0.33149806134E+03  0.00000000000E+00 0. -1.
         11    1    1    2    0    0 -0.20657326512E+02  0.13334269228E+02 -0.47983943523E+03  0.48046894954E+03  0.00000000000E+00 0. -1.
        -15    1    1    2    0    0  0.57521232800E+02 -0.31921237466E+02  0.48044343491E+02  0.81480514816E+02  0.17770000000E+01 0.  1.
         15    1    1    2    0    0 -0.28207970649E+02  0.21668520841E+02  0.10042438772E+03  0.10655247431E+03  0.17770000000E+01 0. -1.
</event>
<event>
 6    1  0.3411206E-003  0.5111143E+03  0.7546771E-02  0.9375278E-01
        -11   -1    0    0    0    0  0.00000000000E+00  0.00000000000E+00  0.50000000000E+03  0.50000000000E+03  0.00000000000E+00 0. -1.
         11   -1    0    0    0    0 -0.00000000000E+00 -0.00000000000E+00 -0.50000000000E+03  0.50000000000E+03  0.00000000000E+00 0.  1.
        -11    1    1    2    0    0 -0.67749131956E+01  0.14428510410E+02  0.48862573531E+03  0.48888566206E+03  0.00000000000E+00 0. -1.
         11    1    1    2    0    0  0.58595136956E+01  0.46523059811E+01 -0.37532482187E+03  0.37539938700E+03  0.00000000000E+00 0.  1.
        -15    1    1    2    0    0 -0.19590611845E+01 -0.11341706282E+01 -0.11703889710E+03  0.11707427312E+03  0.17770000000E+01 0.  1.
         15    1    1    2    0    0  0.28744606845E+01 -0.17946645763E+02  0.37379836633E+01  0.18640677810E+02  0.17770000000E+01 0.  1.
</event>
<event>
 6    1  0.3411206E-003  0.5057182E+03  0.7546771E-02  0.9387105E-01
        -11   -1    0    0    0    0  0.00000000000E+00  0.00000000000E+00  0.50000000000E+03  0.50000000000E+03  0.00000000000E+00 0. -1.
         11   -1    0    0    0    0 -0.00000000000E+00 -0.00000000000E+00 -0.50000000000E+03  0.50000000000E+03  0.00000000000E+00 0.  1.
        -11    1    1    2    0    0  0.47106271736E+01 -0.60356508527E+01  0.45954007466E+03  0.45960385040E+03  0.00000000000E+00 0. -1.
         11    1    1    2    0    0  0.69901656296E+01  0.71858363802E+00 -0.49423187896E+03  0.49428183151E+03  0.00000000000E+00 0.  1.
        -15    1    1    2    0    0 -0.96911311238E+00  0.20746851405E+01 -0.44773499935E+01  0.53336564026E+01  0.17770000000E+01 0. -1.
         15    1    1    2    0    0 -0.10731679691E+02  0.32423820742E+01  0.39169154297E+02  0.40780661689E+02  0.17770000000E+01 0.  1.
</event>
<event>
 6    1  0.3411206E-003  0.5043164E+03  0.7546771E-02  0.9390203E-01
        -11   -1    0    0    0    0  0.00000000000E+00  0.00000000000E+00  0.50000000000E+03  0.50000000000E+03  0.00000000000E+00 0.  1.
         11   -1    0    0    0    0 -0.00000000000E+00 -0.00000000000E+00 -0.50000000000E+03  0.50000000000E+03  0.00000000000E+00 0.  1.
        -11    1    1    2    0    0  0.65865893891E+01  0.16582247257E+01  0.46910468845E+03  0.46915385706E+03  0.00000000000E+00 0.  1.
         11    1    1    2    0    0 -0.78649996933E+01 -0.32492798311E+01 -0.49561056477E+03  0.49568361678E+03  0.00000000000E+00 0.  1.
        -15    1    1    2    0    0  0.28191332685E+01  0.20767265830E+01 -0.33796032196E+01  0.51807096626E+01  0.17770000000E+01 0.  1.
         15    1    1    2    0    0 -0.15407229642E+01 -0.48567147759E+00  0.29885479534E+02  0.29981816490E+02  0.17770000000E+01 0. -1.
</event>
<event>
 6    1  0.3411206E-003  0.5133792E+03  0.7546771E-02  0.9370360E-01
        -11   -1    0    0    0    0  0.00000000000E+00  0.00000000000E+00  0.50000000000E+03  0.50000000000E+03  0.00000000000E+00 0. -1.
         11   -1    0    0    0    0 -0.00000000000E+00 -0.00000000000E+00 -0.50000000000E+03  0.50000000000E+03  0.00000000000E+00 0. -1.
        -11    1    1    2    0    0  0.15625246355E+01 -0.74091160088E+01  0.48656185243E+03  0.48662076890E+03  0.00000000000E+00 0. -1.
         11    1    1    2    0    0 -0.68982518244E+01 -0.10571406522E+02 -0.46003043447E+03  0.46020358664E+03  0.00000000000E+00 0. -1.
        -15    1    1    2    0    0  0.34346774566E+01  0.15371368427E+02 -0.37976723349E+02  0.41151734130E+02  0.17770000000E+01 0. -1.
         15    1    1    2    0    0  0.19010497323E+01  0.26091541041E+01  0.11445305392E+02  0.12023910335E+02  0.17770000000E+01 0.  1.
</event>
<event>
 6    1  0.3411206E-003  0.5038587E+03  0.7546771E-02  0.9391217E-01
        -11   -1    0    0    0    0  0.00000000000E+00  0.00000000000E+00  0.50000000000E+03  0.50000000000E+03  0.00000000000E+00 0. -1.
         11   -1    0    0    0    0 -0.00000000000E+00 -0.00000000000E+00 -0.50000000000E+03  0.50000000000E+03  0.00000000000E+00 0. -1.
        -11    1    1    2    0    0  0.97059362055E+01 -0.18648807582E+01  0.44948406719E+03  0.44959271528E+03  0.00000000000E+00 0. -1.
         11    1    1    2    0    0  0.75012458533E+01  0.75105448364E+00 -0.49608399273E+03  0.49614127082E+03  0.00000000000E+00 0. -1.
        -15    1    1    2    0    0 -0.39070611460E+01 -0.18662876325E+01 -0.94435695797E+00  0.47746932246E+01  0.17770000000E+01 0.  1.
         15    1    1    2    0    0 -0.13300120913E+02  0.29801139070E+01  0.47544282497E+02  0.49491320677E+02  0.17770000000E+01 0. -1.
</event>
<event>
 6    1  0.3411206E-003  0.5139503E+03  0.7546771E-02  0.9369125E-01
        -11   -1    0    0    0    0  0.00000000000E+00  0.00000000000E+00  0.50000000000E+03  0.50000000000E+03  0.00000000000E+00 0.  1.
         11   -1    0    0    0    0 -0.00000000000E+00 -0.00000000000E+00 -0.50000000000E+03  0.50000000000E+03  0.00000000000E+00 0.  1.
        -11    1    1    2    0    0  0.44982730286E+02 -0.14827103583E+02  0.48373656664E+03  0.48604974532E+03  0.00000000000E+00 0.  1.
         11    1    1    2    0    0  0.47450178349E+00  0.13041496919E+01 -0.87567958871E+02  0.87578955116E+02  0.00000000000E+00 0.  1.
        -15    1    1    2    0    0  0.23819169587E+02 -0.26399039466E+01 -0.32445702667E+03  0.32534572660E+03  0.17770000000E+01 0.  1.
         15    1    1    2    0    0 -0.69276401656E+02  0.16162857837E+02 -0.71711581100E+02  0.10102557296E+03  0.17770000000E+01 0. -1.
</event>
<event>
 6    1  0.3411206E-003  0.5082413E+03  0.7546771E-02  0.9381556E-01
        -11   -1    0    0    0    0  0.00000000000E+00  0.00000000000E+00  0.50000000000E+03  0.50000000000E+03  0.00000000000E+00 0.  1.
         11   -1    0    0    0    0 -0.00000000000E+00 -0.00000000000E+00 -0.50000000000E+03  0.50000000000E+03  0.00000000000E+00 0. -1.
        -11    1    1    2    0    0 -0.32056617058E+01  0.50957691682E+01  0.36989449592E+03  0.36994348385E+03  0.00000000000E+00 0.  1.
         11    1    1    2    0    0  0.12156887179E+02  0.20816369499E+02 -0.49116747235E+03  0.49175867765E+03  0.00000000000E+00 0. -1.
        -15    1    1    2    0    0  0.21918723597E+02  0.44874777895E+01  0.32446050974E+02  0.39452146379E+02  0.17770000000E+01 0. -1.
         15    1    1    2    0    0 -0.30869949071E+02 -0.30399616457E+02  0.88826925461E+02  0.98845692128E+02  0.17770000000E+01 0.  1.
</event>
<event>
 6    1  0.3411206E-003  0.5004607E+03  0.7546771E-02  0.9398780E-01
        -11   -1    0    0    0    0  0.00000000000E+00  0.00000000000E+00  0.50000000000E+03  0.50000000000E+03  0.00000000000E+00 0.  1.
         11   -1    0    0    0    0 -0.00000000000E+00 -0.00000000000E+00 -0.50000000000E+03  0.50000000000E+03  0.00000000000E+00 0.  1.
        -11    1    1    2    0    0  0.61937384892E+01 -0.51093347723E+01  0.49947479948E+03  0.49953933080E+03  0.00000000000E+00 0.  1.
         11    1    1    2    0    0 -0.19940235347E+01 -0.70515833261E+01 -0.23056978856E+03  0.23068621189E+03  0.00000000000E+00 0.  1.
        -15    1    1    2    0    0 -0.28914886649E+01  0.11358074470E+02 -0.26464331402E+03  0.26490867850E+03  0.17770000000E+01 0.  1.
         15    1    1    2    0    0 -0.13082262896E+01  0.80284362820E+00 -0.42616969055E+01  0.48657788103E+01  0.17770000000E+01 0. -1.
</event>
<event>
 6    1  0.3411206E-003  0.5009183E+03  0.7546771E-02  0.9397757E-01
        -11   -1    0    0    0    0  0.00000000000E+00  0.00000000000E+00  0.50000000000E+03  0.50000000000E+03  0.00000000000E+00 0. -1.
         11   -1    0    0    0    0 -0.00000000000E+00 -0.00000000000E+00 -0.50000000000E+03  0.50000000000E+03  0.00000000000E+00 0.  1.
        -11    1    1    2    0    0 -0.11064254353E+02  0.44081527318E+01  0.49893958082E+03  0.49908171159E+03  0.00000000000E+00 0. -1.
         11    1    1    2    0    0 -0.48477507962E+01 -0.26909094055E+01 -0.38200368111E+03  0.38204391640E+03  0.00000000000E+00 0.  1.
        -15    1    1    2    0    0  0.25083042301E+01  0.35644158344E+01 -0.57468817248E+02  0.57661246390E+02  0.17770000000E+01 0.  1.
         15    1    1    2    0    0  0.13403700919E+02 -0.52816591606E+01 -0.59467082464E+02  0.61213125616E+02  0.17770000000E+01 0. -1.
</event>
<event>
 6    1  0.3411206E-003  0.5004295E+03  0.7546771E-02  0.9398849E-01
        -11   -1    0    0    0    0  0.00000000000E+00  0.00000000000E+00  0.50000000000E+03  0.50000000000E+03  0.00000000000E+00 0.  1.
         11   -1    0    0    0    0 -0.00000000000E+00 -0.00000000000E+00 -0.50000000000E+03  0.50000000000E+03  0.00000000000E+00 0.  1.
        -11    1    1    2    0    0 -0.10415441018E+00 -0.19046188973E+01  0.74637433538E+02  0.74661803531E+02  0.00000000000E+00 0.  1.
         11    1    1    2    0    0 -0.99971561133E+01  0.30084949757E+01 -0.49946144365E+03  0.49957054343E+03  0.00000000000E+00 0.  1.
        -15    1    1    2    0    0  0.40947836426E+01  0.29415358217E+01  0.39464121028E+03  0.39467741571E+03  0.17770000000E+01 0.  1.
         15    1    1    2    0    0  0.60065268809E+01 -0.40454119000E+01  0.30182799831E+02  0.31090237330E+02  0.17770000000E+01 0. -1.
</event>
<event>
 6    1  0.3411206E-003  0.5067812E+03  0.7546771E-02  0.9384763E-01
        -11   -1    0    0    0    0  0.00000000000E+00  0.00000000000E+00  0.50000000000E+03  0.50000000000E+03  0.00000000000E+00 0. -1.
         11   -1    0    0    0    0 -0.00000000000E+00 -0.00000000000E+00 -0.50000000000E+03  0.50000000000E+03  0.00000000000E+00 0.  1.
        -11    1    1    2    0    0  0.41702252227E+01  0.99351809020E+01  0.42899015823E+03  0.42912545305E+03  0.00000000000E+00 0. -1.
         11    1    1    2    0    0 -0.31873036672E+02  0.11397550413E+02 -0.49205588255E+03  0.49321880152E+03  0.00000000000E+00 0.  1.
        -15    1    1    2    0    0  0.24083627260E+02 -0.11544084579E+02  0.20284972571E+02  0.33584592181E+02  0.17770000000E+01 0. -1.
         15    1    1    2    0    0  0.36191841898E+01 -0.97886467359E+01  0.42780751753E+02  0.44071153248E+02  0.17770000000E+01 0.  1.
</event>
<event>
 6    1  0.3411206E-003  0.5071867E+03  0.7546771E-02  0.9383871E-01
        -11   -1    0    0    0    0  0.00000000000E+00  0.00000000000E+00  0.50000000000E+03  0.50000000000E+03  0.00000000000E+00 0. -1.
         11   -1    0    0    0    0 -0.00000000000E+00 -0.00000000000E+00 -0.50000000000E+03  0.50000000000E+03  0.00000000000E+00 0. -1.
        -11    1    1    2    0    0 -0.31093301862E+00 -0.19957460020E+02  0.49240891414E+03  0.49281328677E+03  0.00000000000E+00 0. -1.
         11    1    1    2    0    0 -0.22659120540E+01  0.73308929740E+01 -0.43438541118E+03  0.43445317561E+03  0.00000000000E+00 0. -1.
        -15    1    1    2    0    0 -0.35686581650E+01  0.10341064793E+02 -0.63217826033E+02  0.64181961636E+02  0.17770000000E+01 0.  1.
         15    1    1    2    0    0  0.61455032376E+01  0.22855022531E+01  0.51943230739E+01  0.85515759828E+01  0.17770000000E+01 0. -1.
</event>
<event>
 6    1  0.3411206E-003  0.5003662E+03  0.7546771E-02  0.9398991E-01
        -11   -1    0    0    0    0  0.00000000000E+00  0.00000000000E+00  0.50000000000E+03  0.50000000000E+03  0.00000000000E+00 0.  1.
         11   -1    0    0    0    0 -0.00000000000E+00 -0.00000000000E+00 -0.50000000000E+03  0.50000000000E+03  0.00000000000E+00 0. -1.
        -11    1    1    2    0    0  0.31199376207E+01  0.39953522882E+01  0.17449394835E+03  0.17456756531E+03  0.00000000000E+00 0.  1.
         11    1    1    2    0    0 -0.77010680517E+01  0.42606365529E+01 -0.49955628940E+03  0.49963381166E+03  0.00000000000E+00 0. -1.
        -15    1    1    2    0    0  0.60622021071E+01 -0.50666581922E+01  0.45927430552E+02  0.46635908116E+02  0.17770000000E+01 0.  1.
         15    1    1    2    0    0 -0.14810716761E+01 -0.31893306490E+01  0.27913491050E+03  0.27916271491E+03  0.17770000000E+01 0. -1.
</event>
<event>
 6    1  0.3411206E-003  0.5056318E+03  0.7546771E-02  0.9387296E-01
        -11   -1    0    0    0    0  0.00000000000E+00  0.00000000000E+00  0.50000000000E+03  0.50000000000E+03  0.00000000000E+00 0.  1.
         11   -1    0    0    0    0 -0.00000000000E+00 -0.00000000000E+00 -0.50000000000E+03  0.50000000000E+03  0.00000000000E+00 0.  1.
        -11    1    1    2    0    0 -0.74417917865E+01 -0.31395610116E+01  0.49430225652E+03  0.49436824120E+03  0.00000000000E+00 0.  1.
         11    1    1    2    0    0 -0.80934596833E+01 -0.24180696823E+01 -0.35600657641E+03  0.35610677275E+03  0.00000000000E+00 0.  1.
        -15    1    1    2    0    0  0.34111031611E+02  0.96251306948E+01 -0.68283161414E+02  0.76954229774E+02  0.17770000000E+01 0. -1.
         15    1    1    2    0    0 -0.18575780141E+02 -0.40675000009E+01 -0.70012518690E+02  0.72570756275E+02  0.17770000000E+01 0.  1.
</event>
<event>
 6    1  0.3411206E-003  0.5035905E+03  0.7546771E-02  0.9391811E-01
        -11   -1    0    0    0    0  0.00000000000E+00  0.00000000000E+00  0.50000000000E+03  0.50000000000E+03  0.00000000000E+00 0. -1.
         11   -1    0    0    0    0 -0.00000000000E+00 -0.00000000000E+00 -0.50000000000E+03  0.50000000000E+03  0.00000000000E+00 0.  1.
        -11    1    1    2    0    0  0.70452663627E+01 -0.57842329029E+01  0.49632580150E+03  0.49640950269E+03  0.00000000000E+00 0. -1.
         11    1    1    2    0    0 -0.38244890724E+01  0.55893951711E+01 -0.38479022255E+03  0.38484981931E+03  0.00000000000E+00 0.  1.
        -15    1    1    2    0    0 -0.82902110002E+01  0.53728666918E+01 -0.11078842422E+03  0.11124220407E+03  0.17770000000E+01 0.  1.
         15    1    1    2    0    0  0.50694337099E+01 -0.51780289600E+01 -0.74715473105E+00  0.74984739275E+01  0.17770000000E+01 0. -1.
</event>
<event>
 6    1  0.3411206E-003  0.5006337E+03  0.7546771E-02  0.9398393E-01
        -11   -1    0    0    0    0  0.00000000000E+00  0.00000000000E+00  0.50000000000E+03  0.50000000000E+03  0.00000000000E+00 0. -1.
         11   -1    0    0    0    0 -0.00000000000E+00 -0.00000000000E+00 -0.50000000000E+03  0.50000000000E+03  0.00000000000E+00 0. -1.
        -11    1    1    2    0    0  0.10806010475E+02 -0.10063449698E+02  0.49914790814E+03  0.49936627548E+03  0.00000000000E+00 0. -1.
         11    1    1    2    0    0 -0.43866962979E+01  0.14393037429E+01 -0.32299763200E+03  0.32303062544E+03  0.00000000000E+00 0. -1.
        -15    1    1    2    0    0 -0.91622057966E+01  0.76022039088E+01 -0.50823256225E+02  0.52229308071E+02  0.17770000000E+01 0. -1.
         15    1    1    2    0    0  0.27428916199E+01  0.10219420464E+01 -0.12532701992E+03  0.12537379101E+03  0.17770000000E+01 0. -1.
</event>
<event>
 6    1  0.3411206E-003  0.4859231E+03  0.7546771E-02  0.9431871E-01
        -11   -1    0    0    0    0  0.00000000000E+00  0.00000000000E+00  0.50000000000E+03  0.50000000000E+03  0.00000000000E+00 0.  1.
         11   -1    0    0    0    0 -0.00000000000E+00 -0.00000000000E+00 -0.50000000000E+03  0.50000000000E+03  0.00000000000E+00 0. -1.
        -11    1    1    2    0    0  0.12076182830E+02  0.83883429231E+01  0.48364710037E+03  0.48387055726E+03  0.00000000000E+00 0.  1.
         11    1    1    2    0    0 -0.96539535831E+01 -0.15534631821E+02 -0.48767031610E+03  0.48801317688E+03  0.00000000000E+00 0. -1.
        -15    1    1    2    0    0 -0.56348354414E+01 -0.29743895076E+01  0.12679898186E+02  0.14301605168E+02  0.17770000000E+01 0.  1.
         15    1    1    2    0    0  0.32126061944E+01  0.10120678406E+02 -0.86566824573E+01  0.13814660695E+02  0.17770000000E+01 0. -1.
</event>
<event>
 6    1  0.3411206E-003  0.5017841E+03  0.7546771E-02  0.9395827E-01
        -11   -1    0    0    0    0  0.00000000000E+00  0.00000000000E+00  0.50000000000E+03  0.50000000000E+03  0.00000000000E+00 0.  1.
         11   -1    0    0    0    0 -0.00000000000E+00 -0.00000000000E+00 -0.50000000000E+03  0.50000000000E+03  0.00000000000E+00 0. -1.
        -11    1    1    2    0    0  0.12809855364E+01  0.99023456976E+01  0.40375399270E+03  0.40387743684E+03  0.00000000000E+00 0.  1.
         11    1    1    2    0    0  0.47450881530E+01 -0.84766706238E+01 -0.49812121644E+03  0.49821593318E+03  0.00000000000E+00 0. -1.
        -15    1    1    2    0    0 -0.28099214891E+01  0.24174013035E+00  0.93768111171E+02  0.93827344088E+02  0.17770000000E+01 0. -1.
         15    1    1    2    0    0 -0.32161522004E+01 -0.16674152042E+01  0.59911257778E+00  0.40792858836E+01  0.17770000000E+01 0.  1.
</event>
<event>
 6    1  0.3411206E-003  0.5984959E+03  0.7546771E-02  0.9202928E-01
        -11   -1    0    0    0    0  0.00000000000E+00  0.00000000000E+00  0.50000000000E+03  0.50000000000E+03  0.00000000000E+00 0. -1.
         11   -1    0    0    0    0 -0.00000000000E+00 -0.00000000000E+00 -0.50000000000E+03  0.50000000000E+03  0.00000000000E+00 0.  1.
        -11    1    1    2    0    0 -0.67506719266E+01  0.54802002644E+00  0.40144698714E+03  0.40150411627E+03  0.00000000000E+00 0. -1.
         11    1    1    2    0    0  0.85168315468E+02  0.13477549574E+01 -0.30799371837E+03  0.31955529875E+03  0.00000000000E+00 0.  1.
        -15    1    1    2    0    0 -0.34557908092E+02  0.80867787782E+02 -0.14679826048E+03  0.17113367618E+03  0.17770000000E+01 0.  1.
         15    1    1    2    0    0 -0.43859735450E+02 -0.82763562766E+02  0.53344991710E+02  0.10780690880E+03  0.17770000000E+01 0. -1.
</event>
<event>
 6    1  0.3411206E-003  0.5036915E+03  0.7546771E-02  0.9391587E-01
        -11   -1    0    0    0    0  0.00000000000E+00  0.00000000000E+00  0.50000000000E+03  0.50000000000E+03  0.00000000000E+00 0.  1.
         11   -1    0    0    0    0 -0.00000000000E+00 -0.00000000000E+00 -0.50000000000E+03  0.50000000000E+03  0.00000000000E+00 0.  1.
        -11    1    1    2    0    0  0.40440510342E+01  0.56771764043E+01  0.44877030392E+03  0.44882443156E+03  0.00000000000E+00 0.  1.
         11    1    1    2    0    0 -0.27512952018E+01  0.77650232293E+01 -0.49624013815E+03  0.49630851284E+03  0.00000000000E+00 0.  1.
        -15    1    1    2    0    0  0.63214120329E+00 -0.56944853299E+01 -0.67128364552E+00  0.60361507939E+01  0.17770000000E+01 0.  1.
         15    1    1    2    0    0 -0.19248970357E+01 -0.77477143037E+01  0.48141117871E+02  0.48830904808E+02  0.17770000000E+01 0.  1.
</event>
<event>
 6    1  0.3411206E-003  0.5038278E+03  0.7546771E-02  0.9391285E-01
        -11   -1    0    0    0    0  0.00000000000E+00  0.00000000000E+00  0.50000000000E+03  0.50000000000E+03  0.00000000000E+00 0. -1.
         11   -1    0    0    0    0 -0.00000000000E+00 -0.00000000000E+00 -0.50000000000E+03  0.50000000000E+03  0.00000000000E+00 0.  1.
        -11    1    1    2    0    0 -0.27063345749E+01  0.64324763772E+01  0.49612310799E+03  0.49617218713E+03  0.00000000000E+00 0. -1.
         11    1    1    2    0    0  0.17038508383E+01 -0.15790956330E+02 -0.45216292475E+03  0.45244178402E+03  0.00000000000E+00 0.  1.
        -15    1    1    2    0    0  0.54438762695E+01 -0.14086537422E+01 -0.23777756947E-01  0.58973204580E+01  0.17770000000E+01 0. -1.
         15    1    1    2    0    0 -0.44413925329E+01  0.10767133695E+02 -0.43936405485E+02  0.45488708396E+02  0.17770000000E+01 0.  1.
</event>
<event>
 6    1  0.3411206E-003  0.5065469E+03  0.7546771E-02  0.9385279E-01
        -11   -1    0    0    0    0  0.00000000000E+00  0.00000000000E+00  0.50000000000E+03  0.50000000000E+03  0.00000000000E+00 0. -1.
         11   -1    0    0    0    0 -0.00000000000E+00 -0.00000000000E+00 -0.50000000000E+03  0.50000000000E+03  0.00000000000E+00 0. -1.
        -11    1    1    2    0    0  0.66103808215E+01 -0.56695500104E+01  0.49337625838E+03  0.49345311152E+03  0.00000000000E+00 0. -1.
         11    1    1    2    0    0 -0.98839338204E+01  0.69876173342E+00 -0.29075839415E+03  0.29092718021E+03  0.00000000000E+00 0. -1.
        -15    1    1    2    0    0 -0.93016969292E+01  0.80316363487E+01  0.16321528807E+00  0.12418257383E+02  0.17770000000E+01 0. -1.
         15    1    1    2    0    0  0.12575249928E+02 -0.30608480717E+01 -0.20278107952E+03  0.20320145089E+03  0.17770000000E+01 0. -1.
</event>
<event>
 6    1  0.3411206E-003  0.5317912E+03  0.7546771E-02  0.9331356E-01
        -11   -1    0    0    0    0  0.00000000000E+00  0.00000000000E+00  0.50000000000E+03  0.50000000000E+03  0.00000000000E+00 0.  1.
         11   -1    0    0    0    0 -0.00000000000E+00 -0.00000000000E+00 -0.50000000000E+03  0.50000000000E+03  0.00000000000E+00 0. -1.
        -11    1    1    2    0    0  0.45889416589E+01  0.32118471308E+02  0.46708326781E+03  0.46820875008E+03  0.00000000000E+00 0.  1.
         11    1    1    2    0    0  0.10254920987E+02  0.15646028159E+00 -0.24639329232E+03  0.24660665520E+03  0.00000000000E+00 0. -1.
        -15    1    1    2    0    0 -0.17029345367E+02  0.12321443738E+02 -0.23675979232E+03  0.23769765158E+03  0.17770000000E+01 0. -1.
         15    1    1    2    0    0  0.21854827206E+01 -0.44596375328E+02  0.16069816838E+02  0.47486943146E+02  0.17770000000E+01 0.  1.
</event>
<event>
 6    1  0.3411206E-003  0.5084036E+03  0.7546771E-02  0.9381200E-01
        -11   -1    0    0    0    0  0.00000000000E+00  0.00000000000E+00  0.50000000000E+03  0.50000000000E+03  0.00000000000E+00 0. -1.
         11   -1    0    0    0    0 -0.00000000000E+00 -0.00000000000E+00 -0.50000000000E+03  0.50000000000E+03  0.00000000000E+00 0.  1.
        -11    1    1    2    0    0  0.70800893288E+01  0.26708685826E+01  0.49153814829E+03  0.49159639180E+03  0.00000000000E+00 0. -1.
         11    1    1    2    0    0 -0.82171155271E+01  0.11324916702E+01 -0.43209554250E+03  0.43217515127E+03  0.00000000000E+00 0.  1.
        -15    1    1    2    0    0  0.66397660608E+01 -0.74373631238E+01 -0.65992863620E+02  0.66765385053E+02  0.17770000000E+01 0.  1.
         15    1    1    2    0    0 -0.55027398625E+01  0.36340028710E+01  0.65502578247E+01  0.94630718814E+01  0.17770000000E+01 0. -1.
</event>
<event>
 6    1  0.1026563E-002  0.5142221E+03  0.7546771E-02  0.9368537E-01
        -11   -1    0    0    0    0  0.00000000000E+00  0.00000000000E+00  0.50000000000E+03  0.50000000000E+03  0.00000000000E+00 0. -1.
         11   -1    0    0    0    0 -0.00000000000E+00 -0.00000000000E+00 -0.50000000000E+03  0.50000000000E+03  0.00000000000E+00 0. -1.
        -11    1    1    2    0    0 -0.60640401380E+01 -0.60986074059E+00  0.42460011791E+03  0.42464385624E+03  0.00000000000E+00 0. -1.
         11    1    1    2    0    0 -0.15068629348E+02 -0.14102642077E+02 -0.48533931262E+03  0.48577792918E+03  0.00000000000E+00 0. -1.
        -15    1    1    2    0    0  0.36110846949E+01  0.53397715840E+00  0.66195228324E+02  0.66319612831E+02  0.17770000000E+01 0. -1.
         15    1    1    2    0    0  0.17521584791E+02  0.14178525659E+02 -0.54560336136E+01  0.23258601747E+02  0.17770000000E+01 0.  1.
</event>
<event>
 6    1  0.3411206E-003  0.5052215E+03  0.7546771E-02  0.9388201E-01
        -11   -1    0    0    0    0  0.00000000000E+00  0.00000000000E+00  0.50000000000E+03  0.50000000000E+03  0.00000000000E+00 0.  1.
         11   -1    0    0    0    0 -0.00000000000E+00 -0.00000000000E+00 -0.50000000000E+03  0.50000000000E+03  0.00000000000E+00 0. -1.
        -11    1    1    2    0    0  0.24147563505E+02  0.29136997709E+02  0.49332919754E+03  0.49477850257E+03  0.00000000000E+00 0.  1.
         11    1    1    2    0    0  0.12919041556E+02 -0.91510606612E+01 -0.32040923555E+03  0.32080012745E+03  0.00000000000E+00 0. -1.
        -15    1    1    2    0    0 -0.51587367491E+00 -0.19118162995E+02 -0.22366550312E+02  0.29482038325E+02  0.17770000000E+01 0. -1.
         15    1    1    2    0    0 -0.36550731386E+02 -0.86777405198E+00 -0.15055341168E+03  0.15493933165E+03  0.17770000000E+01 0.  1.
</event>
<event>
 6    1  0.3411206E-003  0.5057191E+03  0.7546771E-02  0.9387103E-01
        -11   -1    0    0    0    0  0.00000000000E+00  0.00000000000E+00  0.50000000000E+03  0.50000000000E+03  0.00000000000E+00 0.  1.
         11   -1    0    0    0    0 -0.00000000000E+00 -0.00000000000E+00 -0.50000000000E+03  0.50000000000E+03  0.00000000000E+00 0.  1.
        -11    1    1    2    0    0  0.14769345659E+02  0.57389124763E+01  0.83474907525E+02  0.84965456946E+02  0.00000000000E+00 0.  1.
         11    1    1    2    0    0 -0.18246681304E+02  0.12615728140E+02 -0.49378289932E+03  0.49428094201E+03  0.00000000000E+00 0.  1.
        -15    1    1    2    0    0 -0.37743829609E+02 -0.24402366743E+02  0.28897345702E+03  0.29245322493E+03  0.17770000000E+01 0.  1.
         15    1    1    2    0    0  0.41221165254E+02  0.60477261264E+01  0.12133453477E+03  0.12830037612E+03  0.17770000000E+01 0. -1.
</event>
<event>
 6    1  0.3411206E-003  0.5044504E+03  0.7546771E-02  0.9389906E-01
        -11   -1    0    0    0    0  0.00000000000E+00  0.00000000000E+00  0.50000000000E+03  0.50000000000E+03  0.00000000000E+00 0.  1.
         11   -1    0    0    0    0 -0.00000000000E+00 -0.00000000000E+00 -0.50000000000E+03  0.50000000000E+03  0.00000000000E+00 0. -1.
        -11    1    1    2    0    0 -0.52836191604E+01  0.54389938041E+01  0.49549161752E+03  0.49554963658E+03  0.00000000000E+00 0.  1.
         11    1    1    2    0    0 -0.10340401567E+02  0.13117092466E+02 -0.45010986923E+03  0.45041966698E+03  0.00000000000E+00 0. -1.
        -15    1    1    2    0    0 -0.23703594151E+01 -0.41600624345E+01 -0.15073670174E+02  0.15915338034E+02  0.17770000000E+01 0.  1.
         15    1    1    2    0    0  0.17994380142E+02 -0.14396023836E+02 -0.30308078111E+02  0.38115358411E+02  0.17770000000E+01 0. -1.
</event>
<event>
 6    1  0.3411206E-003  0.5004891E+03  0.7546771E-02  0.9398716E-01
        -11   -1    0    0    0    0  0.00000000000E+00  0.00000000000E+00  0.50000000000E+03  0.50000000000E+03  0.00000000000E+00 0.  1.
         11   -1    0    0    0    0 -0.00000000000E+00 -0.00000000000E+00 -0.50000000000E+03  0.50000000000E+03  0.00000000000E+00 0. -1.
        -11    1    1    2    0    0  0.15925710754E+02 -0.13888006970E+02  0.49906378063E+03  0.49951092294E+03  0.00000000000E+00 0.  1.
         11    1    1    2    0    0  0.27664194595E+01 -0.19058637321E+01 -0.14861357888E+03  0.14865154294E+03  0.00000000000E+00 0. -1.
        -15    1    1    2    0    0 -0.69690989195E+00  0.92893138806E+01 -0.59270556046E+02  0.60024441512E+02  0.17770000000E+01 0.  1.
         15    1    1    2    0    0 -0.17995220321E+02  0.65045568217E+01 -0.29117964571E+03  0.29181309261E+03  0.17770000000E+01 0. -1.
</event>
<event>
 6    1  0.3411206E-003  0.5029080E+03  0.7546771E-02  0.9393326E-01
        -11   -1    0    0    0    0  0.00000000000E+00  0.00000000000E+00  0.50000000000E+03  0.50000000000E+03  0.00000000000E+00 0. -1.
         11   -1    0    0    0    0 -0.00000000000E+00 -0.00000000000E+00 -0.50000000000E+03  0.50000000000E+03  0.00000000000E+00 0. -1.
        -11    1    1    2    0    0 -0.19946412812E+01 -0.62185929270E+01  0.32654067274E+03  0.32660597123E+03  0.00000000000E+00 0. -1.
         11    1    1    2    0    0 -0.91039517639E+01 -0.54649483634E+01 -0.49697856965E+03  0.49709198976E+03  0.00000000000E+00 0. -1.
        -15    1    1    2    0    0  0.45009755100E+01 -0.23632320107E+01  0.24189209567E+00  0.53907222952E+01  0.17770000000E+01 0. -1.
         15    1    1    2    0    0  0.65976175350E+01  0.14046773301E+02  0.17019600481E+03  0.17091131671E+03  0.17770000000E+01 0.  1.
</event>
<event>
 6    1  0.3411206E-003  0.5055414E+03  0.7546771E-02  0.9387495E-01
        -11   -1    0    0    0    0  0.00000000000E+00  0.00000000000E+00  0.50000000000E+03  0.50000000000E+03  0.00000000000E+00 0.  1.
         11   -1    0    0    0    0 -0.00000000000E+00 -0.00000000000E+00 -0.50000000000E+03  0.50000000000E+03  0.00000000000E+00 0.  1.
        -11    1    1    2    0    0 -0.26377549449E+01  0.64469436742E+01  0.46000832321E+03  0.46006105927E+03  0.00000000000E+00 0.  1.
         11    1    1    2    0    0 -0.22933198365E+01  0.78144142692E+01 -0.49439157196E+03  0.49445864418E+03  0.00000000000E+00 0.  1.
        -15    1    1    2    0    0  0.38890630870E+01 -0.21623911212E+02  0.24006231136E+02  0.32591029596E+02  0.17770000000E+01 0.  1.
         15    1    1    2    0    0  0.10420116944E+01  0.73625532686E+01  0.10377017608E+02  0.12889266948E+02  0.17770000000E+01 0. -1.
</event>
<event>
 6    1  0.3718770E-003  0.5003460E+03  0.7546771E-02  0.9399036E-01
        -11   -1    0    0    0    0  0.00000000000E+00  0.00000000000E+00  0.50000000000E+03  0.50000000000E+03  0.00000000000E+00 0. -1.
         11   -1    0    0    0    0 -0.00000000000E+00 -0.00000000000E+00 -0.50000000000E+03  0.50000000000E+03  0.00000000000E+00 0. -1.
        -11    1    1    2    0    0  0.77058548874E+01  0.74029711889E+00  0.49959399887E+03  0.49965397221E+03  0.00000000000E+00 0. -1.
         11    1    1    2    0    0 -0.12863144616E+01  0.32449542330E+01 -0.25045027506E+03  0.25047459873E+03  0.00000000000E+00 0. -1.
        -15    1    1    2    0    0 -0.21171487415E+01 -0.94735311135E+01 -0.19526546295E+03  0.19551467684E+03  0.17770000000E+01 0. -1.
         15    1    1    2    0    0 -0.43023916843E+01  0.54882797616E+01 -0.53878260868E+02  0.54356752222E+02  0.17770000000E+01 0.  1.
</event>
<event>
 6    1  0.3411206E-003  0.5109378E+03  0.7546771E-02  0.9375663E-01
        -11   -1    0    0    0    0  0.00000000000E+00  0.00000000000E+00  0.50000000000E+03  0.50000000000E+03  0.00000000000E+00 0. -1.
         11   -1    0    0    0    0 -0.00000000000E+00 -0.00000000000E+00 -0.50000000000E+03  0.50000000000E+03  0.00000000000E+00 0. -1.
        -11    1    1    2    0    0  0.13262281098E+02 -0.81498141176E+01  0.48881438882E+03  0.48906217835E+03  0.00000000000E+00 0. -1.
         11    1    1    2    0    0 -0.88347277027E+01 -0.14336019106E+01 -0.46270832126E+03  0.46279487701E+03  0.00000000000E+00 0. -1.
        -15    1    1    2    0    0 -0.29601143527E+01  0.88487379572E+00 -0.35182055392E+02  0.35362127046E+02  0.17770000000E+01 0. -1.
         15    1    1    2    0    0 -0.14674390428E+01  0.86985422325E+01  0.90759878282E+01  0.12780817594E+02  0.17770000000E+01 0.  1.
</event>
<event>
 6    1  0.3411206E-003  0.5085287E+03  0.7546771E-02  0.9380926E-01
        -11   -1    0    0    0    0  0.00000000000E+00  0.00000000000E+00  0.50000000000E+03  0.50000000000E+03  0.00000000000E+00 0. -1.
         11   -1    0    0    0    0 -0.00000000000E+00 -0.00000000000E+00 -0.50000000000E+03  0.50000000000E+03  0.00000000000E+00 0.  1.
        -11    1    1    2    0    0 -0.85880690318E+01  0.17020001579E+02  0.44938554706E+03  0.44978973454E+03  0.00000000000E+00 0. -1.
         11    1    1    2    0    0 -0.69304162370E+01  0.97933113276E+01 -0.49132482991E+03  0.49147128920E+03  0.00000000000E+00 0.  1.
        -15    1    1    2    0    0 -0.56381518976E+01 -0.12463186274E+02  0.71693266107E+01  0.15545955808E+02  0.17770000000E+01 0.  1.
         15    1    1    2    0    0  0.21156637166E+02 -0.14350126633E+02  0.34769956238E+02  0.43193020459E+02  0.17770000000E+01 0. -1.
</event>
<event>
 6    1  0.3411206E-003  0.5010434E+03  0.7546771E-02  0.9397478E-01
        -11   -1    0    0    0    0  0.00000000000E+00  0.00000000000E+00  0.50000000000E+03  0.50000000000E+03  0.00000000000E+00 0.  1.
         11   -1    0    0    0    0 -0.00000000000E+00 -0.00000000000E+00 -0.50000000000E+03  0.50000000000E+03  0.00000000000E+00 0.  1.
        -11    1    1    2    0    0  0.54376946066E+01  0.52378766659E+01  0.31531215559E+03  0.31540253540E+03  0.00000000000E+00 0.  1.
         11    1    1    2    0    0 -0.31069069713E+01  0.73515643347E+01 -0.49889280941E+03  0.49895664506E+03  0.00000000000E+00 0.  1.
        -15    1    1    2    0    0  0.63858626106E+01 -0.16530520594E+02  0.11385275308E+03  0.11523733972E+03  0.17770000000E+01 0.  1.
         15    1    1    2    0    0 -0.87166502458E+01  0.39410795934E+01  0.69727900740E+02  0.70403479817E+02  0.17770000000E+01 0. -1.
</event>
<event>
 6    1  0.3411206E-003  0.5014917E+03  0.7546771E-02  0.9396478E-01
        -11   -1    0    0    0    0  0.00000000000E+00  0.00000000000E+00  0.50000000000E+03  0.50000000000E+03  0.00000000000E+00 0.  1.
         11   -1    0    0    0    0 -0.00000000000E+00 -0.00000000000E+00 -0.50000000000E+03  0.50000000000E+03  0.00000000000E+00 0. -1.
        -11    1    1    2    0    0 -0.31980118513E+01  0.86433426647E+01  0.24186300247E+03  0.24203852300E+03  0.00000000000E+00 0.  1.
         11    1    1    2    0    0 -0.61324583381E+01 -0.55606706127E+01 -0.49843952630E+03  0.49850826421E+03  0.00000000000E+00 0. -1.
        -15    1    1    2    0    0  0.20562036406E+01 -0.68144748093E+01  0.24531117273E+03  0.24542085126E+03  0.17770000000E+01 0.  1.
         15    1    1    2    0    0  0.72742665489E+01  0.37318027573E+01  0.11265351108E+02  0.14032361535E+02  0.17770000000E+01 0. -1.
</event>
<event>
 6    1  0.3411206E-003  0.5063922E+03  0.7546771E-02  0.9385619E-01
        -11   -1    0    0    0    0  0.00000000000E+00  0.00000000000E+00  0.50000000000E+03  0.50000000000E+03  0.00000000000E+00 0.  1.
         11   -1    0    0    0    0 -0.00000000000E+00 -0.00000000000E+00 -0.50000000000E+03  0.50000000000E+03  0.00000000000E+00 0.  1.
        -11    1    1    2    0    0  0.38115885884E+02 -0.23126095837E+02  0.30277378671E+03  0.30603856454E+03  0.00000000000E+00 0.  1.
         11    1    1    2    0    0 -0.71708205978E+01  0.93916801966E+01 -0.49346638195E+03  0.49360783466E+03  0.00000000000E+00 0.  1.
        -15    1    1    2    0    0 -0.39128143800E+02  0.70673494485E+01  0.18272627584E+03  0.18701071808E+03  0.17770000000E+01 0.  1.
         15    1    1    2    0    0  0.81830785138E+01  0.66670661921E+01  0.79663193977E+01  0.13342882721E+02  0.17770000000E+01 0.  1.
</event>
<event>
 6    1  0.3411206E-003  0.4690334E+03  0.7546771E-02  0.9471897E-01
        -11   -1    0    0    0    0  0.00000000000E+00  0.00000000000E+00  0.50000000000E+03  0.50000000000E+03  0.00000000000E+00 0. -1.
         11   -1    0    0    0    0 -0.00000000000E+00 -0.00000000000E+00 -0.50000000000E+03  0.50000000000E+03  0.00000000000E+00 0. -1.
        -11    1    1    2    0    0 -0.96141694295E+01 -0.25656965117E+01  0.46809092319E+03  0.46819667601E+03  0.00000000000E+00 0. -1.
         11    1    1    2    0    0  0.39281854889E+01 -0.11753257434E+02 -0.46983477974E+03  0.46999818080E+03  0.00000000000E+00 0. -1.
        -15    1    1    2    0    0 -0.22904546843E+01  0.58197495626E+01 -0.28558753523E+02  0.29289516886E+02  0.17770000000E+01 0.  1.
         15    1    1    2    0    0  0.79764386249E+01  0.84992043833E+01  0.30302610066E+02  0.32515626307E+02  0.17770000000E+01 0. -1.
</event>
<event>
 6    1  0.3411206E-003  0.5022203E+03  0.7546771E-02  0.9394855E-01
        -11   -1    0    0    0    0  0.00000000000E+00  0.00000000000E+00  0.50000000000E+03  0.50000000000E+03  0.00000000000E+00 0. -1.
         11   -1    0    0    0    0 -0.00000000000E+00 -0.00000000000E+00 -0.50000000000E+03  0.50000000000E+03  0.00000000000E+00 0. -1.
        -11    1    1    2    0    0 -0.24163057974E+01  0.57967528559E+01  0.46049449271E+03  0.46053731520E+03  0.00000000000E+00 0. -1.
         11    1    1    2    0    0 -0.54316933056E+01  0.73846180635E+01 -0.49769524184E+03  0.49777965972E+03  0.00000000000E+00 0. -1.
        -15    1    1    2    0    0  0.36946685090E+01 -0.48670568131E+00  0.35871425834E+01  0.54692576028E+01  0.17770000000E+01 0. -1.
         15    1    1    2    0    0  0.41533305940E+01 -0.12694665238E+02  0.33613606550E+02  0.36213767476E+02  0.17770000000E+01 0.  1.
</event>
<event>
 6    1  0.3411206E-003  0.5007119E+03  0.7546771E-02  0.9398218E-01
        -11   -1    0    0    0    0  0.00000000000E+00  0.00000000000E+00  0.50000000000E+03  0.50000000000E+03  0.00000000000E+00 0. -1.
         11   -1    0    0    0    0 -0.00000000000E+00 -0.00000000000E+00 -0.50000000000E+03  0.50000000000E+03  0.00000000000E+00 0. -1.
        -11    1    1    2    0    0 -0.58578749190E+01  0.44647828652E+01  0.35315688771E+03  0.35323368514E+03  0.00000000000E+00 0. -1.
         11    1    1    2    0    0  0.60662282438E+01  0.68466399670E+01 -0.49920429865E+03  0.49928810059E+03  0.00000000000E+00 0. -1.
        -15    1    1    2    0    0 -0.32578251309E+01  0.11290420075E+01  0.84401825043E+02  0.84490910517E+02  0.17770000000E+01 0.  1.
         15    1    1    2    0    0  0.30494718062E+01 -0.12440464840E+02  0.61645585896E+02  0.62987303746E+02  0.17770000000E+01 0. -1.
</event>
<event>
 6    1  0.3411206E-003  0.5107017E+03  0.7546771E-02  0.9376177E-01
        -11   -1    0    0    0    0  0.00000000000E+00  0.00000000000E+00  0.50000000000E+03  0.50000000000E+03  0.00000000000E+00 0. -1.
         11   -1    0    0    0    0 -0.00000000000E+00 -0.00000000000E+00 -0.50000000000E+03  0.50000000000E+03  0.00000000000E+00 0.  1.
        -11    1    1    2    0    0 -0.59830740335E+01 -0.15670889316E+02  0.48901072803E+03  0.48929834056E+03  0.00000000000E+00 0. -1.
         11    1    1    2    0    0  0.82731003542E+01  0.56978642402E+01 -0.37562156148E+03  0.37575586130E+03  0.00000000000E+00 0.  1.
        -15    1    1    2    0    0  0.21870678324E+01  0.25863312825E+02 -0.65556223605E+01  0.26829612921E+02  0.17770000000E+01 0. -1.
         15    1    1    2    0    0 -0.44770941531E+01 -0.15890287749E+02 -0.10683354418E+03  0.10811618523E+03  0.17770000000E+01 0.  1.
</event>
<event>
 6    1  0.3411206E-003  0.5119678E+03  0.7546771E-02  0.9373422E-01
        -11   -1    0    0    0    0  0.00000000000E+00  0.00000000000E+00  0.50000000000E+03  0.50000000000E+03  0.00000000000E+00 0. -1.
         11   -1    0    0    0    0 -0.00000000000E+00 -0.00000000000E+00 -0.50000000000E+03  0.50000000000E+03  0.00000000000E+00 0.  1.
        -11    1    1    2    0    0  0.76480278178E+01 -0.23422064060E+02  0.47281765150E+03  0.47345920309E+03  0.00000000000E+00 0. -1.
         11    1    1    2    0    0  0.12755241285E+01  0.14361749612E+02 -0.48781920414E+03  0.48803223535E+03  0.00000000000E+00 0.  1.
        -15    1    1    2    0    0 -0.10395084872E+01  0.20609175773E+02  0.52449393096E+01  0.21365528810E+02  0.17770000000E+01 0. -1.
         15    1    1    2    0    0 -0.78840434591E+01 -0.11548861326E+02  0.97566133310E+01  0.17143032750E+02  0.17770000000E+01 0.  1.
</event>
<event>
 6    1  0.3411206E-003  0.5017511E+03  0.7546771E-02  0.9395900E-01
        -11   -1    0    0    0    0  0.00000000000E+00  0.00000000000E+00  0.50000000000E+03  0.50000000000E+03  0.00000000000E+00 0.  1.
         11   -1    0    0    0    0 -0.00000000000E+00 -0.00000000000E+00 -0.50000000000E+03  0.50000000000E+03  0.00000000000E+00 0. -1.
        -11    1    1    2    0    0 -0.94319229812E+01 -0.78478322690E+01  0.33478141644E+03  0.33500618865E+03  0.00000000000E+00 0.  1.
         11    1    1    2    0    0  0.14152057395E+01  0.72932153759E+01 -0.49819354522E+03  0.49824893607E+03  0.00000000000E+00 0. -1.
        -15    1    1    2    0    0  0.58319050494E+01  0.76050745112E+01  0.15540600800E+03  0.15571137828E+03  0.17770000000E+01 0.  1.
         15    1    1    2    0    0  0.21848121923E+01 -0.70504576181E+01  0.80061207847E+01  0.11033496996E+02  0.17770000000E+01 0. -1.
</event>
<event>
 6    1  0.3411206E-003  0.5001266E+03  0.7546771E-02  0.9399526E-01
        -11   -1    0    0    0    0  0.00000000000E+00  0.00000000000E+00  0.50000000000E+03  0.50000000000E+03  0.00000000000E+00 0. -1.
         11   -1    0    0    0    0 -0.00000000000E+00 -0.00000000000E+00 -0.50000000000E+03  0.50000000000E+03  0.00000000000E+00 0. -1.
        -11    1    1    2    0    0 -0.54876246957E+01 -0.90069392967E+00  0.36625725784E+03  0.36629947338E+03  0.00000000000E+00 0. -1.
         11    1    1    2    0    0  0.54017522292E+01  0.70114027019E+01 -0.49979504322E+03  0.49987340790E+03  0.00000000000E+00 0. -1.
        -15    1    1    2    0    0 -0.25470927508E+01 -0.33676275948E+01  0.65495204096E+02  0.65655221313E+02  0.17770000000E+01 0. -1.
         15    1    1    2    0    0  0.26329652173E+01 -0.27430811774E+01  0.68042581284E+02  0.68171897414E+02  0.17770000000E+01 0. -1.
</event>
<event>
 6    1  0.3411206E-003  0.5184987E+03  0.7546771E-02  0.9359343E-01
        -11   -1    0    0    0    0  0.00000000000E+00  0.00000000000E+00  0.50000000000E+03  0.50000000000E+03  0.00000000000E+00 0. -1.
         11   -1    0    0    0    0 -0.00000000000E+00 -0.00000000000E+00 -0.50000000000E+03  0.50000000000E+03  0.00000000000E+00 0. -1.
        -11    1    1    2    0    0 -0.20465415161E+02  0.10319943963E+02  0.32881617030E+03  0.32961402930E+03  0.00000000000E+00 0. -1.
         11    1    1    2    0    0 -0.34107575126E+01  0.92644006086E+01 -0.48140008845E+03  0.48150130586E+03  0.00000000000E+00 0. -1.
        -15    1    1    2    0    0  0.95610084956E+00 -0.53433584816E+01 -0.16598959721E+02  0.17554167640E+02  0.17770000000E+01 0.  1.
         15    1    1    2    0    0  0.22920071824E+02 -0.14240986090E+02  0.16918287787E+03  0.17133049720E+03  0.17770000000E+01 0. -1.
</event>
<event>
 6    1  0.3411206E-003  0.5029391E+03  0.7546771E-02  0.9393257E-01
        -11   -1    0    0    0    0  0.00000000000E+00  0.00000000000E+00  0.50000000000E+03  0.50000000000E+03  0.00000000000E+00 0.  1.
         11   -1    0    0    0    0 -0.00000000000E+00 -0.00000000000E+00 -0.50000000000E+03  0.50000000000E+03  0.00000000000E+00 0. -1.
        -11    1    1    2    0    0 -0.64981452931E+01  0.21310370212E+01  0.45444980495E+03  0.45450125680E+03  0.00000000000E+00 0.  1.
         11    1    1    2    0    0  0.86300997151E+01  0.10662499186E+01 -0.49698483694E+03  0.49706090538E+03  0.00000000000E+00 0. -1.
        -15    1    1    2    0    0  0.15450978300E+01  0.52069534690E+01  0.92191104805E+00  0.57885525577E+01  0.17770000000E+01 0. -1.
         15    1    1    2    0    0 -0.36770522520E+01 -0.84042404088E+01  0.41613120937E+02  0.42649285260E+02  0.17770000000E+01 0.  1.
</event>
<event>
 6    1  0.3411206E-003  0.5005505E+03  0.7546771E-02  0.9398579E-01
        -11   -1    0    0    0    0  0.00000000000E+00  0.00000000000E+00  0.50000000000E+03  0.50000000000E+03  0.00000000000E+00 0. -1.
         11   -1    0    0    0    0 -0.00000000000E+00 -0.00000000000E+00 -0.50000000000E+03  0.50000000000E+03  0.00000000000E+00 0.  1.
        -11    1    1    2    0    0  0.17185188764E+01  0.73011139812E+01  0.49939316589E+03  0.49944949065E+03  0.00000000000E+00 0. -1.
         11    1    1    2    0    0 -0.12281700325E+01  0.34269544891E+01 -0.91612766582E+02  0.91685066502E+02  0.00000000000E+00 0.  1.
        -15    1    1    2    0    0  0.40929232267E+01  0.86535826194E+01 -0.14311796207E+03  0.14344875499E+03  0.17770000000E+01 0.  1.
         15    1    1    2    0    0 -0.45832720706E+01 -0.19381651090E+02 -0.26466243724E+03  0.26541668786E+03  0.17770000000E+01 0. -1.
</event>
<event>
 6    1  0.3411206E-003  0.5003039E+03  0.7546771E-02  0.9399130E-01
        -11   -1    0    0    0    0  0.00000000000E+00  0.00000000000E+00  0.50000000000E+03  0.50000000000E+03  0.00000000000E+00 0.  1.
         11   -1    0    0    0    0 -0.00000000000E+00 -0.00000000000E+00 -0.50000000000E+03  0.50000000000E+03  0.00000000000E+00 0.  1.
        -11    1    1    2    0    0  0.89601821870E+01 -0.11565834455E+01  0.49961442751E+03  0.49969610638E+03  0.00000000000E+00 0.  1.
         11    1    1    2    0    0 -0.52814763797E+01 -0.28711283754E+01 -0.23252855369E+03  0.23260624594E+03  0.00000000000E+00 0.  1.
        -15    1    1    2    0    0  0.52088018849E+01 -0.27217072821E+01 -0.62788166168E+02  0.63087644173E+02  0.17770000000E+01 0. -1.
         15    1    1    2    0    0 -0.88875076923E+01  0.67494191030E+01 -0.20429770766E+03  0.20461000351E+03  0.17770000000E+01 0. -1.
</event>
<event>
 6    1  0.3411206E-003  0.5052167E+03  0.7546771E-02  0.9388212E-01
        -11   -1    0    0    0    0  0.00000000000E+00  0.00000000000E+00  0.50000000000E+03  0.50000000000E+03  0.00000000000E+00 0. -1.
         11   -1    0    0    0    0 -0.00000000000E+00 -0.00000000000E+00 -0.50000000000E+03  0.50000000000E+03  0.00000000000E+00 0.  1.
        -11    1    1    2    0    0  0.10322605647E+02  0.65487772653E+01  0.46060066433E+03  0.46076286162E+03  0.00000000000E+00 0. -1.
         11    1    1    2    0    0 -0.19292028735E+01  0.70738486903E+01 -0.49472892324E+03  0.49478325422E+03  0.00000000000E+00 0.  1.
        -15    1    1    2    0    0 -0.84760140075E+01 -0.93248567212E+01  0.36904411432E+02  0.39037021895E+02  0.17770000000E+01 0. -1.
         15    1    1    2    0    0  0.82611234104E-01 -0.42977692343E+01 -0.27761525174E+01  0.54168622659E+01  0.17770000000E+01 0.  1.
</event>
<event>
 6    1  0.3411206E-003  0.4779300E+03  0.7546771E-02  0.9450594E-01
        -11   -1    0    0    0    0  0.00000000000E+00  0.00000000000E+00  0.50000000000E+03  0.50000000000E+03  0.00000000000E+00 0.  1.
         11   -1    0    0    0    0 -0.00000000000E+00 -0.00000000000E+00 -0.50000000000E+03  0.50000000000E+03  0.00000000000E+00 0.  1.
        -11    1    1    2    0    0 -0.15534185142E+02  0.63492023079E+02  0.48144934020E+03  0.48586625226E+03  0.00000000000E+00 0.  1.
         11    1    1    2    0    0 -0.56452667637E+01 -0.97402192813E+01 -0.66559447331E+02  0.67504821587E+02  0.00000000000E+00 0.  1.
        -15    1    1    2    0    0  0.44033654288E+02 -0.97650836271E+02 -0.20890818032E+03  0.23477741388E+03  0.17770000000E+01 0.  1.
         15    1    1    2    0    0 -0.22854202382E+02  0.43899032474E+02 -0.20598171255E+03  0.21185151227E+03  0.17770000000E+01 0. -1.
</event>
<event>
 6    1  0.3411206E-003  0.5012174E+03  0.7546771E-02  0.9397090E-01
        -11   -1    0    0    0    0  0.00000000000E+00  0.00000000000E+00  0.50000000000E+03  0.50000000000E+03  0.00000000000E+00 0.  1.
         11   -1    0    0    0    0 -0.00000000000E+00 -0.00000000000E+00 -0.50000000000E+03  0.50000000000E+03  0.00000000000E+00 0. -1.
        -11    1    1    2    0    0 -0.84546137601E+01 -0.83563271680E+01  0.49864089146E+03  0.49878256518E+03  0.00000000000E+00 0.  1.
         11    1    1    2    0    0  0.40382848943E+01  0.89718029474E+00 -0.21849760415E+03  0.21853676051E+03  0.00000000000E+00 0. -1.
        -15    1    1    2    0    0  0.91326271653E+01  0.12767868854E+02 -0.50338214468E+02  0.52759045849E+02  0.17770000000E+01 0.  1.
         15    1    1    2    0    0 -0.47162982995E+01 -0.53087219804E+01 -0.22980507284E+03  0.22992162845E+03  0.17770000000E+01 0. -1.
</event>
<event>
 6    1  0.3411206E-003  0.4396708E+03  0.7546771E-02  0.9545943E-01
        -11   -1    0    0    0    0  0.00000000000E+00  0.00000000000E+00  0.50000000000E+03  0.50000000000E+03  0.00000000000E+00 0.  1.
         11   -1    0    0    0    0 -0.00000000000E+00 -0.00000000000E+00 -0.50000000000E+03  0.50000000000E+03  0.00000000000E+00 0.  1.
        -11    1    1    2    0    0  0.69495582149E+02 -0.56580521040E+01  0.45914323041E+03  0.46440731639E+03  0.00000000000E+00 0.  1.
         11    1    1    2    0    0  0.11156109187E+02 -0.21849970828E+02 -0.41923706401E+03  0.41995427827E+03  0.00000000000E+00 0.  1.
        -15    1    1    2    0    0  0.12079334600E+02  0.38450446232E+01 -0.40918625931E+01  0.13438592226E+02  0.17770000000E+01 0.  1.
         15    1    1    2    0    0 -0.92731025936E+02  0.23662978309E+02 -0.35814303804E+02  0.10219981311E+03  0.17770000000E+01 0. -1.
</event>
<event>
 6    1  0.3411206E-003  0.5031787E+03  0.7546771E-02  0.9392725E-01
        -11   -1    0    0    0    0  0.00000000000E+00  0.00000000000E+00  0.50000000000E+03  0.50000000000E+03  0.00000000000E+00 0.  1.
         11   -1    0    0    0    0 -0.00000000000E+00 -0.00000000000E+00 -0.50000000000E+03  0.50000000000E+03  0.00000000000E+00 0. -1.
        -11    1    1    2    0    0 -0.52423184581E+01  0.47498192888E+01  0.49677096635E+03  0.49682133177E+03  0.00000000000E+00 0.  1.
         11    1    1    2    0    0  0.17656848145E+01 -0.55207814370E+01 -0.40971555399E+03  0.40975655194E+03  0.00000000000E+00 0. -1.
        -15    1    1    2    0    0 -0.35710501125E+01  0.56452694174E+01 -0.83800424674E+02  0.84085018703E+02  0.17770000000E+01 0.  1.
         15    1    1    2    0    0  0.70476837562E+01 -0.48743072692E+01 -0.32549876865E+01  0.93370975962E+01  0.17770000000E+01 0. -1.
</event>
<event>
 6    1  0.3411206E-003  0.5000590E+03  0.7546771E-02  0.9399678E-01
        -11   -1    0    0    0    0  0.00000000000E+00  0.00000000000E+00  0.50000000000E+03  0.50000000000E+03  0.00000000000E+00 0.  1.
         11   -1    0    0    0    0 -0.00000000000E+00 -0.00000000000E+00 -0.50000000000E+03  0.50000000000E+03  0.00000000000E+00 0.  1.
        -11    1    1    2    0    0  0.13779659645E+01 -0.13439707449E+02  0.49975841874E+03  0.49994099815E+03  0.00000000000E+00 0.  1.
         11    1    1    2    0    0 -0.90159177793E+00  0.10906093814E+00 -0.23412361955E+02  0.23429969149E+02  0.00000000000E+00 0.  1.
        -15    1    1    2    0    0 -0.61289230566E+00  0.37661463529E+01 -0.51544288149E+02  0.51715866667E+02  0.17770000000E+01 0.  1.
         15    1    1    2    0    0  0.13651811906E+00  0.95645001581E+01 -0.42480176864E+03  0.42491316603E+03  0.17770000000E+01 0.  1.
</event>
<event>
 6    1  0.3411206E-003  0.5130959E+03  0.7546771E-02  0.9370974E-01
        -11   -1    0    0    0    0  0.00000000000E+00  0.00000000000E+00  0.50000000000E+03  0.50000000000E+03  0.00000000000E+00 0. -1.
         11   -1    0    0    0    0 -0.00000000000E+00 -0.00000000000E+00 -0.50000000000E+03  0.50000000000E+03  0.00000000000E+00 0. -1.
        -11    1    1    2    0    0  0.39737288535E+01 -0.16794903977E+02  0.45774782822E+03  0.45807306575E+03  0.00000000000E+00 0. -1.
         11    1    1    2    0    0  0.27796791840E+02 -0.33842065894E+01 -0.48609819622E+03  0.48690406740E+03  0.00000000000E+00 0. -1.
        -15    1    1    2    0    0 -0.13009753393E+02  0.18286106306E+02  0.28198703425E+02  0.36082682426E+02  0.17770000000E+01 0.  1.
         15    1    1    2    0    0 -0.18760767301E+02  0.18930042607E+01  0.15166456835E+00  0.18940184423E+02  0.17770000000E+01 0. -1.
</event>
<event>
 6    1  0.3411206E-003  0.5009210E+03  0.7546771E-02  0.9397751E-01
        -11   -1    0    0    0    0  0.00000000000E+00  0.00000000000E+00  0.50000000000E+03  0.50000000000E+03  0.00000000000E+00 0. -1.
         11   -1    0    0    0    0 -0.00000000000E+00 -0.00000000000E+00 -0.50000000000E+03  0.50000000000E+03  0.00000000000E+00 0.  1.
        -11    1    1    2    0    0 -0.67941631151E+01 -0.48563402666E+01  0.49900909054E+03  0.49907896884E+03  0.00000000000E+00 0. -1.
         11    1    1    2    0    0 -0.15621675466E+01 -0.18067598524E+01 -0.88201654984E+02  0.88233988295E+02  0.00000000000E+00 0.  1.
        -15    1    1    2    0    0  0.26820890669E+01  0.57132899288E+01 -0.40179313182E+03  0.40184662969E+03  0.17770000000E+01 0.  1.
         15    1    1    2    0    0  0.56742415948E+01  0.94981019019E+00 -0.90143037342E+01  0.10840413179E+02  0.17770000000E+01 0. -1.
</event>
<event>
 6    1  0.3411206E-003  0.5004168E+03  0.7546771E-02  0.9398878E-01
        -11   -1    0    0    0    0  0.00000000000E+00  0.00000000000E+00  0.50000000000E+03  0.50000000000E+03  0.00000000000E+00 0. -1.
         11   -1    0    0    0    0 -0.00000000000E+00 -0.00000000000E+00 -0.50000000000E+03  0.50000000000E+03  0.00000000000E+00 0. -1.
        -11    1    1    2    0    0 -0.11120248739E+01  0.27037475869E+01  0.75873667989E+02  0.75929970001E+02  0.00000000000E+00 0. -1.
         11    1    1    2    0    0 -0.70836437002E+01 -0.98139395979E+01 -0.49943660171E+03  0.49958323685E+03  0.00000000000E+00 0. -1.
        -15    1    1    2    0    0 -0.23204605675E+01  0.68841807210E+01  0.35668632813E+03  0.35676472763E+03  0.17770000000E+01 0. -1.
         15    1    1    2    0    0  0.10516129141E+02  0.22601128998E+00  0.66876605591E+02  0.67722065515E+02  0.17770000000E+01 0.  1.
</event>
<event>
 6    1  0.3411206E-003  0.5014319E+03  0.7546771E-02  0.9396611E-01
        -11   -1    0    0    0    0  0.00000000000E+00  0.00000000000E+00  0.50000000000E+03  0.50000000000E+03  0.00000000000E+00 0.  1.
         11   -1    0    0    0    0 -0.00000000000E+00 -0.00000000000E+00 -0.50000000000E+03  0.50000000000E+03  0.00000000000E+00 0. -1.
        -11    1    1    2    0    0 -0.11941764095E+02  0.14593730918E+02  0.49821133431E+03  0.49856806591E+03  0.00000000000E+00 0.  1.
         11    1    1    2    0    0 -0.78444565686E+01 -0.72314641369E+00 -0.35942720374E+03  0.35951352301E+03  0.00000000000E+00 0. -1.
        -15    1    1    2    0    0 -0.76631748192E+00  0.17351108365E+01 -0.47840094733E+01  0.54444768103E+01  0.17770000000E+01 0.  1.
         15    1    1    2    0    0  0.20552538146E+02 -0.15605695340E+02 -0.13400012110E+03  0.13647393427E+03  0.17770000000E+01 0. -1.
</event>
<event>
 6    1  0.3411206E-003  0.5004727E+03  0.7546771E-02  0.9398753E-01
        -11   -1    0    0    0    0  0.00000000000E+00  0.00000000000E+00  0.50000000000E+03  0.50000000000E+03  0.00000000000E+00 0.  1.
         11   -1    0    0    0    0 -0.00000000000E+00 -0.00000000000E+00 -0.50000000000E+03  0.50000000000E+03  0.00000000000E+00 0.  1.
        -11    1    1    2    0    0  0.40585428001E+01  0.19938307164E+01  0.26998669642E+03  0.27002456068E+03  0.00000000000E+00 0.  1.
         11    1    1    2    0    0  0.75683408944E+01  0.87971139761E+01 -0.49939245596E+03  0.49952727059E+03  0.00000000000E+00 0.  1.
        -15    1    1    2    0    0 -0.14009189765E+02 -0.87229512295E+01  0.21309061649E+03  0.21373608924E+03  0.17770000000E+01 0.  1.
         15    1    1    2    0    0  0.23823060704E+01 -0.20679934630E+01  0.16315143045E+02  0.16712079487E+02  0.17770000000E+01 0. -1.
</event>
<event>
 6    1  0.3411206E-003  0.5008522E+03  0.7546771E-02  0.9397905E-01
        -11   -1    0    0    0    0  0.00000000000E+00  0.00000000000E+00  0.50000000000E+03  0.50000000000E+03  0.00000000000E+00 0.  1.
         11   -1    0    0    0    0 -0.00000000000E+00 -0.00000000000E+00 -0.50000000000E+03  0.50000000000E+03  0.00000000000E+00 0. -1.
        -11    1    1    2    0    0  0.87496878352E+01  0.75057985565E+00  0.49907054973E+03  0.49914780778E+03  0.00000000000E+00 0.  1.
         11    1    1    2    0    0 -0.82797582757E+00 -0.27065819423E+01 -0.80889055363E+02  0.80938559459E+02  0.00000000000E+00 0. -1.
        -15    1    1    2    0    0  0.39228111889E+00 -0.73450454649E+01 -0.17899071667E+02  0.19432912106E+02  0.17770000000E+01 0.  1.
         15    1    1    2    0    0 -0.83139931265E+01  0.93010475515E+01 -0.40028242270E+03  0.40048072066E+03  0.17770000000E+01 0. -1.
</event>
<event>
 6    1  0.3411206E-003  0.5011265E+03  0.7546771E-02  0.9397293E-01
        -11   -1    0    0    0    0  0.00000000000E+00  0.00000000000E+00  0.50000000000E+03  0.50000000000E+03  0.00000000000E+00 0. -1.
         11   -1    0    0    0    0 -0.00000000000E+00 -0.00000000000E+00 -0.50000000000E+03  0.50000000000E+03  0.00000000000E+00 0.  1.
        -11    1    1    2    0    0  0.55630246807E+01  0.36238520057E+01  0.36497903800E+03  0.36503941942E+03  0.00000000000E+00 0. -1.
         11    1    1    2    0    0  0.91272646043E+01  0.17088166885E+01 -0.49878704190E+03  0.49887347111E+03  0.00000000000E+00 0.  1.
        -15    1    1    2    0    0  0.10113017376E+01 -0.54458233377E+01  0.12900628214E+02  0.14151454354E+02  0.17770000000E+01 0. -1.
         15    1    1    2    0    0 -0.15701591023E+02  0.11315464347E+00  0.12090737568E+03  0.12193565512E+03  0.17770000000E+01 0.  1.
</event>
<event>
 6    1  0.3411206E-003  0.4695311E+03  0.7546771E-02  0.9470692E-01
        -11   -1    0    0    0    0  0.00000000000E+00  0.00000000000E+00  0.50000000000E+03  0.50000000000E+03  0.00000000000E+00 0.  1.
         11   -1    0    0    0    0 -0.00000000000E+00 -0.00000000000E+00 -0.50000000000E+03  0.50000000000E+03  0.00000000000E+00 0.  1.
        -11    1    1    2    0    0  0.54260611837E+01 -0.13988978832E+01  0.25833950039E+02  0.26434674763E+02  0.00000000000E+00 0.  1.
         11    1    1    2    0    0  0.35500633677E+01  0.28244178136E+02 -0.47187145497E+03  0.47272931638E+03  0.00000000000E+00 0.  1.
        -15    1    1    2    0    0 -0.12509206188E+02 -0.54875747861E-01  0.46663881659E+03  0.46680983936E+03  0.17770000000E+01 0.  1.
         15    1    1    2    0    0  0.35330816363E+01 -0.26790404505E+02 -0.20601311656E+02  0.34026169493E+02  0.17770000000E+01 0. -1.
</event>
<event>
 6    1  0.3411206E-003  0.5013678E+03  0.7546771E-02  0.9396754E-01
        -11   -1    0    0    0    0  0.00000000000E+00  0.00000000000E+00  0.50000000000E+03  0.50000000000E+03  0.00000000000E+00 0.  1.
         11   -1    0    0    0    0 -0.00000000000E+00 -0.00000000000E+00 -0.50000000000E+03  0.50000000000E+03  0.00000000000E+00 0. -1.
        -11    1    1    2    0    0  0.27387474245E+01 -0.18492882695E+01  0.22461343279E+03  0.22463774125E+03  0.00000000000E+00 0.  1.
         11    1    1    2    0    0 -0.91997063481E+00 -0.12931479207E+02 -0.49846361484E+03  0.49863217388E+03  0.00000000000E+00 0. -1.
        -15    1    1    2    0    0 -0.18964281532E+02  0.85617225635E+01  0.12147562871E+03  0.12325758868E+03  0.17770000000E+01 0.  1.
         15    1    1    2    0    0  0.17145504742E+02  0.62190449128E+01  0.15237455334E+03  0.15347249619E+03  0.17770000000E+01 0. -1.
</event>
<event>
 6    1  0.3411206E-003  0.5120566E+03  0.7546771E-02  0.9373229E-01
        -11   -1    0    0    0    0  0.00000000000E+00  0.00000000000E+00  0.50000000000E+03  0.50000000000E+03  0.00000000000E+00 0. -1.
         11   -1    0    0    0    0 -0.00000000000E+00 -0.00000000000E+00 -0.50000000000E+03  0.50000000000E+03  0.00000000000E+00 0.  1.
        -11    1    1    2    0    0  0.69874176756E+01  0.64905912625E+01  0.48785018574E+03  0.48794339375E+03  0.00000000000E+00 0. -1.
         11    1    1    2    0    0  0.11834977666E+02  0.27628096158E+01 -0.44824354019E+03  0.44840826390E+03  0.00000000000E+00 0.  1.
        -15    1    1    2    0    0 -0.17009132621E+02 -0.42873336938E+01 -0.49359219103E+02  0.52413567539E+02  0.17770000000E+01 0.  1.
         15    1    1    2    0    0 -0.18132627214E+01 -0.49660671846E+01  0.97525735555E+01  0.11234774806E+02  0.17770000000E+01 0. -1.
</event>
<event>
 6    1  0.3411206E-003  0.5019031E+03  0.7546771E-02  0.9395561E-01
        -11   -1    0    0    0    0  0.00000000000E+00  0.00000000000E+00  0.50000000000E+03  0.50000000000E+03  0.00000000000E+00 0.  1.
         11   -1    0    0    0    0 -0.00000000000E+00 -0.00000000000E+00 -0.50000000000E+03  0.50000000000E+03  0.00000000000E+00 0.  1.
        -11    1    1    2    0    0 -0.34954959409E+01  0.13202270863E+02  0.49790965124E+03  0.49809691752E+03  0.00000000000E+00 0.  1.
         11    1    1    2    0    0  0.40525573751E+01  0.59701256665E+00 -0.29823242801E+03  0.29826055851E+03  0.00000000000E+00 0.  1.
        -15    1    1    2    0    0 -0.56770200723E+01 -0.79276926354E+01 -0.11040666129E+02  0.14836809125E+02  0.17770000000E+01 0. -1.
         15    1    1    2    0    0  0.51199586380E+01 -0.58715907940E+01 -0.18863655710E+03  0.18880571485E+03  0.17770000000E+01 0.  1.
</event>
<event>
 6    1  0.3411206E-003  0.5074178E+03  0.7546771E-02  0.9383363E-01
        -11   -1    0    0    0    0  0.00000000000E+00  0.00000000000E+00  0.50000000000E+03  0.50000000000E+03  0.00000000000E+00 0. -1.
         11   -1    0    0    0    0 -0.00000000000E+00 -0.00000000000E+00 -0.50000000000E+03  0.50000000000E+03  0.00000000000E+00 0. -1.
        -11    1    1    2    0    0  0.97879563510E+01 -0.27061283201E+02  0.45924583438E+03  0.46014655658E+03  0.00000000000E+00 0. -1.
         11    1    1    2    0    0 -0.13146168396E+01  0.74663170321E+01 -0.49252384631E+03  0.49258218938E+03  0.00000000000E+00 0. -1.
        -15    1    1    2    0    0 -0.18279004186E+01 -0.24637868972E+01 -0.27385926943E+01  0.44798532075E+01  0.17770000000E+01 0.  1.
         15    1    1    2    0    0 -0.66454390928E+01  0.22058753066E+02  0.36016604622E+02  0.42791400831E+02  0.17770000000E+01 0.  1.
</event>
<event>
 6    1  0.3411206E-003  0.5082763E+03  0.7546771E-02  0.9381479E-01
        -11   -1    0    0    0    0  0.00000000000E+00  0.00000000000E+00  0.50000000000E+03  0.50000000000E+03  0.00000000000E+00 0.  1.
         11   -1    0    0    0    0 -0.00000000000E+00 -0.00000000000E+00 -0.50000000000E+03  0.50000000000E+03  0.00000000000E+00 0.  1.
        -11    1    1    2    0    0 -0.13946892183E+02  0.13534256578E+02  0.49133952734E+03  0.49172372633E+03  0.00000000000E+00 0.  1.
         11    1    1    2    0    0 -0.21898062649E+01  0.51901612915E+01 -0.40432337810E+03  0.40436261833E+03  0.00000000000E+00 0.  1.
        -15    1    1    2    0    0  0.60177317103E+01 -0.90570608707E+01 -0.88989706447E+02  0.89669220076E+02  0.17770000000E+01 0.  1.
         15    1    1    2    0    0  0.10118966737E+02 -0.96673569985E+01  0.19735572003E+01  0.14244435271E+02  0.17770000000E+01 0. -1.
</event>
<event>
 6    1  0.3411206E-003  0.5019014E+03  0.7546771E-02  0.9395565E-01
        -11   -1    0    0    0    0  0.00000000000E+00  0.00000000000E+00  0.50000000000E+03  0.50000000000E+03  0.00000000000E+00 0. -1.
         11   -1    0    0    0    0 -0.00000000000E+00 -0.00000000000E+00 -0.50000000000E+03  0.50000000000E+03  0.00000000000E+00 0. -1.
        -11    1    1    2    0    0 -0.56797523216E+01  0.37163577878E+01  0.38552893989E+03  0.38558868551E+03  0.00000000000E+00 0. -1.
         11    1    1    2    0    0  0.15347721072E+02 -0.57132119324E+01 -0.49782929807E+03  0.49809858798E+03  0.00000000000E+00 0. -1.
        -15    1    1    2    0    0 -0.16664021992E+02  0.29423233838E+01  0.37744742059E+02  0.41402538303E+02  0.17770000000E+01 0. -1.
         15    1    1    2    0    0  0.69960532408E+01 -0.94546923915E+00  0.74555616122E+02  0.74910188208E+02  0.17770000000E+01 0.  1.
</event>
<event>
 6    1  0.4770515E-003  0.5001823E+03  0.7546771E-02  0.9399402E-01
        -11   -1    0    0    0    0  0.00000000000E+00  0.00000000000E+00  0.50000000000E+03  0.50000000000E+03  0.00000000000E+00 0. -1.
         11   -1    0    0    0    0 -0.00000000000E+00 -0.00000000000E+00 -0.50000000000E+03  0.50000000000E+03  0.00000000000E+00 0. -1.
        -11    1    1    2    0    0 -0.22415965827E+00  0.12893839212E+02  0.49965133049E+03  0.49981772017E+03  0.00000000000E+00 0. -1.
         11    1    1    2    0    0 -0.10414305711E+01  0.12344959795E+01 -0.81261966105E+02  0.81278014821E+02  0.00000000000E+00 0. -1.
        -15    1    1    2    0    0  0.46119821012E+01 -0.12554958488E+02 -0.19018511138E+03  0.19066313666E+03  0.17770000000E+01 0. -1.
         15    1    1    2    0    0 -0.33463918718E+01 -0.15733767040E+01 -0.22820425301E+03  0.22824112835E+03  0.17770000000E+01 0.  1.
</event>
<event>
 6    1  0.3411206E-003  0.5000447E+03  0.7546771E-02  0.9399710E-01
        -11   -1    0    0    0    0  0.00000000000E+00  0.00000000000E+00  0.50000000000E+03  0.50000000000E+03  0.00000000000E+00 0. -1.
         11   -1    0    0    0    0 -0.00000000000E+00 -0.00000000000E+00 -0.50000000000E+03  0.50000000000E+03  0.00000000000E+00 0. -1.
        -11    1    1    2    0    0  0.92800015130E+00  0.42082344737E+01  0.22905067415E+03  0.22909120836E+03  0.00000000000E+00 0. -1.
         11    1    1    2    0    0 -0.35012185229E+01 -0.84846642938E+01 -0.49987102782E+03  0.49995529051E+03  0.00000000000E+00 0. -1.
        -15    1    1    2    0    0 -0.12175409787E+01  0.36775570624E+01  0.13293610135E+03  0.13300440445E+03  0.17770000000E+01 0. -1.
         15    1    1    2    0    0  0.37907593502E+01  0.59887275760E+00  0.13788425233E+03  0.13794909668E+03  0.17770000000E+01 0.  1.
</event>
<event>
 6    1  0.3411206E-003  0.4884424E+03  0.7546771E-02  0.9426049E-01
        -11   -1    0    0    0    0  0.00000000000E+00  0.00000000000E+00  0.50000000000E+03  0.50000000000E+03  0.00000000000E+00 0.  1.
         11   -1    0    0    0    0 -0.00000000000E+00 -0.00000000000E+00 -0.50000000000E+03  0.50000000000E+03  0.00000000000E+00 0.  1.
        -11    1    1    2    0    0  0.27428299259E+02 -0.11937924184E+01  0.18804155118E+02  0.33276613264E+02  0.00000000000E+00 0.  1.
         11    1    1    2    0    0 -0.15323030659E+02  0.14346604309E+02 -0.48689605101E+03  0.48734831980E+03  0.00000000000E+00 0.  1.
        -15    1    1    2    0    0 -0.29484491443E+02 -0.39655938102E+02  0.41173368612E+03  0.41469231326E+03  0.17770000000E+01 0.  1.
         15    1    1    2    0    0  0.17379222843E+02  0.26503126211E+02  0.56358209768E+02  0.64682753674E+02  0.17770000000E+01 0. -1.
</event>
<event>
 6    1  0.3411206E-003  0.5003507E+03  0.7546771E-02  0.9399025E-01
        -11   -1    0    0    0    0  0.00000000000E+00  0.00000000000E+00  0.50000000000E+03  0.50000000000E+03  0.00000000000E+00 0. -1.
         11   -1    0    0    0    0 -0.00000000000E+00 -0.00000000000E+00 -0.50000000000E+03  0.50000000000E+03  0.00000000000E+00 0.  1.
        -11    1    1    2    0    0  0.16802292412E+01  0.25998596250E+01  0.18735788906E+03  0.18738345987E+03  0.00000000000E+00 0. -1.
         11    1    1    2    0    0  0.13931027883E+01  0.12086652363E+02 -0.49950113062E+03  0.49964928439E+03  0.00000000000E+00 0.  1.
        -15    1    1    2    0    0 -0.30643181995E+01 -0.11649721701E+02  0.92755877510E+02  0.93551678784E+02  0.17770000000E+01 0. -1.
         15    1    1    2    0    0 -0.90138299558E-02 -0.30367902865E+01  0.21938736405E+03  0.21941557696E+03  0.17770000000E+01 0.  1.
</event>
<event>
 6    1  0.3411206E-003  0.5135940E+03  0.7546771E-02  0.9369895E-01
        -11   -1    0    0    0    0  0.00000000000E+00  0.00000000000E+00  0.50000000000E+03  0.50000000000E+03  0.00000000000E+00 0. -1.
         11   -1    0    0    0    0 -0.00000000000E+00 -0.00000000000E+00 -0.50000000000E+03  0.50000000000E+03  0.00000000000E+00 0. -1.
        -11    1    1    2    0    0  0.16420509572E+02  0.75685816627E+01  0.48606978947E+03  0.48640595884E+03  0.00000000000E+00 0. -1.
         11    1    1    2    0    0 -0.49050101893E+00  0.13559582011E+02 -0.45737967224E+03  0.45758088622E+03  0.00000000000E+00 0. -1.
        -15    1    1    2    0    0 -0.23640412317E+02 -0.21512221077E+02 -0.67905558917E+01  0.32724824346E+02  0.17770000000E+01 0.  1.
         15    1    1    2    0    0  0.77104037636E+01  0.38405740374E+00 -0.21899561331E+02  0.23288330592E+02  0.17770000000E+01 0. -1.
</event>
<event>
 6    1  0.3411206E-003  0.5077257E+03  0.7546771E-02  0.9382687E-01
        -11   -1    0    0    0    0  0.00000000000E+00  0.00000000000E+00  0.50000000000E+03  0.50000000000E+03  0.00000000000E+00 0. -1.
         11   -1    0    0    0    0 -0.00000000000E+00 -0.00000000000E+00 -0.50000000000E+03  0.50000000000E+03  0.00000000000E+00 0. -1.
        -11    1    1    2    0    0  0.66480744019E+01  0.13547426364E+02  0.31485789930E+03  0.31521933063E+03  0.00000000000E+00 0. -1.
         11    1    1    2    0    0  0.76446363728E+01 -0.17398512471E+01 -0.49221185773E+03  0.49227429391E+03  0.00000000000E+00 0. -1.
        -15    1    1    2    0    0 -0.18533350398E+02 -0.72274281069E+01  0.57547751008E+01  0.20784512491E+02  0.17770000000E+01 0.  1.
         15    1    1    2    0    0  0.42406396236E+01 -0.45801470095E+01  0.17159918334E+03  0.17172186297E+03  0.17770000000E+01 0. -1.
</event>
<event>
 6    1  0.3411206E-003  0.5014670E+03  0.7546771E-02  0.9396533E-01
        -11   -1    0    0    0    0  0.00000000000E+00  0.00000000000E+00  0.50000000000E+03  0.50000000000E+03  0.00000000000E+00 0.  1.
         11   -1    0    0    0    0 -0.00000000000E+00 -0.00000000000E+00 -0.50000000000E+03  0.50000000000E+03  0.00000000000E+00 0. -1.
        -11    1    1    2    0    0  0.29058210403E+01 -0.40949598553E+01  0.12970752516E+03  0.12980467856E+03  0.00000000000E+00 0.  1.
         11    1    1    2    0    0  0.11353750881E+02 -0.35068282065E+01 -0.49839136978E+03  0.49853301092E+03  0.00000000000E+00 0. -1.
        -15    1    1    2    0    0 -0.19210780339E+02 -0.13534479242E+02  0.23932873071E+03  0.24048624759E+03  0.17770000000E+01 0.  1.
         15    1    1    2    0    0  0.49512084179E+01  0.21136267304E+02  0.12935511392E+03  0.13117606293E+03  0.17770000000E+01 0. -1.
</event>
<event>
 6    1  0.3411206E-003  0.5105676E+03  0.7546771E-02  0.9376469E-01
        -11   -1    0    0    0    0  0.00000000000E+00  0.00000000000E+00  0.50000000000E+03  0.50000000000E+03  0.00000000000E+00 0. -1.
         11   -1    0    0    0    0 -0.00000000000E+00 -0.00000000000E+00 -0.50000000000E+03  0.50000000000E+03  0.00000000000E+00 0. -1.
        -11    1    1    2    0    0  0.11641706233E+02 -0.28347483597E+00  0.46812895453E+03  0.46827377436E+03  0.00000000000E+00 0. -1.
         11    1    1    2    0    0  0.95789344824E+01  0.26781409475E+01 -0.48933130224E+03  0.48943237712E+03  0.00000000000E+00 0. -1.
        -15    1    1    2    0    0 -0.42234817604E+01 -0.48413081250E+01 -0.67200771135E+01  0.94653699322E+01  0.17770000000E+01 0. -1.
         15    1    1    2    0    0 -0.16997158956E+02  0.24466420135E+01  0.27922424817E+02  0.32828478588E+02  0.17770000000E+01 0.  1.
</event>
<event>
 6    1  0.3411206E-003  0.5042127E+03  0.7546771E-02  0.9390433E-01
        -11   -1    0    0    0    0  0.00000000000E+00  0.00000000000E+00  0.50000000000E+03  0.50000000000E+03  0.00000000000E+00 0.  1.
         11   -1    0    0    0    0 -0.00000000000E+00 -0.00000000000E+00 -0.50000000000E+03  0.50000000000E+03  0.00000000000E+00 0.  1.
        -11    1    1    2    0    0 -0.36052213945E+01  0.63721189862E+01  0.49573326088E+03  0.49578732080E+03  0.00000000000E+00 0.  1.
         11    1    1    2    0    0  0.30542433588E+01  0.60468051956E+00 -0.22787443669E+03  0.22789570628E+03  0.00000000000E+00 0.  1.
        -15    1    1    2    0    0  0.29533007658E+01 -0.19949520883E+01  0.32534784174E+01  0.51424381435E+01  0.17770000000E+01 0.  1.
         15    1    1    2    0    0 -0.24023227301E+01 -0.49818474174E+01 -0.27111230261E+03  0.27117453478E+03  0.17770000000E+01 0.  1.
</event>
<event>
 6    1  0.3411206E-003  0.5009098E+03  0.7546771E-02  0.9397776E-01
        -11   -1    0    0    0    0  0.00000000000E+00  0.00000000000E+00  0.50000000000E+03  0.50000000000E+03  0.00000000000E+00 0. -1.
         11   -1    0    0    0    0 -0.00000000000E+00 -0.00000000000E+00 -0.50000000000E+03  0.50000000000E+03  0.00000000000E+00 0.  1.
        -11    1    1    2    0    0 -0.11745363752E+01 -0.37466305992E+01  0.28992529391E+03  0.28995188019E+03  0.00000000000E+00 0. -1.
         11    1    1    2    0    0  0.50704313846E+01  0.44573704069E+01 -0.49904456101E+03  0.49909022360E+03  0.00000000000E+00 0.  1.
        -15    1    1    2    0    0  0.97980838533E+01  0.66746140437E+01  0.80193248686E+02  0.81084325141E+02  0.17770000000E+01 0.  1.
         15    1    1    2    0    0 -0.13693978863E+02 -0.73853538514E+01  0.12892601841E+03  0.12987357107E+03  0.17770000000E+01 0. -1.
</event>
<event>
 6    1  0.3411206E-003  0.5001831E+03  0.7546771E-02  0.9399400E-01
        -11   -1    0    0    0    0  0.00000000000E+00  0.00000000000E+00  0.50000000000E+03  0.50000000000E+03  0.00000000000E+00 0. -1.
         11   -1    0    0    0    0 -0.00000000000E+00 -0.00000000000E+00 -0.50000000000E+03  0.50000000000E+03  0.00000000000E+00 0.  1.
        -11    1    1    2    0    0 -0.19175325473E+01 -0.18919280752E+01  0.15079233464E+03  0.15081639337E+03  0.00000000000E+00 0. -1.
         11    1    1    2    0    0 -0.93673688472E+01 -0.54733706486E+01 -0.49969918447E+03  0.49981694684E+03  0.00000000000E+00 0.  1.
        -15    1    1    2    0    0  0.13026221952E+02  0.55056242983E+01  0.31349376037E+03  0.31381760607E+03  0.17770000000E+01 0. -1.
         15    1    1    2    0    0 -0.17413205571E+01  0.18596744255E+01  0.35413089460E+02  0.35549053720E+02  0.17770000000E+01 0. -1.
</event>
<event>
 6    1  0.3411206E-003  0.5010234E+03  0.7546771E-02  0.9397523E-01
        -11   -1    0    0    0    0  0.00000000000E+00  0.00000000000E+00  0.50000000000E+03  0.50000000000E+03  0.00000000000E+00 0. -1.
         11   -1    0    0    0    0 -0.00000000000E+00 -0.00000000000E+00 -0.50000000000E+03  0.50000000000E+03  0.00000000000E+00 0.  1.
        -11    1    1    2    0    0  0.88480480430E+00 -0.20031751603E+01  0.16089845213E+03  0.16091335397E+03  0.00000000000E+00 0. -1.
         11    1    1    2    0    0  0.14583726522E+02 -0.23907414930E+02 -0.49819015355E+03  0.49897663138E+03  0.00000000000E+00 0.  1.
        -15    1    1    2    0    0 -0.22585194001E+02  0.24278990950E+02  0.31092994733E+03  0.31269817758E+03  0.17770000000E+01 0. -1.
         15    1    1    2    0    0  0.71166626745E+01  0.16315991403E+01  0.26361754096E+02  0.27411837067E+02  0.17770000000E+01 0.  1.
</event>
<event>
 6    1  0.3411206E-003  0.5036167E+03  0.7546771E-02  0.9391753E-01
        -11   -1    0    0    0    0  0.00000000000E+00  0.00000000000E+00  0.50000000000E+03  0.50000000000E+03  0.00000000000E+00 0.  1.
         11   -1    0    0    0    0 -0.00000000000E+00 -0.00000000000E+00 -0.50000000000E+03  0.50000000000E+03  0.00000000000E+00 0.  1.
        -11    1    1    2    0    0 -0.12089423173E+01 -0.60263833818E+01  0.42365389120E+03  0.42369847576E+03  0.00000000000E+00 0.  1.
         11    1    1    2    0    0 -0.94375643321E+00 -0.90284981109E+01 -0.49630024451E+03  0.49638325632E+03  0.00000000000E+00 0.  1.
        -15    1    1    2    0    0  0.98058272258E+01  0.33007170774E+01  0.60118434966E+02  0.61028132304E+02  0.17770000000E+01 0. -1.
         15    1    1    2    0    0 -0.76531284753E+01  0.11754164415E+02  0.12527918344E+02  0.18890135616E+02  0.17770000000E+01 0.  1.
</event>
<event>
 6    1  0.3411206E-003  0.5146596E+03  0.7546771E-02  0.9367592E-01
        -11   -1    0    0    0    0  0.00000000000E+00  0.00000000000E+00  0.50000000000E+03  0.50000000000E+03  0.00000000000E+00 0.  1.
         11   -1    0    0    0    0 -0.00000000000E+00 -0.00000000000E+00 -0.50000000000E+03  0.50000000000E+03  0.00000000000E+00 0. -1.
        -11    1    1    2    0    0 -0.23260465227E+02 -0.52067689626E+01  0.48475471298E+03  0.48534038719E+03  0.00000000000E+00 0.  1.
         11    1    1    2    0    0 -0.13935835835E+02 -0.15537672447E+02 -0.43826772909E+03  0.43876443468E+03  0.00000000000E+00 0. -1.
        -15    1    1    2    0    0  0.15843450299E+02  0.91668741170E+01  0.48974647941E+01  0.19031273969E+02  0.17770000000E+01 0. -1.
         15    1    1    2    0    0  0.21352850763E+02  0.11577567293E+02 -0.51384448685E+02  0.56863904155E+02  0.17770000000E+01 0.  1.
</event>
<event>
 6    1  0.3411206E-003  0.5003558E+03  0.7546771E-02  0.9399014E-01
        -11   -1    0    0    0    0  0.00000000000E+00  0.00000000000E+00  0.50000000000E+03  0.50000000000E+03  0.00000000000E+00 0.  1.
         11   -1    0    0    0    0 -0.00000000000E+00 -0.00000000000E+00 -0.50000000000E+03  0.50000000000E+03  0.00000000000E+00 0. -1.
        -11    1    1    2    0    0 -0.16246634892E+01 -0.21026273068E+01  0.13756877485E+02  0.14011147390E+02  0.00000000000E+00 0.  1.
         11    1    1    2    0    0  0.45460318992E+01  0.80573737208E+01 -0.49955854192E+03  0.49964419788E+03  0.00000000000E+00 0. -1.
        -15    1    1    2    0    0 -0.10315592375E+02 -0.46651567472E+00  0.13075366787E+03  0.13117281911E+03  0.17770000000E+01 0. -1.
         15    1    1    2    0    0  0.73942239647E+01 -0.54882307392E+01  0.35504799656E+03  0.35517183562E+03  0.17770000000E+01 0.  1.
</event>
<event>
 6    1  0.3411206E-003  0.5006806E+03  0.7546771E-02  0.9398288E-01
        -11   -1    0    0    0    0  0.00000000000E+00  0.00000000000E+00  0.50000000000E+03  0.50000000000E+03  0.00000000000E+00 0. -1.
         11   -1    0    0    0    0 -0.00000000000E+00 -0.00000000000E+00 -0.50000000000E+03  0.50000000000E+03  0.00000000000E+00 0.  1.
        -11    1    1    2    0    0  0.34372930092E+01 -0.61992913597E+01  0.42982998276E+03  0.42988842770E+03  0.00000000000E+00 0. -1.
         11    1    1    2    0    0 -0.14006961574E+01  0.66222911287E+01 -0.49927350124E+03  0.49931938249E+03  0.00000000000E+00 0.  1.
        -15    1    1    2    0    0  0.34696348544E+01 -0.16987921342E+01  0.79666545654E+01  0.90304803140E+01  0.17770000000E+01 0.  1.
         15    1    1    2    0    0 -0.55062317063E+01  0.12757923652E+01  0.61476863918E+02  0.61761709496E+02  0.17770000000E+01 0. -1.
</event>
<event>
 6    1  0.3411206E-003  0.5035814E+03  0.7546771E-02  0.9391832E-01
        -11   -1    0    0    0    0  0.00000000000E+00  0.00000000000E+00  0.50000000000E+03  0.50000000000E+03  0.00000000000E+00 0. -1.
         11   -1    0    0    0    0 -0.00000000000E+00 -0.00000000000E+00 -0.50000000000E+03  0.50000000000E+03  0.00000000000E+00 0.  1.
        -11    1    1    2    0    0  0.23791806733E+02  0.41122811284E+01  0.49583110768E+03  0.49641862200E+03  0.00000000000E+00 0. -1.
         11    1    1    2    0    0 -0.35358787809E+01  0.63230185206E+01 -0.30365089341E+03  0.30373730109E+03  0.00000000000E+00 0.  1.
        -15    1    1    2    0    0 -0.35903602813E+02 -0.26696036160E+01 -0.10815308218E+03  0.11400194030E+03  0.17770000000E+01 0.  1.
         15    1    1    2    0    0  0.15647674861E+02 -0.77656960330E+01 -0.84027132090E+02  0.85842136621E+02  0.17770000000E+01 0. -1.
</event>
<event>
 6    1  0.3411206E-003  0.5176021E+03  0.7546771E-02  0.9361263E-01
        -11   -1    0    0    0    0  0.00000000000E+00  0.00000000000E+00  0.50000000000E+03  0.50000000000E+03  0.00000000000E+00 0.  1.
         11   -1    0    0    0    0 -0.00000000000E+00 -0.00000000000E+00 -0.50000000000E+03  0.50000000000E+03  0.00000000000E+00 0. -1.
        -11    1    1    2    0    0 -0.41966045687E+01  0.98427141482E+01  0.36193140502E+03  0.36208953651E+03  0.00000000000E+00 0.  1.
         11    1    1    2    0    0  0.38413497379E+01 -0.92186937766E+01 -0.48229455372E+03  0.48239794448E+03  0.00000000000E+00 0. -1.
        -15    1    1    2    0    0 -0.12810293593E+02  0.19181979940E+01  0.13497181994E+03  0.13560358775E+03  0.17770000000E+01 0.  1.
         15    1    1    2    0    0  0.13165548424E+02 -0.25422183656E+01 -0.14608671235E+02  0.19908931256E+02  0.17770000000E+01 0. -1.
</event>
<event>
 6    1  0.3411206E-003  0.5804084E+03  0.7546771E-02  0.9235933E-01
        -11   -1    0    0    0    0  0.00000000000E+00  0.00000000000E+00  0.50000000000E+03  0.50000000000E+03  0.00000000000E+00 0. -1.
         11   -1    0    0    0    0 -0.00000000000E+00 -0.00000000000E+00 -0.50000000000E+03  0.50000000000E+03  0.00000000000E+00 0.  1.
        -11    1    1    2    0    0 -0.74282053903E+01 -0.21424683855E+02  0.41897842195E+03  0.41959160308E+03  0.00000000000E+00 0. -1.
         11    1    1    2    0    0 -0.73275873348E+01  0.25139921379E+01 -0.40104140910E+03  0.40111622443E+03  0.00000000000E+00 0.  1.
        -15    1    1    2    0    0  0.12263840561E+01  0.23735802328E+02  0.78364667269E+02  0.81908919753E+02  0.17770000000E+01 0. -1.
         15    1    1    2    0    0  0.13529408669E+02 -0.48251106104E+01 -0.96301680120E+02  0.97383252740E+02  0.17770000000E+01 0.  1.
</event>
<event>
 6    1  0.3675121E-003  0.5320837E+03  0.7546771E-02  0.9330750E-01
        -11   -1    0    0    0    0  0.00000000000E+00  0.00000000000E+00  0.50000000000E+03  0.50000000000E+03  0.00000000000E+00 0. -1.
         11   -1    0    0    0    0 -0.00000000000E+00 -0.00000000000E+00 -0.50000000000E+03  0.50000000000E+03  0.00000000000E+00 0. -1.
        -11    1    1    2    0    0 -0.89803500668E+02 -0.15391589799E+01  0.45921523991E+03  0.46791631123E+03  0.00000000000E+00 0. -1.
         11    1    1    2    0    0  0.11340886542E+02 -0.13396925473E+02 -0.25695300613E+03  0.25755182135E+03  0.00000000000E+00 0. -1.
        -15    1    1    2    0    0  0.99384327231E+01  0.57615887056E+01 -0.20499029555E+03  0.20531962242E+03  0.17770000000E+01 0. -1.
         15    1    1    2    0    0  0.68524181402E+02  0.91744957472E+01  0.27280617696E+01  0.69212245008E+02  0.17770000000E+01 0.  1.
</event>
<event>
 6    1  0.3411206E-003  0.5032079E+03  0.7546771E-02  0.9392660E-01
        -11   -1    0    0    0    0  0.00000000000E+00  0.00000000000E+00  0.50000000000E+03  0.50000000000E+03  0.00000000000E+00 0.  1.
         11   -1    0    0    0    0 -0.00000000000E+00 -0.00000000000E+00 -0.50000000000E+03  0.50000000000E+03  0.00000000000E+00 0. -1.
        -11    1    1    2    0    0  0.11007536773E+02 -0.15019390325E+02  0.40336301589E+03  0.40379260832E+03  0.00000000000E+00 0.  1.
         11    1    1    2    0    0 -0.88416514078E+01 -0.29095251436E+01 -0.49670491013E+03  0.49679211737E+03  0.00000000000E+00 0. -1.
        -15    1    1    2    0    0 -0.11058161381E+02  0.21648868748E+02  0.64368304692E+02  0.68828720961E+02  0.17770000000E+01 0.  1.
         15    1    1    2    0    0  0.88922760163E+01 -0.37199532792E+01  0.28973589548E+02  0.30586553344E+02  0.17770000000E+01 0. -1.
</event>
<event>
 6    1  0.3411206E-003  0.5007810E+03  0.7546771E-02  0.9398064E-01
        -11   -1    0    0    0    0  0.00000000000E+00  0.00000000000E+00  0.50000000000E+03  0.50000000000E+03  0.00000000000E+00 0. -1.
         11   -1    0    0    0    0 -0.00000000000E+00 -0.00000000000E+00 -0.50000000000E+03  0.50000000000E+03  0.00000000000E+00 0.  1.
        -11    1    1    2    0    0 -0.39617895291E+01 -0.51768149907E+01  0.44073169109E+03  0.44077989828E+03  0.00000000000E+00 0. -1.
         11    1    1    2    0    0 -0.68360686121E+01  0.71048117135E+00 -0.49917165748E+03  0.49921897024E+03  0.00000000000E+00 0.  1.
        -15    1    1    2    0    0  0.86918089518E+00  0.21800775396E+01  0.19046815104E+02  0.19272963138E+02  0.17770000000E+01 0.  1.
         15    1    1    2    0    0  0.99286772460E+01  0.22862562797E+01  0.39393151282E+02  0.40728168343E+02  0.17770000000E+01 0. -1.
</event>
<event>
 6    1  0.3411206E-003  0.5032686E+03  0.7546771E-02  0.9392526E-01
        -11   -1    0    0    0    0  0.00000000000E+00  0.00000000000E+00  0.50000000000E+03  0.50000000000E+03  0.00000000000E+00 0.  1.
         11   -1    0    0    0    0 -0.00000000000E+00 -0.00000000000E+00 -0.50000000000E+03  0.50000000000E+03  0.00000000000E+00 0. -1.
        -11    1    1    2    0    0 -0.83173454028E+01 -0.51346179271E+01  0.49663522680E+03  0.49673140734E+03  0.00000000000E+00 0.  1.
         11    1    1    2    0    0 -0.10424926448E+02 -0.64141107454E+00 -0.45313005156E+03  0.45325040996E+03  0.00000000000E+00 0. -1.
        -15    1    1    2    0    0  0.11901604738E+01  0.56564655979E+00  0.54756501129E+00  0.22790336605E+01  0.17770000000E+01 0. -1.
         15    1    1    2    0    0  0.17552111377E+02  0.52103824418E+01 -0.44052740248E+02  0.47739149043E+02  0.17770000000E+01 0.  1.
</event>
<event>
 6    1  0.3411206E-003  0.5006087E+03  0.7546771E-02  0.9398449E-01
        -11   -1    0    0    0    0  0.00000000000E+00  0.00000000000E+00  0.50000000000E+03  0.50000000000E+03  0.00000000000E+00 0. -1.
         11   -1    0    0    0    0 -0.00000000000E+00 -0.00000000000E+00 -0.50000000000E+03  0.50000000000E+03  0.00000000000E+00 0.  1.
        -11    1    1    2    0    0  0.20106250525E+01 -0.34885060483E+01  0.70268595488E+02  0.70383860362E+02  0.00000000000E+00 0. -1.
         11    1    1    2    0    0 -0.28052067552E+02 -0.28100636755E+02 -0.49781034902E+03  0.49939133740E+03  0.00000000000E+00 0.  1.
        -15    1    1    2    0    0  0.96754331287E+01  0.18095066442E+01  0.18944992291E+03  0.18971378268E+03  0.17770000000E+01 0.  1.
         15    1    1    2    0    0  0.16366009371E+02  0.29779636159E+02  0.23809183062E+03  0.24051101956E+03  0.17770000000E+01 0. -1.
</event>
<event>
 6    1  0.3429135E-003  0.5050721E+03  0.7546771E-02  0.9388532E-01
        -11   -1    0    0    0    0  0.00000000000E+00  0.00000000000E+00  0.50000000000E+03  0.50000000000E+03  0.00000000000E+00 0. -1.
         11   -1    0    0    0    0 -0.00000000000E+00 -0.00000000000E+00 -0.50000000000E+03  0.50000000000E+03  0.00000000000E+00 0. -1.
        -11    1    1    2    0    0 -0.35079230164E+01  0.90146472682E+01  0.49483337184E+03  0.49492790917E+03  0.00000000000E+00 0. -1.
         11    1    1    2    0    0 -0.23606587829E+01  0.52880472832E+01 -0.36304845621E+03  0.36309464015E+03  0.00000000000E+00 0. -1.
        -15    1    1    2    0    0 -0.57044131493E+00  0.31614613555E+01 -0.11960714255E+03  0.11966347195E+03  0.17770000000E+01 0. -1.
         15    1    1    2    0    0  0.64390231143E+01 -0.17464155907E+02 -0.12177773088E+02  0.22313978726E+02  0.17770000000E+01 0.  1.
</event>
<event>
 6    1  0.3411206E-003  0.5079806E+03  0.7546771E-02  0.9382128E-01
        -11   -1    0    0    0    0  0.00000000000E+00  0.00000000000E+00  0.50000000000E+03  0.50000000000E+03  0.00000000000E+00 0. -1.
         11   -1    0    0    0    0 -0.00000000000E+00 -0.00000000000E+00 -0.50000000000E+03  0.50000000000E+03  0.00000000000E+00 0.  1.
        -11    1    1    2    0    0  0.77274947279E+01 -0.55973125522E+01  0.49192690920E+03  0.49201943872E+03  0.00000000000E+00 0. -1.
         11    1    1    2    0    0  0.64955525934E+01 -0.38255360583E+01 -0.41428282945E+03  0.41435140847E+03  0.00000000000E+00 0.  1.
        -15    1    1    2    0    0 -0.54875827275E+01  0.55059032392E+01 -0.82405454946E+02  0.82790369419E+02  0.17770000000E+01 0. -1.
         15    1    1    2    0    0 -0.87354645937E+01  0.39169453712E+01  0.47613751955E+01  0.10838783394E+02  0.17770000000E+01 0.  1.
</event>
<event>
 6    1  0.3411206E-003  0.5087226E+03  0.7546771E-02  0.9380501E-01
        -11   -1    0    0    0    0  0.00000000000E+00  0.00000000000E+00  0.50000000000E+03  0.50000000000E+03  0.00000000000E+00 0.  1.
         11   -1    0    0    0    0 -0.00000000000E+00 -0.00000000000E+00 -0.50000000000E+03  0.50000000000E+03  0.00000000000E+00 0. -1.
        -11    1    1    2    0    0 -0.52653024824E+01 -0.15221248345E+02  0.49101334505E+03  0.49127743163E+03  0.00000000000E+00 0.  1.
         11    1    1    2    0    0  0.11047129700E+02 -0.70947961693E+01 -0.38048501747E+03  0.38071147044E+03  0.00000000000E+00 0. -1.
        -15    1    1    2    0    0  0.83740585416E+01  0.65853645409E+00  0.47769311753E+01  0.98252392934E+01  0.17770000000E+01 0. -1.
         15    1    1    2    0    0 -0.14155885759E+02  0.21657508060E+02 -0.11530525875E+03  0.11818585864E+03  0.17770000000E+01 0.  1.
</event>
<event>
 6    1  0.3411206E-003  0.5040249E+03  0.7546771E-02  0.9390848E-01
        -11   -1    0    0    0    0  0.00000000000E+00  0.00000000000E+00  0.50000000000E+03  0.50000000000E+03  0.00000000000E+00 0. -1.
         11   -1    0    0    0    0 -0.00000000000E+00 -0.00000000000E+00 -0.50000000000E+03  0.50000000000E+03  0.00000000000E+00 0.  1.
        -11    1    1    2    0    0 -0.63281534799E+01  0.33316371111E+02  0.28461219319E+03  0.28662541169E+03  0.00000000000E+00 0. -1.
         11    1    1    2    0    0 -0.15219741782E+02  0.10384308128E+02 -0.49563270302E+03  0.49597505048E+03  0.00000000000E+00 0.  1.
        -15    1    1    2    0    0  0.15781607069E+02 -0.40227947226E+02  0.19763418464E+03  0.20231108602E+03  0.17770000000E+01 0. -1.
         15    1    1    2    0    0  0.57662881930E+01 -0.34727320123E+01  0.13386325185E+02  0.15088451813E+02  0.17770000000E+01 0.  1.
</event>
<event>
 6    1  0.3411206E-003  0.5165379E+03  0.7546771E-02  0.9363547E-01
        -11   -1    0    0    0    0  0.00000000000E+00  0.00000000000E+00  0.50000000000E+03  0.50000000000E+03  0.00000000000E+00 0.  1.
         11   -1    0    0    0    0 -0.00000000000E+00 -0.00000000000E+00 -0.50000000000E+03  0.50000000000E+03  0.00000000000E+00 0.  1.
        -11    1    1    2    0    0 -0.11509978742E+02  0.16567147248E+02  0.43082796404E+03  0.43129999371E+03  0.00000000000E+00 0.  1.
         11    1    1    2    0    0 -0.13949797466E+02  0.16451303094E+01 -0.48325801077E+03  0.48346210635E+03  0.00000000000E+00 0.  1.
        -15    1    1    2    0    0  0.35136937376E+02 -0.33713667832E+02  0.35789590358E+02  0.60458814691E+02  0.17770000000E+01 0. -1.
         15    1    1    2    0    0 -0.96771611685E+01  0.15501390274E+02  0.16640456367E+02  0.24779085250E+02  0.17770000000E+01 0.  1.
</event>
<event>
 6    1  0.3411206E-003  0.5000529E+03  0.7546771E-02  0.9399691E-01
        -11   -1    0    0    0    0  0.00000000000E+00  0.00000000000E+00  0.50000000000E+03  0.50000000000E+03  0.00000000000E+00 0.  1.
         11   -1    0    0    0    0 -0.00000000000E+00 -0.00000000000E+00 -0.50000000000E+03  0.50000000000E+03  0.00000000000E+00 0.  1.
        -11    1    1    2    0    0 -0.37984377364E+01  0.73694683432E+01  0.49987839850E+03  0.49994714768E+03  0.00000000000E+00 0.  1.
         11    1    1    2    0    0 -0.16056639029E+01 -0.26003156871E+01 -0.21143609448E+03  0.21145817991E+03  0.00000000000E+00 0.  1.
        -15    1    1    2    0    0  0.12117416404E+01 -0.80922849063E+00 -0.32456373267E+02  0.32537625347E+02  0.17770000000E+01 0.  1.
         15    1    1    2    0    0  0.41923599989E+01 -0.39599241655E+01 -0.25598593075E+03  0.25605704706E+03  0.17770000000E+01 0. -1.
</event>
<event>
 6    1  0.3411206E-003  0.2580283E+03  0.7546771E-02  0.1020451E+00
        -11   -1    0    0    0    0  0.00000000000E+00  0.00000000000E+00  0.50000000000E+03  0.50000000000E+03  0.00000000000E+00 0.  1.
         11   -1    0    0    0    0 -0.00000000000E+00 -0.00000000000E+00 -0.50000000000E+03  0.50000000000E+03  0.00000000000E+00 0. -1.
        -11    1    1    2    0    0 -0.34289038865E+02  0.34685390942E+02  0.34111186700E+03  0.34458107949E+03  0.00000000000E+00 0.  1.
         11    1    1    2    0    0 -0.51834916132E+01  0.15283497966E+01 -0.30675519932E+03  0.30680279781E+03  0.00000000000E+00 0. -1.
        -15    1    1    2    0    0  0.33457552426E+02 -0.25203951734E+02 -0.18892909854E+03  0.19352521541E+03  0.17770000000E+01 0. -1.
         15    1    1    2    0    0  0.60149780520E+01 -0.11009789004E+02  0.15457243085E+03  0.15509090729E+03  0.17770000000E+01 0.  1.
</event>
<event>
 6    1  0.3411206E-003  0.5018029E+03  0.7546771E-02  0.9395785E-01
        -11   -1    0    0    0    0  0.00000000000E+00  0.00000000000E+00  0.50000000000E+03  0.50000000000E+03  0.00000000000E+00 0. -1.
         11   -1    0    0    0    0 -0.00000000000E+00 -0.00000000000E+00 -0.50000000000E+03  0.50000000000E+03  0.00000000000E+00 0. -1.
        -11    1    1    2    0    0 -0.89486114793E+01 -0.24742541699E+01  0.40256232421E+03  0.40266937362E+03  0.00000000000E+00 0. -1.
         11    1    1    2    0    0  0.14812997810E+02  0.18769536676E+02 -0.49762293362E+03  0.49819705386E+03  0.00000000000E+00 0. -1.
        -15    1    1    2    0    0  0.11673795098E+01  0.40549587006E+01  0.35145376260E+02  0.35442356954E+02  0.17770000000E+01 0. -1.
         15    1    1    2    0    0 -0.70317658404E+01 -0.20350241206E+02  0.59915233147E+02  0.63691215565E+02  0.17770000000E+01 0.  1.
</event>
<event>
 6    1  0.3411206E-003  0.5084748E+03  0.7546771E-02  0.9381044E-01
        -11   -1    0    0    0    0  0.00000000000E+00  0.00000000000E+00  0.50000000000E+03  0.50000000000E+03  0.00000000000E+00 0. -1.
         11   -1    0    0    0    0 -0.00000000000E+00 -0.00000000000E+00 -0.50000000000E+03  0.50000000000E+03  0.00000000000E+00 0. -1.
        -11    1    1    2    0    0  0.23142070925E+02  0.37664768057E+01  0.49096565082E+03  0.49152518967E+03  0.00000000000E+00 0. -1.
         11    1    1    2    0    0 -0.27230870777E+02 -0.13369188689E+02 -0.17862681538E+03  0.18118442180E+03  0.00000000000E+00 0. -1.
        -15    1    1    2    0    0 -0.50811469409E+01  0.33992610820E+02 -0.29243514642E+03  0.29445337192E+03  0.17770000000E+01 0. -1.
         15    1    1    2    0    0  0.91699467930E+01 -0.24389898937E+02 -0.19903689015E+02  0.32837016609E+02  0.17770000000E+01 0.  1.
</event>
<event>
 6    1  0.3411206E-003  0.5004070E+03  0.7546771E-02  0.9398900E-01
        -11   -1    0    0    0    0  0.00000000000E+00  0.00000000000E+00  0.50000000000E+03  0.50000000000E+03  0.00000000000E+00 0. -1.
         11   -1    0    0    0    0 -0.00000000000E+00 -0.00000000000E+00 -0.50000000000E+03  0.50000000000E+03  0.00000000000E+00 0. -1.
        -11    1    1    2    0    0 -0.55344404580E+01 -0.39500917674E+01  0.49954676940E+03  0.49959304246E+03  0.00000000000E+00 0. -1.
         11    1    1    2    0    0 -0.57255818149E+00  0.37304014911E+01 -0.88804394597E+02  0.88884555565E+02  0.00000000000E+00 0. -1.
        -15    1    1    2    0    0 -0.75794946577E+00  0.49177328721E+01 -0.19960265928E+02  0.20647724546E+02  0.17770000000E+01 0.  1.
         15    1    1    2    0    0  0.68649481052E+01 -0.46980425958E+01 -0.39078210887E+03  0.39087467743E+03  0.17770000000E+01 0. -1.
</event>
<event>
 6    1  0.3411206E-003  0.5013114E+03  0.7546771E-02  0.9396880E-01
        -11   -1    0    0    0    0  0.00000000000E+00  0.00000000000E+00  0.50000000000E+03  0.50000000000E+03  0.00000000000E+00 0. -1.
         11   -1    0    0    0    0 -0.00000000000E+00 -0.00000000000E+00 -0.50000000000E+03  0.50000000000E+03  0.00000000000E+00 0.  1.
        -11    1    1    2    0    0 -0.17374628747E+00 -0.96089922824E+01  0.26968884091E+03  0.26986002637E+03  0.00000000000E+00 0. -1.
         11    1    1    2    0    0  0.29535846031E+02  0.71758335461E+01 -0.49776143600E+03  0.49868858615E+03  0.00000000000E+00 0.  1.
        -15    1    1    2    0    0 -0.14202069174E+02 -0.42100279244E+01  0.17923036826E+03  0.17985023141E+03  0.17770000000E+01 0. -1.
         15    1    1    2    0    0 -0.15160030570E+02  0.66431866607E+01  0.48842226836E+02  0.51601156064E+02  0.17770000000E+01 0.  1.
</event>
<event>
 6    1  0.3411206E-003  0.5077038E+03  0.7546771E-02  0.9382735E-01
        -11   -1    0    0    0    0  0.00000000000E+00  0.00000000000E+00  0.50000000000E+03  0.50000000000E+03  0.00000000000E+00 0. -1.
         11   -1    0    0    0    0 -0.00000000000E+00 -0.00000000000E+00 -0.50000000000E+03  0.50000000000E+03  0.00000000000E+00 0. -1.
        -11    1    1    2    0    0 -0.70655536068E+01 -0.68877247199E+01  0.49219731916E+03  0.49229621549E+03  0.00000000000E+00 0. -1.
         11    1    1    2    0    0  0.53669834714E+01  0.15622886033E+02 -0.45694144856E+03  0.45723994411E+03  0.00000000000E+00 0. -1.
        -15    1    1    2    0    0  0.37912265751E+01  0.40835589245E+01  0.52685667337E+01  0.78717454774E+01  0.17770000000E+01 0.  1.
         15    1    1    2    0    0 -0.20926564396E+01 -0.12818720238E+02 -0.40524437336E+02  0.42592094923E+02  0.17770000000E+01 0. -1.
</event>
<event>
 6    1  0.3411206E-003  0.5001043E+03  0.7546771E-02  0.9399576E-01
        -11   -1    0    0    0    0  0.00000000000E+00  0.00000000000E+00  0.50000000000E+03  0.50000000000E+03  0.00000000000E+00 0.  1.
         11   -1    0    0    0    0 -0.00000000000E+00 -0.00000000000E+00 -0.50000000000E+03  0.50000000000E+03  0.00000000000E+00 0.  1.
        -11    1    1    2    0    0  0.78670992626E+00  0.19115283387E+01  0.92410168883E+02  0.92433284947E+02  0.00000000000E+00 0.  1.
         11    1    1    2    0    0  0.67952875819E-01  0.84284088505E+01 -0.49982468211E+03  0.49989574467E+03  0.00000000000E+00 0.  1.
        -15    1    1    2    0    0  0.14321247802E+01  0.88630380274E-01  0.16405594817E+03  0.16407184614E+03  0.17770000000E+01 0. -1.
         15    1    1    2    0    0 -0.22867875823E+01 -0.10428567570E+02  0.24335856505E+03  0.24359912424E+03  0.17770000000E+01 0.  1.
</event>
<event>
 6    1  0.3411206E-003  0.4836630E+03  0.7546771E-02  0.9437126E-01
        -11   -1    0    0    0    0  0.00000000000E+00  0.00000000000E+00  0.50000000000E+03  0.50000000000E+03  0.00000000000E+00 0. -1.
         11   -1    0    0    0    0 -0.00000000000E+00 -0.00000000000E+00 -0.50000000000E+03  0.50000000000E+03  0.00000000000E+00 0. -1.
        -11    1    1    2    0    0 -0.65527736070E+01  0.45411378129E+01  0.48265705137E+03  0.48272289153E+03  0.00000000000E+00 0. -1.
         11    1    1    2    0    0 -0.53727109335E+00  0.86116408103E+01 -0.48464376732E+03  0.48472056921E+03  0.00000000000E+00 0. -1.
        -15    1    1    2    0    0 -0.39342358469E+00 -0.70980653745E+01 -0.12843623076E+02  0.14786943460E+02  0.17770000000E+01 0. -1.
         15    1    1    2    0    0  0.74834682850E+01 -0.60547132486E+01  0.14830339026E+02  0.17769595795E+02  0.17770000000E+01 0.  1.
</event>
<event>
 6    1  0.3411206E-003  0.5047487E+03  0.7546771E-02  0.9389246E-01
        -11   -1    0    0    0    0  0.00000000000E+00  0.00000000000E+00  0.50000000000E+03  0.50000000000E+03  0.00000000000E+00 0.  1.
         11   -1    0    0    0    0 -0.00000000000E+00 -0.00000000000E+00 -0.50000000000E+03  0.50000000000E+03  0.00000000000E+00 0.  1.
        -11    1    1    2    0    0 -0.71287086482E+01  0.13017662488E+01  0.40020032438E+03  0.40026592749E+03  0.00000000000E+00 0.  1.
         11    1    1    2    0    0 -0.31697380550E+02 -0.31996633651E+01 -0.49422558580E+03  0.49525134169E+03  0.00000000000E+00 0.  1.
        -15    1    1    2    0    0  0.34529473861E+02  0.43894056750E+01  0.55071730302E+02  0.65173650003E+02  0.17770000000E+01 0.  1.
         15    1    1    2    0    0  0.42966153368E+01 -0.24915085587E+01  0.38953531128E+02  0.39309080816E+02  0.17770000000E+01 0. -1.
</event>
<event>
 6    1  0.3411206E-003  0.6466879E+03  0.7546771E-02  0.9120694E-01
        -11   -1    0    0    0    0  0.00000000000E+00  0.00000000000E+00  0.50000000000E+03  0.50000000000E+03  0.00000000000E+00 0. -1.
         11   -1    0    0    0    0 -0.00000000000E+00 -0.00000000000E+00 -0.50000000000E+03  0.50000000000E+03  0.00000000000E+00 0.  1.
        -11    1    1    2    0    0  0.49973388457E+01 -0.21778797467E+00  0.35327665037E+03  0.35331206111E+03  0.00000000000E+00 0. -1.
         11    1    1    2    0    0 -0.12384004491E+02 -0.18563230863E+02 -0.31344589012E+03  0.31423921324E+03  0.00000000000E+00 0.  1.
        -15    1    1    2    0    0  0.53456836002E+02  0.10631044949E+03  0.10388748130E+03  0.15797250231E+03  0.17770000000E+01 0. -1.
         15    1    1    2    0    0 -0.46070170356E+02 -0.87529430652E+02 -0.14371824155E+03  0.17447622334E+03  0.17770000000E+01 0.  1.
</event>
<event>
 6    1  0.3411206E-003  0.4809459E+03  0.7546771E-02  0.9443484E-01
        -11   -1    0    0    0    0  0.00000000000E+00  0.00000000000E+00  0.50000000000E+03  0.50000000000E+03  0.00000000000E+00 0.  1.
         11   -1    0    0    0    0 -0.00000000000E+00 -0.00000000000E+00 -0.50000000000E+03  0.50000000000E+03  0.00000000000E+00 0. -1.
        -11    1    1    2    0    0 -0.26711568159E+01  0.11787350319E+02  0.48157097140E+03  0.48172261437E+03  0.00000000000E+00 0.  1.
         11    1    1    2    0    0 -0.74642604951E+00  0.79601786316E+01 -0.48031226786E+03  0.48037880496E+03  0.00000000000E+00 0. -1.
        -15    1    1    2    0    0 -0.24713795303E+01  0.48804187358E+01 -0.95892981906E+01  0.11182064774E+02  0.17770000000E+01 0.  1.
         15    1    1    2    0    0  0.58889623957E+01 -0.24627947687E+02  0.83305946501E+01  0.26716515895E+02  0.17770000000E+01 0. -1.
</event>
<event>
 6    1  0.3706233E-003  0.5024926E+03  0.7546771E-02  0.9394250E-01
        -11   -1    0    0    0    0  0.00000000000E+00  0.00000000000E+00  0.50000000000E+03  0.50000000000E+03  0.00000000000E+00 0. -1.
         11   -1    0    0    0    0 -0.00000000000E+00 -0.00000000000E+00 -0.50000000000E+03  0.50000000000E+03  0.00000000000E+00 0. -1.
        -11    1    1    2    0    0  0.99241449663E+00 -0.45772831484E+01  0.33569927221E+03  0.33573194333E+03  0.00000000000E+00 0. -1.
         11    1    1    2    0    0 -0.73646321940E+01 -0.46159561974E+01 -0.49743148368E+03  0.49750741282E+03  0.00000000000E+00 0. -1.
        -15    1    1    2    0    0  0.78019616740E+01  0.62769826813E+01  0.78843634822E+01  0.12868256839E+02  0.17770000000E+01 0. -1.
         15    1    1    2    0    0 -0.14297439767E+01  0.29162566645E+01  0.15384784798E+03  0.15389238701E+03  0.17770000000E+01 0. -1.
</event>
<event>
 6    1  0.3411206E-003  0.4849266E+03  0.7546771E-02  0.9434184E-01
        -11   -1    0    0    0    0  0.00000000000E+00  0.00000000000E+00  0.50000000000E+03  0.50000000000E+03  0.00000000000E+00 0. -1.
         11   -1    0    0    0    0 -0.00000000000E+00 -0.00000000000E+00 -0.50000000000E+03  0.50000000000E+03  0.00000000000E+00 0.  1.
        -11    1    1    2    0    0  0.22402552416E+02  0.40205255659E+01  0.48718714388E+03  0.48771851733E+03  0.00000000000E+00 0. -1.
         11    1    1    2    0    0  0.56445768852E+00 -0.91745314739E+01 -0.48234478090E+03  0.48243235619E+03  0.00000000000E+00 0.  1.
        -15    1    1    2    0    0 -0.15128652213E+02  0.52335644260E+01 -0.11185787849E+02  0.19609841743E+02  0.17770000000E+01 0. -1.
         15    1    1    2    0    0 -0.78383578913E+01 -0.79558517933E-01  0.63434248621E+01  0.10239284739E+02  0.17770000000E+01 0.  1.
</event>
<event>
 6    1  0.3411206E-003  0.5093095E+03  0.7546771E-02  0.9379217E-01
        -11   -1    0    0    0    0  0.00000000000E+00  0.00000000000E+00  0.50000000000E+03  0.50000000000E+03  0.00000000000E+00 0. -1.
         11   -1    0    0    0    0 -0.00000000000E+00 -0.00000000000E+00 -0.50000000000E+03  0.50000000000E+03  0.00000000000E+00 0. -1.
        -11    1    1    2    0    0  0.70472950192E+01 -0.20353789634E+01  0.49063568454E+03  0.49069051558E+03  0.00000000000E+00 0. -1.
         11    1    1    2    0    0 -0.17872704566E+02  0.10972878349E+02 -0.48125945554E+03  0.48171620398E+03  0.00000000000E+00 0. -1.
        -15    1    1    2    0    0  0.33476686190E+01 -0.14921789504E+02 -0.23298169361E+01  0.15570885111E+02  0.17770000000E+01 0. -1.
         15    1    1    2    0    0  0.74777409281E+01  0.59842901182E+01 -0.70464120604E+01  0.12022395333E+02  0.17770000000E+01 0.  1.
</event>
<event>
 6    1  0.3411206E-003  0.5012049E+03  0.7546771E-02  0.9397118E-01
        -11   -1    0    0    0    0  0.00000000000E+00  0.00000000000E+00  0.50000000000E+03  0.50000000000E+03  0.00000000000E+00 0. -1.
         11   -1    0    0    0    0 -0.00000000000E+00 -0.00000000000E+00 -0.50000000000E+03  0.50000000000E+03  0.00000000000E+00 0.  1.
        -11    1    1    2    0    0  0.75595754898E+01  0.11980911277E+02  0.49859388458E+03  0.49879509937E+03  0.00000000000E+00 0. -1.
         11    1    1    2    0    0  0.42783658782E+01 -0.71019567789E+01 -0.42202276479E+03  0.42210420065E+03  0.00000000000E+00 0.  1.
        -15    1    1    2    0    0 -0.12802854920E+02 -0.45923982541E+01 -0.36739027058E+02  0.39216285571E+02  0.17770000000E+01 0. -1.
         15    1    1    2    0    0  0.96491355200E+00 -0.28655624372E+00 -0.39832092731E+02  0.39884414412E+02  0.17770000000E+01 0.  1.
</event>
<event>
 6    1  0.3411206E-003  0.4535808E+03  0.7546771E-02  0.9510121E-01
        -11   -1    0    0    0    0  0.00000000000E+00  0.00000000000E+00  0.50000000000E+03  0.50000000000E+03  0.00000000000E+00 0. -1.
         11   -1    0    0    0    0 -0.00000000000E+00 -0.00000000000E+00 -0.50000000000E+03  0.50000000000E+03  0.00000000000E+00 0. -1.
        -11    1    1    2    0    0 -0.16464420407E+01  0.14353843611E+02  0.44465484841E+03  0.44488951192E+03  0.00000000000E+00 0. -1.
         11    1    1    2    0    0 -0.30640247815E+02  0.19549753112E+02 -0.46222246094E+03  0.46364924353E+03  0.00000000000E+00 0. -1.
        -15    1    1    2    0    0  0.44105806484E+02 -0.29174372362E+02 -0.16195181574E+02  0.55334508252E+02  0.17770000000E+01 0.  1.
         15    1    1    2    0    0 -0.11819116628E+02 -0.47292243607E+01  0.33762794099E+02  0.36126736294E+02  0.17770000000E+01 0. -1.
</event>
<event>
 6    1  0.3411206E-003  0.5001551E+03  0.7546771E-02  0.9399463E-01
        -11   -1    0    0    0    0  0.00000000000E+00  0.00000000000E+00  0.50000000000E+03  0.50000000000E+03  0.00000000000E+00 0. -1.
         11   -1    0    0    0    0 -0.00000000000E+00 -0.00000000000E+00 -0.50000000000E+03  0.50000000000E+03  0.00000000000E+00 0. -1.
        -11    1    1    2    0    0 -0.26193787349E+01 -0.27637039852E+01  0.25571059365E+03  0.25573894289E+03  0.00000000000E+00 0. -1.
         11    1    1    2    0    0 -0.27161517634E+01  0.70692888101E+01 -0.49978748735E+03  0.49984486077E+03  0.00000000000E+00 0. -1.
        -15    1    1    2    0    0  0.60283810076E+01  0.78733914756E+00  0.80451475519E+02  0.80700427029E+02  0.17770000000E+01 0.  1.
         15    1    1    2    0    0 -0.69285050925E+00 -0.50929239725E+01  0.16362541819E+03  0.16371576931E+03  0.17770000000E+01 0. -1.
</event>
<event>
 6    1  0.3411206E-003  0.5002731E+03  0.7546771E-02  0.9399199E-01
        -11   -1    0    0    0    0  0.00000000000E+00  0.00000000000E+00  0.50000000000E+03  0.50000000000E+03  0.00000000000E+00 0.  1.
         11   -1    0    0    0    0 -0.00000000000E+00 -0.00000000000E+00 -0.50000000000E+03  0.50000000000E+03  0.00000000000E+00 0. -1.
        -11    1    1    2    0    0  0.24153171634E+02 -0.37476778183E+01  0.49912881674E+03  0.49972692192E+03  0.00000000000E+00 0.  1.
         11    1    1    2    0    0 -0.43983707230E+00  0.61361882255E+01 -0.78516159867E+02  0.78756800486E+02  0.00000000000E+00 0. -1.
        -15    1    1    2    0    0 -0.11770868810E+02 -0.78215813347E+01 -0.23599834271E+03  0.23642780288E+03  0.17770000000E+01 0. -1.
         15    1    1    2    0    0 -0.11942465751E+02  0.54330709275E+01 -0.18461431417E+03  0.18508847471E+03  0.17770000000E+01 0.  1.
</event>
<event>
 6    1  0.3411206E-003  0.5020036E+03  0.7546771E-02  0.9395338E-01
        -11   -1    0    0    0    0  0.00000000000E+00  0.00000000000E+00  0.50000000000E+03  0.50000000000E+03  0.00000000000E+00 0. -1.
         11   -1    0    0    0    0 -0.00000000000E+00 -0.00000000000E+00 -0.50000000000E+03  0.50000000000E+03  0.00000000000E+00 0. -1.
        -11    1    1    2    0    0  0.25104648295E+01 -0.70936411107E+01  0.41080055533E+03  0.41086946642E+03  0.00000000000E+00 0. -1.
         11    1    1    2    0    0 -0.65224473276E+01  0.32626465230E+01 -0.49794298778E+03  0.49799639182E+03  0.00000000000E+00 0. -1.
        -15    1    1    2    0    0  0.77345323080E+01 -0.70427167278E+01  0.67327266787E+02  0.68158208830E+02  0.17770000000E+01 0.  1.
         15    1    1    2    0    0 -0.37225498099E+01  0.10873711315E+02  0.19815165662E+02  0.22975932931E+02  0.17770000000E+01 0. -1.
</event>
<event>
 6    1  0.3411206E-003  0.4795641E+03  0.7546771E-02  0.9446735E-01
        -11   -1    0    0    0    0  0.00000000000E+00  0.00000000000E+00  0.50000000000E+03  0.50000000000E+03  0.00000000000E+00 0. -1.
         11   -1    0    0    0    0 -0.00000000000E+00 -0.00000000000E+00 -0.50000000000E+03  0.50000000000E+03  0.00000000000E+00 0. -1.
        -11    1    1    2    0    0 -0.13384715024E+01  0.12103427679E+02  0.48144017859E+03  0.48159415490E+03  0.00000000000E+00 0. -1.
         11    1    1    2    0    0  0.41371596092E+01  0.10253754455E+02 -0.47767802331E+03  0.47780597477E+03  0.00000000000E+00 0. -1.
        -15    1    1    2    0    0  0.12774860090E+01 -0.15318805837E+02  0.14073419214E+02  0.20916898435E+02  0.17770000000E+01 0. -1.
         15    1    1    2    0    0 -0.40761741158E+01 -0.70383762965E+01 -0.17835574494E+02  0.19682971901E+02  0.17770000000E+01 0. -1.
</event>
<event>
 6    1  0.3411206E-003  0.5093944E+03  0.7546771E-02  0.9379031E-01
        -11   -1    0    0    0    0  0.00000000000E+00  0.00000000000E+00  0.50000000000E+03  0.50000000000E+03  0.00000000000E+00 0.  1.
         11   -1    0    0    0    0 -0.00000000000E+00 -0.00000000000E+00 -0.50000000000E+03  0.50000000000E+03  0.00000000000E+00 0. -1.
        -11    1    1    2    0    0  0.10096448915E+02  0.24172709931E+02  0.34092911976E+03  0.34193409144E+03  0.00000000000E+00 0.  1.
         11    1    1    2    0    0  0.12247136297E+01  0.12423123449E+02 -0.49044672729E+03  0.49060557093E+03  0.00000000000E+00 0. -1.
        -15    1    1    2    0    0 -0.22001390086E+02 -0.83085428414E+01  0.11651010878E+02  0.26305832687E+02  0.17770000000E+01 0. -1.
         15    1    1    2    0    0  0.10680227542E+02 -0.28287290538E+02  0.13786659664E+03  0.14115450494E+03  0.17770000000E+01 0.  1.
</event>
<event>
 6    1  0.3411206E-003  0.5064011E+03  0.7546771E-02  0.9385600E-01
        -11   -1    0    0    0    0  0.00000000000E+00  0.00000000000E+00  0.50000000000E+03  0.50000000000E+03  0.00000000000E+00 0.  1.
         11   -1    0    0    0    0 -0.00000000000E+00 -0.00000000000E+00 -0.50000000000E+03  0.50000000000E+03  0.00000000000E+00 0. -1.
        -11    1    1    2    0    0 -0.12944444317E+02  0.21922947536E+00  0.48281557570E+03  0.48298911669E+03  0.00000000000E+00 0.  1.
         11    1    1    2    0    0  0.78636041450E+01 -0.73485126638E+00 -0.49353574999E+03  0.49359893922E+03  0.00000000000E+00 0. -1.
        -15    1    1    2    0    0  0.12257847805E+02 -0.26222166409E+01  0.77732936328E+01  0.14856401846E+02  0.17770000000E+01 0.  1.
         15    1    1    2    0    0 -0.71770076331E+01  0.31378384319E+01  0.29468806555E+01  0.85555422498E+01  0.17770000000E+01 0. -1.
</event>
<event>
 6    1  0.3411206E-003  0.5075668E+03  0.7546771E-02  0.9383036E-01
        -11   -1    0    0    0    0  0.00000000000E+00  0.00000000000E+00  0.50000000000E+03  0.50000000000E+03  0.00000000000E+00 0.  1.
         11   -1    0    0    0    0 -0.00000000000E+00 -0.00000000000E+00 -0.50000000000E+03  0.50000000000E+03  0.00000000000E+00 0. -1.
        -11    1    1    2    0    0  0.44583483001E+01  0.30216484193E+01  0.39011785806E+03  0.39015503380E+03  0.00000000000E+00 0.  1.
         11    1    1    2    0    0  0.66405831893E+01  0.12169893892E+01 -0.49238690308E+03  0.49243318403E+03  0.00000000000E+00 0. -1.
        -15    1    1    2    0    0  0.11842684921E+02  0.97555726220E+01  0.82677623063E+02  0.84108070169E+02  0.17770000000E+01 0. -1.
         15    1    1    2    0    0 -0.22941616410E+02 -0.13994210431E+02  0.19591421964E+02  0.33303711995E+02  0.17770000000E+01 0.  1.
</event>
<event>
 6    1  0.3411206E-003  0.5023101E+03  0.7546771E-02  0.9394656E-01
        -11   -1    0    0    0    0  0.00000000000E+00  0.00000000000E+00  0.50000000000E+03  0.50000000000E+03  0.00000000000E+00 0.  1.
         11   -1    0    0    0    0 -0.00000000000E+00 -0.00000000000E+00 -0.50000000000E+03  0.50000000000E+03  0.00000000000E+00 0.  1.
        -11    1    1    2    0    0 -0.23212398990E+01  0.78949383312E+01  0.49762189333E+03  0.49768993051E+03  0.00000000000E+00 0.  1.
         11    1    1    2    0    0 -0.68298086927E+01 -0.46653010239E+01 -0.48165652246E+03  0.48172753394E+03  0.00000000000E+00 0.  1.
        -15    1    1    2    0    0  0.10192959301E+01 -0.41249346749E+01 -0.52300653266E+01  0.69688853188E+01  0.17770000000E+01 0.  1.
         15    1    1    2    0    0  0.81317526615E+01  0.89529736768E+00 -0.10735305540E+02  0.13613650236E+02  0.17770000000E+01 0. -1.
</event>
<event>
 6    1  0.3411206E-003  0.5097180E+03  0.7546771E-02  0.9378324E-01
        -11   -1    0    0    0    0  0.00000000000E+00  0.00000000000E+00  0.50000000000E+03  0.50000000000E+03  0.00000000000E+00 0. -1.
         11   -1    0    0    0    0 -0.00000000000E+00 -0.00000000000E+00 -0.50000000000E+03  0.50000000000E+03  0.00000000000E+00 0.  1.
        -11    1    1    2    0    0 -0.92664996531E+01  0.34778747998E+01  0.47734520562E+03  0.47744780757E+03  0.00000000000E+00 0. -1.
         11    1    1    2    0    0  0.66445486630E+01  0.11417352504E+02 -0.49010397617E+03  0.49028197338E+03  0.00000000000E+00 0.  1.
        -15    1    1    2    0    0 -0.50552767970E+01 -0.49252835877E+01  0.17305075949E+02  0.18773322149E+02  0.17770000000E+01 0. -1.
         15    1    1    2    0    0  0.76772277871E+01 -0.99699437156E+01 -0.45463054009E+01  0.13496896902E+02  0.17770000000E+01 0.  1.
</event>
<event>
 6    1  0.3411206E-003  0.5081119E+03  0.7546771E-02  0.9381839E-01
        -11   -1    0    0    0    0  0.00000000000E+00  0.00000000000E+00  0.50000000000E+03  0.50000000000E+03  0.00000000000E+00 0.  1.
         11   -1    0    0    0    0 -0.00000000000E+00 -0.00000000000E+00 -0.50000000000E+03  0.50000000000E+03  0.00000000000E+00 0. -1.
        -11    1    1    2    0    0 -0.34428423842E+01 -0.76414221441E+01  0.44752263408E+03  0.44760110870E+03  0.00000000000E+00 0.  1.
         11    1    1    2    0    0  0.46394057711E+01 -0.11634348467E+02 -0.49172855723E+03  0.49188805245E+03  0.00000000000E+00 0. -1.
        -15    1    1    2    0    0  0.76863664505E+01 -0.18399313104E+01  0.34720562806E+02  0.35653061398E+02  0.17770000000E+01 0. -1.
         15    1    1    2    0    0 -0.88829298374E+01  0.21115701921E+02  0.94853603465E+01  0.24857777456E+02  0.17770000000E+01 0.  1.
</event>
<event>
 6    1  0.3411206E-003  0.5017561E+03  0.7546771E-02  0.9395889E-01
        -11   -1    0    0    0    0  0.00000000000E+00  0.00000000000E+00  0.50000000000E+03  0.50000000000E+03  0.00000000000E+00 0.  1.
         11   -1    0    0    0    0 -0.00000000000E+00 -0.00000000000E+00 -0.50000000000E+03  0.50000000000E+03  0.00000000000E+00 0. -1.
        -11    1    1    2    0    0  0.40773471828E+01 -0.56295216305E+01  0.49819536115E+03  0.49824385009E+03  0.00000000000E+00 0.  1.
         11    1    1    2    0    0 -0.37658033629E+00 -0.64718335692E+01 -0.40995906781E+03  0.41001032148E+03  0.00000000000E+00 0. -1.
        -15    1    1    2    0    0 -0.44674295218E+00  0.10120744125E+02 -0.86641715550E+02  0.87250063859E+02  0.17770000000E+01 0. -1.
         15    1    1    2    0    0 -0.32540238943E+01  0.19806110747E+01 -0.15945777931E+01  0.44957645704E+01  0.17770000000E+01 0.  1.
</event>
<event>
 6    1  0.3411206E-003  0.5033785E+03  0.7546771E-02  0.9392282E-01
        -11   -1    0    0    0    0  0.00000000000E+00  0.00000000000E+00  0.50000000000E+03  0.50000000000E+03  0.00000000000E+00 0. -1.
         11   -1    0    0    0    0 -0.00000000000E+00 -0.00000000000E+00 -0.50000000000E+03  0.50000000000E+03  0.00000000000E+00 0.  1.
        -11    1    1    2    0    0  0.29085436390E+00 -0.22134181725E+02  0.49612793412E+03  0.49662151948E+03  0.00000000000E+00 0. -1.
         11    1    1    2    0    0  0.10930945676E+00  0.96093370635E+01 -0.42749972898E+03  0.42760772863E+03  0.00000000000E+00 0.  1.
        -15    1    1    2    0    0 -0.12542881319E+01  0.12105812695E+02 -0.70845574799E+01  0.14194105234E+02  0.17770000000E+01 0.  1.
         15    1    1    2    0    0  0.85412431124E+00  0.41903196721E+00 -0.61543647664E+02  0.61576646652E+02  0.17770000000E+01 0. -1.
</event>
<event>
 6    1  0.3411206E-003  0.5328693E+03  0.7546771E-02  0.9329124E-01
        -11   -1    0    0    0    0  0.00000000000E+00  0.00000000000E+00  0.50000000000E+03  0.50000000000E+03  0.00000000000E+00 0.  1.
         11   -1    0    0    0    0 -0.00000000000E+00 -0.00000000000E+00 -0.50000000000E+03  0.50000000000E+03  0.00000000000E+00 0.  1.
        -11    1    1    2    0    0  0.73443967098E+01 -0.54643050801E+01  0.22279086952E+03  0.22297885625E+03  0.00000000000E+00 0.  1.
         11    1    1    2    0    0  0.14217956573E+02  0.39952082461E+02 -0.46520186562E+03  0.46713070437E+03  0.00000000000E+00 0.  1.
        -15    1    1    2    0    0  0.19671788678E+02  0.74434823355E+01 -0.26919634186E+02  0.34208319642E+02  0.17770000000E+01 0. -1.
         15    1    1    2    0    0 -0.41234141960E+02 -0.41931259717E+02  0.26933063029E+03  0.27568211974E+03  0.17770000000E+01 0.  1.
</event>
<event>
 6    1  0.3411206E-003  0.4757204E+03  0.7546771E-02  0.9455838E-01
        -11   -1    0    0    0    0  0.00000000000E+00  0.00000000000E+00  0.50000000000E+03  0.50000000000E+03  0.00000000000E+00 0.  1.
         11   -1    0    0    0    0 -0.00000000000E+00 -0.00000000000E+00 -0.50000000000E+03  0.50000000000E+03  0.00000000000E+00 0. -1.
        -11    1    1    2    0    0 -0.86436324472E+01 -0.62273756232E+00  0.47050937645E+03  0.47058917700E+03  0.00000000000E+00 0.  1.
         11    1    1    2    0    0 -0.21565042449E+02  0.12483040000E+02 -0.48081555188E+03  0.48146076919E+03  0.00000000000E+00 0. -1.
        -15    1    1    2    0    0 -0.42096885281E+01 -0.42782011194E+01 -0.63603128002E+01  0.89238887397E+01  0.17770000000E+01 0. -1.
         15    1    1    2    0    0  0.34418363424E+02 -0.75821013184E+01  0.16666488225E+02  0.39026165068E+02  0.17770000000E+01 0.  1.
</event>
<event>
 6    1  0.3411206E-003  0.5031489E+03  0.7546771E-02  0.9392791E-01
        -11   -1    0    0    0    0  0.00000000000E+00  0.00000000000E+00  0.50000000000E+03  0.50000000000E+03  0.00000000000E+00 0. -1.
         11   -1    0    0    0    0 -0.00000000000E+00 -0.00000000000E+00 -0.50000000000E+03  0.50000000000E+03  0.00000000000E+00 0. -1.
        -11    1    1    2    0    0  0.13483699837E+02  0.42098735975E+01  0.49665022430E+03  0.49685106269E+03  0.00000000000E+00 0. -1.
         11    1    1    2    0    0 -0.34742336580E+01  0.65878864739E+01 -0.45131198930E+03  0.45137343989E+03  0.00000000000E+00 0. -1.
        -15    1    1    2    0    0 -0.73760154100E+00 -0.69191029727E+01 -0.39227954606E+02  0.39879922186E+02  0.17770000000E+01 0.  1.
         15    1    1    2    0    0 -0.92718646380E+01 -0.38786570987E+01 -0.61102803934E+01  0.11895575238E+02  0.17770000000E+01 0. -1.
</event>
<event>
 6    1  0.3411206E-003  0.5212634E+03  0.7546771E-02  0.9353449E-01
        -11   -1    0    0    0    0  0.00000000000E+00  0.00000000000E+00  0.50000000000E+03  0.50000000000E+03  0.00000000000E+00 0.  1.
         11   -1    0    0    0    0 -0.00000000000E+00 -0.00000000000E+00 -0.50000000000E+03  0.50000000000E+03  0.00000000000E+00 0. -1.
        -11    1    1    2    0    0  0.26600264640E+01  0.13058100746E+02  0.30289144138E+03  0.30318445705E+03  0.00000000000E+00 0.  1.
         11    1    1    2    0    0 -0.14410625444E+02  0.83919581175E+01 -0.47844605397E+03  0.47873658482E+03  0.00000000000E+00 0. -1.
        -15    1    1    2    0    0  0.73265254583E+00 -0.17634173489E+02  0.19474637966E+03  0.19555257854E+03  0.17770000000E+01 0.  1.
         15    1    1    2    0    0  0.11017946434E+02 -0.38158853744E+01 -0.19191767074E+02  0.22526379586E+02  0.17770000000E+01 0. -1.
</event>
<event>
 6    1  0.3411206E-003  0.5001047E+03  0.7546771E-02  0.9399575E-01
        -11   -1    0    0    0    0  0.00000000000E+00  0.00000000000E+00  0.50000000000E+03  0.50000000000E+03  0.00000000000E+00 0. -1.
         11   -1    0    0    0    0 -0.00000000000E+00 -0.00000000000E+00 -0.50000000000E+03  0.50000000000E+03  0.00000000000E+00 0.  1.
        -11    1    1    2    0    0 -0.65282114021E+01 -0.71207313014E+01  0.49980191830E+03  0.49989526892E+03  0.00000000000E+00 0. -1.
         11    1    1    2    0    0  0.14802147400E+01  0.78083865397E+01 -0.25043548250E+03  0.25056155497E+03  0.00000000000E+00 0.  1.
        -15    1    1    2    0    0  0.47018454478E+01  0.20994146367E+01 -0.10760602029E+03  0.10774380829E+03  0.17770000000E+01 0. -1.
         15    1    1    2    0    0  0.34615121429E+00 -0.27870698750E+01 -0.14176041551E+03  0.14179936782E+03  0.17770000000E+01 0.  1.
</event>
<event>
 6    1  0.3411206E-003  0.5016359E+03  0.7546771E-02  0.9396157E-01
        -11   -1    0    0    0    0  0.00000000000E+00  0.00000000000E+00  0.50000000000E+03  0.50000000000E+03  0.00000000000E+00 0. -1.
         11   -1    0    0    0    0 -0.00000000000E+00 -0.00000000000E+00 -0.50000000000E+03  0.50000000000E+03  0.00000000000E+00 0. -1.
        -11    1    1    2    0    0 -0.57783261456E+01 -0.74751832865E+01  0.23458807922E+03  0.23477826631E+03  0.00000000000E+00 0. -1.
         11    1    1    2    0    0 -0.10365181872E+02  0.27070492227E+02 -0.49752037310E+03  0.49836409401E+03  0.00000000000E+00 0. -1.
        -15    1    1    2    0    0  0.60598004942E+00 -0.25721303100E+02  0.20246824772E+03  0.20410414427E+03  0.17770000000E+01 0. -1.
         15    1    1    2    0    0  0.15537527969E+02  0.61259941595E+01  0.60464046160E+02  0.62753495416E+02  0.17770000000E+01 0.  1.
</event>
<event>
 6    1  0.3411206E-003  0.5012025E+03  0.7546771E-02  0.9397123E-01
        -11   -1    0    0    0    0  0.00000000000E+00  0.00000000000E+00  0.50000000000E+03  0.50000000000E+03  0.00000000000E+00 0. -1.
         11   -1    0    0    0    0 -0.00000000000E+00 -0.00000000000E+00 -0.50000000000E+03  0.50000000000E+03  0.00000000000E+00 0.  1.
        -11    1    1    2    0    0  0.17030907006E+01 -0.89129011751E+01  0.49871491132E+03  0.49879745699E+03  0.00000000000E+00 0. -1.
         11    1    1    2    0    0 -0.13775094643E+02  0.16425400359E+01 -0.34143675692E+03  0.34171846621E+03  0.00000000000E+00 0.  1.
        -15    1    1    2    0    0  0.14932270309E+02  0.43489712936E+01 -0.15085778223E+03  0.15166777653E+03  0.17770000000E+01 0.  1.
         15    1    1    2    0    0 -0.28602663663E+01  0.29213898456E+01 -0.64203721633E+01  0.78163002777E+01  0.17770000000E+01 0.  1.
</event>
<event>
 6    1  0.3411206E-003  0.5050943E+03  0.7546771E-02  0.9388482E-01
        -11   -1    0    0    0    0  0.00000000000E+00  0.00000000000E+00  0.50000000000E+03  0.50000000000E+03  0.00000000000E+00 0. -1.
         11   -1    0    0    0    0 -0.00000000000E+00 -0.00000000000E+00 -0.50000000000E+03  0.50000000000E+03  0.00000000000E+00 0.  1.
        -11    1    1    2    0    0 -0.50330640571E+00 -0.77849775219E+01  0.49484422825E+03  0.49490571771E+03  0.00000000000E+00 0. -1.
         11    1    1    2    0    0  0.14068702723E+01  0.82657327297E+01 -0.46771884283E+03  0.46779399052E+03  0.00000000000E+00 0.  1.
        -15    1    1    2    0    0  0.75687451612E+01  0.64832657771E+01 -0.27155211070E+01  0.10480955221E+02  0.17770000000E+01 0. -1.
         15    1    1    2    0    0 -0.84723090278E+01 -0.69640209849E+01 -0.24409864309E+02  0.26819336553E+02  0.17770000000E+01 0.  1.
</event>
<event>
 6    1  0.3411206E-003  0.5041374E+03  0.7546771E-02  0.9390599E-01
        -11   -1    0    0    0    0  0.00000000000E+00  0.00000000000E+00  0.50000000000E+03  0.50000000000E+03  0.00000000000E+00 0.  1.
         11   -1    0    0    0    0 -0.00000000000E+00 -0.00000000000E+00 -0.50000000000E+03  0.50000000000E+03  0.00000000000E+00 0.  1.
        -11    1    1    2    0    0  0.18846499469E+01 -0.11955597854E+02  0.39293259378E+03  0.39311895335E+03  0.00000000000E+00 0.  1.
         11    1    1    2    0    0  0.65740902653E+01 -0.50741928845E+01 -0.49579306760E+03  0.49586261401E+03  0.00000000000E+00 0.  1.
        -15    1    1    2    0    0 -0.32972852347E+01 -0.79410117742E+00  0.85372546335E+02  0.85458364618E+02  0.17770000000E+01 0. -1.
         15    1    1    2    0    0 -0.51614549776E+01  0.17823891916E+02  0.17487927484E+02  0.25560068020E+02  0.17770000000E+01 0.  1.
</event>
<event>
 6    1  0.3411206E-003  0.5043452E+03  0.7546771E-02  0.9390139E-01
        -11   -1    0    0    0    0  0.00000000000E+00  0.00000000000E+00  0.50000000000E+03  0.50000000000E+03  0.00000000000E+00 0.  1.
         11   -1    0    0    0    0 -0.00000000000E+00 -0.00000000000E+00 -0.50000000000E+03  0.50000000000E+03  0.00000000000E+00 0.  1.
        -11    1    1    2    0    0 -0.24036533696E+02 -0.38881481442E+01  0.39164575306E+03  0.39240192219E+03  0.00000000000E+00 0.  1.
         11    1    1    2    0    0 -0.10057751917E+02 -0.14810357312E+02 -0.49533141845E+03  0.49565483873E+03  0.00000000000E+00 0.  1.
        -15    1    1    2    0    0  0.50481973832E+01 -0.27643621249E+01  0.13820678312E+02  0.15076301695E+02  0.17770000000E+01 0.  1.
         15    1    1    2    0    0  0.29046088230E+02  0.21462867582E+02  0.89864987079E+02  0.96866937384E+02  0.17770000000E+01 0. -1.
</event>
<event>
 6    1  0.3411206E-003  0.5048483E+03  0.7546771E-02  0.9389026E-01
        -11   -1    0    0    0    0  0.00000000000E+00  0.00000000000E+00  0.50000000000E+03  0.50000000000E+03  0.00000000000E+00 0.  1.
         11   -1    0    0    0    0 -0.00000000000E+00 -0.00000000000E+00 -0.50000000000E+03  0.50000000000E+03  0.00000000000E+00 0. -1.
        -11    1    1    2    0    0 -0.10234490934E+02 -0.67303321366E+01  0.49500016403E+03  0.49515169854E+03  0.00000000000E+00 0.  1.
         11    1    1    2    0    0 -0.52520655634E+01 -0.47413303802E+01 -0.46658744488E+03  0.46664109134E+03  0.00000000000E+00 0. -1.
        -15    1    1    2    0    0  0.18663426386E+02  0.76514661526E+01 -0.23114340878E+02  0.30729446822E+02  0.17770000000E+01 0.  1.
         15    1    1    2    0    0 -0.31768698887E+01  0.38201963642E+01 -0.52983782744E+01  0.74777632945E+01  0.17770000000E+01 0. -1.
</event>
<event>
 6    1  0.3411206E-003  0.5069933E+03  0.7546771E-02  0.9384296E-01
        -11   -1    0    0    0    0  0.00000000000E+00  0.00000000000E+00  0.50000000000E+03  0.50000000000E+03  0.00000000000E+00 0. -1.
         11   -1    0    0    0    0 -0.00000000000E+00 -0.00000000000E+00 -0.50000000000E+03  0.50000000000E+03  0.00000000000E+00 0. -1.
        -11    1    1    2    0    0  0.12854020947E+02 -0.27608599627E+02  0.49206521971E+03  0.49300673533E+03  0.00000000000E+00 0. -1.
         11    1    1    2    0    0 -0.51673451303E+01  0.21297962929E+02 -0.40193294469E+03  0.40252999479E+03  0.00000000000E+00 0. -1.
        -15    1    1    2    0    0  0.32228936717E+01  0.61558301874E+01 -0.92811981367E+02  0.93088683003E+02  0.17770000000E+01 0.  1.
         15    1    1    2    0    0 -0.10909569489E+02  0.15480650998E+00  0.26797063437E+01  0.11374586875E+02  0.17770000000E+01 0. -1.
</event>
<event>
 6    1  0.3411206E-003  0.5067785E+03  0.7546771E-02  0.9384769E-01
        -11   -1    0    0    0    0  0.00000000000E+00  0.00000000000E+00  0.50000000000E+03  0.50000000000E+03  0.00000000000E+00 0. -1.
         11   -1    0    0    0    0 -0.00000000000E+00 -0.00000000000E+00 -0.50000000000E+03  0.50000000000E+03  0.00000000000E+00 0.  1.
        -11    1    1    2    0    0  0.64346465706E+01  0.16099460813E+02  0.45268200899E+03  0.45301390550E+03  0.00000000000E+00 0. -1.
         11    1    1    2    0    0 -0.75649142134E+01  0.10632903904E+01 -0.49316230262E+03  0.49322146673E+03  0.00000000000E+00 0.  1.
        -15    1    1    2    0    0 -0.13002027079E+02 -0.66909649942E+01  0.29446165775E+02  0.32925007647E+02  0.17770000000E+01 0. -1.
         15    1    1    2    0    0  0.14132294722E+02 -0.10471786210E+02  0.11034127857E+02  0.20839620128E+02  0.17770000000E+01 0. -1.
</event>
<event>
 6    1  0.3411206E-003  0.5524249E+03  0.7546771E-02  0.9289588E-01
        -11   -1    0    0    0    0  0.00000000000E+00  0.00000000000E+00  0.50000000000E+03  0.50000000000E+03  0.00000000000E+00 0.  1.
         11   -1    0    0    0    0 -0.00000000000E+00 -0.00000000000E+00 -0.50000000000E+03  0.50000000000E+03  0.00000000000E+00 0.  1.
        -11    1    1    2    0    0  0.65412626123E+01  0.18403849189E+01  0.44752353903E+03  0.44757512567E+03  0.00000000000E+00 0.  1.
         11    1    1    2    0    0  0.69861856050E+01  0.99511761008E+01 -0.17917528215E+03  0.17958734485E+03  0.00000000000E+00 0.  1.
        -15    1    1    2    0    0 -0.15110906335E+02 -0.29593809103E+02 -0.31815547490E+03  0.31989091417E+03  0.17770000000E+01 0. -1.
         15    1    1    2    0    0  0.15834581175E+01  0.17802248083E+02  0.49807218026E+02  0.52946615311E+02  0.17770000000E+01 0.  1.
</event>
<event>
 6    1  0.3411206E-003  0.5061602E+03  0.7546771E-02  0.9386130E-01
        -11   -1    0    0    0    0  0.00000000000E+00  0.00000000000E+00  0.50000000000E+03  0.50000000000E+03  0.00000000000E+00 0. -1.
         11   -1    0    0    0    0 -0.00000000000E+00 -0.00000000000E+00 -0.50000000000E+03  0.50000000000E+03  0.00000000000E+00 0.  1.
        -11    1    1    2    0    0  0.97323760407E+01  0.40420845914E+01  0.48418679195E+03  0.48430146303E+03  0.00000000000E+00 0. -1.
         11    1    1    2    0    0 -0.23007753071E+01  0.77202039371E+01 -0.49377410844E+03  0.49383981743E+03  0.00000000000E+00 0.  1.
        -15    1    1    2    0    0  0.25554241386E+01 -0.55200526911E+01  0.74107747835E+01  0.97508197673E+01  0.17770000000E+01 0.  1.
         15    1    1    2    0    0 -0.99870248723E+01 -0.62422358374E+01  0.21765417011E+01  0.12107899769E+02  0.17770000000E+01 0. -1.
</event>
<event>
 6    1  0.3411206E-003  0.5018645E+03  0.7546771E-02  0.9395647E-01
        -11   -1    0    0    0    0  0.00000000000E+00  0.00000000000E+00  0.50000000000E+03  0.50000000000E+03  0.00000000000E+00 0. -1.
         11   -1    0    0    0    0 -0.00000000000E+00 -0.00000000000E+00 -0.50000000000E+03  0.50000000000E+03  0.00000000000E+00 0.  1.
        -11    1    1    2    0    0 -0.11426071434E+02 -0.27594368685E+01  0.49799679296E+03  0.49813549904E+03  0.00000000000E+00 0. -1.
         11    1    1    2    0    0  0.23769068639E+01 -0.57708426601E+01 -0.44150959573E+03  0.44155370617E+03  0.00000000000E+00 0.  1.
        -15    1    1    2    0    0  0.10763538919E+00  0.80044448640E+01 -0.44459890027E+02  0.45209758606E+02  0.17770000000E+01 0. -1.
         15    1    1    2    0    0  0.89415291807E+01  0.52583466461E+00 -0.12027307204E+02  0.15101036182E+02  0.17770000000E+01 0.  1.
</event>
<event>
 6    1  0.3411206E-003  0.5331663E+03  0.7546771E-02  0.9328510E-01
        -11   -1    0    0    0    0  0.00000000000E+00  0.00000000000E+00  0.50000000000E+03  0.50000000000E+03  0.00000000000E+00 0. -1.
         11   -1    0    0    0    0 -0.00000000000E+00 -0.00000000000E+00 -0.50000000000E+03  0.50000000000E+03  0.00000000000E+00 0.  1.
        -11    1    1    2    0    0  0.78868450808E+01 -0.63663227146E+01  0.16563364529E+03  0.16594347484E+03  0.00000000000E+00 0. -1.
         11    1    1    2    0    0 -0.29879511945E+00  0.97758797444E+01 -0.46673127706E+03  0.46683374138E+03  0.00000000000E+00 0.  1.
        -15    1    1    2    0    0 -0.10017597706E+02  0.18492092138E+01 -0.32225827959E+02  0.33844254389E+02  0.17770000000E+01 0. -1.
         15    1    1    2    0    0  0.24295477442E+01 -0.52587662436E+01  0.33332345973E+03  0.33337852939E+03  0.17770000000E+01 0.  1.
</event>
<event>
 6    1  0.3411206E-003  0.5094727E+03  0.7546771E-02  0.9378860E-01
        -11   -1    0    0    0    0  0.00000000000E+00  0.00000000000E+00  0.50000000000E+03  0.50000000000E+03  0.00000000000E+00 0.  1.
         11   -1    0    0    0    0 -0.00000000000E+00 -0.00000000000E+00 -0.50000000000E+03  0.50000000000E+03  0.00000000000E+00 0.  1.
        -11    1    1    2    0    0 -0.63168104299E+01  0.30106332039E+01  0.44335271259E+03  0.44340793156E+03  0.00000000000E+00 0.  1.
         11    1    1    2    0    0 -0.58512976341E+01  0.40912651877E+01 -0.49047532045E+03  0.49052728376E+03  0.00000000000E+00 0.  1.
        -15    1    1    2    0    0  0.57501922865E+01  0.16811315933E+02  0.32958864082E+02  0.37485057093E+02  0.17770000000E+01 0.  1.
         15    1    1    2    0    0  0.64179157775E+01 -0.23913214324E+02  0.14163743779E+02  0.28579727590E+02  0.17770000000E+01 0. -1.
</event>
<event>
 6    1  0.3411206E-003  0.5063064E+03  0.7546771E-02  0.9385808E-01
        -11   -1    0    0    0    0  0.00000000000E+00  0.00000000000E+00  0.50000000000E+03  0.50000000000E+03  0.00000000000E+00 0.  1.
         11   -1    0    0    0    0 -0.00000000000E+00 -0.00000000000E+00 -0.50000000000E+03  0.50000000000E+03  0.00000000000E+00 0. -1.
        -11    1    1    2    0    0  0.11701436431E+02 -0.67951270284E+01  0.45217827750E+03  0.45238069367E+03  0.00000000000E+00 0.  1.
         11    1    1    2    0    0 -0.23925748612E+01  0.68823448353E+01 -0.49363984608E+03  0.49369361827E+03  0.00000000000E+00 0. -1.
        -15    1    1    2    0    0 -0.72576263537E+01  0.44910966790E+01 -0.29446003849E+01  0.92017112591E+01  0.17770000000E+01 0.  1.
         15    1    1    2    0    0 -0.20512352161E+01 -0.45783144860E+01  0.44406168966E+02  0.44723976798E+02  0.17770000000E+01 0. -1.
</event>
<event>
 6    1  0.3411206E-003  0.5318294E+03  0.7546771E-02  0.9331277E-01
        -11   -1    0    0    0    0  0.00000000000E+00  0.00000000000E+00  0.50000000000E+03  0.50000000000E+03  0.00000000000E+00 0.  1.
         11   -1    0    0    0    0 -0.00000000000E+00 -0.00000000000E+00 -0.50000000000E+03  0.50000000000E+03  0.00000000000E+00 0. -1.
        -11    1    1    2    0    0 -0.95007253347E+01 -0.71730536951E+01  0.46801923807E+03  0.46817061386E+03  0.00000000000E+00 0.  1.
         11    1    1    2    0    0 -0.44429744385E+01 -0.21405833177E+02 -0.42630894304E+03  0.42686914228E+03  0.00000000000E+00 0. -1.
        -15    1    1    2    0    0 -0.20151165092E+02 -0.72435449525E+01  0.17558267141E+02  0.27748673338E+02  0.17770000000E+01 0.  1.
         15    1    1    2    0    0  0.34094864865E+02  0.35822431824E+02 -0.59268562164E+02  0.77211570519E+02  0.17770000000E+01 0. -1.
</event>
<event>
 6    1  0.3411206E-003  0.5004296E+03  0.7546771E-02  0.9398849E-01
        -11   -1    0    0    0    0  0.00000000000E+00  0.00000000000E+00  0.50000000000E+03  0.50000000000E+03  0.00000000000E+00 0.  1.
         11   -1    0    0    0    0 -0.00000000000E+00 -0.00000000000E+00 -0.50000000000E+03  0.50000000000E+03  0.00000000000E+00 0.  1.
        -11    1    1    2    0    0 -0.71890128624E+01  0.83259919575E+01  0.49944926521E+03  0.49957038800E+03  0.00000000000E+00 0.  1.
         11    1    1    2    0    0  0.66373444825E+01 -0.31695343727E+01 -0.28337629523E+03  0.28347173578E+03  0.00000000000E+00 0.  1.
        -15    1    1    2    0    0  0.85282099080E+00 -0.10847956271E+01 -0.25992366782E+01  0.34377093397E+01  0.17770000000E+01 0. -1.
         15    1    1    2    0    0 -0.30115261085E+00 -0.40716619577E+01 -0.21347373331E+03  0.21352016688E+03  0.17770000000E+01 0.  1.
</event>
<event>
 6    1  0.3411206E-003  0.5051311E+03  0.7546771E-02  0.9388401E-01
        -11   -1    0    0    0    0  0.00000000000E+00  0.00000000000E+00  0.50000000000E+03  0.50000000000E+03  0.00000000000E+00 0. -1.
         11   -1    0    0    0    0 -0.00000000000E+00 -0.00000000000E+00 -0.50000000000E+03  0.50000000000E+03  0.00000000000E+00 0. -1.
        -11    1    1    2    0    0  0.12528632915E+01  0.20484386249E+01  0.14053753300E+03  0.14055804477E+03  0.00000000000E+00 0. -1.
         11    1    1    2    0    0  0.18223342262E+02  0.97901302413E+01 -0.49443634541E+03  0.49486890842E+03  0.00000000000E+00 0. -1.
        -15    1    1    2    0    0 -0.15795007887E+02  0.10972502499E+02  0.33240450507E+03  0.33296514954E+03  0.17770000000E+01 0. -1.
         15    1    1    2    0    0 -0.36811976672E+01 -0.22811071365E+02  0.21494307342E+02  0.31607897275E+02  0.17770000000E+01 0.  1.
</event>
<event>
 6    1  0.3411206E-003  0.5013481E+03  0.7546771E-02  0.9396798E-01
        -11   -1    0    0    0    0  0.00000000000E+00  0.00000000000E+00  0.50000000000E+03  0.50000000000E+03  0.00000000000E+00 0.  1.
         11   -1    0    0    0    0 -0.00000000000E+00 -0.00000000000E+00 -0.50000000000E+03  0.50000000000E+03  0.00000000000E+00 0.  1.
        -11    1    1    2    0    0  0.74495963916E+01  0.67120505281E+01  0.49855105589E+03  0.49865188603E+03  0.00000000000E+00 0.  1.
         11    1    1    2    0    0 -0.18883148016E+02  0.78076285868E+01 -0.33853593399E+03  0.33915204695E+03  0.00000000000E+00 0.  1.
        -15    1    1    2    0    0  0.16198640257E+01 -0.73264312106E+01 -0.17162162169E+02  0.18814837045E+02  0.17770000000E+01 0.  1.
         15    1    1    2    0    0  0.98136875987E+01 -0.71932479043E+01 -0.14285295973E+03  0.14338122998E+03  0.17770000000E+01 0. -1.
</event>
<event>
 6    1  0.3411206E-003  0.4892827E+03  0.7546771E-02  0.9424115E-01
        -11   -1    0    0    0    0  0.00000000000E+00  0.00000000000E+00  0.50000000000E+03  0.50000000000E+03  0.00000000000E+00 0. -1.
         11   -1    0    0    0    0 -0.00000000000E+00 -0.00000000000E+00 -0.50000000000E+03  0.50000000000E+03  0.00000000000E+00 0. -1.
        -11    1    1    2    0    0  0.33463310162E-01  0.86318869966E+01  0.48574544938E+03  0.48582214048E+03  0.00000000000E+00 0. -1.
         11    1    1    2    0    0  0.68270471999E+01  0.76937786039E+01 -0.49282180443E+03  0.49292913662E+03  0.00000000000E+00 0. -1.
        -15    1    1    2    0    0  0.15427390186E+01 -0.23965797215E+01  0.26995740267E+01  0.43091840256E+01  0.17770000000E+01 0. -1.
         15    1    1    2    0    0 -0.84032495287E+01 -0.13929085879E+02  0.43767810261E+01  0.16939538873E+02  0.17770000000E+01 0.  1.
</event>
<event>
 6    1  0.3411206E-003  0.5115763E+03  0.7546771E-02  0.9374273E-01
        -11   -1    0    0    0    0  0.00000000000E+00  0.00000000000E+00  0.50000000000E+03  0.50000000000E+03  0.00000000000E+00 0. -1.
         11   -1    0    0    0    0 -0.00000000000E+00 -0.00000000000E+00 -0.50000000000E+03  0.50000000000E+03  0.00000000000E+00 0.  1.
        -11    1    1    2    0    0 -0.39004664647E+02  0.11990341357E+02  0.48671616569E+03  0.48842374849E+03  0.00000000000E+00 0. -1.
         11    1    1    2    0    0  0.49142442411E+02 -0.17117075182E+02 -0.32551954319E+03  0.32965276718E+03  0.00000000000E+00 0.  1.
        -15    1    1    2    0    0 -0.38966649294E+02 -0.66958779559E+01 -0.38115440148E+02  0.54947056750E+02  0.17770000000E+01 0.  1.
         15    1    1    2    0    0  0.28828871530E+02  0.11822611781E+02 -0.12308118235E+03  0.12697642758E+03  0.17770000000E+01 0. -1.
</event>
<event>
 6    1  0.3411206E-003  0.5088245E+03  0.7546771E-02  0.9380278E-01
        -11   -1    0    0    0    0  0.00000000000E+00  0.00000000000E+00  0.50000000000E+03  0.50000000000E+03  0.00000000000E+00 0. -1.
         11   -1    0    0    0    0 -0.00000000000E+00 -0.00000000000E+00 -0.50000000000E+03  0.50000000000E+03  0.00000000000E+00 0.  1.
        -11    1    1    2    0    0  0.15809550859E+02  0.25034166731E+02  0.49028229670E+03  0.49117551024E+03  0.00000000000E+00 0. -1.
         11    1    1    2    0    0  0.30087134187E+01 -0.75014007167E+00 -0.72788026736E+02  0.72854045204E+02  0.00000000000E+00 0.  1.
        -15    1    1    2    0    0  0.17196919076E+01  0.10035369517E+02 -0.38295837285E+03  0.38309781916E+03  0.17770000000E+01 0.  1.
         15    1    1    2    0    0 -0.20537956186E+02 -0.34319396177E+02 -0.34535897116E+02  0.52872625401E+02  0.17770000000E+01 0. -1.
</event>
<event>
 6    1  0.3411206E-003  0.5058686E+03  0.7546771E-02  0.9386773E-01
        -11   -1    0    0    0    0  0.00000000000E+00  0.00000000000E+00  0.50000000000E+03  0.50000000000E+03  0.00000000000E+00 0. -1.
         11   -1    0    0    0    0 -0.00000000000E+00 -0.00000000000E+00 -0.50000000000E+03  0.50000000000E+03  0.00000000000E+00 0. -1.
        -11    1    1    2    0    0 -0.32039407923E+01 -0.70726497475E+01  0.44713395270E+03  0.44720136323E+03  0.00000000000E+00 0. -1.
         11    1    1    2    0    0  0.66958324054E+01 -0.49470356216E+01 -0.49406129032E+03  0.49413142576E+03  0.00000000000E+00 0. -1.
        -15    1    1    2    0    0  0.11124125592E+02  0.16318778986E+02  0.27857042394E+02  0.34193877489E+02  0.17770000000E+01 0.  1.
         15    1    1    2    0    0 -0.14616017205E+02 -0.42990936169E+01  0.19070295222E+02  0.24473333523E+02  0.17770000000E+01 0. -1.
</event>
<event>
 6    1  0.3411206E-003  0.5067642E+03  0.7546771E-02  0.9384800E-01
        -11   -1    0    0    0    0  0.00000000000E+00  0.00000000000E+00  0.50000000000E+03  0.50000000000E+03  0.00000000000E+00 0. -1.
         11   -1    0    0    0    0 -0.00000000000E+00 -0.00000000000E+00 -0.50000000000E+03  0.50000000000E+03  0.00000000000E+00 0.  1.
        -11    1    1    2    0    0  0.68055478983E+01 -0.72011808620E+01  0.48698012772E+03  0.48708091451E+03  0.00000000000E+00 0. -1.
         11    1    1    2    0    0 -0.74450926405E+01 -0.52490739891E+00 -0.49317930982E+03  0.49323578192E+03  0.00000000000E+00 0.  1.
        -15    1    1    2    0    0  0.48660198686E+01  0.14055242041E+01 -0.41031427715E+01  0.67562679975E+01  0.17770000000E+01 0.  1.
         15    1    1    2    0    0 -0.42264751264E+01  0.63205640568E+01  0.10302324866E+02  0.12927035570E+02  0.17770000000E+01 0. -1.
</event>
<event>
 6    1  0.3411206E-003  0.5029887E+03  0.7546771E-02  0.9393147E-01
        -11   -1    0    0    0    0  0.00000000000E+00  0.00000000000E+00  0.50000000000E+03  0.50000000000E+03  0.00000000000E+00 0. -1.
         11   -1    0    0    0    0 -0.00000000000E+00 -0.00000000000E+00 -0.50000000000E+03  0.50000000000E+03  0.00000000000E+00 0.  1.
        -11    1    1    2    0    0 -0.20242877525E+01 -0.31340121525E+02  0.49601808726E+03  0.49701131159E+03  0.00000000000E+00 0. -1.
         11    1    1    2    0    0  0.83402675376E+01 -0.49361591828E+01 -0.36049585387E+03  0.36062610331E+03  0.00000000000E+00 0.  1.
        -15    1    1    2    0    0  0.61749689432E+01  0.96338763885E+01 -0.19734532210E+02  0.22881243548E+02  0.17770000000E+01 0.  1.
         15    1    1    2    0    0 -0.12490948728E+02  0.26642404319E+02 -0.11578770118E+03  0.11948134156E+03  0.17770000000E+01 0. -1.
</event>
<event>
 6    1  0.3411206E-003  0.5001689E+03  0.7546771E-02  0.9399432E-01
        -11   -1    0    0    0    0  0.00000000000E+00  0.00000000000E+00  0.50000000000E+03  0.50000000000E+03  0.00000000000E+00 0.  1.
         11   -1    0    0    0    0 -0.00000000000E+00 -0.00000000000E+00 -0.50000000000E+03  0.50000000000E+03  0.00000000000E+00 0.  1.
        -11    1    1    2    0    0 -0.71271749376E+01 -0.50036233236E+01  0.49975528224E+03  0.49983114649E+03  0.00000000000E+00 0.  1.
         11    1    1    2    0    0 -0.37567507598E+01  0.29886450559E+01 -0.10492626828E+03  0.10503602691E+03  0.00000000000E+00 0.  1.
        -15    1    1    2    0    0  0.43316291865E+01  0.22436410266E+00 -0.47042301633E+02  0.47275249577E+02  0.17770000000E+01 0. -1.
         15    1    1    2    0    0  0.65522965109E+01  0.17906141650E+01 -0.34778671233E+03  0.34785757702E+03  0.17770000000E+01 0.  1.
</event>
<event>
 6    1  0.3411206E-003  0.5041807E+03  0.7546771E-02  0.9390503E-01
        -11   -1    0    0    0    0  0.00000000000E+00  0.00000000000E+00  0.50000000000E+03  0.50000000000E+03  0.00000000000E+00 0. -1.
         11   -1    0    0    0    0 -0.00000000000E+00 -0.00000000000E+00 -0.50000000000E+03  0.50000000000E+03  0.00000000000E+00 0.  1.
        -11    1    1    2    0    0 -0.18138363932E+02 -0.17581082568E+02  0.49517540539E+03  0.49581929855E+03  0.00000000000E+00 0. -1.
         11    1    1    2    0    0  0.93227060967E+01 -0.91917928454E+01 -0.41086809882E+03  0.41107663097E+03  0.00000000000E+00 0.  1.
        -15    1    1    2    0    0 -0.84459800845E+01  0.17370310369E+02 -0.35420045181E+02  0.40383159752E+02  0.17770000000E+01 0. -1.
         15    1    1    2    0    0  0.17261637920E+02  0.94025650443E+01 -0.48887261391E+02  0.52720910732E+02  0.17770000000E+01 0.  1.
</event>
<event>
 6    1  0.3411206E-003  0.4806093E+03  0.7546771E-02  0.9444275E-01
        -11   -1    0    0    0    0  0.00000000000E+00  0.00000000000E+00  0.50000000000E+03  0.50000000000E+03  0.00000000000E+00 0.  1.
         11   -1    0    0    0    0 -0.00000000000E+00 -0.00000000000E+00 -0.50000000000E+03  0.50000000000E+03  0.00000000000E+00 0. -1.
        -11    1    1    2    0    0  0.22668778182E+02  0.56103165118E+01  0.47960491054E+03  0.48017311396E+03  0.00000000000E+00 0.  1.
         11    1    1    2    0    0 -0.34417382698E+01  0.15880249630E+02 -0.48120489477E+03  0.48147915702E+03  0.00000000000E+00 0. -1.
        -15    1    1    2    0    0 -0.94044966721E+01 -0.36446152327E+00 -0.85817567922E+01  0.12860080423E+02  0.17770000000E+01 0. -1.
         15    1    1    2    0    0 -0.98225432399E+01 -0.21126104618E+02  0.10181741021E+02  0.25487648602E+02  0.17770000000E+01 0.  1.
</event>
<event>
 6    1  0.3411206E-003  0.5108244E+03  0.7546771E-02  0.9375910E-01
        -11   -1    0    0    0    0  0.00000000000E+00  0.00000000000E+00  0.50000000000E+03  0.50000000000E+03  0.00000000000E+00 0. -1.
         11   -1    0    0    0    0 -0.00000000000E+00 -0.00000000000E+00 -0.50000000000E+03  0.50000000000E+03  0.00000000000E+00 0. -1.
        -11    1    1    2    0    0 -0.15544811490E+02  0.14877017452E+02  0.43714323972E+03  0.43767245612E+03  0.00000000000E+00 0. -1.
         11    1    1    2    0    0 -0.50047788328E+01 -0.68366216262E+01 -0.48910224123E+03  0.48917562244E+03  0.00000000000E+00 0. -1.
        -15    1    1    2    0    0  0.69262841761E+01  0.41289196901E+01 -0.73583966904E+01  0.11060068768E+02  0.17770000000E+01 0. -1.
         15    1    1    2    0    0  0.13623306147E+02 -0.12169315515E+02  0.59317398206E+02  0.62091852682E+02  0.17770000000E+01 0.  1.
</event>
<event>
 6    1  0.3411206E-003  0.5002761E+03  0.7546771E-02  0.9399192E-01
        -11   -1    0    0    0    0  0.00000000000E+00  0.00000000000E+00  0.50000000000E+03  0.50000000000E+03  0.00000000000E+00 0.  1.
         11   -1    0    0    0    0 -0.00000000000E+00 -0.00000000000E+00 -0.50000000000E+03  0.50000000000E+03  0.00000000000E+00 0. -1.
        -11    1    1    2    0    0  0.68409481569E+01  0.62133271962E+01  0.49963846966E+03  0.49972392816E+03  0.00000000000E+00 0.  1.
         11    1    1    2    0    0  0.81699970634E+00  0.10944465131E+01 -0.17931219747E+02  0.17983157212E+02  0.00000000000E+00 0. -1.
        -15    1    1    2    0    0  0.37736423063E+01 -0.84586307451E+01 -0.33237933436E+03  0.33251311019E+03  0.17770000000E+01 0. -1.
         15    1    1    2    0    0 -0.11431590170E+02  0.11508570357E+01 -0.14932791555E+03  0.14977980444E+03  0.17770000000E+01 0.  1.
</event>
<event>
 6    1  0.3411206E-003  0.5019000E+03  0.7546771E-02  0.9395568E-01
        -11   -1    0    0    0    0  0.00000000000E+00  0.00000000000E+00  0.50000000000E+03  0.50000000000E+03  0.00000000000E+00 0. -1.
         11   -1    0    0    0    0 -0.00000000000E+00 -0.00000000000E+00 -0.50000000000E+03  0.50000000000E+03  0.00000000000E+00 0.  1.
        -11    1    1    2    0    0 -0.14563350530E+01 -0.67302852392E+01  0.37659401477E+03  0.37665696544E+03  0.00000000000E+00 0. -1.
         11    1    1    2    0    0 -0.11350287682E+02  0.39652318271E+01 -0.49795489394E+03  0.49810001856E+03  0.00000000000E+00 0.  1.
        -15    1    1    2    0    0  0.11603836105E+02  0.37646074623E+01  0.17783927235E+02  0.21639017505E+02  0.17770000000E+01 0.  1.
         15    1    1    2    0    0  0.12027866304E+01 -0.99955405016E+00  0.10357695193E+03  0.10360399849E+03  0.17770000000E+01 0. -1.
</event>
<event>
 6    1  0.3411206E-003  0.5059789E+03  0.7546771E-02  0.9386530E-01
        -11   -1    0    0    0    0  0.00000000000E+00  0.00000000000E+00  0.50000000000E+03  0.50000000000E+03  0.00000000000E+00 0. -1.
         11   -1    0    0    0    0 -0.00000000000E+00 -0.00000000000E+00 -0.50000000000E+03  0.50000000000E+03  0.00000000000E+00 0. -1.
        -11    1    1    2    0    0  0.12927993434E+02  0.81610116928E+01  0.45767740912E+03  0.45793268713E+03  0.00000000000E+00 0. -1.
         11    1    1    2    0    0 -0.15247889158E+02  0.16566350264E+02 -0.49350778576E+03  0.49402112980E+03  0.00000000000E+00 0. -1.
        -15    1    1    2    0    0 -0.22989078828E+01 -0.17899382238E+02  0.96506311968E+01  0.20541793336E+02  0.17770000000E+01 0.  1.
         15    1    1    2    0    0  0.46188036068E+01 -0.68279797179E+01  0.26179745443E+02  0.27504389727E+02  0.17770000000E+01 0. -1.
</event>
<event>
 6    1  0.3411206E-003  0.5008458E+03  0.7546771E-02  0.9397919E-01
        -11   -1    0    0    0    0  0.00000000000E+00  0.00000000000E+00  0.50000000000E+03  0.50000000000E+03  0.00000000000E+00 0. -1.
         11   -1    0    0    0    0 -0.00000000000E+00 -0.00000000000E+00 -0.50000000000E+03  0.50000000000E+03  0.00000000000E+00 0.  1.
        -11    1    1    2    0    0  0.27123227263E+01  0.42913355992E+01  0.26426532100E+03  0.26431407858E+03  0.00000000000E+00 0. -1.
         11    1    1    2    0    0 -0.16101508992E+02 -0.18524882633E+02 -0.49855041437E+03  0.49915423021E+03  0.00000000000E+00 0.  1.
        -15    1    1    2    0    0  0.88448687162E+01  0.13549189234E+02  0.22783129755E+03  0.22841206208E+03  0.17770000000E+01 0. -1.
         15    1    1    2    0    0  0.45443175497E+01  0.68435779955E+00  0.64537958268E+01  0.81196291272E+01  0.17770000000E+01 0.  1.
</event>
<event>
 6    1  0.3411206E-003  0.5062479E+03  0.7546771E-02  0.9385937E-01
        -11   -1    0    0    0    0  0.00000000000E+00  0.00000000000E+00  0.50000000000E+03  0.50000000000E+03  0.00000000000E+00 0.  1.
         11   -1    0    0    0    0 -0.00000000000E+00 -0.00000000000E+00 -0.50000000000E+03  0.50000000000E+03  0.00000000000E+00 0.  1.
        -11    1    1    2    0    0  0.98119677144E+01 -0.36025450499E+01  0.40002455027E+03  0.40016108489E+03  0.00000000000E+00 0.  1.
         11    1    1    2    0    0  0.16693809424E+02 -0.15935856883E+02 -0.49321240509E+03  0.49375207477E+03  0.00000000000E+00 0.  1.
        -15    1    1    2    0    0 -0.24279648368E+02  0.13788004308E+02  0.24766041465E+02  0.37364755138E+02  0.17770000000E+01 0.  1.
         15    1    1    2    0    0 -0.22261287698E+01  0.57503976248E+01  0.68421813354E+02  0.68722085197E+02  0.17770000000E+01 0. -1.
</event>
<event>
 6    1  0.3411206E-003  0.5004082E+03  0.7546771E-02  0.9398897E-01
        -11   -1    0    0    0    0  0.00000000000E+00  0.00000000000E+00  0.50000000000E+03  0.50000000000E+03  0.00000000000E+00 0.  1.
         11   -1    0    0    0    0 -0.00000000000E+00 -0.00000000000E+00 -0.50000000000E+03  0.50000000000E+03  0.00000000000E+00 0. -1.
        -11    1    1    2    0    0  0.69433475708E+01  0.97230833305E+01  0.49944894764E+03  0.49959183312E+03  0.00000000000E+00 0.  1.
         11    1    1    2    0    0 -0.74705241995E+00  0.22974171315E+01 -0.12767193227E+03  0.12769478651E+03  0.00000000000E+00 0. -1.
        -15    1    1    2    0    0 -0.22893613896E+01 -0.17140488124E+02 -0.18447780725E+03  0.18529505283E+03  0.17770000000E+01 0.  1.
         15    1    1    2    0    0 -0.39069337613E+01  0.51199876624E+01 -0.18729920812E+03  0.18741832754E+03  0.17770000000E+01 0. -1.
</event>
<event>
 6    1  0.3411206E-003  0.5022505E+03  0.7546771E-02  0.9394788E-01
        -11   -1    0    0    0    0  0.00000000000E+00  0.00000000000E+00  0.50000000000E+03  0.50000000000E+03  0.00000000000E+00 0. -1.
         11   -1    0    0    0    0 -0.00000000000E+00 -0.00000000000E+00 -0.50000000000E+03  0.50000000000E+03  0.00000000000E+00 0. -1.
        -11    1    1    2    0    0  0.10898973378E+02  0.30545113521E+02  0.49669184323E+03  0.49774951403E+03  0.00000000000E+00 0. -1.
         11    1    1    2    0    0 -0.13633586394E+01 -0.36797485084E+00 -0.10375829679E+03  0.10376790594E+03  0.00000000000E+00 0. -1.
        -15    1    1    2    0    0  0.16201369789E+02 -0.44691877506E+01 -0.36841250572E+02  0.40532622600E+02  0.17770000000E+01 0.  1.
         15    1    1    2    0    0 -0.25736984527E+02 -0.25707950920E+02 -0.35609229587E+03  0.35794995743E+03  0.17770000000E+01 0. -1.
</event>
<event>
 6    1  0.3411206E-003  0.5010771E+03  0.7546771E-02  0.9397403E-01
        -11   -1    0    0    0    0  0.00000000000E+00  0.00000000000E+00  0.50000000000E+03  0.50000000000E+03  0.00000000000E+00 0.  1.
         11   -1    0    0    0    0 -0.00000000000E+00 -0.00000000000E+00 -0.50000000000E+03  0.50000000000E+03  0.00000000000E+00 0.  1.
        -11    1    1    2    0    0 -0.33079401788E+00 -0.69035350408E+01  0.33690582689E+03  0.33697671198E+03  0.00000000000E+00 0.  1.
         11    1    1    2    0    0 -0.23565559909E+01 -0.94182055294E+01 -0.49882840125E+03  0.49892286963E+03  0.00000000000E+00 0.  1.
        -15    1    1    2    0    0  0.23655279232E+01  0.13481832366E+02  0.43657102127E+02  0.45787070462E+02  0.17770000000E+01 0.  1.
         15    1    1    2    0    0  0.32182208563E+00  0.28399082046E+01  0.11826547223E+03  0.11831334793E+03  0.17770000000E+01 0. -1.
</event>
<event>
 6    1  0.3411206E-003  0.5075157E+03  0.7546771E-02  0.9383148E-01
        -11   -1    0    0    0    0  0.00000000000E+00  0.00000000000E+00  0.50000000000E+03  0.50000000000E+03  0.00000000000E+00 0.  1.
         11   -1    0    0    0    0 -0.00000000000E+00 -0.00000000000E+00 -0.50000000000E+03  0.50000000000E+03  0.00000000000E+00 0.  1.
        -11    1    1    2    0    0 -0.16975431822E+02 -0.74169098198E+01  0.44206338132E+03  0.44245136336E+03  0.00000000000E+00 0.  1.
         11    1    1    2    0    0 -0.98170426670E+00 -0.69801000966E+01 -0.49243385519E+03  0.49248430155E+03  0.00000000000E+00 0.  1.
        -15    1    1    2    0    0  0.27875482429E+02  0.13090355000E+02  0.40384776894E+02  0.50818184230E+02  0.17770000000E+01 0.  1.
         15    1    1    2    0    0 -0.99183463405E+01  0.13066549169E+01  0.99856969697E+01  0.14246150855E+02  0.17770000000E+01 0. -1.
</event>
<event>
 6    1  0.3411206E-003  0.5010966E+03  0.7546771E-02  0.9397359E-01
        -11   -1    0    0    0    0  0.00000000000E+00  0.00000000000E+00  0.50000000000E+03  0.50000000000E+03  0.00000000000E+00 0. -1.
         11   -1    0    0    0    0 -0.00000000000E+00 -0.00000000000E+00 -0.50000000000E+03  0.50000000000E+03  0.00000000000E+00 0.  1.
        -11    1    1    2    0    0 -0.18773457125E+01  0.94516560286E+01  0.49881034351E+03  0.49890341453E+03  0.00000000000E+00 0. -1.
         11    1    1    2    0    0  0.17670843441E+01 -0.11500386859E+02 -0.39494154361E+03  0.39511290077E+03  0.00000000000E+00 0.  1.
        -15    1    1    2    0    0  0.33825808059E+01 -0.63860655508E+01 -0.16155522154E+02  0.17787138927E+02  0.17770000000E+01 0.  1.
         15    1    1    2    0    0 -0.32723194375E+01  0.84347963813E+01 -0.87713277746E+02  0.88196545774E+02  0.17770000000E+01 0. -1.
</event>
<event>
 6    1  0.3411206E-003  0.5010567E+03  0.7546771E-02  0.9397448E-01
        -11   -1    0    0    0    0  0.00000000000E+00  0.00000000000E+00  0.50000000000E+03  0.50000000000E+03  0.00000000000E+00 0. -1.
         11   -1    0    0    0    0 -0.00000000000E+00 -0.00000000000E+00 -0.50000000000E+03  0.50000000000E+03  0.00000000000E+00 0.  1.
        -11    1    1    2    0    0 -0.86083334352E+01 -0.18009261382E+01  0.21887147959E+03  0.21904810275E+03  0.00000000000E+00 0. -1.
         11    1    1    2    0    0  0.91155849585E+01  0.49936185585E+01 -0.49883502358E+03  0.49894329424E+03  0.00000000000E+00 0.  1.
        -15    1    1    2    0    0  0.26915412466E+01 -0.58461362546E+01  0.27574497220E+03  0.27582579489E+03  0.17770000000E+01 0. -1.
         15    1    1    2    0    0 -0.31987927699E+01  0.26534438343E+01  0.42185717913E+01  0.61828081262E+01  0.17770000000E+01 0.  1.
</event>
<event>
 6    1  0.3411206E-003  0.5200639E+03  0.7546771E-02  0.9356002E-01
        -11   -1    0    0    0    0  0.00000000000E+00  0.00000000000E+00  0.50000000000E+03  0.50000000000E+03  0.00000000000E+00 0.  1.
         11   -1    0    0    0    0 -0.00000000000E+00 -0.00000000000E+00 -0.50000000000E+03  0.50000000000E+03  0.00000000000E+00 0. -1.
        -11    1    1    2    0    0 -0.24252265474E+02  0.14314808758E+02  0.47910916966E+03  0.47993612344E+03  0.00000000000E+00 0.  1.
         11    1    1    2    0    0  0.58265988563E+00  0.81194630801E+01 -0.28713159957E+03  0.28724696803E+03  0.00000000000E+00 0. -1.
        -15    1    1    2    0    0  0.13711021228E+01 -0.11564210227E+02 -0.20459161622E+03  0.20493047123E+03  0.17770000000E+01 0.  1.
         15    1    1    2    0    0  0.22298503465E+02 -0.10870061612E+02  0.12614046135E+02  0.27886437297E+02  0.17770000000E+01 0. -1.
</event>
<event>
 6    1  0.3411206E-003  0.5102801E+03  0.7546771E-02  0.9377096E-01
        -11   -1    0    0    0    0  0.00000000000E+00  0.00000000000E+00  0.50000000000E+03  0.50000000000E+03  0.00000000000E+00 0. -1.
         11   -1    0    0    0    0 -0.00000000000E+00 -0.00000000000E+00 -0.50000000000E+03  0.50000000000E+03  0.00000000000E+00 0.  1.
        -11    1    1    2    0    0  0.20637402478E+02  0.15067825387E+02  0.48905277944E+03  0.48971988200E+03  0.00000000000E+00 0. -1.
         11    1    1    2    0    0  0.86172380419E+01 -0.44711019042E+01 -0.35523550854E+03  0.35536813880E+03  0.00000000000E+00 0.  1.
        -15    1    1    2    0    0 -0.15921857198E+02 -0.10347841953E+02  0.13097644012E+01  0.19116918724E+02  0.17770000000E+01 0. -1.
         15    1    1    2    0    0 -0.13332783321E+02 -0.24888153051E+00 -0.13512703530E+03  0.13579506048E+03  0.17770000000E+01 0.  1.
</event>
<event>
 6    1  0.3411206E-003  0.5089124E+03  0.7546771E-02  0.9380086E-01
        -11   -1    0    0    0    0  0.00000000000E+00  0.00000000000E+00  0.50000000000E+03  0.50000000000E+03  0.00000000000E+00 0. -1.
         11   -1    0    0    0    0 -0.00000000000E+00 -0.00000000000E+00 -0.50000000000E+03  0.50000000000E+03  0.00000000000E+00 0. -1.
        -11    1    1    2    0    0 -0.14429979643E+02 -0.16574901116E+02  0.34446568642E+03  0.34516599018E+03  0.00000000000E+00 0. -1.
         11    1    1    2    0    0 -0.14796003787E+02 -0.33115809141E+02 -0.48974634422E+03  0.49108762988E+03  0.00000000000E+00 0. -1.
        -15    1    1    2    0    0  0.41601132578E+02  0.44489845766E+02  0.10690892245E+03  0.12305558109E+03  0.17770000000E+01 0.  1.
         15    1    1    2    0    0 -0.12375149148E+02  0.52008644910E+01  0.38371735355E+02  0.40690798850E+02  0.17770000000E+01 0.  1.
</event>
<event>
 6    1  0.3411206E-003  0.5060778E+03  0.7546771E-02  0.9386312E-01
        -11   -1    0    0    0    0  0.00000000000E+00  0.00000000000E+00  0.50000000000E+03  0.50000000000E+03  0.00000000000E+00 0.  1.
         11   -1    0    0    0    0 -0.00000000000E+00 -0.00000000000E+00 -0.50000000000E+03  0.50000000000E+03  0.00000000000E+00 0. -1.
        -11    1    1    2    0    0 -0.91884260412E+01 -0.35682300553E+01  0.49382379792E+03  0.49392216272E+03  0.00000000000E+00 0.  1.
         11    1    1    2    0    0 -0.29787096212E+01  0.68828492237E+01 -0.47507474060E+03  0.47513393426E+03  0.00000000000E+00 0. -1.
        -15    1    1    2    0    0  0.12932110006E+02  0.47074832687E+00 -0.14641636561E+01  0.13143917886E+02  0.17770000000E+01 0. -1.
         15    1    1    2    0    0 -0.76497434332E+00 -0.37853674953E+01 -0.17284893660E+02  0.17799985131E+02  0.17770000000E+01 0.  1.
</event>
<event>
 6    1  0.3411206E-003  0.5003835E+03  0.7546771E-02  0.9398952E-01
        -11   -1    0    0    0    0  0.00000000000E+00  0.00000000000E+00  0.50000000000E+03  0.50000000000E+03  0.00000000000E+00 0. -1.
         11   -1    0    0    0    0 -0.00000000000E+00 -0.00000000000E+00 -0.50000000000E+03  0.50000000000E+03  0.00000000000E+00 0.  1.
        -11    1    1    2    0    0 -0.62230999661E+01 -0.47582907077E+01  0.49955503980E+03  0.49961645899E+03  0.00000000000E+00 0. -1.
         11    1    1    2    0    0 -0.10204126212E+00 -0.12730510661E+01 -0.75386548931E+02  0.75397366208E+02  0.00000000000E+00 0.  1.
        -15    1    1    2    0    0 -0.29794722661E+01  0.13662692636E+02 -0.21010425958E+03  0.21057659900E+03  0.17770000000E+01 0. -1.
         15    1    1    2    0    0  0.93046134943E+01 -0.76313508626E+01 -0.21406423129E+03  0.21440957580E+03  0.17770000000E+01 0.  1.
</event>
<event>
 6    1  0.3411206E-003  0.5076450E+03  0.7546771E-02  0.9382864E-01
        -11   -1    0    0    0    0  0.00000000000E+00  0.00000000000E+00  0.50000000000E+03  0.50000000000E+03  0.00000000000E+00 0. -1.
         11   -1    0    0    0    0 -0.00000000000E+00 -0.00000000000E+00 -0.50000000000E+03  0.50000000000E+03  0.00000000000E+00 0.  1.
        -11    1    1    2    0    0 -0.49103983480E+00 -0.10714722634E+02  0.49223818142E+03  0.49235502805E+03  0.00000000000E+00 0. -1.
         11    1    1    2    0    0  0.13077112275E+02 -0.12036688531E+02 -0.37825877013E+03  0.37867610159E+03  0.00000000000E+00 0.  1.
        -15    1    1    2    0    0 -0.30668694518E+02 -0.58150451022E-01 -0.50470374297E+02  0.59084588647E+02  0.17770000000E+01 0.  1.
         15    1    1    2    0    0  0.18082622077E+02  0.22809561616E+02 -0.63509036992E+02  0.69884281715E+02  0.17770000000E+01 0. -1.
</event>
<event>
 6    1  0.3411206E-003  0.5005046E+03  0.7546771E-02  0.9398681E-01
        -11   -1    0    0    0    0  0.00000000000E+00  0.00000000000E+00  0.50000000000E+03  0.50000000000E+03  0.00000000000E+00 0.  1.
         11   -1    0    0    0    0 -0.00000000000E+00 -0.00000000000E+00 -0.50000000000E+03  0.50000000000E+03  0.00000000000E+00 0.  1.
        -11    1    1    2    0    0 -0.40179746746E+01 -0.19528482262E+01  0.22382033809E+03  0.22386491793E+03  0.00000000000E+00 0.  1.
         11    1    1    2    0    0  0.34955313474E+01  0.80270331196E+01 -0.49941867696E+03  0.49949541229E+03  0.00000000000E+00 0.  1.
        -15    1    1    2    0    0  0.46431687065E+01 -0.94573882355E+01  0.25672790939E+03  0.25695014768E+03  0.17770000000E+01 0.  1.
         15    1    1    2    0    0 -0.41207253793E+01  0.33832033421E+01  0.18870429479E+02  0.19689522092E+02  0.17770000000E+01 0. -1.
</event>
<event>
 6    1  0.3411206E-003  0.5000887E+03  0.7546771E-02  0.9399611E-01
        -11   -1    0    0    0    0  0.00000000000E+00  0.00000000000E+00  0.50000000000E+03  0.50000000000E+03  0.00000000000E+00 0.  1.
         11   -1    0    0    0    0 -0.00000000000E+00 -0.00000000000E+00 -0.50000000000E+03  0.50000000000E+03  0.00000000000E+00 0.  1.
        -11    1    1    2    0    0 -0.60217313918E+01 -0.82578766484E+01  0.49980678472E+03  0.49991126795E+03  0.00000000000E+00 0.  1.
         11    1    1    2    0    0 -0.60731679764E+00  0.10705476254E-01 -0.18258357230E+02  0.18268457982E+02  0.00000000000E+00 0.  1.
        -15    1    1    2    0    0  0.89609216990E+01  0.78533147174E+01 -0.44081098272E+03  0.44097556948E+03  0.17770000000E+01 0.  1.
         15    1    1    2    0    0 -0.23318735096E+01  0.39385645478E+00 -0.40737444771E+02  0.40844704583E+02  0.17770000000E+01 0.  1.
</event>
<event>
 6    1  0.3411206E-003  0.5026986E+03  0.7546771E-02  0.9393791E-01
        -11   -1    0    0    0    0  0.00000000000E+00  0.00000000000E+00  0.50000000000E+03  0.50000000000E+03  0.00000000000E+00 0. -1.
         11   -1    0    0    0    0 -0.00000000000E+00 -0.00000000000E+00 -0.50000000000E+03  0.50000000000E+03  0.00000000000E+00 0.  1.
        -11    1    1    2    0    0 -0.99766649951E+01  0.11324512961E+02  0.49707228757E+03  0.49730135482E+03  0.00000000000E+00 0. -1.
         11    1    1    2    0    0  0.20993624875E+02  0.62672709245E+01 -0.32489905088E+03  0.32563692087E+03  0.00000000000E+00 0.  1.
        -15    1    1    2    0    0 -0.85936698926E+01 -0.20429367432E+02 -0.17142572168E+03  0.17286163831E+03  0.17770000000E+01 0.  1.
         15    1    1    2    0    0 -0.24232899871E+01  0.28375835468E+01 -0.74751500796E+00  0.42000860031E+01  0.17770000000E+01 0. -1.
</event>
<event>
 6    1  0.3411206E-003  0.5103326E+03  0.7546771E-02  0.9376982E-01
        -11   -1    0    0    0    0  0.00000000000E+00  0.00000000000E+00  0.50000000000E+03  0.50000000000E+03  0.00000000000E+00 0. -1.
         11   -1    0    0    0    0 -0.00000000000E+00 -0.00000000000E+00 -0.50000000000E+03  0.50000000000E+03  0.00000000000E+00 0.  1.
        -11    1    1    2    0    0  0.28730763416E+00 -0.19241406347E+02  0.48928913958E+03  0.48966741404E+03  0.00000000000E+00 0. -1.
         11    1    1    2    0    0  0.13652502607E+02  0.19572626653E+02 -0.43423709588E+03  0.43489232458E+03  0.00000000000E+00 0.  1.
        -15    1    1    2    0    0  0.81272990511E+01  0.13911497980E+02 -0.21509267424E+01  0.16351360211E+02  0.17770000000E+01 0. -1.
         15    1    1    2    0    0 -0.22067109292E+02 -0.14242718285E+02 -0.52901116959E+02  0.59088901167E+02  0.17770000000E+01 0.  1.
</event>
<event>
 6    1  0.3411206E-003  0.4871020E+03  0.7546771E-02  0.9429142E-01
        -11   -1    0    0    0    0  0.00000000000E+00  0.00000000000E+00  0.50000000000E+03  0.50000000000E+03  0.00000000000E+00 0. -1.
         11   -1    0    0    0    0 -0.00000000000E+00 -0.00000000000E+00 -0.50000000000E+03  0.50000000000E+03  0.00000000000E+00 0.  1.
        -11    1    1    2    0    0 -0.61569053019E+01  0.54520067717E+01  0.48956094706E+03  0.48963001618E+03  0.00000000000E+00 0. -1.
         11    1    1    2    0    0  0.64299321106E+01  0.47732740704E+01 -0.48457433873E+03  0.48464050380E+03  0.00000000000E+00 0.  1.
        -15    1    1    2    0    0 -0.17334784229E+01 -0.46427423884E+01  0.90384462533E+01  0.10459982983E+02  0.17770000000E+01 0. -1.
         15    1    1    2    0    0  0.14604516142E+01 -0.55825384538E+01 -0.14025054585E+02  0.15269497032E+02  0.17770000000E+01 0.  1.
</event>
<event>
 6    1  0.3411206E-003  0.5306146E+03  0.7546771E-02  0.9333798E-01
        -11   -1    0    0    0    0  0.00000000000E+00  0.00000000000E+00  0.50000000000E+03  0.50000000000E+03  0.00000000000E+00 0.  1.
         11   -1    0    0    0    0 -0.00000000000E+00 -0.00000000000E+00 -0.50000000000E+03  0.50000000000E+03  0.00000000000E+00 0. -1.
        -11    1    1    2    0    0  0.32310975011E+02 -0.48672002441E+02  0.31332757960E+03  0.31872736793E+03  0.00000000000E+00 0.  1.
         11    1    1    2    0    0 -0.41934470448E+01 -0.17509687926E+02 -0.46903999348E+03  0.46938543826E+03  0.00000000000E+00 0. -1.
        -15    1    1    2    0    0 -0.28528200458E+02  0.27022317776E+02 -0.10825783014E+02  0.40797293859E+02  0.17770000000E+01 0. -1.
         15    1    1    2    0    0  0.41067249176E+00  0.39159372591E+02  0.16653819689E+03  0.17108989996E+03  0.17770000000E+01 0.  1.
</event>
<event>
 6    1  0.3411206E-003  0.5107841E+03  0.7546771E-02  0.9375998E-01
        -11   -1    0    0    0    0  0.00000000000E+00  0.00000000000E+00  0.50000000000E+03  0.50000000000E+03  0.00000000000E+00 0.  1.
         11   -1    0    0    0    0 -0.00000000000E+00 -0.00000000000E+00 -0.50000000000E+03  0.50000000000E+03  0.00000000000E+00 0. -1.
        -11    1    1    2    0    0 -0.97793900292E+01  0.18729834645E+00  0.48911809916E+03  0.48921588943E+03  0.00000000000E+00 0.  1.
         11    1    1    2    0    0 -0.18719132254E+02  0.10720617546E+02 -0.41679706766E+03  0.41735492469E+03  0.00000000000E+00 0. -1.
        -15    1    1    2    0    0  0.11365795552E+02  0.36017913593E+01  0.48839739839E+01  0.13006350003E+02  0.17770000000E+01 0.  1.
         15    1    1    2    0    0  0.17132726731E+02 -0.14509707252E+02 -0.77205005477E+02  0.80422835870E+02  0.17770000000E+01 0. -1.
</event>
<event>
 6    1  0.3411206E-003  0.5021117E+03  0.7546771E-02  0.9395097E-01
        -11   -1    0    0    0    0  0.00000000000E+00  0.00000000000E+00  0.50000000000E+03  0.50000000000E+03  0.00000000000E+00 0. -1.
         11   -1    0    0    0    0 -0.00000000000E+00 -0.00000000000E+00 -0.50000000000E+03  0.50000000000E+03  0.00000000000E+00 0.  1.
        -11    1    1    2    0    0  0.31440672106E+01 -0.83625285712E+01  0.49780811936E+03  0.49788828139E+03  0.00000000000E+00 0. -1.
         11    1    1    2    0    0 -0.49092886277E+01  0.46604696751E+01 -0.48671940007E+03  0.48676646916E+03  0.00000000000E+00 0.  1.
        -15    1    1    2    0    0 -0.97457869055E+00  0.61392889663E+01 -0.59445061845E+01  0.87826849775E+01  0.17770000000E+01 0. -1.
         15    1    1    2    0    0  0.27398001076E+01 -0.24372300702E+01 -0.51442131031E+01  0.65625644755E+01  0.17770000000E+01 0.  1.
</event>
<event>
 6    1  0.3411206E-003  0.5005437E+03  0.7546771E-02  0.9398594E-01
        -11   -1    0    0    0    0  0.00000000000E+00  0.00000000000E+00  0.50000000000E+03  0.50000000000E+03  0.00000000000E+00 0.  1.
         11   -1    0    0    0    0 -0.00000000000E+00 -0.00000000000E+00 -0.50000000000E+03  0.50000000000E+03  0.00000000000E+00 0.  1.
        -11    1    1    2    0    0 -0.39054324199E+01 -0.20318973805E+01  0.23925633100E+02  0.24327287736E+02  0.00000000000E+00 0.  1.
         11    1    1    2    0    0  0.34907251987E+01 -0.62278826885E+01 -0.49940524023E+03  0.49945627001E+03  0.00000000000E+00 0.  1.
        -15    1    1    2    0    0 -0.67758194009E+01 -0.44137125421E+01  0.72788187380E+02  0.73257563009E+02  0.17770000000E+01 0. -1.
         15    1    1    2    0    0  0.71905266221E+01  0.12673492611E+02  0.40269141975E+03  0.40295887924E+03  0.17770000000E+01 0.  1.
</event>
<event>
 6    1  0.3411206E-003  0.5076232E+03  0.7546771E-02  0.9382912E-01
        -11   -1    0    0    0    0  0.00000000000E+00  0.00000000000E+00  0.50000000000E+03  0.50000000000E+03  0.00000000000E+00 0. -1.
         11   -1    0    0    0    0 -0.00000000000E+00 -0.00000000000E+00 -0.50000000000E+03  0.50000000000E+03  0.00000000000E+00 0. -1.
        -11    1    1    2    0    0 -0.14171105370E+01  0.69658393690E+01  0.44145183537E+03  0.44150906454E+03  0.00000000000E+00 0. -1.
         11    1    1    2    0    0 -0.16222484706E+02  0.11970766542E+02 -0.49196382702E+03  0.49237676160E+03  0.00000000000E+00 0. -1.
        -15    1    1    2    0    0  0.56566081195E+01  0.22243536524E+01  0.38344268906E+02  0.38863680365E+02  0.17770000000E+01 0.  1.
         15    1    1    2    0    0  0.11982987124E+02 -0.21160959563E+02  0.12167722745E+02  0.27250493497E+02  0.17770000000E+01 0. -1.
</event>
<event>
 6    1  0.3411206E-003  0.2796457E+03  0.7546771E-02  0.1009921E+00
        -11   -1    0    0    0    0  0.00000000000E+00  0.00000000000E+00  0.50000000000E+03  0.50000000000E+03  0.00000000000E+00 0.  1.
         11   -1    0    0    0    0 -0.00000000000E+00 -0.00000000000E+00 -0.50000000000E+03  0.50000000000E+03  0.00000000000E+00 0.  1.
        -11    1    1    2    0    0  0.96155401550E+02 -0.73305205908E+02  0.29726224046E+03  0.32091175433E+03  0.00000000000E+00 0.  1.
         11    1    1    2    0    0 -0.51369222120E+02 -0.72470094868E+02 -0.17899587473E+03  0.19982551089E+03  0.00000000000E+00 0.  1.
        -15    1    1    2    0    0 -0.10489268689E+03 -0.12723124765E+03  0.22224239146E+02  0.16639513417E+03  0.17770000000E+01 0.  1.
         15    1    1    2    0    0  0.60106507456E+02  0.27300654843E+03 -0.14049060488E+03  0.31286760061E+03  0.17770000000E+01 0. -1.
</event>
<event>
 6    1  0.3411206E-003  0.5054251E+03  0.7546771E-02  0.9387752E-01
        -11   -1    0    0    0    0  0.00000000000E+00  0.00000000000E+00  0.50000000000E+03  0.50000000000E+03  0.00000000000E+00 0.  1.
         11   -1    0    0    0    0 -0.00000000000E+00 -0.00000000000E+00 -0.50000000000E+03  0.50000000000E+03  0.00000000000E+00 0. -1.
        -11    1    1    2    0    0  0.63863795448E+01 -0.54455821176E+01  0.45639337459E+03  0.45647053856E+03  0.00000000000E+00 0.  1.
         11    1    1    2    0    0 -0.60396691963E+01 -0.64140913633E+01 -0.49449646222E+03  0.49457493802E+03  0.00000000000E+00 0. -1.
        -15    1    1    2    0    0 -0.42458950689E+01  0.54915518107E+01  0.40330673076E+02  0.40962247082E+02  0.17770000000E+01 0. -1.
         15    1    1    2    0    0  0.38991847204E+01  0.63681216703E+01 -0.22275854413E+01  0.79922763334E+01  0.17770000000E+01 0. -1.
</event>
<event>
 6    1  0.3411206E-003  0.5017667E+03  0.7546771E-02  0.9395865E-01
        -11   -1    0    0    0    0  0.00000000000E+00  0.00000000000E+00  0.50000000000E+03  0.50000000000E+03  0.00000000000E+00 0.  1.
         11   -1    0    0    0    0 -0.00000000000E+00 -0.00000000000E+00 -0.50000000000E+03  0.50000000000E+03  0.00000000000E+00 0. -1.
        -11    1    1    2    0    0  0.14724317959E+02 -0.16410149172E+01  0.49801301581E+03  0.49823334130E+03  0.00000000000E+00 0.  1.
         11    1    1    2    0    0 -0.40744102438E+01  0.21873156557E+01 -0.25533324064E+03  0.25537511419E+03  0.00000000000E+00 0. -1.
        -15    1    1    2    0    0  0.17519526719E+01  0.96293402058E+01 -0.14173021847E+02  0.17315478863E+02  0.17770000000E+01 0.  1.
         15    1    1    2    0    0 -0.12401860387E+02 -0.10175640944E+02 -0.22850675332E+03  0.22907606565E+03  0.17770000000E+01 0. -1.
</event>
<event>
 6    1  0.3411206E-003  0.5009731E+03  0.7546771E-02  0.9397635E-01
        -11   -1    0    0    0    0  0.00000000000E+00  0.00000000000E+00  0.50000000000E+03  0.50000000000E+03  0.00000000000E+00 0. -1.
         11   -1    0    0    0    0 -0.00000000000E+00 -0.00000000000E+00 -0.50000000000E+03  0.50000000000E+03  0.00000000000E+00 0.  1.
        -11    1    1    2    0    0 -0.49643010805E+01 -0.12419592615E+02  0.49884761659E+03  0.49902688820E+03  0.00000000000E+00 0. -1.
         11    1    1    2    0    0 -0.69869692537E+01 -0.53440091646E+01 -0.15370878802E+03  0.15396027958E+03  0.00000000000E+00 0.  1.
        -15    1    1    2    0    0  0.13466017647E+01  0.30957191650E+01 -0.25645437324E+03  0.25648274815E+03  0.17770000000E+01 0.  1.
         15    1    1    2    0    0  0.10604668569E+02  0.14667882615E+02 -0.88684455335E+02  0.90530084077E+02  0.17770000000E+01 0. -1.
</event>
<event>
 6    1  0.3411206E-003  0.5088436E+03  0.7546771E-02  0.9380236E-01
        -11   -1    0    0    0    0  0.00000000000E+00  0.00000000000E+00  0.50000000000E+03  0.50000000000E+03  0.00000000000E+00 0. -1.
         11   -1    0    0    0    0 -0.00000000000E+00 -0.00000000000E+00 -0.50000000000E+03  0.50000000000E+03  0.00000000000E+00 0.  1.
        -11    1    1    2    0    0 -0.27760110787E+01  0.10652487271E+02  0.45877125003E+03  0.45890330307E+03  0.00000000000E+00 0. -1.
         11    1    1    2    0    0 -0.86182080824E+01  0.11717885034E+02 -0.49094092546E+03  0.49115636475E+03  0.00000000000E+00 0.  1.
        -15    1    1    2    0    0  0.31932810060E+01 -0.24182236261E+01 -0.51721108168E+01  0.67788869581E+01  0.17770000000E+01 0.  1.
         15    1    1    2    0    0  0.82009381550E+01 -0.19952148678E+02  0.37341786255E+02  0.43161445217E+02  0.17770000000E+01 0. -1.
</event>
<event>
 6    1  0.3411206E-003  0.5098669E+03  0.7546771E-02  0.9377999E-01
        -11   -1    0    0    0    0  0.00000000000E+00  0.00000000000E+00  0.50000000000E+03  0.50000000000E+03  0.00000000000E+00 0. -1.
         11   -1    0    0    0    0 -0.00000000000E+00 -0.00000000000E+00 -0.50000000000E+03  0.50000000000E+03  0.00000000000E+00 0.  1.
        -11    1    1    2    0    0  0.73720133493E+01  0.24691875562E+01  0.39801113969E+03  0.39808706433E+03  0.00000000000E+00 0. -1.
         11    1    1    2    0    0 -0.60756128453E+01  0.15491667590E+02 -0.48985056938E+03  0.49013313004E+03  0.00000000000E+00 0.  1.
        -15    1    1    2    0    0 -0.17591979013E+02 -0.19298472580E+02  0.95479316382E+01  0.27860895483E+02  0.17770000000E+01 0.  1.
         15    1    1    2    0    0  0.16295578509E+02  0.13376174347E+01  0.82291498059E+02  0.83918910152E+02  0.17770000000E+01 0. -1.
</event>
<event>
 6    1  0.3411206E-003  0.5983384E+03  0.7546771E-02  0.9203210E-01
        -11   -1    0    0    0    0  0.00000000000E+00  0.00000000000E+00  0.50000000000E+03  0.50000000000E+03  0.00000000000E+00 0. -1.
         11   -1    0    0    0    0 -0.00000000000E+00 -0.00000000000E+00 -0.50000000000E+03  0.50000000000E+03  0.00000000000E+00 0. -1.
        -11    1    1    2    0    0 -0.69999652789E+01 -0.59871462583E+00  0.40160016832E+03  0.40166161525E+03  0.00000000000E+00 0. -1.
         11    1    1    2    0    0 -0.11195927026E+02  0.50416472161E+01 -0.30197263290E+03  0.30222216664E+03  0.00000000000E+00 0. -1.
        -15    1    1    2    0    0  0.97674291951E+01 -0.25076429693E+01 -0.19754066791E+03  0.19780587492E+03  0.17770000000E+01 0.  1.
         15    1    1    2    0    0  0.84284631099E+01 -0.19352896210E+01  0.97913132488E+02  0.98310343194E+02  0.17770000000E+01 0. -1.
</event>
<event>
 6    1  0.3411206E-003  0.5180903E+03  0.7546771E-02  0.9360217E-01
        -11   -1    0    0    0    0  0.00000000000E+00  0.00000000000E+00  0.50000000000E+03  0.50000000000E+03  0.00000000000E+00 0. -1.
         11   -1    0    0    0    0 -0.00000000000E+00 -0.00000000000E+00 -0.50000000000E+03  0.50000000000E+03  0.00000000000E+00 0. -1.
        -11    1    1    2    0    0 -0.58876960947E+01  0.28106140404E+02  0.48105335949E+03  0.48190969566E+03  0.00000000000E+00 0. -1.
         11    1    1    2    0    0 -0.32304052103E+01 -0.19197820258E+02 -0.45128135961E+03  0.45170107079E+03  0.00000000000E+00 0. -1.
        -15    1    1    2    0    0 -0.14243224027E+02  0.10335908038E+02 -0.31386273687E+02  0.36027161013E+02  0.17770000000E+01 0.  1.
         15    1    1    2    0    0  0.23361325332E+02 -0.19244228184E+02  0.16142738029E+01  0.30362072535E+02  0.17770000000E+01 0. -1.
</event>
<event>
 6    1  0.3411206E-003  0.5036973E+03  0.7546771E-02  0.9391575E-01
        -11   -1    0    0    0    0  0.00000000000E+00  0.00000000000E+00  0.50000000000E+03  0.50000000000E+03  0.00000000000E+00 0. -1.
         11   -1    0    0    0    0 -0.00000000000E+00 -0.00000000000E+00 -0.50000000000E+03  0.50000000000E+03  0.00000000000E+00 0. -1.
        -11    1    1    2    0    0 -0.13683490540E+02  0.53619088697E+01  0.49608507977E+03  0.49630272450E+03  0.00000000000E+00 0. -1.
         11    1    1    2    0    0 -0.83860697536E+01  0.21651848293E+01 -0.44141097739E+03  0.44149594013E+03  0.00000000000E+00 0. -1.
        -15    1    1    2    0    0  0.20157922330E+02 -0.12673522507E+02 -0.44747066489E+02  0.50719007224E+02  0.17770000000E+01 0. -1.
         15    1    1    2    0    0  0.19116379635E+01  0.51464288084E+01 -0.99270358884E+01  0.11482328149E+02  0.17770000000E+01 0.  1.
</event>
<event>
 6    1  0.3411206E-003  0.5081446E+03  0.7546771E-02  0.9381768E-01
        -11   -1    0    0    0    0  0.00000000000E+00  0.00000000000E+00  0.50000000000E+03  0.50000000000E+03  0.00000000000E+00 0. -1.
         11   -1    0    0    0    0 -0.00000000000E+00 -0.00000000000E+00 -0.50000000000E+03  0.50000000000E+03  0.00000000000E+00 0.  1.
        -11    1    1    2    0    0  0.83602562467E+01 -0.65838676592E+01  0.49174031077E+03  0.49185544059E+03  0.00000000000E+00 0. -1.
         11    1    1    2    0    0 -0.14640686218E+02 -0.95182854686E+00 -0.43810539076E+03  0.43835098846E+03  0.00000000000E+00 0.  1.
        -15    1    1    2    0    0 -0.37070849425E+01  0.21418324147E+02 -0.46144462102E+02  0.51038771534E+02  0.17770000000E+01 0.  1.
         15    1    1    2    0    0  0.99875149139E+01 -0.13882627941E+02 -0.74904579101E+01  0.18754799423E+02  0.17770000000E+01 0. -1.
</event>
<event>
 6    1  0.3411206E-003  0.5006620E+03  0.7546771E-02  0.9398330E-01
        -11   -1    0    0    0    0  0.00000000000E+00  0.00000000000E+00  0.50000000000E+03  0.50000000000E+03  0.00000000000E+00 0.  1.
         11   -1    0    0    0    0 -0.00000000000E+00 -0.00000000000E+00 -0.50000000000E+03  0.50000000000E+03  0.00000000000E+00 0. -1.
        -11    1    1    2    0    0  0.10379994887E+02  0.77507601847E+01  0.49916990700E+03  0.49933797636E+03  0.00000000000E+00 0.  1.
         11    1    1    2    0    0  0.20191115247E+01 -0.59876789442E+01 -0.27219443899E+03  0.27226777578E+03  0.00000000000E+00 0. -1.
        -15    1    1    2    0    0 -0.90217855493E+01  0.61164473201E+01 -0.50122945471E+02  0.51325149137E+02  0.17770000000E+01 0.  1.
         15    1    1    2    0    0 -0.33773208625E+01 -0.78795285606E+01 -0.17685252254E+03  0.17706909873E+03  0.17770000000E+01 0. -1.
</event>
<event>
 6    1  0.3411206E-003  0.5008986E+03  0.7546771E-02  0.9397801E-01
        -11   -1    0    0    0    0  0.00000000000E+00  0.00000000000E+00  0.50000000000E+03  0.50000000000E+03  0.00000000000E+00 0.  1.
         11   -1    0    0    0    0 -0.00000000000E+00 -0.00000000000E+00 -0.50000000000E+03  0.50000000000E+03  0.00000000000E+00 0.  1.
        -11    1    1    2    0    0 -0.69691016452E+01 -0.20292900826E+01  0.35875884629E+03  0.35883226748E+03  0.00000000000E+00 0.  1.
         11    1    1    2    0    0  0.79760432309E+01  0.13455758478E+02 -0.49885621793E+03  0.49910139338E+03  0.00000000000E+00 0.  1.
        -15    1    1    2    0    0  0.57827955159E+01  0.14995674322E+01  0.78091081562E+02  0.78339416484E+02  0.17770000000E+01 0. -1.
         15    1    1    2    0    0 -0.67897371016E+01 -0.12926035828E+02  0.62006290082E+02  0.63726922653E+02  0.17770000000E+01 0.  1.
</event>
<event>
 6    1  0.3411206E-003  0.4922222E+03  0.7546771E-02  0.9417383E-01
        -11   -1    0    0    0    0  0.00000000000E+00  0.00000000000E+00  0.50000000000E+03  0.50000000000E+03  0.00000000000E+00 0. -1.
         11   -1    0    0    0    0 -0.00000000000E+00 -0.00000000000E+00 -0.50000000000E+03  0.50000000000E+03  0.00000000000E+00 0.  1.
        -11    1    1    2    0    0  0.63368219155E-01 -0.99659930588E+00  0.17006368666E+02  0.17035662620E+02  0.00000000000E+00 0. -1.
         11    1    1    2    0    0 -0.31533578314E+02 -0.25308184874E+02 -0.49746340106E+03  0.49910390319E+03  0.00000000000E+00 0.  1.
        -15    1    1    2    0    0  0.33851005865E+02  0.28531986627E+02  0.28981900766E+03  0.29318625443E+03  0.17770000000E+01 0. -1.
         15    1    1    2    0    0 -0.23807957711E+01 -0.22272024473E+01  0.19063802474E+03  0.19067417975E+03  0.17770000000E+01 0. -1.
</event>
<event>
 6    1  0.3411206E-003  0.5034392E+03  0.7546771E-02  0.9392147E-01
        -11   -1    0    0    0    0  0.00000000000E+00  0.00000000000E+00  0.50000000000E+03  0.50000000000E+03  0.00000000000E+00 0.  1.
         11   -1    0    0    0    0 -0.00000000000E+00 -0.00000000000E+00 -0.50000000000E+03  0.50000000000E+03  0.00000000000E+00 0. -1.
        -11    1    1    2    0    0 -0.64441746595E+01 -0.31174461526E+01  0.49650919393E+03  0.49656079740E+03  0.00000000000E+00 0.  1.
         11    1    1    2    0    0 -0.82993956477E+01  0.28142529692E+01 -0.44383048625E+03  0.44391699733E+03  0.00000000000E+00 0. -1.
        -15    1    1    2    0    0  0.16055088821E+01  0.38750558380E+01  0.51557230728E+00  0.45844585636E+01  0.17770000000E+01 0.  1.
         15    1    1    2    0    0  0.13138061425E+02 -0.35718626546E+01 -0.53194279987E+02  0.54937746706E+02  0.17770000000E+01 0. -1.
</event>
<event>
 6    1  0.3411206E-003  0.5162522E+03  0.7546771E-02  0.9364161E-01
        -11   -1    0    0    0    0  0.00000000000E+00  0.00000000000E+00  0.50000000000E+03  0.50000000000E+03  0.00000000000E+00 0.  1.
         11   -1    0    0    0    0 -0.00000000000E+00 -0.00000000000E+00 -0.50000000000E+03  0.50000000000E+03  0.00000000000E+00 0.  1.
        -11    1    1    2    0    0 -0.13705567764E+01 -0.74279451118E+01  0.48368879672E+03  0.48374776988E+03  0.00000000000E+00 0.  1.
         11    1    1    2    0    0  0.48822508773E+01 -0.52950924485E+01 -0.47443414610E+03  0.47448881269E+03  0.00000000000E+00 0.  1.
        -15    1    1    2    0    0 -0.45089447075E+01  0.57786421199E+01  0.14817727018E+02  0.16626666837E+02  0.17770000000E+01 0. -1.
         15    1    1    2    0    0  0.99725060659E+00  0.69443954403E+01 -0.24072377630E+02  0.25136750597E+02  0.17770000000E+01 0.  1.
</event>
<event>
 6    1  0.3411206E-003  0.5003436E+03  0.7546771E-02  0.9399041E-01
        -11   -1    0    0    0    0  0.00000000000E+00  0.00000000000E+00  0.50000000000E+03  0.50000000000E+03  0.00000000000E+00 0. -1.
         11   -1    0    0    0    0 -0.00000000000E+00 -0.00000000000E+00 -0.50000000000E+03  0.50000000000E+03  0.00000000000E+00 0.  1.
        -11    1    1    2    0    0 -0.45265815173E+01  0.49476292753E+01  0.28932383992E+03  0.28940154340E+03  0.00000000000E+00 0. -1.
         11    1    1    2    0    0  0.93871528376E+01  0.19359264958E+01 -0.49956448317E+03  0.49965642125E+03  0.00000000000E+00 0.  1.
        -15    1    1    2    0    0  0.88922541123E+00 -0.95959310900E+00  0.15861081859E+03  0.15862616759E+03  0.17770000000E+01 0. -1.
         15    1    1    2    0    0 -0.57497967315E+01 -0.59239626622E+01  0.51629824657E+02  0.52315867757E+02  0.17770000000E+01 0.  1.
</event>
<event>
 6    1  0.3411206E-003  0.5023547E+03  0.7546771E-02  0.9394556E-01
        -11   -1    0    0    0    0  0.00000000000E+00  0.00000000000E+00  0.50000000000E+03  0.50000000000E+03  0.00000000000E+00 0. -1.
         11   -1    0    0    0    0 -0.00000000000E+00 -0.00000000000E+00 -0.50000000000E+03  0.50000000000E+03  0.00000000000E+00 0.  1.
        -11    1    1    2    0    0 -0.51266958936E+01 -0.16831987130E+00  0.36688427437E+03  0.36692013044E+03  0.00000000000E+00 0. -1.
         11    1    1    2    0    0 -0.15744867601E+02  0.80569092867E+01 -0.49733085911E+03  0.49764525323E+03  0.00000000000E+00 0.  1.
        -15    1    1    2    0    0  0.25951352479E+02 -0.10275188171E+02  0.82146010499E+02  0.86776592221E+02  0.17770000000E+01 0.  1.
         15    1    1    2    0    0 -0.50797889850E+01  0.23865987554E+01  0.48300574241E+02  0.48658024115E+02  0.17770000000E+01 0. -1.
</event>
<event>
 6    1  0.3411206E-003  0.5039996E+03  0.7546771E-02  0.9390905E-01
        -11   -1    0    0    0    0  0.00000000000E+00  0.00000000000E+00  0.50000000000E+03  0.50000000000E+03  0.00000000000E+00 0.  1.
         11   -1    0    0    0    0 -0.00000000000E+00 -0.00000000000E+00 -0.50000000000E+03  0.50000000000E+03  0.00000000000E+00 0.  1.
        -11    1    1    2    0    0 -0.80404979852E+01 -0.21306160753E+01  0.43657251375E+03  0.43665174784E+03  0.00000000000E+00 0.  1.
         11    1    1    2    0    0 -0.93932686228E+01  0.50003943347E+01 -0.49588627359E+03  0.49600043727E+03  0.00000000000E+00 0.  1.
        -15    1    1    2    0    0  0.10352283780E+02 -0.11076662245E+01  0.58885206958E+02  0.59824928177E+02  0.17770000000E+01 0. -1.
         15    1    1    2    0    0  0.70814828283E+01 -0.17621120348E+01  0.42855288353E+00  0.75228867095E+01  0.17770000000E+01 0.  1.
</event>
<event>
 6    1  0.3411206E-003  0.5029088E+03  0.7546771E-02  0.9393324E-01
        -11   -1    0    0    0    0  0.00000000000E+00  0.00000000000E+00  0.50000000000E+03  0.50000000000E+03  0.00000000000E+00 0. -1.
         11   -1    0    0    0    0 -0.00000000000E+00 -0.00000000000E+00 -0.50000000000E+03  0.50000000000E+03  0.00000000000E+00 0.  1.
        -11    1    1    2    0    0 -0.97341933559E+01 -0.10859886248E+01  0.45199417619E+03  0.45210028667E+03  0.00000000000E+00 0. -1.
         11    1    1    2    0    0  0.41248830116E+01 -0.11505757475E+02 -0.49694087235E+03  0.49709116641E+03  0.00000000000E+00 0.  1.
        -15    1    1    2    0    0  0.52134759247E+00 -0.79549683032E+00 -0.12759461078E+01  0.23854529945E+01  0.17770000000E+01 0.  1.
         15    1    1    2    0    0  0.50879627518E+01  0.13387242930E+02  0.46222642264E+02  0.48423093923E+02  0.17770000000E+01 0. -1.
</event>
<event>
 6    1  0.3411206E-003  0.4729330E+03  0.7546771E-02  0.9462498E-01
        -11   -1    0    0    0    0  0.00000000000E+00  0.00000000000E+00  0.50000000000E+03  0.50000000000E+03  0.00000000000E+00 0.  1.
         11   -1    0    0    0    0 -0.00000000000E+00 -0.00000000000E+00 -0.50000000000E+03  0.50000000000E+03  0.00000000000E+00 0.  1.
        -11    1    1    2    0    0  0.52376615608E+01 -0.10364872917E+02  0.48031276793E+03  0.48045313895E+03  0.00000000000E+00 0.  1.
         11    1    1    2    0    0  0.75444368844E+01 -0.23551816183E+02 -0.46556546956E+03  0.46622184957E+03  0.00000000000E+00 0.  1.
        -15    1    1    2    0    0 -0.10532211077E+02  0.27696869282E+02  0.70215963773E+01  0.30504173205E+02  0.17770000000E+01 0.  1.
         15    1    1    2    0    0 -0.22498873684E+01  0.62198198169E+01 -0.21768894750E+02  0.22820838270E+02  0.17770000000E+01 0. -1.
</event>
<event>
 6    1  0.3411206E-003  0.5014727E+03  0.7546771E-02  0.9396520E-01
        -11   -1    0    0    0    0  0.00000000000E+00  0.00000000000E+00  0.50000000000E+03  0.50000000000E+03  0.00000000000E+00 0.  1.
         11   -1    0    0    0    0 -0.00000000000E+00 -0.00000000000E+00 -0.50000000000E+03  0.50000000000E+03  0.00000000000E+00 0. -1.
        -11    1    1    2    0    0 -0.10688239723E+01 -0.58215775964E+01  0.23483092755E+03  0.23490550799E+03  0.00000000000E+00 0.  1.
         11    1    1    2    0    0 -0.19596668941E+02  0.82765208294E+01 -0.49807317954E+03  0.49852725342E+03  0.00000000000E+00 0. -1.
        -15    1    1    2    0    0  0.82629872008E+01 -0.13134878262E+02  0.43679593092E+02  0.46388215811E+02  0.17770000000E+01 0.  1.
         15    1    1    2    0    0  0.12402505712E+02  0.10679935029E+02  0.21956265890E+03  0.22017902278E+03  0.17770000000E+01 0. -1.
</event>
<event>
 6    1  0.3411206E-003  0.5096432E+03  0.7546771E-02  0.9378487E-01
        -11   -1    0    0    0    0  0.00000000000E+00  0.00000000000E+00  0.50000000000E+03  0.50000000000E+03  0.00000000000E+00 0. -1.
         11   -1    0    0    0    0 -0.00000000000E+00 -0.00000000000E+00 -0.50000000000E+03  0.50000000000E+03  0.00000000000E+00 0.  1.
        -11    1    1    2    0    0  0.11713051877E+02 -0.17870020126E+02  0.48989104360E+03  0.49035677603E+03  0.00000000000E+00 0. -1.
         11    1    1    2    0    0 -0.53839156646E+01 -0.65329180329E+01 -0.47084129171E+03  0.47091738930E+03  0.00000000000E+00 0.  1.
        -15    1    1    2    0    0 -0.43091034881E+01  0.26522242704E+02 -0.21546269112E+02  0.34487637967E+02  0.17770000000E+01 0. -1.
         15    1    1    2    0    0 -0.20200327239E+01 -0.21193045446E+01  0.24965172283E+01  0.42381966955E+01  0.17770000000E+01 0.  1.
</event>
<event>
 6    1  0.3411206E-003  0.5046798E+03  0.7546771E-02  0.9389399E-01
        -11   -1    0    0    0    0  0.00000000000E+00  0.00000000000E+00  0.50000000000E+03  0.50000000000E+03  0.00000000000E+00 0.  1.
         11   -1    0    0    0    0 -0.00000000000E+00 -0.00000000000E+00 -0.50000000000E+03  0.50000000000E+03  0.00000000000E+00 0. -1.
        -11    1    1    2    0    0 -0.29090807440E+01 -0.83393195724E+01  0.48727468828E+03  0.48735472588E+03  0.00000000000E+00 0.  1.
         11    1    1    2    0    0  0.10511590343E+02 -0.25101899373E+01 -0.49520229566E+03  0.49532020776E+03  0.00000000000E+00 0. -1.
        -15    1    1    2    0    0  0.40775735525E+00  0.10686891149E+01  0.29356028227E+01  0.36171612375E+01  0.17770000000E+01 0.  1.
         15    1    1    2    0    0 -0.80102669546E+01  0.97808203948E+01  0.49920045596E+01  0.13707905121E+02  0.17770000000E+01 0. -1.
</event>
<event>
 6    1  0.3411206E-003  0.5447438E+03  0.7546771E-02  0.9304907E-01
        -11   -1    0    0    0    0  0.00000000000E+00  0.00000000000E+00  0.50000000000E+03  0.50000000000E+03  0.00000000000E+00 0. -1.
         11   -1    0    0    0    0 -0.00000000000E+00 -0.00000000000E+00 -0.50000000000E+03  0.50000000000E+03  0.00000000000E+00 0. -1.
        -11    1    1    2    0    0  0.62128523753E+01 -0.76014258898E+01  0.26118210109E+03  0.26136654557E+03  0.00000000000E+00 0. -1.
         11    1    1    2    0    0 -0.78914399530E+01  0.14653840632E+02 -0.45495185488E+03  0.45525619175E+03  0.00000000000E+00 0. -1.
        -15    1    1    2    0    0  0.46513422125E+02  0.10828784336E+02 -0.28685535624E+02  0.55738484829E+02  0.17770000000E+01 0.  1.
         15    1    1    2    0    0 -0.44834834547E+02 -0.17881199078E+02  0.22245528941E+03  0.22763877786E+03  0.17770000000E+01 0. -1.
</event>
<event>
 6    1  0.3411206E-003  0.5147498E+03  0.7546771E-02  0.9367398E-01
        -11   -1    0    0    0    0  0.00000000000E+00  0.00000000000E+00  0.50000000000E+03  0.50000000000E+03  0.00000000000E+00 0. -1.
         11   -1    0    0    0    0 -0.00000000000E+00 -0.00000000000E+00 -0.50000000000E+03  0.50000000000E+03  0.00000000000E+00 0.  1.
        -11    1    1    2    0    0  0.30943394957E+01 -0.90637771788E+01  0.46527598177E+03  0.46537454400E+03  0.00000000000E+00 0. -1.
         11    1    1    2    0    0  0.40527551730E+01 -0.13461718991E+02 -0.48504647858E+03  0.48525017165E+03  0.00000000000E+00 0.  1.
        -15    1    1    2    0    0 -0.15253469758E+02  0.13981944688E+02  0.28026724518E+02  0.34882920364E+02  0.17770000000E+01 0.  1.
         15    1    1    2    0    0  0.81063750890E+01  0.85435514812E+01 -0.82562277076E+01  0.14492363988E+02  0.17770000000E+01 0. -1.
</event>
<event>
 6    1  0.3411206E-003  0.5008062E+03  0.7546771E-02  0.9398008E-01
        -11   -1    0    0    0    0  0.00000000000E+00  0.00000000000E+00  0.50000000000E+03  0.50000000000E+03  0.00000000000E+00 0. -1.
         11   -1    0    0    0    0 -0.00000000000E+00 -0.00000000000E+00 -0.50000000000E+03  0.50000000000E+03  0.00000000000E+00 0.  1.
        -11    1    1    2    0    0 -0.91254456393E+01  0.65174052668E+01  0.49906786505E+03  0.49919383435E+03  0.00000000000E+00 0. -1.
         11    1    1    2    0    0 -0.49205540055E+01  0.10391400596E+02 -0.29510424415E+03  0.29532813610E+03  0.00000000000E+00 0.  1.
        -15    1    1    2    0    0  0.12664648833E+02 -0.17312424674E+02 -0.19641153984E+03  0.19758735812E+03  0.17770000000E+01 0.  1.
         15    1    1    2    0    0  0.13813508114E+01  0.40361881139E+00 -0.75520810606E+01  0.78906714261E+01  0.17770000000E+01 0. -1.
</event>
<event>
 6    1  0.3411206E-003  0.5008744E+03  0.7546771E-02  0.9397855E-01
        -11   -1    0    0    0    0  0.00000000000E+00  0.00000000000E+00  0.50000000000E+03  0.50000000000E+03  0.00000000000E+00 0. -1.
         11   -1    0    0    0    0 -0.00000000000E+00 -0.00000000000E+00 -0.50000000000E+03  0.50000000000E+03  0.00000000000E+00 0.  1.
        -11    1    1    2    0    0  0.50776561060E+01  0.63202336550E-01  0.35300415220E+03  0.35304067479E+03  0.00000000000E+00 0. -1.
         11    1    1    2    0    0 -0.18429040239E+01  0.76839792703E+01 -0.49906307823E+03  0.49912563137E+03  0.00000000000E+00 0.  1.
        -15    1    1    2    0    0 -0.11194851628E+02 -0.76508371659E+01  0.11095603526E+03  0.11179561486E+03  0.17770000000E+01 0. -1.
         15    1    1    2    0    0  0.79600995461E+01 -0.96344440958E-01  0.35102890778E+02  0.36038078986E+02  0.17770000000E+01 0.  1.
</event>
<event>
 6    1  0.3411206E-003  0.6318332E+03  0.7546771E-02  0.9145212E-01
        -11   -1    0    0    0    0  0.00000000000E+00  0.00000000000E+00  0.50000000000E+03  0.50000000000E+03  0.00000000000E+00 0. -1.
         11   -1    0    0    0    0 -0.00000000000E+00 -0.00000000000E+00 -0.50000000000E+03  0.50000000000E+03  0.00000000000E+00 0. -1.
        -11    1    1    2    0    0 -0.73573232556E+01  0.15149682639E+01  0.36809017214E+03  0.36816681024E+03  0.00000000000E+00 0. -1.
         11    1    1    2    0    0  0.80642358736E+01  0.10981642625E+02 -0.30958616199E+03  0.30988581779E+03  0.00000000000E+00 0. -1.
        -15    1    1    2    0    0 -0.14160902916E+03  0.53270437666E+02  0.10810818431E+02  0.15169340194E+03  0.17770000000E+01 0. -1.
         15    1    1    2    0    0  0.14090211654E+03 -0.65767048554E+02 -0.69314828583E+02  0.17025397003E+03  0.17770000000E+01 0.  1.
</event>
<event>
 6    1  0.3411206E-003  0.5336028E+03  0.7546771E-02  0.9327609E-01
        -11   -1    0    0    0    0  0.00000000000E+00  0.00000000000E+00  0.50000000000E+03  0.50000000000E+03  0.00000000000E+00 0.  1.
         11   -1    0    0    0    0 -0.00000000000E+00 -0.00000000000E+00 -0.50000000000E+03  0.50000000000E+03  0.00000000000E+00 0.  1.
        -11    1    1    2    0    0  0.32190004511E+01  0.10285747588E+02  0.43910069325E+03  0.43923294205E+03  0.00000000000E+00 0.  1.
         11    1    1    2    0    0  0.30298499378E+02 -0.77244359201E+01 -0.46534793816E+03  0.46639722290E+03  0.00000000000E+00 0.  1.
        -15    1    1    2    0    0 -0.26207804156E+02  0.70418317091E+01 -0.27843180577E+02  0.38920904745E+02  0.17770000000E+01 0.  1.
         15    1    1    2    0    0 -0.73096956732E+01 -0.96031433768E+01  0.54090425494E+02  0.55448930311E+02  0.17770000000E+01 0. -1.
</event>
<event>
 6    1  0.3845795E-003  0.5001785E+03  0.7546771E-02  0.9399410E-01
        -11   -1    0    0    0    0  0.00000000000E+00  0.00000000000E+00  0.50000000000E+03  0.50000000000E+03  0.00000000000E+00 0. -1.
         11   -1    0    0    0    0 -0.00000000000E+00 -0.00000000000E+00 -0.50000000000E+03  0.50000000000E+03  0.00000000000E+00 0. -1.
        -11    1    1    2    0    0 -0.77925088655E+01 -0.39330273385E+00  0.49976063478E+03  0.49982153811E+03  0.00000000000E+00 0. -1.
         11    1    1    2    0    0  0.60461997676E+00 -0.24747502684E+01 -0.17809195750E+03  0.17811017736E+03  0.00000000000E+00 0. -1.
        -15    1    1    2    0    0  0.75973293528E+01 -0.40496541629E+01 -0.19447038423E+03  0.19466896821E+03  0.17770000000E+01 0. -1.
         15    1    1    2    0    0 -0.40944046409E+00  0.69177071652E+01 -0.12719829305E+03  0.12739931631E+03  0.17770000000E+01 0.  1.
</event>
<event>
 6    1  0.3411206E-003  0.5014059E+03  0.7546771E-02  0.9396669E-01
        -11   -1    0    0    0    0  0.00000000000E+00  0.00000000000E+00  0.50000000000E+03  0.50000000000E+03  0.00000000000E+00 0. -1.
         11   -1    0    0    0    0 -0.00000000000E+00 -0.00000000000E+00 -0.50000000000E+03  0.50000000000E+03  0.00000000000E+00 0.  1.
        -11    1    1    2    0    0  0.65744715395E+01 -0.31478637238E+01  0.49854078594E+03  0.49859407133E+03  0.00000000000E+00 0. -1.
         11    1    1    2    0    0 -0.32593599223E+01  0.21258856056E+01 -0.28140310867E+03  0.28143001330E+03  0.00000000000E+00 0.  1.
        -15    1    1    2    0    0  0.12198361933E+01  0.74660771919E+01 -0.99224129251E+01  0.12603266094E+02  0.17770000000E+01 0. -1.
         15    1    1    2    0    0 -0.45349478106E+01 -0.64440990737E+01 -0.20721526434E+03  0.20737264928E+03  0.17770000000E+01 0.  1.
</event>
<event>
 6    1  0.3411206E-003  0.5072173E+03  0.7546771E-02  0.9383804E-01
        -11   -1    0    0    0    0  0.00000000000E+00  0.00000000000E+00  0.50000000000E+03  0.50000000000E+03  0.00000000000E+00 0.  1.
         11   -1    0    0    0    0 -0.00000000000E+00 -0.00000000000E+00 -0.50000000000E+03  0.50000000000E+03  0.00000000000E+00 0. -1.
        -11    1    1    2    0    0 -0.31752214857E+02 -0.14495100249E+02  0.49154500362E+03  0.49278271242E+03  0.00000000000E+00 0.  1.
         11    1    1    2    0    0  0.60014581907E+01  0.28726841751E+01 -0.28572239025E+03  0.28579984973E+03  0.00000000000E+00 0. -1.
        -15    1    1    2    0    0  0.33531995421E+02  0.23730727144E+02 -0.49177615501E+02  0.64102556291E+02  0.17770000000E+01 0. -1.
         15    1    1    2    0    0 -0.77812387548E+01 -0.12108311070E+02 -0.15664499787E+03  0.15731488156E+03  0.17770000000E+01 0.  1.
</event>
<event>
 6    1  0.3411206E-003  0.5002432E+03  0.7546771E-02  0.9399266E-01
        -11   -1    0    0    0    0  0.00000000000E+00  0.00000000000E+00  0.50000000000E+03  0.50000000000E+03  0.00000000000E+00 0. -1.
         11   -1    0    0    0    0 -0.00000000000E+00 -0.00000000000E+00 -0.50000000000E+03  0.50000000000E+03  0.00000000000E+00 0. -1.
        -11    1    1    2    0    0  0.32057371995E+01 -0.92337434493E+01  0.49966118856E+03  0.49975678297E+03  0.00000000000E+00 0. -1.
         11    1    1    2    0    0  0.13657659006E+01  0.63521976268E+01 -0.29297043099E+03  0.29304246990E+03  0.00000000000E+00 0. -1.
        -15    1    1    2    0    0 -0.81282754567E+01  0.30158006389E+01 -0.88124088251E+02  0.88567356145E+02  0.17770000000E+01 0.  1.
         15    1    1    2    0    0  0.35567723565E+01 -0.13425481642E+00 -0.11856666932E+03  0.11863339099E+03  0.17770000000E+01 0. -1.
</event>
<event>
 6    1  0.3411206E-003  0.4758066E+03  0.7546771E-02  0.9455633E-01
        -11   -1    0    0    0    0  0.00000000000E+00  0.00000000000E+00  0.50000000000E+03  0.50000000000E+03  0.00000000000E+00 0.  1.
         11   -1    0    0    0    0 -0.00000000000E+00 -0.00000000000E+00 -0.50000000000E+03  0.50000000000E+03  0.00000000000E+00 0. -1.
        -11    1    1    2    0    0 -0.31044018037E+01 -0.73888479908E+01  0.48269446856E+03  0.48276099922E+03  0.00000000000E+00 0.  1.
         11    1    1    2    0    0 -0.22655457305E+02  0.63628691838E-01 -0.46878352064E+03  0.46933065425E+03  0.00000000000E+00 0. -1.
        -15    1    1    2    0    0  0.28737049304E+02 -0.31678763272E+01  0.14305493895E+01  0.29000993839E+02  0.17770000000E+01 0. -1.
         15    1    1    2    0    0 -0.29771901949E+01  0.10493095626E+02 -0.15341497304E+02  0.18907352692E+02  0.17770000000E+01 0.  1.
</event>
<event>
 6    1  0.3411206E-003  0.5224285E+03  0.7546771E-02  0.9350977E-01
        -11   -1    0    0    0    0  0.00000000000E+00  0.00000000000E+00  0.50000000000E+03  0.50000000000E+03  0.00000000000E+00 0.  1.
         11   -1    0    0    0    0 -0.00000000000E+00 -0.00000000000E+00 -0.50000000000E+03  0.50000000000E+03  0.00000000000E+00 0.  1.
        -11    1    1    2    0    0  0.63581871327E+01  0.11763196837E+02  0.38033594380E+03  0.38057092570E+03  0.00000000000E+00 0.  1.
         11    1    1    2    0    0 -0.10918400005E+02  0.20964045189E+02 -0.47698616016E+03  0.47757146024E+03  0.00000000000E+00 0.  1.
        -15    1    1    2    0    0 -0.16534102214E+02 -0.44720231909E+02  0.61055705491E+01  0.48101054030E+02  0.17770000000E+01 0. -1.
         15    1    1    2    0    0  0.21094315087E+02  0.11992989883E+02  0.90544645814E+02  0.93756560037E+02  0.17770000000E+01 0.  1.
</event>
<event>
 6    1  0.3411206E-003  0.5018524E+03  0.7546771E-02  0.9395674E-01
        -11   -1    0    0    0    0  0.00000000000E+00  0.00000000000E+00  0.50000000000E+03  0.50000000000E+03  0.00000000000E+00 0.  1.
         11   -1    0    0    0    0 -0.00000000000E+00 -0.00000000000E+00 -0.50000000000E+03  0.50000000000E+03  0.00000000000E+00 0. -1.
        -11    1    1    2    0    0  0.81543988974E+01 -0.33149134382E+01  0.49806986674E+03  0.49814764380E+03  0.00000000000E+00 0.  1.
         11    1    1    2    0    0 -0.42414179917E+01  0.61662754691E+01 -0.29276273968E+03  0.29285838613E+03  0.00000000000E+00 0. -1.
        -15    1    1    2    0    0 -0.17689988806E+02 -0.76184745214E+01 -0.62272695395E+02  0.65207539279E+02  0.17770000000E+01 0.  1.
         15    1    1    2    0    0  0.13777007900E+02  0.47671124906E+01 -0.14303443167E+03  0.14378643079E+03  0.17770000000E+01 0. -1.
</event>
<event>
 6    1  0.3411206E-003  0.5000956E+03  0.7546771E-02  0.9399596E-01
        -11   -1    0    0    0    0  0.00000000000E+00  0.00000000000E+00  0.50000000000E+03  0.50000000000E+03  0.00000000000E+00 0.  1.
         11   -1    0    0    0    0 -0.00000000000E+00 -0.00000000000E+00 -0.50000000000E+03  0.50000000000E+03  0.00000000000E+00 0.  1.
        -11    1    1    2    0    0 -0.24168456391E+01 -0.97093720975E+00  0.36723506937E+02  0.36815755101E+02  0.00000000000E+00 0.  1.
         11    1    1    2    0    0 -0.33663200900E+00 -0.10956761234E+02 -0.49978419529E+03  0.49990439666E+03  0.00000000000E+00 0.  1.
        -15    1    1    2    0    0  0.25900950152E+01  0.24701283905E+01  0.20657983344E+03  0.20661847798E+03  0.17770000000E+01 0. -1.
         15    1    1    2    0    0  0.16338263284E+00  0.94575700530E+01  0.25648085491E+03  0.25666137027E+03  0.17770000000E+01 0.  1.
</event>
<event>
 6    1  0.3411206E-003  0.5033966E+03  0.7546771E-02  0.9392241E-01
        -11   -1    0    0    0    0  0.00000000000E+00  0.00000000000E+00  0.50000000000E+03  0.50000000000E+03  0.00000000000E+00 0.  1.
         11   -1    0    0    0    0 -0.00000000000E+00 -0.00000000000E+00 -0.50000000000E+03  0.50000000000E+03  0.00000000000E+00 0.  1.
        -11    1    1    2    0    0 -0.77420617130E+01 -0.57846817479E+01  0.48487793372E+03  0.48497423918E+03  0.00000000000E+00 0.  1.
         11    1    1    2    0    0  0.66070661621E+01 -0.17557737854E+01 -0.49655631263E+03  0.49660337058E+03  0.00000000000E+00 0.  1.
        -15    1    1    2    0    0 -0.47922597907E+01  0.49042872983E+01  0.37147353835E+01  0.79984233306E+01  0.17770000000E+01 0. -1.
         15    1    1    2    0    0  0.59272553415E+01  0.26361682349E+01  0.79636435242E+01  0.10423966905E+02  0.17770000000E+01 0.  1.
</event>
<event>
 6    1  0.3411206E-003  0.5011834E+03  0.7546771E-02  0.9397166E-01
        -11   -1    0    0    0    0  0.00000000000E+00  0.00000000000E+00  0.50000000000E+03  0.50000000000E+03  0.00000000000E+00 0. -1.
         11   -1    0    0    0    0 -0.00000000000E+00 -0.00000000000E+00 -0.50000000000E+03  0.50000000000E+03  0.00000000000E+00 0.  1.
        -11    1    1    2    0    0 -0.53642284078E+00 -0.11412612081E+02  0.42273144343E+03  0.42288581050E+03  0.00000000000E+00 0. -1.
         11    1    1    2    0    0  0.12597570597E+02  0.29368326850E+01 -0.49864884926E+03  0.49881659820E+03  0.00000000000E+00 0.  1.
        -15    1    1    2    0    0 -0.23760008036E+00  0.44844839309E+01  0.38774787504E+02  0.39074402425E+02  0.17770000000E+01 0.  1.
         15    1    1    2    0    0 -0.11823547676E+02  0.39912954650E+01  0.37142618335E+02  0.39223188867E+02  0.17770000000E+01 0. -1.
</event>
<event>
 6    1  0.3411206E-003  0.5052894E+03  0.7546771E-02  0.9388051E-01
        -11   -1    0    0    0    0  0.00000000000E+00  0.00000000000E+00  0.50000000000E+03  0.50000000000E+03  0.00000000000E+00 0. -1.
         11   -1    0    0    0    0 -0.00000000000E+00 -0.00000000000E+00 -0.50000000000E+03  0.50000000000E+03  0.00000000000E+00 0. -1.
        -11    1    1    2    0    0  0.15765614369E+02 -0.72926189181E+01  0.49440549575E+03  0.49471055287E+03  0.00000000000E+00 0. -1.
         11    1    1    2    0    0  0.10242795453E+01  0.80796894200E+01 -0.38778864491E+03  0.38787415956E+03  0.00000000000E+00 0. -1.
        -15    1    1    2    0    0 -0.85731517459E+01  0.17892812667E+02 -0.19330399466E+02  0.27757408894E+02  0.17770000000E+01 0.  1.
         15    1    1    2    0    0 -0.82167421689E+01 -0.18679883169E+02 -0.87286451373E+02  0.89657878680E+02  0.17770000000E+01 0. -1.
</event>
<event>
 6    1  0.3411206E-003  0.5006414E+03  0.7546771E-02  0.9398376E-01
        -11   -1    0    0    0    0  0.00000000000E+00  0.00000000000E+00  0.50000000000E+03  0.50000000000E+03  0.00000000000E+00 0.  1.
         11   -1    0    0    0    0 -0.00000000000E+00 -0.00000000000E+00 -0.50000000000E+03  0.50000000000E+03  0.00000000000E+00 0. -1.
        -11    1    1    2    0    0 -0.21421642336E+01 -0.23336644389E+01  0.95155115530E+02  0.95207829871E+02  0.00000000000E+00 0.  1.
         11    1    1    2    0    0 -0.14897540859E+02  0.18518174856E+02 -0.49879266481E+03  0.49935857056E+03  0.00000000000E+00 0. -1.
        -15    1    1    2    0    0  0.17346689729E+02 -0.50771922071E+01  0.35685098389E+03  0.35731284326E+03  0.17770000000E+01 0.  1.
         15    1    1    2    0    0 -0.30698463699E+00 -0.11107318210E+02  0.46786565394E+02  0.48120756309E+02  0.17770000000E+01 0. -1.
</event>
<event>
 6    1  0.3411206E-003  0.5091636E+03  0.7546771E-02  0.9379536E-01
        -11   -1    0    0    0    0  0.00000000000E+00  0.00000000000E+00  0.50000000000E+03  0.50000000000E+03  0.00000000000E+00 0.  1.
         11   -1    0    0    0    0 -0.00000000000E+00 -0.00000000000E+00 -0.50000000000E+03  0.50000000000E+03  0.00000000000E+00 0.  1.
        -11    1    1    2    0    0  0.34266599522E+01 -0.80665509930E+01  0.49075818139E+03  0.49083643288E+03  0.00000000000E+00 0.  1.
         11    1    1    2    0    0 -0.65773179359E+01  0.12516181177E+02 -0.48264095671E+03  0.48284801853E+03  0.00000000000E+00 0.  1.
        -15    1    1    2    0    0  0.83087255343E+01 -0.59641500823E+01 -0.14468266935E+02  0.17807146972E+02  0.17770000000E+01 0. -1.
         15    1    1    2    0    0 -0.51580675507E+01  0.15145198980E+01  0.63510422586E+01  0.85084016213E+01  0.17770000000E+01 0.  1.
</event>
<event>
 6    1  0.3411206E-003  0.5088961E+03  0.7546771E-02  0.9380121E-01
        -11   -1    0    0    0    0  0.00000000000E+00  0.00000000000E+00  0.50000000000E+03  0.50000000000E+03  0.00000000000E+00 0. -1.
         11   -1    0    0    0    0 -0.00000000000E+00 -0.00000000000E+00 -0.50000000000E+03  0.50000000000E+03  0.00000000000E+00 0. -1.
        -11    1    1    2    0    0  0.88919916252E+01 -0.63489338597E+00  0.49102294173E+03  0.49110385858E+03  0.00000000000E+00 0. -1.
         11    1    1    2    0    0 -0.83538965943E+01 -0.39544524092E+01 -0.43340742195E+03  0.43350596153E+03  0.00000000000E+00 0. -1.
        -15    1    1    2    0    0 -0.53725391369E+01 -0.28430672535E+01  0.74051169989E+01  0.97437515851E+01  0.17770000000E+01 0.  1.
         15    1    1    2    0    0  0.48344441061E+01  0.74324130487E+01 -0.65020636779E+02  0.65646428309E+02  0.17770000000E+01 0.  1.
</event>
<event>
 6    1  0.3411206E-003  0.5033209E+03  0.7546771E-02  0.9392410E-01
        -11   -1    0    0    0    0  0.00000000000E+00  0.00000000000E+00  0.50000000000E+03  0.50000000000E+03  0.00000000000E+00 0.  1.
         11   -1    0    0    0    0 -0.00000000000E+00 -0.00000000000E+00 -0.50000000000E+03  0.50000000000E+03  0.00000000000E+00 0.  1.
        -11    1    1    2    0    0  0.37620391714E+01 -0.37651622412E+01  0.21804573201E+03  0.21811068436E+03  0.00000000000E+00 0.  1.
         11    1    1    2    0    0 -0.31182622427E+01  0.66613746932E+01 -0.49662465736E+03  0.49667911952E+03  0.00000000000E+00 0.  1.
        -15    1    1    2    0    0 -0.56672988486E+00 -0.88716195578E+01  0.27882354724E+03  0.27897088565E+03  0.17770000000E+01 0.  1.
         15    1    1    2    0    0 -0.77047043857E-01  0.59754071058E+01 -0.24462188526E+00  0.62393104742E+01  0.17770000000E+01 0. -1.
</event>
<event>
 6    1  0.3411206E-003  0.5087075E+03  0.7546771E-02  0.9380534E-01
        -11   -1    0    0    0    0  0.00000000000E+00  0.00000000000E+00  0.50000000000E+03  0.50000000000E+03  0.00000000000E+00 0. -1.
         11   -1    0    0    0    0 -0.00000000000E+00 -0.00000000000E+00 -0.50000000000E+03  0.50000000000E+03  0.00000000000E+00 0.  1.
        -11    1    1    2    0    0  0.65110658823E+01 -0.13721169785E+02  0.49105765894E+03  0.49129246776E+03  0.00000000000E+00 0. -1.
         11    1    1    2    0    0  0.21069298721E+02  0.19434219767E+02 -0.45067577561E+03  0.45158638040E+03  0.00000000000E+00 0.  1.
        -15    1    1    2    0    0 -0.12948077252E+02  0.49899579594E+01 -0.13582933994E+01  0.14055428664E+02  0.17770000000E+01 0. -1.
         15    1    1    2    0    0 -0.14632287351E+02 -0.10703007942E+02 -0.39023589931E+02  0.43065723171E+02  0.17770000000E+01 0.  1.
</event>
<event>
 6    1  0.3411206E-003  0.5546359E+03  0.7546771E-02  0.9285227E-01
        -11   -1    0    0    0    0  0.00000000000E+00  0.00000000000E+00  0.50000000000E+03  0.50000000000E+03  0.00000000000E+00 0.  1.
         11   -1    0    0    0    0 -0.00000000000E+00 -0.00000000000E+00 -0.50000000000E+03  0.50000000000E+03  0.00000000000E+00 0. -1.
        -11    1    1    2    0    0  0.47866527466E+02  0.33765614145E+02  0.42534535073E+03  0.42935997548E+03  0.00000000000E+00 0.  1.
         11    1    1    2    0    0 -0.25941468769E+02 -0.33581740829E+02 -0.44333787721E+03  0.44536408307E+03  0.00000000000E+00 0. -1.
        -15    1    1    2    0    0 -0.55531671304E+02 -0.58335003912E+01 -0.32276046773E+02  0.64518967513E+02  0.17770000000E+01 0.  1.
         15    1    1    2    0    0  0.33606612607E+02  0.56496270757E+01  0.50268573249E+02  0.60756973941E+02  0.17770000000E+01 0. -1.
</event>
<event>
 6    1  0.3411206E-003  0.5036975E+03  0.7546771E-02  0.9391574E-01
        -11   -1    0    0    0    0  0.00000000000E+00  0.00000000000E+00  0.50000000000E+03  0.50000000000E+03  0.00000000000E+00 0. -1.
         11   -1    0    0    0    0 -0.00000000000E+00 -0.00000000000E+00 -0.50000000000E+03  0.50000000000E+03  0.00000000000E+00 0.  1.
        -11    1    1    2    0    0  0.97486428974E+01 -0.88714336038E+01  0.31503917386E+03  0.31531479420E+03  0.00000000000E+00 0. -1.
         11    1    1    2    0    0 -0.63221916803E+01 -0.76341369130E+01 -0.49620350388E+03  0.49630249588E+03  0.00000000000E+00 0.  1.
        -15    1    1    2    0    0 -0.11908917237E+02  0.11152667736E+02  0.17635671636E+03  0.17711875519E+03  0.17770000000E+01 0. -1.
         15    1    1    2    0    0  0.84824660195E+01  0.53529027804E+01  0.48076136659E+01  0.11263954728E+02  0.17770000000E+01 0.  1.
</event>
<event>
 6    1  0.3411206E-003  0.5009056E+03  0.7546771E-02  0.9397786E-01
        -11   -1    0    0    0    0  0.00000000000E+00  0.00000000000E+00  0.50000000000E+03  0.50000000000E+03  0.00000000000E+00 0.  1.
         11   -1    0    0    0    0 -0.00000000000E+00 -0.00000000000E+00 -0.50000000000E+03  0.50000000000E+03  0.00000000000E+00 0. -1.
        -11    1    1    2    0    0  0.62987763367E+01 -0.32643161588E+01  0.33615159820E+03  0.33622645243E+03  0.00000000000E+00 0.  1.
         11    1    1    2    0    0  0.62320681040E+01  0.82475601342E+01 -0.49898734641E+03  0.49909441271E+03  0.00000000000E+00 0. -1.
        -15    1    1    2    0    0 -0.12642335815E+02  0.13040564456E+01  0.14684594630E+03  0.14740562707E+03  0.17770000000E+01 0.  1.
         15    1    1    2    0    0  0.11149137422E+00 -0.62873004210E+01  0.15989801914E+02  0.17273507784E+02  0.17770000000E+01 0. -1.
</event>
<event>
 6    1  0.3411206E-003  0.5052108E+03  0.7546771E-02  0.9388225E-01
        -11   -1    0    0    0    0  0.00000000000E+00  0.00000000000E+00  0.50000000000E+03  0.50000000000E+03  0.00000000000E+00 0. -1.
         11   -1    0    0    0    0 -0.00000000000E+00 -0.00000000000E+00 -0.50000000000E+03  0.50000000000E+03  0.00000000000E+00 0. -1.
        -11    1    1    2    0    0 -0.15137940335E+01 -0.10822260194E+02  0.46777588143E+03  0.46790350302E+03  0.00000000000E+00 0. -1.
         11    1    1    2    0    0 -0.14994809362E+02 -0.60637226714E+01 -0.49452472530E+03  0.49478916416E+03  0.00000000000E+00 0. -1.
        -15    1    1    2    0    0  0.97588347314E+01  0.76183822285E+01  0.20795844479E+02  0.24267251177E+02  0.17770000000E+01 0.  1.
         15    1    1    2    0    0  0.67497686644E+01  0.92676006373E+01  0.59529993893E+01  0.13040081646E+02  0.17770000000E+01 0. -1.
</event>
<event>
 6    1  0.3411206E-003  0.4393686E+03  0.7546771E-02  0.9546737E-01
        -11   -1    0    0    0    0  0.00000000000E+00  0.00000000000E+00  0.50000000000E+03  0.50000000000E+03  0.00000000000E+00 0. -1.
         11   -1    0    0    0    0 -0.00000000000E+00 -0.00000000000E+00 -0.50000000000E+03  0.50000000000E+03  0.00000000000E+00 0. -1.
        -11    1    1    2    0    0 -0.89431581181E+01 -0.90101712152E+01  0.44169510263E+03  0.44187750220E+03  0.00000000000E+00 0. -1.
         11    1    1    2    0    0  0.56511671479E+01 -0.13122450273E+02 -0.43692400209E+03  0.43715754368E+03  0.00000000000E+00 0. -1.
        -15    1    1    2    0    0  0.32034926088E+02  0.18899288030E+02  0.48006320234E+02  0.60755115743E+02  0.17770000000E+01 0. -1.
         15    1    1    2    0    0 -0.28742935118E+02  0.32333334587E+01 -0.52777420776E+02  0.60209838376E+02  0.17770000000E+01 0.  1.
</event>
<event>
 6    1  0.3411206E-003  0.5008845E+03  0.7546771E-02  0.9397833E-01
        -11   -1    0    0    0    0  0.00000000000E+00  0.00000000000E+00  0.50000000000E+03  0.50000000000E+03  0.00000000000E+00 0.  1.
         11   -1    0    0    0    0 -0.00000000000E+00 -0.00000000000E+00 -0.50000000000E+03  0.50000000000E+03  0.00000000000E+00 0.  1.
        -11    1    1    2    0    0  0.88132682391E+01  0.28244588646E+00  0.49903758263E+03  0.49911547997E+03  0.00000000000E+00 0.  1.
         11    1    1    2    0    0  0.27409184131E+01 -0.41902284892E+01 -0.37131956910E+03  0.37135332642E+03  0.00000000000E+00 0.  1.
        -15    1    1    2    0    0 -0.15931577415E+02  0.46481338036E+01 -0.10466214433E+03  0.10598463328E+03  0.17770000000E+01 0.  1.
         15    1    1    2    0    0  0.43773907629E+01 -0.74035120084E+00 -0.23055869204E+02  0.23546560333E+02  0.17770000000E+01 0. -1.
</event>
<event>
 6    1  0.3411206E-003  0.5105715E+03  0.7546771E-02  0.9376461E-01
        -11   -1    0    0    0    0  0.00000000000E+00  0.00000000000E+00  0.50000000000E+03  0.50000000000E+03  0.00000000000E+00 0.  1.
         11   -1    0    0    0    0 -0.00000000000E+00 -0.00000000000E+00 -0.50000000000E+03  0.50000000000E+03  0.00000000000E+00 0. -1.
        -11    1    1    2    0    0  0.55881466645E+01 -0.63661720467E+01  0.48935522356E+03  0.48942853447E+03  0.00000000000E+00 0.  1.
         11    1    1    2    0    0 -0.54425775886E+01  0.71397477561E+01 -0.48313833585E+03  0.48322173918E+03  0.00000000000E+00 0. -1.
        -15    1    1    2    0    0 -0.83348679575E+00  0.12758288409E+02 -0.21031209798E+01  0.13078588236E+02  0.17770000000E+01 0. -1.
         15    1    1    2    0    0  0.68791771986E+00 -0.13531864119E+02 -0.41137667259E+01  0.14271138112E+02  0.17770000000E+01 0.  1.
</event>
<event>
 6    1  0.3411206E-003  0.5140496E+03  0.7546771E-02  0.9368910E-01
        -11   -1    0    0    0    0  0.00000000000E+00  0.00000000000E+00  0.50000000000E+03  0.50000000000E+03  0.00000000000E+00 0. -1.
         11   -1    0    0    0    0 -0.00000000000E+00 -0.00000000000E+00 -0.50000000000E+03  0.50000000000E+03  0.00000000000E+00 0. -1.
        -11    1    1    2    0    0  0.13557832612E+02  0.37868800954E+01  0.48574643301E+03  0.48595036009E+03  0.00000000000E+00 0. -1.
         11    1    1    2    0    0 -0.27002252560E+01  0.12618774359E+02 -0.47064741828E+03  0.47082429527E+03  0.00000000000E+00 0. -1.
        -15    1    1    2    0    0 -0.11319704470E+02 -0.21786262136E+02 -0.22867679563E+02  0.33598592601E+02  0.17770000000E+01 0. -1.
         15    1    1    2    0    0  0.46209711418E+00  0.53806076815E+01  0.77686648297E+01  0.96267520484E+01  0.17770000000E+01 0.  1.
</event>
<event>
 6    1  0.3411206E-003  0.4911392E+03  0.7546771E-02  0.9419858E-01
        -11   -1    0    0    0    0  0.00000000000E+00  0.00000000000E+00  0.50000000000E+03  0.50000000000E+03  0.00000000000E+00 0.  1.
         11   -1    0    0    0    0 -0.00000000000E+00 -0.00000000000E+00 -0.50000000000E+03  0.50000000000E+03  0.00000000000E+00 0.  1.
        -11    1    1    2    0    0  0.33902984150E+02  0.26525842354E+02  0.48888513766E+03  0.49077664010E+03  0.00000000000E+00 0.  1.
         11    1    1    2    0    0  0.14511113596E+01 -0.60557280003E+00 -0.53451159785E+01  0.55715982821E+01  0.00000000000E+00 0.  1.
        -15    1    1    2    0    0 -0.21800981006E+01  0.10389343356E+02  0.55375504905E+01  0.12104275176E+02  0.17770000000E+01 0. -1.
         15    1    1    2    0    0 -0.33173997409E+02 -0.36309612910E+02 -0.48907757217E+03  0.49154748644E+03  0.17770000000E+01 0.  1.
</event>
<event>
 6    1  0.3411206E-003  0.4640389E+03  0.7546771E-02  0.9484078E-01
        -11   -1    0    0    0    0  0.00000000000E+00  0.00000000000E+00  0.50000000000E+03  0.50000000000E+03  0.00000000000E+00 0.  1.
         11   -1    0    0    0    0 -0.00000000000E+00 -0.00000000000E+00 -0.50000000000E+03  0.50000000000E+03  0.00000000000E+00 0. -1.
        -11    1    1    2    0    0  0.11047746214E+00 -0.14919374751E+02  0.46314616139E+03  0.46338641193E+03  0.00000000000E+00 0.  1.
         11    1    1    2    0    0  0.20095457932E+02 -0.42631301657E+01 -0.46465677249E+03  0.46511065128E+03  0.00000000000E+00 0. -1.
        -15    1    1    2    0    0 -0.18770064320E+01  0.99068782396E+01  0.32615405815E+02  0.34184672224E+02  0.17770000000E+01 0. -1.
         15    1    1    2    0    0 -0.18328928963E+02  0.92756266766E+01 -0.31104794713E+02  0.37318264567E+02  0.17770000000E+01 0.  1.
</event>
<event>
 6    1  0.3411206E-003  0.5014645E+03  0.7546771E-02  0.9396539E-01
        -11   -1    0    0    0    0  0.00000000000E+00  0.00000000000E+00  0.50000000000E+03  0.50000000000E+03  0.00000000000E+00 0. -1.
         11   -1    0    0    0    0 -0.00000000000E+00 -0.00000000000E+00 -0.50000000000E+03  0.50000000000E+03  0.00000000000E+00 0.  1.
        -11    1    1    2    0    0 -0.13092690419E+02  0.29058100374E+01  0.49835505586E+03  0.49853547915E+03  0.00000000000E+00 0. -1.
         11    1    1    2    0    0 -0.19758319472E+01  0.37358259648E+01 -0.29368152237E+03  0.29371192841E+03  0.00000000000E+00 0.  1.
        -15    1    1    2    0    0  0.94682601755E+01 -0.18493439049E+02 -0.93627425337E+02  0.95921362286E+02  0.17770000000E+01 0. -1.
         15    1    1    2    0    0  0.56002621909E+01  0.11851803047E+02 -0.11104610815E+03  0.11183123015E+03  0.17770000000E+01 0.  1.
</event>
<event>
 6    1  0.3411206E-003  0.5168138E+03  0.7546771E-02  0.9362954E-01
        -11   -1    0    0    0    0  0.00000000000E+00  0.00000000000E+00  0.50000000000E+03  0.50000000000E+03  0.00000000000E+00 0.  1.
         11   -1    0    0    0    0 -0.00000000000E+00 -0.00000000000E+00 -0.50000000000E+03  0.50000000000E+03  0.00000000000E+00 0. -1.
        -11    1    1    2    0    0 -0.14780250985E+02  0.24995419812E+02  0.45266676989E+03  0.45359721272E+03  0.00000000000E+00 0.  1.
         11    1    1    2    0    0  0.10327890070E+02  0.36306329301E+01 -0.48306216572E+03  0.48318619885E+03  0.00000000000E+00 0. -1.
        -15    1    1    2    0    0 -0.10121162350E+02 -0.85773196163E+01 -0.93604289538E+01  0.16333514573E+02  0.17770000000E+01 0. -1.
         15    1    1    2    0    0  0.14573523265E+02 -0.20048733126E+02  0.39755824788E+02  0.46883073853E+02  0.17770000000E+01 0.  1.
</event>
<event>
 6    1  0.3411206E-003  0.5114397E+03  0.7546771E-02  0.9374570E-01
        -11   -1    0    0    0    0  0.00000000000E+00  0.00000000000E+00  0.50000000000E+03  0.50000000000E+03  0.00000000000E+00 0.  1.
         11   -1    0    0    0    0 -0.00000000000E+00 -0.00000000000E+00 -0.50000000000E+03  0.50000000000E+03  0.00000000000E+00 0. -1.
        -11    1    1    2    0    0 -0.17034934176E+02 -0.13398118314E+02  0.44306992438E+03  0.44359965785E+03  0.00000000000E+00 0.  1.
         11    1    1    2    0    0  0.10231524385E+02 -0.24401506336E+01 -0.48844708244E+03  0.48856032459E+03  0.00000000000E+00 0. -1.
        -15    1    1    2    0    0  0.31468538836E+00 -0.24074962960E+01  0.48108563220E+02  0.48202558536E+02  0.17770000000E+01 0.  1.
         15    1    1    2    0    0  0.64887244026E+01  0.18245765244E+02 -0.27314051619E+01  0.19637459022E+02  0.17770000000E+01 0. -1.
</event>
<event>
 6    1  0.3411206E-003  0.5037736E+03  0.7546771E-02  0.9391405E-01
        -11   -1    0    0    0    0  0.00000000000E+00  0.00000000000E+00  0.50000000000E+03  0.50000000000E+03  0.00000000000E+00 0.  1.
         11   -1    0    0    0    0 -0.00000000000E+00 -0.00000000000E+00 -0.50000000000E+03  0.50000000000E+03  0.00000000000E+00 0.  1.
        -11    1    1    2    0    0  0.54488081305E+01  0.90327050182E+01  0.45081992595E+03  0.45094332782E+03  0.00000000000E+00 0.  1.
         11    1    1    2    0    0  0.13952528942E+02  0.16351426569E+01 -0.49602750294E+03  0.49622639030E+03  0.00000000000E+00 0.  1.
        -15    1    1    2    0    0 -0.14942122505E+01 -0.55477411285E+01  0.23092691523E+02  0.23862946856E+02  0.17770000000E+01 0.  1.
         15    1    1    2    0    0 -0.17907124822E+02 -0.51201065466E+01  0.22114885462E+02  0.28967335025E+02  0.17770000000E+01 0. -1.
</event>
<event>
 6    1  0.3411206E-003  0.5045203E+03  0.7546771E-02  0.9389752E-01
        -11   -1    0    0    0    0  0.00000000000E+00  0.00000000000E+00  0.50000000000E+03  0.50000000000E+03  0.00000000000E+00 0. -1.
         11   -1    0    0    0    0 -0.00000000000E+00 -0.00000000000E+00 -0.50000000000E+03  0.50000000000E+03  0.00000000000E+00 0.  1.
        -11    1    1    2    0    0 -0.47576832191E+01  0.13385956483E+02  0.47163192776E+03  0.47184583781E+03  0.00000000000E+00 0. -1.
         11    1    1    2    0    0  0.14344582698E+02 -0.80598630430E+01 -0.49520645313E+03  0.49547972680E+03  0.00000000000E+00 0.  1.
        -15    1    1    2    0    0 -0.12586257462E+02  0.17197970094E+01  0.77013877034E+01  0.14961306100E+02  0.17770000000E+01 0.  1.
         15    1    1    2    0    0  0.29993579836E+01 -0.70458904496E+01  0.15873137671E+02  0.17713129285E+02  0.17770000000E+01 0. -1.
</event>
<event>
 6    1  0.3411206E-003  0.5186448E+03  0.7546771E-02  0.9359031E-01
        -11   -1    0    0    0    0  0.00000000000E+00  0.00000000000E+00  0.50000000000E+03  0.50000000000E+03  0.00000000000E+00 0. -1.
         11   -1    0    0    0    0 -0.00000000000E+00 -0.00000000000E+00 -0.50000000000E+03  0.50000000000E+03  0.00000000000E+00 0.  1.
        -11    1    1    2    0    0  0.45213460917E+01  0.31127992810E+01  0.90584868413E+02  0.90751035670E+02  0.00000000000E+00 0. -1.
         11    1    1    2    0    0 -0.71948130975E+01  0.39758891140E+02 -0.47965647894E+03  0.48135524568E+03  0.00000000000E+00 0.  1.
        -15    1    1    2    0    0  0.31423166399E+01 -0.48160911432E+02  0.10682691823E+02  0.49463372079E+02  0.17770000000E+01 0.  1.
         15    1    1    2    0    0 -0.46884963419E+00  0.52892210102E+01  0.37838891870E+03  0.37843034657E+03  0.17770000000E+01 0. -1.
</event>
<event>
 6    1  0.3411206E-003  0.5232450E+03  0.7546771E-02  0.9349248E-01
        -11   -1    0    0    0    0  0.00000000000E+00  0.00000000000E+00  0.50000000000E+03  0.50000000000E+03  0.00000000000E+00 0.  1.
         11   -1    0    0    0    0 -0.00000000000E+00 -0.00000000000E+00 -0.50000000000E+03  0.50000000000E+03  0.00000000000E+00 0. -1.
        -11    1    1    2    0    0 -0.11326605757E+02 -0.13774080634E+02  0.46903515838E+03  0.46937404817E+03  0.00000000000E+00 0.  1.
         11    1    1    2    0    0  0.15822785506E+01  0.10421148427E+02 -0.47663843886E+03  0.47675497411E+03  0.00000000000E+00 0. -1.
        -15    1    1    2    0    0  0.61935116499E+01  0.11272436414E+02  0.28421107219E+02  0.31246511386E+02  0.17770000000E+01 0. -1.
         15    1    1    2    0    0  0.35508155563E+01 -0.79195042067E+01 -0.20817826737E+02  0.22624466338E+02  0.17770000000E+01 0.  1.
</event>
<event>
 6    1  0.3411206E-003  0.5460762E+03  0.7546771E-02  0.9302230E-01
        -11   -1    0    0    0    0  0.00000000000E+00  0.00000000000E+00  0.50000000000E+03  0.50000000000E+03  0.00000000000E+00 0. -1.
         11   -1    0    0    0    0 -0.00000000000E+00 -0.00000000000E+00 -0.50000000000E+03  0.50000000000E+03  0.00000000000E+00 0. -1.
        -11    1    1    2    0    0 -0.95840487718E+01 -0.46308240186E+01  0.36926633524E+03  0.36941971369E+03  0.00000000000E+00 0. -1.
         11    1    1    2    0    0  0.21350177647E+02  0.10189068920E+03 -0.44182491716E+03  0.45392378221E+03  0.00000000000E+00 0. -1.
        -15    1    1    2    0    0  0.32417994493E+01 -0.70525320628E+02 -0.24581185989E+02  0.74777821224E+02  0.17770000000E+01 0.  1.
         15    1    1    2    0    0 -0.15007928325E+02 -0.26734544550E+02  0.97139767914E+02  0.10187868288E+03  0.17770000000E+01 0. -1.
</event>
<event>
 6    1  0.3411206E-003  0.5057715E+03  0.7546771E-02  0.9386987E-01
        -11   -1    0    0    0    0  0.00000000000E+00  0.00000000000E+00  0.50000000000E+03  0.50000000000E+03  0.00000000000E+00 0.  1.
         11   -1    0    0    0    0 -0.00000000000E+00 -0.00000000000E+00 -0.50000000000E+03  0.50000000000E+03  0.00000000000E+00 0. -1.
        -11    1    1    2    0    0  0.98199415995E+01 -0.39113130953E+01  0.48107064995E+03  0.48118676194E+03  0.00000000000E+00 0.  1.
         11    1    1    2    0    0 -0.30498750462E+01  0.15226833069E+02 -0.49398446302E+03  0.49422849765E+03  0.00000000000E+00 0. -1.
        -15    1    1    2    0    0  0.46469157646E+01 -0.48747413151E+01  0.15272364027E+01  0.71307158857E+01  0.17770000000E+01 0. -1.
         15    1    1    2    0    0 -0.11416982318E+02 -0.64407786581E+01  0.11386576663E+02  0.17454024524E+02  0.17770000000E+01 0.  1.
</event>
<event>
 6    1  0.3411206E-003  0.5021096E+03  0.7546771E-02  0.9395102E-01
        -11   -1    0    0    0    0  0.00000000000E+00  0.00000000000E+00  0.50000000000E+03  0.50000000000E+03  0.00000000000E+00 0. -1.
         11   -1    0    0    0    0 -0.00000000000E+00 -0.00000000000E+00 -0.50000000000E+03  0.50000000000E+03  0.00000000000E+00 0.  1.
        -11    1    1    2    0    0  0.62429696501E+01  0.85468595977E+01  0.49777786897E+03  0.49789037982E+03  0.00000000000E+00 0. -1.
         11    1    1    2    0    0  0.77649913836E+01 -0.50025453855E+01 -0.38434013926E+03  0.38445111939E+03  0.00000000000E+00 0.  1.
        -15    1    1    2    0    0 -0.78884746337E+01 -0.10128196931E+02 -0.20386910008E+02  0.24157653731E+02  0.17770000000E+01 0.  1.
         15    1    1    2    0    0 -0.61194864000E+01  0.65838827189E+01 -0.93050819700E+02  0.93500847062E+02  0.17770000000E+01 0. -1.
</event>
<event>
 6    1  0.3411206E-003  0.4691747E+03  0.7546771E-02  0.9471555E-01
        -11   -1    0    0    0    0  0.00000000000E+00  0.00000000000E+00  0.50000000000E+03  0.50000000000E+03  0.00000000000E+00 0. -1.
         11   -1    0    0    0    0 -0.00000000000E+00 -0.00000000000E+00 -0.50000000000E+03  0.50000000000E+03  0.00000000000E+00 0.  1.
        -11    1    1    2    0    0 -0.73373806881E+01 -0.28177110431E+02  0.47464466755E+03  0.47553690408E+03  0.00000000000E+00 0. -1.
         11    1    1    2    0    0 -0.12581514081E+02 -0.33092006886E+01 -0.46343616896E+03  0.46361873130E+03  0.00000000000E+00 0.  1.
        -15    1    1    2    0    0  0.13070541733E+02  0.34012222745E+02  0.10427228082E+02  0.37941470342E+02  0.17770000000E+01 0. -1.
         15    1    1    2    0    0  0.68483530367E+01 -0.25259116250E+01 -0.21635726669E+02  0.22902894279E+02  0.17770000000E+01 0.  1.
</event>
<event>
 6    1  0.3411206E-003  0.5009125E+03  0.7546771E-02  0.9397770E-01
        -11   -1    0    0    0    0  0.00000000000E+00  0.00000000000E+00  0.50000000000E+03  0.50000000000E+03  0.00000000000E+00 0. -1.
         11   -1    0    0    0    0 -0.00000000000E+00 -0.00000000000E+00 -0.50000000000E+03  0.50000000000E+03  0.00000000000E+00 0. -1.
        -11    1    1    2    0    0 -0.26190009899E+01 -0.77622410332E+01  0.27841910257E+03  0.27853959903E+03  0.00000000000E+00 0. -1.
         11    1    1    2    0    0 -0.32572645684E+01 -0.65264414834E+01 -0.49903423725E+03  0.49908754158E+03  0.00000000000E+00 0. -1.
        -15    1    1    2    0    0  0.59885811133E-01 -0.61810046293E+01  0.42915961961E+02  0.43395229284E+02  0.17770000000E+01 0. -1.
         15    1    1    2    0    0  0.58163797472E+01  0.20469687146E+02  0.17769917272E+03  0.17897763011E+03  0.17770000000E+01 0.  1.
</event>
<event>
 6    1  0.3411206E-003  0.5004085E+03  0.7546771E-02  0.9398896E-01
        -11   -1    0    0    0    0  0.00000000000E+00  0.00000000000E+00  0.50000000000E+03  0.50000000000E+03  0.00000000000E+00 0. -1.
         11   -1    0    0    0    0 -0.00000000000E+00 -0.00000000000E+00 -0.50000000000E+03  0.50000000000E+03  0.00000000000E+00 0.  1.
        -11    1    1    2    0    0 -0.93503920174E-01  0.10397428403E+02  0.49948326020E+03  0.49959147559E+03  0.00000000000E+00 0. -1.
         11    1    1    2    0    0  0.23693059494E+01 -0.94936294649E+00 -0.18159654436E+03  0.18161448132E+03  0.00000000000E+00 0.  1.
        -15    1    1    2    0    0 -0.10319925814E+02 -0.29201233875E+01 -0.88278861492E+02  0.88945731234E+02  0.17770000000E+01 0. -1.
         15    1    1    2    0    0  0.80441237852E+01 -0.65279420692E+01 -0.22960785435E+03  0.22984831186E+03  0.17770000000E+01 0.  1.
</event>
<event>
 6    1  0.3411206E-003  0.5095032E+03  0.7546771E-02  0.9378793E-01
        -11   -1    0    0    0    0  0.00000000000E+00  0.00000000000E+00  0.50000000000E+03  0.50000000000E+03  0.00000000000E+00 0.  1.
         11   -1    0    0    0    0 -0.00000000000E+00 -0.00000000000E+00 -0.50000000000E+03  0.50000000000E+03  0.00000000000E+00 0. -1.
        -11    1    1    2    0    0  0.50858140975E+01  0.48482081974E+01  0.45501618642E+03  0.45507043470E+03  0.00000000000E+00 0.  1.
         11    1    1    2    0    0  0.38875182639E+01 -0.67072632671E+01 -0.49043549894E+03  0.49049676737E+03  0.00000000000E+00 0. -1.
        -15    1    1    2    0    0  0.55924512431E+01 -0.52543053810E+01  0.37203751214E+02  0.38028411344E+02  0.17770000000E+01 0. -1.
         15    1    1    2    0    0 -0.14565783605E+02  0.71133604508E+01 -0.17844386986E+01  0.16404386590E+02  0.17770000000E+01 0.  1.
</event>
<event>
 6    1  0.3411206E-003  0.5093920E+03  0.7546771E-02  0.9379036E-01
        -11   -1    0    0    0    0  0.00000000000E+00  0.00000000000E+00  0.50000000000E+03  0.50000000000E+03  0.00000000000E+00 0. -1.
         11   -1    0    0    0    0 -0.00000000000E+00 -0.00000000000E+00 -0.50000000000E+03  0.50000000000E+03  0.00000000000E+00 0. -1.
        -11    1    1    2    0    0 -0.16678307569E+02  0.24542266292E+02  0.48970987964E+03  0.49060804620E+03  0.00000000000E+00 0. -1.
         11    1    1    2    0    0  0.11205341673E+02  0.53624457959E+01 -0.12122960033E+03  0.12186439802E+03  0.00000000000E+00 0. -1.
        -15    1    1    2    0    0 -0.23415807405E+01  0.24126300445E+02 -0.12405577583E+02  0.27287679595E+02  0.17770000000E+01 0.  1.
         15    1    1    2    0    0  0.78145466372E+01 -0.54031012533E+02 -0.35607470173E+03  0.36023987618E+03  0.17770000000E+01 0. -1.
</event>
<event>
 6    1  0.3760209E-003  0.4237803E+03  0.7546771E-02  0.9588635E-01
        -11   -1    0    0    0    0  0.00000000000E+00  0.00000000000E+00  0.50000000000E+03  0.50000000000E+03  0.00000000000E+00 0. -1.
         11   -1    0    0    0    0 -0.00000000000E+00 -0.00000000000E+00 -0.50000000000E+03  0.50000000000E+03  0.00000000000E+00 0.  1.
        -11    1    1    2    0    0 -0.57658732831E+01 -0.19194626012E+02  0.42438278250E+03  0.42485576969E+03  0.00000000000E+00 0. -1.
         11    1    1    2    0    0 -0.49104869414E+01  0.86691585485E+01 -0.42272167541E+03  0.42283907347E+03  0.00000000000E+00 0.  1.
        -15    1    1    2    0    0  0.95640650158E+01 -0.14278163457E+01 -0.76176312434E+02  0.76808191647E+02  0.17770000000E+01 0.  1.
         15    1    1    2    0    0  0.11122952088E+01  0.11953283809E+02  0.74515205350E+02  0.75496965183E+02  0.17770000000E+01 0. -1.
</event>
<event>
 6    1  0.3411206E-003  0.5005061E+03  0.7546771E-02  0.9398678E-01
        -11   -1    0    0    0    0  0.00000000000E+00  0.00000000000E+00  0.50000000000E+03  0.50000000000E+03  0.00000000000E+00 0.  1.
         11   -1    0    0    0    0 -0.00000000000E+00 -0.00000000000E+00 -0.50000000000E+03  0.50000000000E+03  0.00000000000E+00 0.  1.
        -11    1    1    2    0    0 -0.58394656143E+01 -0.45759561324E+01  0.49943879419E+03  0.49949389173E+03  0.00000000000E+00 0.  1.
         11    1    1    2    0    0 -0.52843256530E+01 -0.83401675435E+00 -0.32120817943E+03  0.32125272640E+03  0.00000000000E+00 0.  1.
        -15    1    1    2    0    0  0.26244517696E-01  0.54871828406E+01 -0.27182047888E+02  0.27787251046E+02  0.17770000000E+01 0.  1.
         15    1    1    2    0    0  0.11097546750E+02 -0.77209953847E-01 -0.15104856687E+03  0.15146613083E+03  0.17770000000E+01 0. -1.
</event>
<event>
 6    1  0.3411206E-003  0.5270475E+03  0.7546771E-02  0.9341243E-01
        -11   -1    0    0    0    0  0.00000000000E+00  0.00000000000E+00  0.50000000000E+03  0.50000000000E+03  0.00000000000E+00 0. -1.
         11   -1    0    0    0    0 -0.00000000000E+00 -0.00000000000E+00 -0.50000000000E+03  0.50000000000E+03  0.00000000000E+00 0. -1.
        -11    1    1    2    0    0 -0.21667680902E+02 -0.66141809243E+01  0.45743915284E+03  0.45799979731E+03  0.00000000000E+00 0. -1.
         11    1    1    2    0    0  0.45351225670E+01  0.13399226657E+02 -0.47274092026E+03  0.47295251802E+03  0.00000000000E+00 0. -1.
        -15    1    1    2    0    0  0.17370800766E+02  0.14419248372E+02  0.33912009098E+02  0.40777954006E+02  0.17770000000E+01 0. -1.
         15    1    1    2    0    0 -0.23824243052E+00 -0.21204294104E+02 -0.18610241676E+02  0.28269730670E+02  0.17770000000E+01 0.  1.
</event>
<event>
 6    1  0.3411206E-003  0.5015697E+03  0.7546771E-02  0.9396304E-01
        -11   -1    0    0    0    0  0.00000000000E+00  0.00000000000E+00  0.50000000000E+03  0.50000000000E+03  0.00000000000E+00 0. -1.
         11   -1    0    0    0    0 -0.00000000000E+00 -0.00000000000E+00 -0.50000000000E+03  0.50000000000E+03  0.00000000000E+00 0.  1.
        -11    1    1    2    0    0 -0.14142412808E+02 -0.13905501687E+02  0.49803554590E+03  0.49843031187E+03  0.00000000000E+00 0. -1.
         11    1    1    2    0    0 -0.77611058288E+01 -0.65956343902E+00 -0.32798730697E+03  0.32807978195E+03  0.00000000000E+00 0.  1.
        -15    1    1    2    0    0  0.20233072337E+02  0.94276226404E+01 -0.74993285581E+02  0.78264985121E+02  0.17770000000E+01 0. -1.
         15    1    1    2    0    0  0.16704462994E+01  0.51374424858E+01 -0.95054953346E+02  0.95224921059E+02  0.17770000000E+01 0.  1.
</event>
<event>
 6    1  0.3411206E-003  0.5277670E+03  0.7546771E-02  0.9339736E-01
        -11   -1    0    0    0    0  0.00000000000E+00  0.00000000000E+00  0.50000000000E+03  0.50000000000E+03  0.00000000000E+00 0.  1.
         11   -1    0    0    0    0 -0.00000000000E+00 -0.00000000000E+00 -0.50000000000E+03  0.50000000000E+03  0.00000000000E+00 0. -1.
        -11    1    1    2    0    0  0.65333834422E+01 -0.29321837806E+00  0.40468680230E+03  0.40473964351E+03  0.00000000000E+00 0.  1.
         11    1    1    2    0    0  0.95011497174E+01 -0.77134913410E+01 -0.47207438648E+03  0.47223298928E+03  0.00000000000E+00 0. -1.
        -15    1    1    2    0    0 -0.10548684985E+02  0.49039564978E+01 -0.26456230271E+02  0.28955368991E+02  0.17770000000E+01 0.  1.
         15    1    1    2    0    0 -0.54858481748E+01  0.31027532212E+01  0.93843814456E+02  0.94071998216E+02  0.17770000000E+01 0. -1.
</event>
<event>
 6    1  0.3411206E-003  0.5055336E+03  0.7546771E-02  0.9387512E-01
        -11   -1    0    0    0    0  0.00000000000E+00  0.00000000000E+00  0.50000000000E+03  0.50000000000E+03  0.00000000000E+00 0.  1.
         11   -1    0    0    0    0 -0.00000000000E+00 -0.00000000000E+00 -0.50000000000E+03  0.50000000000E+03  0.00000000000E+00 0.  1.
        -11    1    1    2    0    0 -0.37662854168E+01  0.16689782789E+02  0.42080966878E+03  0.42115734719E+03  0.00000000000E+00 0.  1.
         11    1    1    2    0    0 -0.77508501880E+01 -0.67906294253E+01 -0.49435899813E+03  0.49446638648E+03  0.00000000000E+00 0.  1.
        -15    1    1    2    0    0  0.15106765269E+02 -0.19275236565E+02  0.68949071428E+02  0.73190718547E+02  0.17770000000E+01 0.  1.
         15    1    1    2    0    0 -0.35896296646E+01  0.93760832012E+01  0.46002579199E+01  0.11185547785E+02  0.17770000000E+01 0. -1.
</event>
<event>
 6    1  0.3411206E-003  0.5017184E+03  0.7546771E-02  0.9395973E-01
        -11   -1    0    0    0    0  0.00000000000E+00  0.00000000000E+00  0.50000000000E+03  0.50000000000E+03  0.00000000000E+00 0. -1.
         11   -1    0    0    0    0 -0.00000000000E+00 -0.00000000000E+00 -0.50000000000E+03  0.50000000000E+03  0.00000000000E+00 0.  1.
        -11    1    1    2    0    0 -0.14788987551E+02 -0.27495241536E+01  0.49805453605E+03  0.49828164216E+03  0.00000000000E+00 0. -1.
         11    1    1    2    0    0  0.15758732723E+02 -0.11926580377E+02 -0.22198575631E+03  0.22286376327E+03  0.00000000000E+00 0.  1.
        -15    1    1    2    0    0  0.99650459638E+01 -0.65450019922E+01 -0.46345438756E+02  0.47887332507E+02  0.17770000000E+01 0.  1.
         15    1    1    2    0    0 -0.10934791136E+02  0.21221106523E+02 -0.22972334099E+03  0.23096726206E+03  0.17770000000E+01 0. -1.
</event>
<event>
 6    1  0.6804540E-003  0.5003013E+03  0.7546771E-02  0.9399136E-01
        -11   -1    0    0    0    0  0.00000000000E+00  0.00000000000E+00  0.50000000000E+03  0.50000000000E+03  0.00000000000E+00 0. -1.
         11   -1    0    0    0    0 -0.00000000000E+00 -0.00000000000E+00 -0.50000000000E+03  0.50000000000E+03  0.00000000000E+00 0.  1.
        -11    1    1    2    0    0 -0.68584145221E+01 -0.33514209862E+01  0.49964037964E+03  0.49969868805E+03  0.00000000000E+00 0. -1.
         11    1    1    2    0    0 -0.38536987103E+01 -0.12919081421E+00 -0.28001818714E+03  0.28004473359E+03  0.00000000000E+00 0.  1.
        -15    1    1    2    0    0  0.85885116913E+01  0.52940299796E+00 -0.20134970208E+03  0.20154131848E+03  0.17770000000E+01 0. -1.
         15    1    1    2    0    0  0.21236015410E+01  0.29512088025E+01 -0.18272490427E+02  0.18715259878E+02  0.17770000000E+01 0.  1.
</event>
<event>
 6    1  0.3411206E-003  0.5175247E+03  0.7546771E-02  0.9361429E-01
        -11   -1    0    0    0    0  0.00000000000E+00  0.00000000000E+00  0.50000000000E+03  0.50000000000E+03  0.00000000000E+00 0. -1.
         11   -1    0    0    0    0 -0.00000000000E+00 -0.00000000000E+00 -0.50000000000E+03  0.50000000000E+03  0.00000000000E+00 0.  1.
        -11    1    1    2    0    0  0.12934583083E+02  0.77145447263E+01  0.43562328291E+03  0.43588354208E+03  0.00000000000E+00 0. -1.
         11    1    1    2    0    0 -0.32176330615E+01 -0.25444776811E+02 -0.48179317968E+03  0.48247534425E+03  0.00000000000E+00 0.  1.
        -15    1    1    2    0    0 -0.53134282175E+01  0.36416426209E+02  0.49874657477E+02  0.62008288194E+02  0.17770000000E+01 0. -1.
         15    1    1    2    0    0 -0.44035218043E+01 -0.18686194124E+02 -0.37047607141E+01  0.19632825474E+02  0.17770000000E+01 0.  1.
</event>
<event>
 6    1  0.3411206E-003  0.4751374E+03  0.7546771E-02  0.9457227E-01
        -11   -1    0    0    0    0  0.00000000000E+00  0.00000000000E+00  0.50000000000E+03  0.50000000000E+03  0.00000000000E+00 0. -1.
         11   -1    0    0    0    0 -0.00000000000E+00 -0.00000000000E+00 -0.50000000000E+03  0.50000000000E+03  0.00000000000E+00 0.  1.
        -11    1    1    2    0    0 -0.57569929268E+01 -0.12347839579E+02  0.46993734769E+03  0.47013479223E+03  0.00000000000E+00 0. -1.
         11    1    1    2    0    0  0.15166170090E+02 -0.15867138684E+02 -0.48015887732E+03  0.48066030237E+03  0.00000000000E+00 0.  1.
        -15    1    1    2    0    0  0.13159993013E+02  0.11431119567E+02 -0.34874342579E+01  0.17865492922E+02  0.17770000000E+01 0.  1.
         15    1    1    2    0    0 -0.22569170176E+02  0.16783858696E+02  0.13708963886E+02  0.31339412486E+02  0.17770000000E+01 0. -1.
</event>
<event>
 6    1  0.3411206E-003  0.5002620E+03  0.7546771E-02  0.9399224E-01
        -11   -1    0    0    0    0  0.00000000000E+00  0.00000000000E+00  0.50000000000E+03  0.50000000000E+03  0.00000000000E+00 0.  1.
         11   -1    0    0    0    0 -0.00000000000E+00 -0.00000000000E+00 -0.50000000000E+03  0.50000000000E+03  0.00000000000E+00 0.  1.
        -11    1    1    2    0    0  0.42875071809E+00 -0.59775297182E+00  0.36003869781E+02  0.36011383964E+02  0.00000000000E+00 0.  1.
         11    1    1    2    0    0 -0.80595802127E+01  0.65756576062E+01 -0.49962974232E+03  0.49973800688E+03  0.00000000000E+00 0.  1.
        -15    1    1    2    0    0  0.12706866260E+02  0.22229770842E+01  0.18806193154E+03  0.18851221155E+03  0.17770000000E+01 0.  1.
         15    1    1    2    0    0 -0.50760367659E+01 -0.82008817185E+01  0.27556394100E+03  0.27573839761E+03  0.17770000000E+01 0. -1.
</event>
<event>
 6    1  0.3411206E-003  0.5001389E+03  0.7546771E-02  0.9399499E-01
        -11   -1    0    0    0    0  0.00000000000E+00  0.00000000000E+00  0.50000000000E+03  0.50000000000E+03  0.00000000000E+00 0.  1.
         11   -1    0    0    0    0 -0.00000000000E+00 -0.00000000000E+00 -0.50000000000E+03  0.50000000000E+03  0.00000000000E+00 0. -1.
        -11    1    1    2    0    0 -0.14681301795E+01 -0.84353216103E+01  0.19158494461E+03  0.19177617437E+03  0.00000000000E+00 0.  1.
         11    1    1    2    0    0  0.47404232350E+01  0.11751846360E+02 -0.49970045046E+03  0.49986109840E+03  0.00000000000E+00 0. -1.
        -15    1    1    2    0    0 -0.21758665317E+01 -0.67023329809E+01  0.25277238420E+03  0.25287683090E+03  0.17770000000E+01 0.  1.
         15    1    1    2    0    0 -0.10964265238E+01  0.33858082308E+01  0.55343121644E+02  0.55485896323E+02  0.17770000000E+01 0. -1.
</event>
<event>
 6    1  0.3411206E-003  0.5283306E+03  0.7546771E-02  0.9338558E-01
        -11   -1    0    0    0    0  0.00000000000E+00  0.00000000000E+00  0.50000000000E+03  0.50000000000E+03  0.00000000000E+00 0.  1.
         11   -1    0    0    0    0 -0.00000000000E+00 -0.00000000000E+00 -0.50000000000E+03  0.50000000000E+03  0.00000000000E+00 0.  1.
        -11    1    1    2    0    0  0.66518387218E+01  0.45675258762E+02  0.46940548006E+03  0.47166935551E+03  0.00000000000E+00 0.  1.
         11    1    1    2    0    0  0.26263545020E+02  0.11602099917E+02 -0.40369725973E+03  0.40471701228E+03  0.00000000000E+00 0.  1.
        -15    1    1    2    0    0 -0.16940939182E+02 -0.22464634983E+02 -0.78327282904E+02  0.83246478733E+02  0.17770000000E+01 0. -1.
         15    1    1    2    0    0 -0.15974444560E+02 -0.34812723696E+02  0.12619062572E+02  0.40367153471E+02  0.17770000000E+01 0.  1.
</event>
<event>
 6    1  0.3411206E-003  0.5822879E+03  0.7546771E-02  0.9232444E-01
        -11   -1    0    0    0    0  0.00000000000E+00  0.00000000000E+00  0.50000000000E+03  0.50000000000E+03  0.00000000000E+00 0.  1.
         11   -1    0    0    0    0 -0.00000000000E+00 -0.00000000000E+00 -0.50000000000E+03  0.50000000000E+03  0.00000000000E+00 0. -1.
        -11    1    1    2    0    0 -0.14519001680E+01  0.41187526141E+01  0.32129188168E+03  0.32132156070E+03  0.00000000000E+00 0.  1.
         11    1    1    2    0    0 -0.60360830770E+01  0.43502122316E+02 -0.41539685132E+03  0.41771211741E+03  0.00000000000E+00 0. -1.
        -15    1    1    2    0    0  0.94794871206E+01 -0.82223152498E+02  0.16356287662E+03  0.18332070211E+03  0.17770000000E+01 0. -1.
         15    1    1    2    0    0 -0.19915038756E+01  0.34602277568E+02 -0.69457906983E+02  0.77645619787E+02  0.17770000000E+01 0.  1.
</event>
<event>
 6    1  0.3411206E-003  0.5026246E+03  0.7546771E-02  0.9393956E-01
        -11   -1    0    0    0    0  0.00000000000E+00  0.00000000000E+00  0.50000000000E+03  0.50000000000E+03  0.00000000000E+00 0. -1.
         11   -1    0    0    0    0 -0.00000000000E+00 -0.00000000000E+00 -0.50000000000E+03  0.50000000000E+03  0.00000000000E+00 0.  1.
        -11    1    1    2    0    0  0.49533352083E+01 -0.76982308275E+01  0.49729118607E+03  0.49737543369E+03  0.00000000000E+00 0. -1.
         11    1    1    2    0    0 -0.31383683749E+00 -0.58600298243E+01 -0.35048699705E+03  0.35053612302E+03  0.00000000000E+00 0.  1.
        -15    1    1    2    0    0  0.74815447550E+00 -0.13492763756E+01 -0.12526081285E+03  0.12528291682E+03  0.17770000000E+01 0.  1.
         15    1    1    2    0    0 -0.53876528463E+01  0.14907537028E+02 -0.21543376180E+02  0.26805526476E+02  0.17770000000E+01 0. -1.
</event>
<event>
 6    1  0.3411206E-003  0.5076036E+03  0.7546771E-02  0.9382955E-01
        -11   -1    0    0    0    0  0.00000000000E+00  0.00000000000E+00  0.50000000000E+03  0.50000000000E+03  0.00000000000E+00 0. -1.
         11   -1    0    0    0    0 -0.00000000000E+00 -0.00000000000E+00 -0.50000000000E+03  0.50000000000E+03  0.00000000000E+00 0.  1.
        -11    1    1    2    0    0 -0.75045300609E+01  0.68353213799E+01  0.49229171658E+03  0.49239635844E+03  0.00000000000E+00 0. -1.
         11    1    1    2    0    0  0.61447406330E+01 -0.47783985454E+01 -0.46911173297E+03  0.46917630902E+03  0.00000000000E+00 0.  1.
        -15    1    1    2    0    0  0.65417733447E+01 -0.33220942588E+01  0.54114658565E+01  0.92883152657E+01  0.17770000000E+01 0. -1.
         15    1    1    2    0    0 -0.51819839168E+01  0.12651714243E+01 -0.28591449470E+02  0.29139017276E+02  0.17770000000E+01 0.  1.
</event>
<event>
 6    1  0.3411206E-003  0.5087781E+03  0.7546771E-02  0.9380379E-01
        -11   -1    0    0    0    0  0.00000000000E+00  0.00000000000E+00  0.50000000000E+03  0.50000000000E+03  0.00000000000E+00 0. -1.
         11   -1    0    0    0    0 -0.00000000000E+00 -0.00000000000E+00 -0.50000000000E+03  0.50000000000E+03  0.00000000000E+00 0.  1.
        -11    1    1    2    0    0  0.12113694994E+02 -0.87663074594E+01  0.49099423256E+03  0.49122187061E+03  0.00000000000E+00 0. -1.
         11    1    1    2    0    0 -0.57441261291E+01  0.76333793690E+00 -0.77293384507E+02  0.77510289371E+02  0.00000000000E+00 0.  1.
        -15    1    1    2    0    0  0.19238460445E+02  0.46528023324E+02 -0.34351390718E+03  0.34718861944E+03  0.17770000000E+01 0.  1.
         15    1    1    2    0    0 -0.25608029310E+02 -0.38525053801E+02 -0.70186940877E+02  0.84079220585E+02  0.17770000000E+01 0. -1.
</event>
<event>
 6    1  0.3411206E-003  0.5015963E+03  0.7546771E-02  0.9396245E-01
        -11   -1    0    0    0    0  0.00000000000E+00  0.00000000000E+00  0.50000000000E+03  0.50000000000E+03  0.00000000000E+00 0. -1.
         11   -1    0    0    0    0 -0.00000000000E+00 -0.00000000000E+00 -0.50000000000E+03  0.50000000000E+03  0.00000000000E+00 0.  1.
        -11    1    1    2    0    0  0.83680557509E+01  0.52560821028E+01  0.49830569758E+03  0.49840367073E+03  0.00000000000E+00 0. -1.
         11    1    1    2    0    0 -0.52168825319E+01 -0.89661959556E+00 -0.37949865955E+03  0.37953557461E+03  0.00000000000E+00 0.  1.
        -15    1    1    2    0    0  0.53218289381E+01 -0.11971003850E+00 -0.10539263198E+03  0.10554193857E+03  0.17770000000E+01 0.  1.
         15    1    1    2    0    0 -0.84730021571E+01 -0.42397524687E+01 -0.13414406048E+02  0.16518816095E+02  0.17770000000E+01 0.  1.
</event>
<event>
 6    1  0.3411206E-003  0.5020676E+03  0.7546771E-02  0.9395195E-01
        -11   -1    0    0    0    0  0.00000000000E+00  0.00000000000E+00  0.50000000000E+03  0.50000000000E+03  0.00000000000E+00 0.  1.
         11   -1    0    0    0    0 -0.00000000000E+00 -0.00000000000E+00 -0.50000000000E+03  0.50000000000E+03  0.00000000000E+00 0.  1.
        -11    1    1    2    0    0 -0.70558185656E+01 -0.14229670410E+02  0.49767897365E+03  0.49793235375E+03  0.00000000000E+00 0.  1.
         11    1    1    2    0    0  0.35542140829E+01  0.48475973690E+01 -0.43141333958E+03  0.43145521344E+03  0.00000000000E+00 0.  1.
        -15    1    1    2    0    0  0.69619023870E+01  0.11441364477E+02 -0.19986571447E+02  0.24124545035E+02  0.17770000000E+01 0. -1.
         15    1    1    2    0    0 -0.34602979044E+01 -0.20592914359E+01 -0.46279062624E+02  0.46487887768E+02  0.17770000000E+01 0.  1.
</event>
<event>
 6    1  0.3411206E-003  0.5006948E+03  0.7546771E-02  0.9398256E-01
        -11   -1    0    0    0    0  0.00000000000E+00  0.00000000000E+00  0.50000000000E+03  0.50000000000E+03  0.00000000000E+00 0.  1.
         11   -1    0    0    0    0 -0.00000000000E+00 -0.00000000000E+00 -0.50000000000E+03  0.50000000000E+03  0.00000000000E+00 0.  1.
        -11    1    1    2    0    0 -0.12186247094E-01  0.57226510842E+01  0.40568441449E+03  0.40572477499E+03  0.00000000000E+00 0.  1.
         11    1    1    2    0    0  0.89321450929E+01  0.33335828011E+01 -0.49921414873E+03  0.49930517950E+03  0.00000000000E+00 0.  1.
        -15    1    1    2    0    0 -0.46343886634E+01 -0.19084312699E+01  0.13847117706E+02  0.14833073382E+02  0.17770000000E+01 0. -1.
         15    1    1    2    0    0 -0.42855701824E+01 -0.71478026154E+01  0.79682616534E+02  0.80136972121E+02  0.17770000000E+01 0.  1.
</event>
<event>
 6    1  0.3411206E-003  0.5021523E+03  0.7546771E-02  0.9395007E-01
        -11   -1    0    0    0    0  0.00000000000E+00  0.00000000000E+00  0.50000000000E+03  0.50000000000E+03  0.00000000000E+00 0. -1.
         11   -1    0    0    0    0 -0.00000000000E+00 -0.00000000000E+00 -0.50000000000E+03  0.50000000000E+03  0.00000000000E+00 0. -1.
        -11    1    1    2    0    0  0.15422112534E+02 -0.82630026774E+01  0.49754015269E+03  0.49784768987E+03  0.00000000000E+00 0. -1.
         11    1    1    2    0    0 -0.11637437355E+02 -0.12759778426E+01 -0.19971637707E+03  0.20005921458E+03  0.00000000000E+00 0. -1.
        -15    1    1    2    0    0 -0.13106227370E+02  0.12629580809E+02 -0.38976633036E+02  0.43053631195E+02  0.17770000000E+01 0. -1.
         15    1    1    2    0    0  0.93215521915E+01 -0.30906002886E+01 -0.25884714258E+03  0.25903946436E+03  0.17770000000E+01 0.  1.
</event>
<event>
 6    1  0.3411206E-003  0.5036086E+03  0.7546771E-02  0.9391771E-01
        -11   -1    0    0    0    0  0.00000000000E+00  0.00000000000E+00  0.50000000000E+03  0.50000000000E+03  0.00000000000E+00 0.  1.
         11   -1    0    0    0    0 -0.00000000000E+00 -0.00000000000E+00 -0.50000000000E+03  0.50000000000E+03  0.00000000000E+00 0.  1.
        -11    1    1    2    0    0 -0.62371887624E+01 -0.78782809690E+01  0.49628965081E+03  0.49639136509E+03  0.00000000000E+00 0.  1.
         11    1    1    2    0    0  0.52509232211E+01 -0.45585418545E+01 -0.48524657390E+03  0.48529639395E+03  0.00000000000E+00 0.  1.
        -15    1    1    2    0    0 -0.11976524315E+01  0.10955580139E+02 -0.70349399025E+01  0.13194969343E+02  0.17770000000E+01 0. -1.
         15    1    1    2    0    0  0.21839179728E+01  0.14812426849E+01 -0.40081370028E+01  0.51172716204E+01  0.17770000000E+01 0.  1.
</event>
<event>
 6    1  0.3411206E-003  0.5092844E+03  0.7546771E-02  0.9379272E-01
        -11   -1    0    0    0    0  0.00000000000E+00  0.00000000000E+00  0.50000000000E+03  0.50000000000E+03  0.00000000000E+00 0. -1.
         11   -1    0    0    0    0 -0.00000000000E+00 -0.00000000000E+00 -0.50000000000E+03  0.50000000000E+03  0.00000000000E+00 0. -1.
        -11    1    1    2    0    0  0.71851861464E+01 -0.44160786805E+01  0.46832421882E+03  0.46840015220E+03  0.00000000000E+00 0. -1.
         11    1    1    2    0    0  0.63770760021E+01 -0.18290707828E+01 -0.49067077461E+03  0.49071562198E+03  0.00000000000E+00 0. -1.
        -15    1    1    2    0    0 -0.11810530302E+02  0.62233630106E+01  0.29973141130E+02  0.32859789886E+02  0.17770000000E+01 0.  1.
         15    1    1    2    0    0 -0.17517318462E+01  0.21786452726E-01 -0.76265853409E+01  0.80244359348E+01  0.17770000000E+01 0. -1.
</event>
<event>
 6    1  0.3411206E-003  0.5051394E+03  0.7546771E-02  0.9388383E-01
        -11   -1    0    0    0    0  0.00000000000E+00  0.00000000000E+00  0.50000000000E+03  0.50000000000E+03  0.00000000000E+00 0.  1.
         11   -1    0    0    0    0 -0.00000000000E+00 -0.00000000000E+00 -0.50000000000E+03  0.50000000000E+03  0.00000000000E+00 0.  1.
        -11    1    1    2    0    0 -0.59644663515E+01  0.27284659739E+01  0.31456899797E+03  0.31463736884E+03  0.00000000000E+00 0.  1.
         11    1    1    2    0    0  0.21142167250E+02  0.94865617032E+01 -0.49431771007E+03  0.49486057085E+03  0.00000000000E+00 0.  1.
        -15    1    1    2    0    0 -0.17511415697E+01 -0.37161245322E+01  0.17314464107E+03  0.17320248421E+03  0.17770000000E+01 0.  1.
         15    1    1    2    0    0 -0.13426559329E+02 -0.84989031450E+01  0.66040710355E+01  0.17299576103E+02  0.17770000000E+01 0. -1.
</event>
<event>
 6    1  0.3411206E-003  0.5098942E+03  0.7546771E-02  0.9377939E-01
        -11   -1    0    0    0    0  0.00000000000E+00  0.00000000000E+00  0.50000000000E+03  0.50000000000E+03  0.00000000000E+00 0. -1.
         11   -1    0    0    0    0 -0.00000000000E+00 -0.00000000000E+00 -0.50000000000E+03  0.50000000000E+03  0.00000000000E+00 0.  1.
        -11    1    1    2    0    0 -0.83060584199E+01 -0.66595859814E+01  0.48999019812E+03  0.49010584056E+03  0.00000000000E+00 0. -1.
         11    1    1    2    0    0 -0.13185745641E+01 -0.11349549696E+02 -0.46005650284E+03  0.46019836671E+03  0.00000000000E+00 0.  1.
        -15    1    1    2    0    0 -0.82560648597E+01 -0.15464542103E+01  0.13156673726E+01  0.86857836277E+01  0.17770000000E+01 0.  1.
         15    1    1    2    0    0  0.17880697844E+02  0.19555589888E+02 -0.31249362660E+02  0.41010009106E+02  0.17770000000E+01 0. -1.
</event>
<event>
 6    1  0.3411206E-003  0.5076250E+03  0.7546771E-02  0.9382908E-01
        -11   -1    0    0    0    0  0.00000000000E+00  0.00000000000E+00  0.50000000000E+03  0.50000000000E+03  0.00000000000E+00 0.  1.
         11   -1    0    0    0    0 -0.00000000000E+00 -0.00000000000E+00 -0.50000000000E+03  0.50000000000E+03  0.00000000000E+00 0.  1.
        -11    1    1    2    0    0 -0.11856757138E+02  0.17193628413E+02  0.49193186985E+03  0.49237502792E+03  0.00000000000E+00 0.  1.
         11    1    1    2    0    0  0.91461307237E+01 -0.22891868195E+01 -0.47739440696E+03  0.47748749918E+03  0.00000000000E+00 0.  1.
        -15    1    1    2    0    0  0.85655304261E+01 -0.12376438981E+02 -0.11463109524E+01  0.15199220741E+02  0.17770000000E+01 0. -1.
         15    1    1    2    0    0 -0.58549040117E+01 -0.25280026123E+01 -0.13391151940E+02  0.14938252156E+02  0.17770000000E+01 0.  1.
</event>
<event>
 6    1  0.3411206E-003  0.5307999E+03  0.7546771E-02  0.9333413E-01
        -11   -1    0    0    0    0  0.00000000000E+00  0.00000000000E+00  0.50000000000E+03  0.50000000000E+03  0.00000000000E+00 0.  1.
         11   -1    0    0    0    0 -0.00000000000E+00 -0.00000000000E+00 -0.50000000000E+03  0.50000000000E+03  0.00000000000E+00 0.  1.
        -11    1    1    2    0    0 -0.88430087381E+00  0.21590114866E+02  0.46870222667E+03  0.46920005577E+03  0.00000000000E+00 0.  1.
         11    1    1    2    0    0 -0.67845888758E+01  0.24664859809E+01 -0.36277480622E+03  0.36284662631E+03  0.00000000000E+00 0.  1.
        -15    1    1    2    0    0 -0.10452341804E+02 -0.42943033815E+02  0.13050413501E+02  0.46117530549E+02  0.17770000000E+01 0.  1.
         15    1    1    2    0    0  0.18121231554E+02  0.18886432968E+02 -0.11897783395E+03  0.12183578737E+03  0.17770000000E+01 0. -1.
</event>
<event>
 6    1  0.3411206E-003  0.5032125E+03  0.7546771E-02  0.9392650E-01
        -11   -1    0    0    0    0  0.00000000000E+00  0.00000000000E+00  0.50000000000E+03  0.50000000000E+03  0.00000000000E+00 0.  1.
         11   -1    0    0    0    0 -0.00000000000E+00 -0.00000000000E+00 -0.50000000000E+03  0.50000000000E+03  0.00000000000E+00 0.  1.
        -11    1    1    2    0    0 -0.10834510092E+02  0.70521451141E+01  0.49661928004E+03  0.49678750856E+03  0.00000000000E+00 0.  1.
         11    1    1    2    0    0  0.66950161676E+01  0.21795318936E+01 -0.25228025624E+03  0.25237848817E+03  0.00000000000E+00 0.  1.
        -15    1    1    2    0    0 -0.77559348373E+01 -0.38636366849E+01 -0.23379533768E+03  0.23396260356E+03  0.17770000000E+01 0.  1.
         15    1    1    2    0    0  0.11895428761E+02 -0.53680403228E+01 -0.10543686116E+02  0.16871399712E+02  0.17770000000E+01 0. -1.
</event>
<event>
 6    1  0.3411206E-003  0.5038170E+03  0.7546771E-02  0.9391309E-01
        -11   -1    0    0    0    0  0.00000000000E+00  0.00000000000E+00  0.50000000000E+03  0.50000000000E+03  0.00000000000E+00 0.  1.
         11   -1    0    0    0    0 -0.00000000000E+00 -0.00000000000E+00 -0.50000000000E+03  0.50000000000E+03  0.00000000000E+00 0.  1.
        -11    1    1    2    0    0 -0.82582142339E+01 -0.28658272396E+01  0.28420130384E+03  0.28433570331E+03  0.00000000000E+00 0.  1.
         11    1    1    2    0    0  0.88281703117E+01 -0.52682485923E+01 -0.49607647127E+03  0.49618298679E+03  0.00000000000E+00 0.  1.
        -15    1    1    2    0    0  0.60037259917E+01  0.45122109151E+00  0.20861550092E+03  0.20870992617E+03  0.17770000000E+01 0. -1.
         15    1    1    2    0    0 -0.65736820694E+01  0.76828547404E+01  0.32596665046E+01  0.10771383738E+02  0.17770000000E+01 0.  1.
</event>
<event>
 6    1  0.3411206E-003  0.5004276E+03  0.7546771E-02  0.9398854E-01
        -11   -1    0    0    0    0  0.00000000000E+00  0.00000000000E+00  0.50000000000E+03  0.50000000000E+03  0.00000000000E+00 0.  1.
         11   -1    0    0    0    0 -0.00000000000E+00 -0.00000000000E+00 -0.50000000000E+03  0.50000000000E+03  0.00000000000E+00 0.  1.
        -11    1    1    2    0    0 -0.10719737284E+01 -0.56323752410E+01  0.36638555383E+03  0.36643041199E+03  0.00000000000E+00 0.  1.
         11    1    1    2    0    0  0.20878784461E-01 -0.69401033814E+01 -0.49952423021E+03  0.49957243923E+03  0.00000000000E+00 0.  1.
        -15    1    1    2    0    0 -0.12023003505E+01  0.85244307357E+01  0.10899201417E+03  0.10934591134E+03  0.17770000000E+01 0. -1.
         15    1    1    2    0    0  0.22533952944E+01  0.40480478868E+01  0.24146662208E+02  0.24651237430E+02  0.17770000000E+01 0.  1.
</event>
<event>
 6    1  0.3411206E-003  0.5001304E+03  0.7546771E-02  0.9399518E-01
        -11   -1    0    0    0    0  0.00000000000E+00  0.00000000000E+00  0.50000000000E+03  0.50000000000E+03  0.00000000000E+00 0. -1.
         11   -1    0    0    0    0 -0.00000000000E+00 -0.00000000000E+00 -0.50000000000E+03  0.50000000000E+03  0.00000000000E+00 0.  1.
        -11    1    1    2    0    0  0.25455133504E+01  0.10497279826E+01  0.16810304418E+03  0.16812559303E+03  0.00000000000E+00 0. -1.
         11    1    1    2    0    0 -0.11962962586E+01  0.71017791423E+01 -0.49981771422E+03  0.49986959683E+03  0.00000000000E+00 0.  1.
        -15    1    1    2    0    0 -0.47886362706E+00 -0.48776381980E+01  0.30199066572E+03  0.30203566110E+03  0.17770000000E+01 0. -1.
         15    1    1    2    0    0 -0.87035346469E+00 -0.32738689269E+01  0.29724004313E+02  0.29969149042E+02  0.17770000000E+01 0.  1.
</event>
<event>
 6    1  0.3411206E-003  0.5032166E+03  0.7546771E-02  0.9392641E-01
        -11   -1    0    0    0    0  0.00000000000E+00  0.00000000000E+00  0.50000000000E+03  0.50000000000E+03  0.00000000000E+00 0.  1.
         11   -1    0    0    0    0 -0.00000000000E+00 -0.00000000000E+00 -0.50000000000E+03  0.50000000000E+03  0.00000000000E+00 0. -1.
        -11    1    1    2    0    0  0.55127361545E+01 -0.41174962410E+01  0.47973306864E+03  0.47978241025E+03  0.00000000000E+00 0.  1.
         11    1    1    2    0    0  0.73522821613E+01  0.61375689552E+01 -0.49669105850E+03  0.49678338680E+03  0.00000000000E+00 0. -1.
        -15    1    1    2    0    0 -0.93413938987E+01 -0.11900955018E+01  0.16868455047E+02  0.19400527620E+02  0.17770000000E+01 0. -1.
         15    1    1    2    0    0 -0.35236244172E+01 -0.82997721244E+00  0.89534813350E-01  0.40336753327E+01  0.17770000000E+01 0.  1.
</event>
<event>
 6    1  0.3411206E-003  0.5038098E+03  0.7546771E-02  0.9391325E-01
        -11   -1    0    0    0    0  0.00000000000E+00  0.00000000000E+00  0.50000000000E+03  0.50000000000E+03  0.00000000000E+00 0.  1.
         11   -1    0    0    0    0 -0.00000000000E+00 -0.00000000000E+00 -0.50000000000E+03  0.50000000000E+03  0.00000000000E+00 0. -1.
        -11    1    1    2    0    0  0.92911109405E+01 -0.41758094930E+01  0.49608562425E+03  0.49619019410E+03  0.00000000000E+00 0.  1.
         11    1    1    2    0    0 -0.61092500886E+01 -0.30496175204E+01 -0.42781589177E+03  0.42787037799E+03  0.00000000000E+00 0. -1.
        -15    1    1    2    0    0 -0.49117468789E+01  0.41681763482E+01  0.82441543401E+00  0.67332266619E+01  0.17770000000E+01 0.  1.
         15    1    1    2    0    0  0.17298860270E+01  0.30572506651E+01 -0.69094147913E+02  0.69206201255E+02  0.17770000000E+01 0. -1.
</event>
<event>
 6    1  0.3411206E-003  0.5050543E+03  0.7546771E-02  0.9388571E-01
        -11   -1    0    0    0    0  0.00000000000E+00  0.00000000000E+00  0.50000000000E+03  0.50000000000E+03  0.00000000000E+00 0.  1.
         11   -1    0    0    0    0 -0.00000000000E+00 -0.00000000000E+00 -0.50000000000E+03  0.50000000000E+03  0.00000000000E+00 0.  1.
        -11    1    1    2    0    0  0.58955040991E+01  0.29007980183E+01  0.46499781733E+03  0.46504423630E+03  0.00000000000E+00 0.  1.
         11    1    1    2    0    0 -0.13140242995E+02 -0.20112403026E+00 -0.49477116669E+03  0.49494566755E+03  0.00000000000E+00 0.  1.
        -15    1    1    2    0    0  0.13428387680E+02 -0.46607178268E+01  0.64024113395E+01  0.15690522181E+02  0.17770000000E+01 0.  1.
         15    1    1    2    0    0 -0.61836487841E+01  0.19610438388E+01  0.23370938018E+02  0.24319573970E+02  0.17770000000E+01 0.  1.
</event>
<event>
 6    1  0.3411206E-003  0.5085960E+03  0.7546771E-02  0.9380778E-01
        -11   -1    0    0    0    0  0.00000000000E+00  0.00000000000E+00  0.50000000000E+03  0.50000000000E+03  0.00000000000E+00 0.  1.
         11   -1    0    0    0    0 -0.00000000000E+00 -0.00000000000E+00 -0.50000000000E+03  0.50000000000E+03  0.00000000000E+00 0.  1.
        -11    1    1    2    0    0 -0.11133376327E+02  0.17099784307E+01  0.32056421079E+03  0.32076204472E+03  0.00000000000E+00 0.  1.
         11    1    1    2    0    0 -0.26610869126E+02  0.15173142168E+02 -0.49044829931E+03  0.49140400578E+03  0.00000000000E+00 0.  1.
        -15    1    1    2    0    0  0.51804823352E+02  0.32388542551E+01  0.86507683563E+02  0.10090077772E+03  0.17770000000E+01 0. -1.
         15    1    1    2    0    0 -0.14060577899E+02 -0.20121974854E+02  0.83376404964E+02  0.86933171785E+02  0.17770000000E+01 0.  1.
</event>
<event>
 6    1  0.3411206E-003  0.5010130E+03  0.7546771E-02  0.9397546E-01
        -11   -1    0    0    0    0  0.00000000000E+00  0.00000000000E+00  0.50000000000E+03  0.50000000000E+03  0.00000000000E+00 0.  1.
         11   -1    0    0    0    0 -0.00000000000E+00 -0.00000000000E+00 -0.50000000000E+03  0.50000000000E+03  0.00000000000E+00 0.  1.
        -11    1    1    2    0    0 -0.56260080848E+01 -0.41249791789E+01  0.20775000041E+03  0.20786709719E+03  0.00000000000E+00 0.  1.
         11    1    1    2    0    0 -0.29397106604E+01  0.10458873179E+02 -0.49886872925E+03  0.49898701281E+03  0.00000000000E+00 0.  1.
        -15    1    1    2    0    0 -0.97702560126E+01  0.51367824177E+01  0.14423812230E+03  0.14467079211E+03  0.17770000000E+01 0.  1.
         15    1    1    2    0    0  0.18335974758E+02 -0.11470676418E+02  0.14688060654E+03  0.14847509789E+03  0.17770000000E+01 0. -1.
</event>
<event>
 6    1  0.3411206E-003  0.5035586E+03  0.7546771E-02  0.9391882E-01
        -11   -1    0    0    0    0  0.00000000000E+00  0.00000000000E+00  0.50000000000E+03  0.50000000000E+03  0.00000000000E+00 0. -1.
         11   -1    0    0    0    0 -0.00000000000E+00 -0.00000000000E+00 -0.50000000000E+03  0.50000000000E+03  0.00000000000E+00 0.  1.
        -11    1    1    2    0    0  0.50693662046E+01  0.75825199345E+01  0.49635764044E+03  0.49644143694E+03  0.00000000000E+00 0. -1.
         11    1    1    2    0    0  0.52829270402E+01 -0.16280230202E+02 -0.47330321552E+03  0.47361259383E+03  0.00000000000E+00 0.  1.
        -15    1    1    2    0    0 -0.11120333737E+02  0.12417935297E+01 -0.12371774822E+02  0.16775649461E+02  0.17770000000E+01 0. -1.
         15    1    1    2    0    0  0.76804049205E+00  0.74559167381E+01 -0.10682650101E+02  0.13170319768E+02  0.17770000000E+01 0.  1.
</event>
<event>
 6    1  0.3411206E-003  0.5004005E+03  0.7546771E-02  0.9398914E-01
        -11   -1    0    0    0    0  0.00000000000E+00  0.00000000000E+00  0.50000000000E+03  0.50000000000E+03  0.00000000000E+00 0.  1.
         11   -1    0    0    0    0 -0.00000000000E+00 -0.00000000000E+00 -0.50000000000E+03  0.50000000000E+03  0.00000000000E+00 0.  1.
        -11    1    1    2    0    0 -0.11666980186E+01 -0.29124377923E+01  0.13040102162E+03  0.13043875926E+03  0.00000000000E+00 0.  1.
         11    1    1    2    0    0  0.37299146860E+01  0.64947234123E+01 -0.49954333025E+03  0.49959947207E+03  0.00000000000E+00 0.  1.
        -15    1    1    2    0    0 -0.63767328080E+01 -0.75164039664E+01  0.65193786699E+02  0.65958673448E+02  0.17770000000E+01 0.  1.
         15    1    1    2    0    0  0.38135161406E+01  0.39341183465E+01  0.30394852193E+03  0.30400309522E+03  0.17770000000E+01 0.  1.
</event>
<event>
 6    1  0.3411206E-003  0.3578534E+03  0.7546771E-02  0.9789845E-01
        -11   -1    0    0    0    0  0.00000000000E+00  0.00000000000E+00  0.50000000000E+03  0.50000000000E+03  0.00000000000E+00 0. -1.
         11   -1    0    0    0    0 -0.00000000000E+00 -0.00000000000E+00 -0.50000000000E+03  0.50000000000E+03  0.00000000000E+00 0. -1.
        -11    1    1    2    0    0 -0.32713392783E+00 -0.74070909373E+01  0.34941192015E+03  0.34949057491E+03  0.00000000000E+00 0. -1.
         11    1    1    2    0    0  0.24778541317E+01  0.62080565944E+00 -0.13230186057E+03  0.13232651839E+03  0.00000000000E+00 0. -1.
        -15    1    1    2    0    0  0.13812075877E+02  0.20763302164E+02  0.14918712001E+03  0.15126745408E+03  0.17770000000E+01 0.  1.
         15    1    1    2    0    0 -0.15962796081E+02 -0.13977016886E+02 -0.36629717959E+03  0.36691545261E+03  0.17770000000E+01 0. -1.
</event>
<event>
 6    1  0.3411206E-003  0.5035262E+03  0.7546771E-02  0.9391954E-01
        -11   -1    0    0    0    0  0.00000000000E+00  0.00000000000E+00  0.50000000000E+03  0.50000000000E+03  0.00000000000E+00 0.  1.
         11   -1    0    0    0    0 -0.00000000000E+00 -0.00000000000E+00 -0.50000000000E+03  0.50000000000E+03  0.00000000000E+00 0. -1.
        -11    1    1    2    0    0  0.37928577965E+01 -0.16470322274E+02  0.39800495738E+03  0.39836365721E+03  0.00000000000E+00 0.  1.
         11    1    1    2    0    0  0.70500787745E+01  0.33698955381E+01 -0.49641226577E+03  0.49647376307E+03  0.00000000000E+00 0. -1.
        -15    1    1    2    0    0 -0.10557561606E+02  0.22268482776E+01  0.67622636776E+01  0.12857173070E+02  0.17770000000E+01 0. -1.
         15    1    1    2    0    0 -0.28537496494E+00  0.10873578458E+02  0.91645044714E+02  0.92305406651E+02  0.17770000000E+01 0.  1.
</event>
<event>
 6    1  0.3411206E-003  0.5127593E+03  0.7546771E-02  0.9371704E-01
        -11   -1    0    0    0    0  0.00000000000E+00  0.00000000000E+00  0.50000000000E+03  0.50000000000E+03  0.00000000000E+00 0.  1.
         11   -1    0    0    0    0 -0.00000000000E+00 -0.00000000000E+00 -0.50000000000E+03  0.50000000000E+03  0.00000000000E+00 0.  1.
        -11    1    1    2    0    0 -0.15381146247E+01  0.10397058982E+02  0.36939698243E+03  0.36954647240E+03  0.00000000000E+00 0.  1.
         11    1    1    2    0    0 -0.17675029693E+02  0.33948001902E+01 -0.48690819260E+03  0.48724072014E+03  0.00000000000E+00 0.  1.
        -15    1    1    2    0    0  0.90359100217E+01 -0.82526807361E+01 -0.95424237845E+01  0.15619538723E+02  0.17770000000E+01 0. -1.
         15    1    1    2    0    0  0.10177234296E+02 -0.55391784364E+01  0.12705363395E+03  0.12759326873E+03  0.17770000000E+01 0.  1.
</event>
<event>
 6    1  0.3411206E-003  0.5004216E+03  0.7546771E-02  0.9398867E-01
        -11   -1    0    0    0    0  0.00000000000E+00  0.00000000000E+00  0.50000000000E+03  0.50000000000E+03  0.00000000000E+00 0.  1.
         11   -1    0    0    0    0 -0.00000000000E+00 -0.00000000000E+00 -0.50000000000E+03  0.50000000000E+03  0.00000000000E+00 0.  1.
        -11    1    1    2    0    0  0.15337056529E+01 -0.44131240515E+01  0.27175026974E+03  0.27179042849E+03  0.00000000000E+00 0.  1.
         11    1    1    2    0    0 -0.37598979292E+01 -0.75715628934E+01 -0.49950690952E+03  0.49957844035E+03  0.00000000000E+00 0.  1.
        -15    1    1    2    0    0  0.47727510453E+01  0.61670937857E+01  0.41841459941E+02  0.42599033995E+02  0.17770000000E+01 0.  1.
         15    1    1    2    0    0 -0.25465587691E+01  0.58175931592E+01  0.18591517984E+03  0.18603209717E+03  0.17770000000E+01 0. -1.
</event>
<event>
 6    1  0.3411206E-003  0.5045725E+03  0.7546771E-02  0.9389636E-01
        -11   -1    0    0    0    0  0.00000000000E+00  0.00000000000E+00  0.50000000000E+03  0.50000000000E+03  0.00000000000E+00 0.  1.
         11   -1    0    0    0    0 -0.00000000000E+00 -0.00000000000E+00 -0.50000000000E+03  0.50000000000E+03  0.00000000000E+00 0. -1.
        -11    1    1    2    0    0 -0.52863912524E+01  0.53282766404E+01  0.14981512751E+03  0.15000302962E+03  0.00000000000E+00 0.  1.
         11    1    1    2    0    0 -0.13771516796E+02 -0.44192817870E+02 -0.49326030749E+03  0.49542748286E+03  0.00000000000E+00 0. -1.
        -15    1    1    2    0    0  0.79516792054E+01  0.13051856955E+02  0.31192630826E+03  0.31230555500E+03  0.17770000000E+01 0.  1.
         15    1    1    2    0    0  0.11106228843E+02  0.25812684274E+02  0.31518871720E+02  0.42263932520E+02  0.17770000000E+01 0. -1.
</event>
<event>
 6    1  0.3411206E-003  0.5001176E+03  0.7546771E-02  0.9399547E-01
        -11   -1    0    0    0    0  0.00000000000E+00  0.00000000000E+00  0.50000000000E+03  0.50000000000E+03  0.00000000000E+00 0. -1.
         11   -1    0    0    0    0 -0.00000000000E+00 -0.00000000000E+00 -0.50000000000E+03  0.50000000000E+03  0.00000000000E+00 0.  1.
        -11    1    1    2    0    0  0.26770321281E+01 -0.20214719610E+01  0.22189447539E+03  0.22191983025E+03  0.00000000000E+00 0. -1.
         11    1    1    2    0    0  0.57995468270E+01 -0.44248481350E+01 -0.49982919015E+03  0.49988241952E+03  0.00000000000E+00 0.  1.
        -15    1    1    2    0    0 -0.25543436198E+00  0.81635687988E+00  0.46813981092E+02  0.46855503838E+02  0.17770000000E+01 0. -1.
         15    1    1    2    0    0 -0.82211445931E+01  0.56299632161E+01  0.23112073366E+03  0.23134224639E+03  0.17770000000E+01 0.  1.
</event>
<event>
 6    1  0.3411206E-003  0.5082927E+03  0.7546771E-02  0.9381443E-01
        -11   -1    0    0    0    0  0.00000000000E+00  0.00000000000E+00  0.50000000000E+03  0.50000000000E+03  0.00000000000E+00 0.  1.
         11   -1    0    0    0    0 -0.00000000000E+00 -0.00000000000E+00 -0.50000000000E+03  0.50000000000E+03  0.00000000000E+00 0. -1.
        -11    1    1    2    0    0  0.10752752840E+02 -0.54947338086E+01  0.49155904962E+03  0.49170734493E+03  0.00000000000E+00 0.  1.
         11    1    1    2    0    0 -0.49100229267E+01 -0.50985910923E+01 -0.47494293159E+03  0.47499567600E+03  0.00000000000E+00 0. -1.
        -15    1    1    2    0    0 -0.90849259057E+01  0.31682949628E+01 -0.21535025952E+02  0.23653520740E+02  0.17770000000E+01 0. -1.
         15    1    1    2    0    0  0.32421959923E+01  0.74250299381E+01  0.49189079131E+01  0.96434583263E+01  0.17770000000E+01 0.  1.
</event>
<event>
 6    1  0.3411206E-003  0.4873647E+03  0.7546771E-02  0.9428535E-01
        -11   -1    0    0    0    0  0.00000000000E+00  0.00000000000E+00  0.50000000000E+03  0.50000000000E+03  0.00000000000E+00 0.  1.
         11   -1    0    0    0    0 -0.00000000000E+00 -0.00000000000E+00 -0.50000000000E+03  0.50000000000E+03  0.00000000000E+00 0.  1.
        -11    1    1    2    0    0 -0.54073695791E+01 -0.10112571363E+02  0.48342443275E+03  0.48356042634E+03  0.00000000000E+00 0.  1.
         11    1    1    2    0    0 -0.90128732059E+01 -0.17478312486E+01 -0.49129381603E+03  0.49137958898E+03  0.00000000000E+00 0.  1.
        -15    1    1    2    0    0  0.11846353189E+01 -0.10766168998E+01  0.58957222547E+01  0.63623686385E+01  0.17770000000E+01 0. -1.
         15    1    1    2    0    0  0.13235607466E+02  0.12937019511E+02  0.19736610269E+01  0.18697616043E+02  0.17770000000E+01 0.  1.
</event>
<event>
 6    1  0.3411206E-003  0.5033271E+03  0.7546771E-02  0.9392396E-01
        -11   -1    0    0    0    0  0.00000000000E+00  0.00000000000E+00  0.50000000000E+03  0.50000000000E+03  0.00000000000E+00 0.  1.
         11   -1    0    0    0    0 -0.00000000000E+00 -0.00000000000E+00 -0.50000000000E+03  0.50000000000E+03  0.00000000000E+00 0. -1.
        -11    1    1    2    0    0  0.35604560785E+01  0.73609875267E+01  0.49660554454E+03  0.49667285798E+03  0.00000000000E+00 0.  1.
         11    1    1    2    0    0 -0.35265564646E+01 -0.63433339817E+01 -0.36155879753E+03  0.36163163379E+03  0.00000000000E+00 0. -1.
        -15    1    1    2    0    0 -0.10554397653E+02  0.13332252364E+01 -0.63097426211E+01  0.12495734484E+02  0.17770000000E+01 0. -1.
         15    1    1    2    0    0  0.10520498039E+02 -0.23508787813E+01 -0.12873700438E+03  0.12919977375E+03  0.17770000000E+01 0.  1.
</event>
<event>
 6    1  0.3411206E-003  0.5019088E+03  0.7546771E-02  0.9395549E-01
        -11   -1    0    0    0    0  0.00000000000E+00  0.00000000000E+00  0.50000000000E+03  0.50000000000E+03  0.00000000000E+00 0. -1.
         11   -1    0    0    0    0 -0.00000000000E+00 -0.00000000000E+00 -0.50000000000E+03  0.50000000000E+03  0.00000000000E+00 0. -1.
        -11    1    1    2    0    0 -0.39783243323E+01 -0.11244609204E+02  0.36584429060E+03  0.36603867728E+03  0.00000000000E+00 0. -1.
         11    1    1    2    0    0 -0.53557159345E+01 -0.45627113877E+01 -0.49804147709E+03  0.49809117130E+03  0.00000000000E+00 0. -1.
        -15    1    1    2    0    0  0.57402463402E+01  0.22459489579E+02  0.89386185472E+02  0.92360310645E+02  0.17770000000E+01 0.  1.
         15    1    1    2    0    0  0.35937939266E+01 -0.66521689879E+01  0.42811001014E+02  0.43509840770E+02  0.17770000000E+01 0. -1.
</event>
<event>
 6    1  0.3411206E-003  0.5070411E+03  0.7546771E-02  0.9384191E-01
        -11   -1    0    0    0    0  0.00000000000E+00  0.00000000000E+00  0.50000000000E+03  0.50000000000E+03  0.00000000000E+00 0.  1.
         11   -1    0    0    0    0 -0.00000000000E+00 -0.00000000000E+00 -0.50000000000E+03  0.50000000000E+03  0.00000000000E+00 0.  1.
        -11    1    1    2    0    0 -0.11487110940E+02  0.92234028520E+01  0.49273870576E+03  0.49295887966E+03  0.00000000000E+00 0.  1.
         11    1    1    2    0    0  0.11923418878E+02 -0.10437999275E+02 -0.47626379537E+03  0.47652735758E+03  0.00000000000E+00 0.  1.
        -15    1    1    2    0    0  0.77949953673E+01 -0.28248124482E+01  0.29356415934E+01  0.89731398467E+01  0.17770000000E+01 0. -1.
         15    1    1    2    0    0 -0.82313033061E+01  0.40394088714E+01 -0.19410551985E+02  0.21540622914E+02  0.17770000000E+01 0.  1.
</event>
<event>
 6    1  0.3411206E-003  0.5098186E+03  0.7546771E-02  0.9378104E-01
        -11   -1    0    0    0    0  0.00000000000E+00  0.00000000000E+00  0.50000000000E+03  0.50000000000E+03  0.00000000000E+00 0.  1.
         11   -1    0    0    0    0 -0.00000000000E+00 -0.00000000000E+00 -0.50000000000E+03  0.50000000000E+03  0.00000000000E+00 0.  1.
        -11    1    1    2    0    0  0.60244597957E+01  0.89376790400E+01  0.49006291024E+03  0.49018142786E+03  0.00000000000E+00 0.  1.
         11    1    1    2    0    0  0.74539040249E+01 -0.66141786479E+01 -0.47988957559E+03  0.47999303412E+03  0.00000000000E+00 0.  1.
        -15    1    1    2    0    0 -0.31281940785E-01  0.69976663140E+01  0.38688556558E+01  0.81910979415E+01  0.17770000000E+01 0. -1.
         15    1    1    2    0    0 -0.13447081880E+02 -0.93211667061E+01 -0.14042190308E+02  0.21634440078E+02  0.17770000000E+01 0.  1.
</event>
<event>
 6    1  0.3411206E-003  0.5003861E+03  0.7546771E-02  0.9398946E-01
        -11   -1    0    0    0    0  0.00000000000E+00  0.00000000000E+00  0.50000000000E+03  0.50000000000E+03  0.00000000000E+00 0. -1.
         11   -1    0    0    0    0 -0.00000000000E+00 -0.00000000000E+00 -0.50000000000E+03  0.50000000000E+03  0.00000000000E+00 0.  1.
        -11    1    1    2    0    0 -0.40659931325E+01 -0.19930349032E+01  0.87796194981E+02  0.87912890644E+02  0.00000000000E+00 0. -1.
         11    1    1    2    0    0  0.12417889518E+02  0.61205502825E+01 -0.49942209976E+03  0.49961394981E+03  0.00000000000E+00 0.  1.
        -15    1    1    2    0    0 -0.88653724358E+00  0.52962372548E+01  0.31938679330E+03  0.31943687567E+03  0.17770000000E+01 0. -1.
         15    1    1    2    0    0 -0.74653591421E+01 -0.94237526342E+01  0.92239111480E+02  0.93036283871E+02  0.17770000000E+01 0.  1.
</event>
<event>
 6    1  0.3411206E-003  0.5158088E+03  0.7546771E-02  0.9365115E-01
        -11   -1    0    0    0    0  0.00000000000E+00  0.00000000000E+00  0.50000000000E+03  0.50000000000E+03  0.00000000000E+00 0.  1.
         11   -1    0    0    0    0 -0.00000000000E+00 -0.00000000000E+00 -0.50000000000E+03  0.50000000000E+03  0.00000000000E+00 0.  1.
        -11    1    1    2    0    0 -0.20903219465E+02 -0.70190227404E+01  0.45423629021E+03  0.45477117170E+03  0.00000000000E+00 0.  1.
         11    1    1    2    0    0  0.26102340908E+02 -0.21511157691E+02 -0.48300832945E+03  0.48419118995E+03  0.00000000000E+00 0.  1.
        -15    1    1    2    0    0 -0.16944415530E+02  0.13698156528E+02 -0.48725037126E+01  0.22397583158E+02  0.17770000000E+01 0.  1.
         15    1    1    2    0    0  0.11745294087E+02  0.14832023904E+02  0.33644542948E+02  0.38640055195E+02  0.17770000000E+01 0. -1.
</event>
<event>
 6    1  0.3411206E-003  0.5087545E+03  0.7546771E-02  0.9380431E-01
        -11   -1    0    0    0    0  0.00000000000E+00  0.00000000000E+00  0.50000000000E+03  0.50000000000E+03  0.00000000000E+00 0.  1.
         11   -1    0    0    0    0 -0.00000000000E+00 -0.00000000000E+00 -0.50000000000E+03  0.50000000000E+03  0.00000000000E+00 0. -1.
        -11    1    1    2    0    0 -0.88376757360E+01 -0.23617785280E+02  0.49059781348E+03  0.49124547721E+03  0.00000000000E+00 0.  1.
         11    1    1    2    0    0 -0.84746068958E+01  0.10067399571E+02 -0.44207060254E+03  0.44226642324E+03  0.00000000000E+00 0. -1.
        -15    1    1    2    0    0 -0.11629020155E+02  0.13192372283E+01 -0.51789854725E+01  0.12921072562E+02  0.17770000000E+01 0.  1.
         15    1    1    2    0    0  0.28941302787E+02  0.12231148481E+02 -0.43348225467E+02  0.53567026988E+02  0.17770000000E+01 0. -1.
</event>
<event>
 6    1  0.3411206E-003  0.5067600E+03  0.7546771E-02  0.9384809E-01
        -11   -1    0    0    0    0  0.00000000000E+00  0.00000000000E+00  0.50000000000E+03  0.50000000000E+03  0.00000000000E+00 0.  1.
         11   -1    0    0    0    0 -0.00000000000E+00 -0.00000000000E+00 -0.50000000000E+03  0.50000000000E+03  0.00000000000E+00 0. -1.
        -11    1    1    2    0    0  0.13455196133E+02 -0.12296617799E+01  0.48432852991E+03  0.48451695456E+03  0.00000000000E+00 0.  1.
         11    1    1    2    0    0 -0.55980314723E+01  0.67248546832E+01 -0.49316233899E+03  0.49323995603E+03  0.00000000000E+00 0. -1.
        -15    1    1    2    0    0 -0.11046818361E+02  0.13219723282E+01  0.91337333982E+01  0.14503882981E+02  0.17770000000E+01 0. -1.
         15    1    1    2    0    0  0.31896537001E+01 -0.68171652315E+01 -0.29992432399E+00  0.77392064270E+01  0.17770000000E+01 0.  1.
</event>
<event>
 6    1  0.3411206E-003  0.5025389E+03  0.7546771E-02  0.9394147E-01
        -11   -1    0    0    0    0  0.00000000000E+00  0.00000000000E+00  0.50000000000E+03  0.50000000000E+03  0.00000000000E+00 0.  1.
         11   -1    0    0    0    0 -0.00000000000E+00 -0.00000000000E+00 -0.50000000000E+03  0.50000000000E+03  0.00000000000E+00 0. -1.
        -11    1    1    2    0    0 -0.68582706456E+01 -0.39760589661E+01  0.44099572635E+03  0.44106697403E+03  0.00000000000E+00 0.  1.
         11    1    1    2    0    0 -0.90263010883E+01 -0.13110054959E+01 -0.49737748243E+03  0.49746110690E+03  0.00000000000E+00 0. -1.
        -15    1    1    2    0    0  0.95099286060E+01  0.11659787501E+02  0.38356673127E+02  0.41240532114E+02  0.17770000000E+01 0.  1.
         15    1    1    2    0    0  0.63746431279E+01 -0.63727230391E+01  0.18025082956E+02  0.20231386965E+02  0.17770000000E+01 0. -1.
</event>
<event>
 6    1  0.3411206E-003  0.5310377E+03  0.7546771E-02  0.9332919E-01
        -11   -1    0    0    0    0  0.00000000000E+00  0.00000000000E+00  0.50000000000E+03  0.50000000000E+03  0.00000000000E+00 0. -1.
         11   -1    0    0    0    0 -0.00000000000E+00 -0.00000000000E+00 -0.50000000000E+03  0.50000000000E+03  0.00000000000E+00 0.  1.
        -11    1    1    2    0    0 -0.25282380179E+01  0.11757005644E+02  0.46880812099E+03  0.46896233695E+03  0.00000000000E+00 0. -1.
         11    1    1    2    0    0  0.10310977928E+02  0.25701130498E+01 -0.45317700128E+03  0.45330157317E+03  0.00000000000E+00 0.  1.
        -15    1    1    2    0    0 -0.10199569283E+02  0.56851255385E+01 -0.42493563148E+02  0.44104563301E+02  0.17770000000E+01 0. -1.
         15    1    1    2    0    0  0.24168293730E+01 -0.20012244232E+02  0.26862443439E+02  0.33631526577E+02  0.17770000000E+01 0.  1.
</event>
<event>
 6    1  0.3411206E-003  0.5042227E+03  0.7546771E-02  0.9390410E-01
        -11   -1    0    0    0    0  0.00000000000E+00  0.00000000000E+00  0.50000000000E+03  0.50000000000E+03  0.00000000000E+00 0. -1.
         11   -1    0    0    0    0 -0.00000000000E+00 -0.00000000000E+00 -0.50000000000E+03  0.50000000000E+03  0.00000000000E+00 0. -1.
        -11    1    1    2    0    0 -0.71809574756E+01  0.54298674088E+01  0.27507148779E+03  0.27521877299E+03  0.00000000000E+00 0. -1.
         11    1    1    2    0    0  0.45738368225E+01 -0.79710559535E+01 -0.49569212664E+03  0.49577731103E+03  0.00000000000E+00 0. -1.
        -15    1    1    2    0    0  0.50619940211E+01 -0.89133578134E+01  0.21605613676E+03  0.21630645781E+03  0.17770000000E+01 0. -1.
         15    1    1    2    0    0 -0.24548733680E+01  0.11454546358E+02  0.45645020954E+01  0.12697458167E+02  0.17770000000E+01 0.  1.
</event>
<event>
 6    1  0.3411206E-003  0.5016974E+03  0.7546771E-02  0.9396020E-01
        -11   -1    0    0    0    0  0.00000000000E+00  0.00000000000E+00  0.50000000000E+03  0.50000000000E+03  0.00000000000E+00 0.  1.
         11   -1    0    0    0    0 -0.00000000000E+00 -0.00000000000E+00 -0.50000000000E+03  0.50000000000E+03  0.00000000000E+00 0.  1.
        -11    1    1    2    0    0 -0.26637683621E+01 -0.50145026051E+01  0.25419107920E+03  0.25425448992E+03  0.00000000000E+00 0.  1.
         11    1    1    2    0    0  0.76819558626E+01  0.99212563133E+00 -0.49824242553E+03  0.49830263029E+03  0.00000000000E+00 0.  1.
        -15    1    1    2    0    0 -0.41786887993E+01 -0.61614368218E+01  0.76753260787E+01  0.10839423564E+02  0.17770000000E+01 0.  1.
         15    1    1    2    0    0 -0.83949870124E+00  0.10183813796E+02  0.23637602025E+03  0.23660345623E+03  0.17770000000E+01 0. -1.
</event>
<event>
 6    1  0.3411206E-003  0.5000542E+03  0.7546771E-02  0.9399688E-01
        -11   -1    0    0    0    0  0.00000000000E+00  0.00000000000E+00  0.50000000000E+03  0.50000000000E+03  0.00000000000E+00 0.  1.
         11   -1    0    0    0    0 -0.00000000000E+00 -0.00000000000E+00 -0.50000000000E+03  0.50000000000E+03  0.00000000000E+00 0.  1.
        -11    1    1    2    0    0 -0.11805771234E+01 -0.31943554998E+00  0.62247651798E+02  0.62259665561E+02  0.00000000000E+00 0.  1.
         11    1    1    2    0    0  0.70397109271E+01 -0.14926107706E+01 -0.49989398988E+03  0.49994578360E+03  0.00000000000E+00 0.  1.
        -15    1    1    2    0    0 -0.19521868674E+01 -0.26155943575E+01  0.71682763590E+02  0.71779026827E+02  0.17770000000E+01 0. -1.
         15    1    1    2    0    0 -0.39069469363E+01  0.44276406781E+01  0.36596357449E+03  0.36601552402E+03  0.17770000000E+01 0.  1.
</event>
<event>
 6    1  0.3411206E-003  0.5000986E+03  0.7546771E-02  0.9399589E-01
        -11   -1    0    0    0    0  0.00000000000E+00  0.00000000000E+00  0.50000000000E+03  0.50000000000E+03  0.00000000000E+00 0. -1.
         11   -1    0    0    0    0 -0.00000000000E+00 -0.00000000000E+00 -0.50000000000E+03  0.50000000000E+03  0.00000000000E+00 0.  1.
        -11    1    1    2    0    0  0.43482156179E+01  0.53580007404E+01  0.49985379309E+03  0.49990141990E+03  0.00000000000E+00 0. -1.
         11    1    1    2    0    0 -0.31064143291E+01  0.28618145184E+01 -0.19183878516E+03  0.19188527637E+03  0.00000000000E+00 0.  1.
        -15    1    1    2    0    0 -0.46584248042E+00 -0.28355291320E+01 -0.41644508565E+02  0.41781336231E+02  0.17770000000E+01 0. -1.
         15    1    1    2    0    0 -0.77595880836E+00 -0.53842861268E+01 -0.26637049936E+03  0.26643196750E+03  0.17770000000E+01 0.  1.
</event>
<event>
 6    1  0.3411206E-003  0.5105054E+03  0.7546771E-02  0.9376605E-01
        -11   -1    0    0    0    0  0.00000000000E+00  0.00000000000E+00  0.50000000000E+03  0.50000000000E+03  0.00000000000E+00 0. -1.
         11   -1    0    0    0    0 -0.00000000000E+00 -0.00000000000E+00 -0.50000000000E+03  0.50000000000E+03  0.00000000000E+00 0.  1.
        -11    1    1    2    0    0 -0.14638256749E+02 -0.60376739162E+01  0.48923846644E+03  0.48949464666E+03  0.00000000000E+00 0. -1.
         11    1    1    2    0    0 -0.15364066430E+02  0.11280102670E+02 -0.41448068942E+03  0.41491871151E+03  0.00000000000E+00 0.  1.
        -15    1    1    2    0    0  0.10615055570E+02 -0.26783343034E+01  0.59071233310E+01  0.12566014262E+02  0.17770000000E+01 0.  1.
         15    1    1    2    0    0  0.19387267609E+02 -0.25640944505E+01 -0.80664900344E+02  0.83020627570E+02  0.17770000000E+01 0. -1.
</event>
<event>
 6    1  0.3411206E-003  0.5115103E+03  0.7546771E-02  0.9374417E-01
        -11   -1    0    0    0    0  0.00000000000E+00  0.00000000000E+00  0.50000000000E+03  0.50000000000E+03  0.00000000000E+00 0. -1.
         11   -1    0    0    0    0 -0.00000000000E+00 -0.00000000000E+00 -0.50000000000E+03  0.50000000000E+03  0.00000000000E+00 0. -1.
        -11    1    1    2    0    0 -0.36457170345E+01  0.14839052426E+02  0.43099633419E+03  0.43126712002E+03  0.00000000000E+00 0. -1.
         11    1    1    2    0    0  0.36282808890E+02 -0.57954232039E+01 -0.48710588805E+03  0.48848968804E+03  0.00000000000E+00 0. -1.
        -15    1    1    2    0    0 -0.17120940448E+02 -0.11465881898E+02  0.60419865205E+02  0.63861654299E+02  0.17770000000E+01 0. -1.
         15    1    1    2    0    0 -0.15516151408E+02  0.24222526753E+01 -0.43103113403E+01  0.16381537638E+02  0.17770000000E+01 0.  1.
</event>
<event>
 6    1  0.3411206E-003  0.5011440E+03  0.7546771E-02  0.9397254E-01
        -11   -1    0    0    0    0  0.00000000000E+00  0.00000000000E+00  0.50000000000E+03  0.50000000000E+03  0.00000000000E+00 0. -1.
         11   -1    0    0    0    0 -0.00000000000E+00 -0.00000000000E+00 -0.50000000000E+03  0.50000000000E+03  0.00000000000E+00 0. -1.
        -11    1    1    2    0    0  0.40582943312E+01 -0.16938903317E+02  0.49855183728E+03  0.49885602197E+03  0.00000000000E+00 0. -1.
         11    1    1    2    0    0 -0.30520802010E+01  0.59992006501E+01 -0.19962127164E+03  0.19973471830E+03  0.00000000000E+00 0. -1.
        -15    1    1    2    0    0  0.62017694631E+01 -0.11631540201E+02 -0.15076469359E+03  0.15135027332E+03  0.17770000000E+01 0. -1.
         15    1    1    2    0    0 -0.72079835933E+01  0.22571242868E+02 -0.14816587206E+03  0.15005898641E+03  0.17770000000E+01 0. -1.
</event>
<event>
 6    1  0.3411206E-003  0.5109094E+03  0.7546771E-02  0.9375725E-01
        -11   -1    0    0    0    0  0.00000000000E+00  0.00000000000E+00  0.50000000000E+03  0.50000000000E+03  0.00000000000E+00 0.  1.
         11   -1    0    0    0    0 -0.00000000000E+00 -0.00000000000E+00 -0.50000000000E+03  0.50000000000E+03  0.00000000000E+00 0. -1.
        -11    1    1    2    0    0 -0.83007018311E+01 -0.16109747772E+01  0.48901745934E+03  0.48909055648E+03  0.00000000000E+00 0.  1.
         11    1    1    2    0    0 -0.80130865486E+01 -0.43566353792E+01 -0.47204373510E+03  0.47213184353E+03  0.00000000000E+00 0. -1.
        -15    1    1    2    0    0  0.92033778407E+01  0.12040258724E+01 -0.25113905116E+02  0.26833147432E+02  0.17770000000E+01 0.  1.
         15    1    1    2    0    0  0.71104105390E+01  0.47635842839E+01  0.81401808753E+01  0.11944452559E+02  0.17770000000E+01 0. -1.
</event>
<event>
 6    1  0.3411206E-003  0.5072583E+03  0.7546771E-02  0.9383714E-01
        -11   -1    0    0    0    0  0.00000000000E+00  0.00000000000E+00  0.50000000000E+03  0.50000000000E+03  0.00000000000E+00 0. -1.
         11   -1    0    0    0    0 -0.00000000000E+00 -0.00000000000E+00 -0.50000000000E+03  0.50000000000E+03  0.00000000000E+00 0.  1.
        -11    1    1    2    0    0 -0.29766234001E+02  0.76967691173E+01  0.14504768376E+03  0.14827035950E+03  0.00000000000E+00 0. -1.
         11    1    1    2    0    0  0.36776420749E+02 -0.22657305818E+02 -0.49084467541E+03  0.49274167066E+03  0.00000000000E+00 0.  1.
        -15    1    1    2    0    0  0.42024847526E+01  0.46893679082E+02  0.96388682927E+02  0.10728752929E+03  0.17770000000E+01 0.  1.
         15    1    1    2    0    0 -0.11212671501E+02 -0.31933142381E+02  0.24940830872E+03  0.25170044055E+03  0.17770000000E+01 0. -1.
</event>
<event>
 6    1  0.3411206E-003  0.5113366E+03  0.7546771E-02  0.9374795E-01
        -11   -1    0    0    0    0  0.00000000000E+00  0.00000000000E+00  0.50000000000E+03  0.50000000000E+03  0.00000000000E+00 0.  1.
         11   -1    0    0    0    0 -0.00000000000E+00 -0.00000000000E+00 -0.50000000000E+03  0.50000000000E+03  0.00000000000E+00 0.  1.
        -11    1    1    2    0    0 -0.52884722345E+01 -0.18706267601E+02  0.43250722045E+03  0.43294386256E+03  0.00000000000E+00 0.  1.
         11    1    1    2    0    0  0.74553200794E+01  0.29311481117E+01 -0.48859774463E+03  0.48866341124E+03  0.00000000000E+00 0.  1.
        -15    1    1    2    0    0 -0.55310981884E+01  0.34628533107E+02  0.31479544457E+02  0.47157690788E+02  0.17770000000E+01 0.  1.
         15    1    1    2    0    0  0.33642503435E+01 -0.18853413618E+02  0.24610979725E+02  0.31235035416E+02  0.17770000000E+01 0. -1.
</event>
<event>
 6    1  0.3411206E-003  0.5021442E+03  0.7546771E-02  0.9395025E-01
        -11   -1    0    0    0    0  0.00000000000E+00  0.00000000000E+00  0.50000000000E+03  0.50000000000E+03  0.00000000000E+00 0. -1.
         11   -1    0    0    0    0 -0.00000000000E+00 -0.00000000000E+00 -0.50000000000E+03  0.50000000000E+03  0.00000000000E+00 0. -1.
        -11    1    1    2    0    0  0.37741774703E+00  0.75941593743E+01  0.46959902211E+03  0.46966057452E+03  0.00000000000E+00 0. -1.
         11    1    1    2    0    0  0.60293792185E+01  0.52438411381E+01 -0.49779171868E+03  0.49785584909E+03  0.00000000000E+00 0. -1.
        -15    1    1    2    0    0 -0.36651132542E+01 -0.10265265569E+02  0.24686389753E+02  0.27044117668E+02  0.17770000000E+01 0. -1.
         15    1    1    2    0    0 -0.27416837113E+01 -0.25727349431E+01  0.35063068205E+01  0.54394587212E+01  0.17770000000E+01 0.  1.
</event>
<event>
 6    1  0.3411206E-003  0.5054780E+03  0.7546771E-02  0.9387635E-01
        -11   -1    0    0    0    0  0.00000000000E+00  0.00000000000E+00  0.50000000000E+03  0.50000000000E+03  0.00000000000E+00 0. -1.
         11   -1    0    0    0    0 -0.00000000000E+00 -0.00000000000E+00 -0.50000000000E+03  0.50000000000E+03  0.00000000000E+00 0.  1.
        -11    1    1    2    0    0  0.35590648261E+01 -0.22961913156E+02  0.49397576379E+03  0.49452196272E+03  0.00000000000E+00 0. -1.
         11    1    1    2    0    0  0.29631568486E+01 -0.23283357166E+02 -0.28982915712E+03  0.29077798289E+03  0.00000000000E+00 0.  1.
        -15    1    1    2    0    0 -0.15008205879E+01  0.13770191895E+02 -0.85940488981E+01  0.16397745355E+02  0.17770000000E+01 0. -1.
         15    1    1    2    0    0 -0.50214010868E+01  0.32475078427E+02 -0.19555255777E+03  0.19830230904E+03  0.17770000000E+01 0.  1.
</event>
<event>
 6    1  0.3411206E-003  0.5016432E+03  0.7546771E-02  0.9396140E-01
        -11   -1    0    0    0    0  0.00000000000E+00  0.00000000000E+00  0.50000000000E+03  0.50000000000E+03  0.00000000000E+00 0. -1.
         11   -1    0    0    0    0 -0.00000000000E+00 -0.00000000000E+00 -0.50000000000E+03  0.50000000000E+03  0.00000000000E+00 0.  1.
        -11    1    1    2    0    0  0.32015361219E+01 -0.16051428197E+01  0.23248583958E+03  0.23251342310E+03  0.00000000000E+00 0. -1.
         11    1    1    2    0    0 -0.13771398675E+02  0.43003129908E+01 -0.49814790026E+03  0.49835677446E+03  0.00000000000E+00 0.  1.
        -15    1    1    2    0    0  0.69850530981E+01  0.52051866161E+01  0.10267533241E+02  0.13581785683E+02  0.17770000000E+01 0.  1.
         15    1    1    2    0    0  0.35848094553E+01 -0.79003567872E+01  0.25539452744E+03  0.25554801676E+03  0.17770000000E+01 0. -1.
</event>
<event>
 6    1  0.3411206E-003  0.5029267E+03  0.7546771E-02  0.9393285E-01
        -11   -1    0    0    0    0  0.00000000000E+00  0.00000000000E+00  0.50000000000E+03  0.50000000000E+03  0.00000000000E+00 0. -1.
         11   -1    0    0    0    0 -0.00000000000E+00 -0.00000000000E+00 -0.50000000000E+03  0.50000000000E+03  0.00000000000E+00 0.  1.
        -11    1    1    2    0    0 -0.99162501119E+01  0.91341997220E+01  0.13029557231E+03  0.13099122789E+03  0.00000000000E+00 0. -1.
         11    1    1    2    0    0  0.12683618567E+01 -0.76064113361E+01 -0.49701352128E+03  0.49707334124E+03  0.00000000000E+00 0.  1.
        -15    1    1    2    0    0 -0.24463830259E+01  0.44472189527E+01  0.39579060960E+00  0.53923024330E+01  0.17770000000E+01 0.  1.
         15    1    1    2    0    0  0.11094271281E+02 -0.59750073385E+01  0.36632215837E+03  0.36654312844E+03  0.17770000000E+01 0. -1.
</event>
<event>
 6    1  0.3411206E-003  0.5007550E+03  0.7546771E-02  0.9398122E-01
        -11   -1    0    0    0    0  0.00000000000E+00  0.00000000000E+00  0.50000000000E+03  0.50000000000E+03  0.00000000000E+00 0. -1.
         11   -1    0    0    0    0 -0.00000000000E+00 -0.00000000000E+00 -0.50000000000E+03  0.50000000000E+03  0.00000000000E+00 0. -1.
        -11    1    1    2    0    0 -0.50866400070E+01 -0.94501178424E+01  0.29854179995E+03  0.29873463969E+03  0.00000000000E+00 0. -1.
         11    1    1    2    0    0  0.87114992339E+01 -0.70393948672E+01 -0.49911933373E+03  0.49924498255E+03  0.00000000000E+00 0. -1.
        -15    1    1    2    0    0  0.36727412579E+01  0.13570317625E+01  0.95215665322E+02  0.95312702277E+02  0.17770000000E+01 0. -1.
         15    1    1    2    0    0 -0.72976004848E+01  0.15132480947E+02  0.10536186846E+03  0.10670767548E+03  0.17770000000E+01 0.  1.
</event>
<event>
 6    1  0.3411206E-003  0.5230711E+03  0.7546771E-02  0.9349616E-01
        -11   -1    0    0    0    0  0.00000000000E+00  0.00000000000E+00  0.50000000000E+03  0.50000000000E+03  0.00000000000E+00 0.  1.
         11   -1    0    0    0    0 -0.00000000000E+00 -0.00000000000E+00 -0.50000000000E+03  0.50000000000E+03  0.00000000000E+00 0. -1.
        -11    1    1    2    0    0  0.18618481235E+02 -0.19515866022E+02  0.47616559203E+03  0.47692891284E+03  0.00000000000E+00 0.  1.
         11    1    1    2    0    0 -0.74446257514E+01  0.99025487911E+00 -0.36192386564E+03  0.36200177842E+03  0.00000000000E+00 0. -1.
        -15    1    1    2    0    0 -0.17294679431E+02  0.20387223409E+02  0.15635734749E+02  0.31022229853E+02  0.17770000000E+01 0. -1.
         15    1    1    2    0    0  0.61208239467E+01 -0.18616122656E+01 -0.12987746114E+03  0.13004707889E+03  0.17770000000E+01 0.  1.
</event>
<event>
 6    1  0.3411206E-003  0.5127865E+03  0.7546771E-02  0.9371645E-01
        -11   -1    0    0    0    0  0.00000000000E+00  0.00000000000E+00  0.50000000000E+03  0.50000000000E+03  0.00000000000E+00 0. -1.
         11   -1    0    0    0    0 -0.00000000000E+00 -0.00000000000E+00 -0.50000000000E+03  0.50000000000E+03  0.00000000000E+00 0. -1.
        -11    1    1    2    0    0  0.69778123259E+01 -0.36005590153E+01  0.27431779669E+03  0.27443015044E+03  0.00000000000E+00 0. -1.
         11    1    1    2    0    0 -0.15695517526E+02  0.96373076897E+01 -0.48686521264E+03  0.48721346682E+03  0.00000000000E+00 0. -1.
        -15    1    1    2    0    0  0.29475797416E+02  0.38166250469E+02  0.53861541553E+02  0.72316724868E+02  0.17770000000E+01 0.  1.
         15    1    1    2    0    0 -0.20758092216E+02 -0.44202999143E+02  0.15868587439E+03  0.16603965787E+03  0.17770000000E+01 0. -1.
</event>
<event>
 6    1  0.3411206E-003  0.5060488E+03  0.7546771E-02  0.9386376E-01
        -11   -1    0    0    0    0  0.00000000000E+00  0.00000000000E+00  0.50000000000E+03  0.50000000000E+03  0.00000000000E+00 0.  1.
         11   -1    0    0    0    0 -0.00000000000E+00 -0.00000000000E+00 -0.50000000000E+03  0.50000000000E+03  0.00000000000E+00 0. -1.
        -11    1    1    2    0    0 -0.58418300080E+00 -0.71115931945E+01  0.49389967450E+03  0.49395121672E+03  0.00000000000E+00 0.  1.
         11    1    1    2    0    0 -0.29999053252E+01 -0.14448053154E+02 -0.42956308335E+03  0.42981645879E+03  0.00000000000E+00 0. -1.
        -15    1    1    2    0    0 -0.25359277862E+01  0.18109874482E+02 -0.90642965797E+01  0.20487012593E+02  0.17770000000E+01 0. -1.
         15    1    1    2    0    0  0.61200161122E+01  0.34497718662E+01 -0.55272294564E+02  0.55745311897E+02  0.17770000000E+01 0.  1.
</event>
<event>
 6    1  0.3411206E-003  0.5191118E+03  0.7546771E-02  0.9358033E-01
        -11   -1    0    0    0    0  0.00000000000E+00  0.00000000000E+00  0.50000000000E+03  0.50000000000E+03  0.00000000000E+00 0.  1.
         11   -1    0    0    0    0 -0.00000000000E+00 -0.00000000000E+00 -0.50000000000E+03  0.50000000000E+03  0.00000000000E+00 0.  1.
        -11    1    1    2    0    0  0.42337628123E+01 -0.61182083488E+01  0.47424141783E+03  0.47429977821E+03  0.00000000000E+00 0.  1.
         11    1    1    2    0    0 -0.51360820487E+01 -0.42625148469E+01 -0.48084189979E+03  0.48088822086E+03  0.00000000000E+00 0.  1.
        -15    1    1    2    0    0 -0.40535198423E+01  0.36842647084E+01  0.24404717555E+02  0.25074943619E+02  0.17770000000E+01 0.  1.
         15    1    1    2    0    0  0.49558390788E+01  0.66964584873E+01 -0.17804235596E+02  0.19737057314E+02  0.17770000000E+01 0.  1.
</event>
<event>
 6    1  0.3411206E-003  0.5034850E+03  0.7546771E-02  0.9392045E-01
        -11   -1    0    0    0    0  0.00000000000E+00  0.00000000000E+00  0.50000000000E+03  0.50000000000E+03  0.00000000000E+00 0. -1.
         11   -1    0    0    0    0 -0.00000000000E+00 -0.00000000000E+00 -0.50000000000E+03  0.50000000000E+03  0.00000000000E+00 0. -1.
        -11    1    1    2    0    0 -0.18999687357E+01 -0.67084274995E+01  0.38125607388E+03  0.38131982214E+03  0.00000000000E+00 0. -1.
         11    1    1    2    0    0 -0.62850631933E+00  0.95894115057E+01 -0.49642201172E+03  0.49651502047E+03  0.00000000000E+00 0. -1.
        -15    1    1    2    0    0  0.41717681048E+01 -0.17050572474E+02  0.23537154841E+02  0.29415660078E+02  0.17770000000E+01 0. -1.
         15    1    1    2    0    0 -0.16432930498E+01  0.14169588468E+02  0.91628782996E+02  0.92749497313E+02  0.17770000000E+01 0.  1.
</event>
<event>
 6    1  0.3411206E-003  0.5063830E+03  0.7546771E-02  0.9385639E-01
        -11   -1    0    0    0    0  0.00000000000E+00  0.00000000000E+00  0.50000000000E+03  0.50000000000E+03  0.00000000000E+00 0.  1.
         11   -1    0    0    0    0 -0.00000000000E+00 -0.00000000000E+00 -0.50000000000E+03  0.50000000000E+03  0.00000000000E+00 0. -1.
        -11    1    1    2    0    0  0.78133579755E+01  0.60697069900E+01  0.49351783508E+03  0.49361700077E+03  0.00000000000E+00 0.  1.
         11    1    1    2    0    0  0.12981002504E+01 -0.69055016513E+01 -0.45693461453E+03  0.45698863550E+03  0.00000000000E+00 0. -1.
        -15    1    1    2    0    0 -0.12822587547E+02  0.11755707338E+02 -0.32724651993E+02  0.37103584510E+02  0.17770000000E+01 0.  1.
         15    1    1    2    0    0  0.37111293211E+01 -0.10919912677E+02 -0.38585685522E+01  0.12290779226E+02  0.17770000000E+01 0. -1.
</event>
<event>
 6    1  0.3411206E-003  0.6011313E+03  0.7546771E-02  0.9198222E-01
        -11   -1    0    0    0    0  0.00000000000E+00  0.00000000000E+00  0.50000000000E+03  0.50000000000E+03  0.00000000000E+00 0.  1.
         11   -1    0    0    0    0 -0.00000000000E+00 -0.00000000000E+00 -0.50000000000E+03  0.50000000000E+03  0.00000000000E+00 0. -1.
        -11    1    1    2    0    0 -0.44999551601E+01  0.46959211417E+01  0.39881562290E+03  0.39886865299E+03  0.00000000000E+00 0.  1.
         11    1    1    2    0    0 -0.16274690750E+02 -0.14447524053E+01 -0.33058181416E+03  0.33098533007E+03  0.00000000000E+00 0. -1.
        -15    1    1    2    0    0 -0.93601091899E+02  0.24872391205E+02 -0.10869589740E+03  0.14559449197E+03  0.17770000000E+01 0. -1.
         15    1    1    2    0    0  0.11437573781E+03 -0.28123559942E+02  0.40462088668E+02  0.12455152497E+03  0.17770000000E+01 0.  1.
</event>
<event>
 6    1  0.3411206E-003  0.5059774E+03  0.7546771E-02  0.9386533E-01
        -11   -1    0    0    0    0  0.00000000000E+00  0.00000000000E+00  0.50000000000E+03  0.50000000000E+03  0.00000000000E+00 0.  1.
         11   -1    0    0    0    0 -0.00000000000E+00 -0.00000000000E+00 -0.50000000000E+03  0.50000000000E+03  0.00000000000E+00 0. -1.
        -11    1    1    2    0    0  0.24981836208E+01  0.86530754648E+01  0.49394051110E+03  0.49402261602E+03  0.00000000000E+00 0.  1.
         11    1    1    2    0    0  0.12339647032E+01  0.68492118874E+01 -0.47076870550E+03  0.47082014448E+03  0.00000000000E+00 0. -1.
        -15    1    1    2    0    0  0.58933527366E+00 -0.74529885654E+01 -0.24571734731E+02  0.25745334166E+02  0.17770000000E+01 0.  1.
         15    1    1    2    0    0 -0.43214835976E+01 -0.80492987868E+01  0.13999291348E+01  0.94119053345E+01  0.17770000000E+01 0. -1.
</event>
<event>
 6    1  0.3411206E-003  0.5027627E+03  0.7546771E-02  0.9393649E-01
        -11   -1    0    0    0    0  0.00000000000E+00  0.00000000000E+00  0.50000000000E+03  0.50000000000E+03  0.00000000000E+00 0. -1.
         11   -1    0    0    0    0 -0.00000000000E+00 -0.00000000000E+00 -0.50000000000E+03  0.50000000000E+03  0.00000000000E+00 0. -1.
        -11    1    1    2    0    0  0.79784902451E+01  0.45270584221E+01  0.49715265981E+03  0.49723728513E+03  0.00000000000E+00 0. -1.
         11    1    1    2    0    0 -0.15929339821E+01 -0.70243389635E+01 -0.46302848631E+03  0.46308450407E+03  0.00000000000E+00 0. -1.
        -15    1    1    2    0    0  0.17628665206E+00  0.66504964842E+01 -0.29857152979E+02  0.30640944722E+02  0.17770000000E+01 0. -1.
         15    1    1    2    0    0 -0.65618429151E+01 -0.41532159428E+01 -0.42670205190E+01  0.90372660810E+01  0.17770000000E+01 0.  1.
</event>
<event>
 6    1  0.3411206E-003  0.4429493E+03  0.7546771E-02  0.9537374E-01
        -11   -1    0    0    0    0  0.00000000000E+00  0.00000000000E+00  0.50000000000E+03  0.50000000000E+03  0.00000000000E+00 0. -1.
         11   -1    0    0    0    0 -0.00000000000E+00 -0.00000000000E+00 -0.50000000000E+03  0.50000000000E+03  0.00000000000E+00 0.  1.
        -11    1    1    2    0    0 -0.86865136257E+01  0.43103571868E+01  0.44476502475E+03  0.44487072498E+03  0.00000000000E+00 0. -1.
         11    1    1    2    0    0 -0.36892812059E+02 -0.11958786634E+02 -0.44053879745E+03  0.44224260787E+03  0.00000000000E+00 0.  1.
        -15    1    1    2    0    0  0.18515041089E+00 -0.10569790344E+02  0.43333612356E+02  0.44639830167E+02  0.17770000000E+01 0. -1.
         15    1    1    2    0    0  0.45394175274E+02  0.18218219791E+02 -0.47559839655E+02  0.68246836983E+02  0.17770000000E+01 0.  1.
</event>
<event>
 6    1  0.3411206E-003  0.3948756E+03  0.7546771E-02  0.9671664E-01
        -11   -1    0    0    0    0  0.00000000000E+00  0.00000000000E+00  0.50000000000E+03  0.50000000000E+03  0.00000000000E+00 0.  1.
         11   -1    0    0    0    0 -0.00000000000E+00 -0.00000000000E+00 -0.50000000000E+03  0.50000000000E+03  0.00000000000E+00 0.  1.
        -11    1    1    2    0    0  0.29434433621E+01  0.59383353894E+01  0.81956116407E+02  0.82223674830E+02  0.00000000000E+00 0.  1.
         11    1    1    2    0    0 -0.45574923778E+02  0.15331968451E+02 -0.44752876325E+03  0.45010458437E+03  0.00000000000E+00 0.  1.
        -15    1    1    2    0    0  0.42559055977E+02 -0.10352993327E+03  0.21625199033E+02  0.11401985481E+03  0.17770000000E+01 0. -1.
         15    1    1    2    0    0  0.72424439389E-01  0.82259629430E+02  0.34394744781E+03  0.35365188599E+03  0.17770000000E+01 0.  1.
</event>
<event>
 6    1  0.3411206E-003  0.5063121E+03  0.7546771E-02  0.9385796E-01
        -11   -1    0    0    0    0  0.00000000000E+00  0.00000000000E+00  0.50000000000E+03  0.50000000000E+03  0.00000000000E+00 0.  1.
         11   -1    0    0    0    0 -0.00000000000E+00 -0.00000000000E+00 -0.50000000000E+03  0.50000000000E+03  0.00000000000E+00 0. -1.
        -11    1    1    2    0    0 -0.56260645351E+00 -0.22098211860E+02  0.49319278979E+03  0.49368793320E+03  0.00000000000E+00 0.  1.
         11    1    1    2    0    0 -0.11224000026E+01  0.10972824726E+02 -0.39089049368E+03  0.39104608515E+03  0.00000000000E+00 0. -1.
        -15    1    1    2    0    0  0.10215760383E+02 -0.93926074352E+01 -0.87258382448E+02  0.88372879727E+02  0.17770000000E+01 0. -1.
         15    1    1    2    0    0 -0.85307539271E+01  0.20517994569E+02 -0.15043913662E+02  0.26893101922E+02  0.17770000000E+01 0.  1.
</event>
<event>
 6    1  0.3411206E-003  0.5416787E+03  0.7546771E-02  0.9311095E-01
        -11   -1    0    0    0    0  0.00000000000E+00  0.00000000000E+00  0.50000000000E+03  0.50000000000E+03  0.00000000000E+00 0.  1.
         11   -1    0    0    0    0 -0.00000000000E+00 -0.00000000000E+00 -0.50000000000E+03  0.50000000000E+03  0.00000000000E+00 0. -1.
        -11    1    1    2    0    0  0.12874450043E+02  0.33672382686E+01  0.43347771405E+03  0.43368193223E+03  0.00000000000E+00 0.  1.
         11    1    1    2    0    0  0.36279740138E+01  0.64313129294E+01 -0.45826176397E+03  0.45832125010E+03  0.00000000000E+00 0. -1.
        -15    1    1    2    0    0 -0.19885315780E+01 -0.48894944113E+01 -0.40517434553E+02  0.40898430840E+02  0.17770000000E+01 0. -1.
         15    1    1    2    0    0 -0.14513892479E+02 -0.49090567867E+01  0.65301484464E+02  0.67098386833E+02  0.17770000000E+01 0. -1.
</event>
<event>
 6    1  0.3411206E-003  0.5047756E+03  0.7546771E-02  0.9389187E-01
        -11   -1    0    0    0    0  0.00000000000E+00  0.00000000000E+00  0.50000000000E+03  0.50000000000E+03  0.00000000000E+00 0. -1.
         11   -1    0    0    0    0 -0.00000000000E+00 -0.00000000000E+00 -0.50000000000E+03  0.50000000000E+03  0.00000000000E+00 0. -1.
        -11    1    1    2    0    0  0.10559352596E+02  0.23099802961E+01  0.49510646112E+03  0.49522443778E+03  0.00000000000E+00 0. -1.
         11    1    1    2    0    0 -0.75452625342E+00  0.99915371668E+01 -0.47324653895E+03  0.47335260299E+03  0.00000000000E+00 0. -1.
        -15    1    1    2    0    0 -0.19032369726E+01 -0.21998847141E+01  0.22305024033E+01  0.40736560606E+01  0.17770000000E+01 0. -1.
         15    1    1    2    0    0 -0.79015893698E+01 -0.10101632749E+02 -0.24090424573E+02  0.27349303169E+02  0.17770000000E+01 0.  1.
</event>
<event>
 6    1  0.3411206E-003  0.5001893E+03  0.7546771E-02  0.9399386E-01
        -11   -1    0    0    0    0  0.00000000000E+00  0.00000000000E+00  0.50000000000E+03  0.50000000000E+03  0.00000000000E+00 0. -1.
         11   -1    0    0    0    0 -0.00000000000E+00 -0.00000000000E+00 -0.50000000000E+03  0.50000000000E+03  0.00000000000E+00 0.  1.
        -11    1    1    2    0    0 -0.20293456458E+01 -0.30145464824E+01  0.19913186238E+03  0.19916501789E+03  0.00000000000E+00 0. -1.
         11    1    1    2    0    0  0.89662447553E+01  0.15835637197E+01 -0.49972777318E+03  0.49981071268E+03  0.00000000000E+00 0.  1.
        -15    1    1    2    0    0  0.20686342137E+01 -0.51612162067E+00  0.19300397174E+03  0.19302392718E+03  0.17770000000E+01 0. -1.
         15    1    1    2    0    0 -0.90055333232E+01  0.19471043834E+01  0.10759193906E+03  0.10800034225E+03  0.17770000000E+01 0.  1.
</event>
<event>
 6    1  0.3411206E-003  0.5027719E+03  0.7546771E-02  0.9393629E-01
        -11   -1    0    0    0    0  0.00000000000E+00  0.00000000000E+00  0.50000000000E+03  0.50000000000E+03  0.00000000000E+00 0.  1.
         11   -1    0    0    0    0 -0.00000000000E+00 -0.00000000000E+00 -0.50000000000E+03  0.50000000000E+03  0.00000000000E+00 0.  1.
        -11    1    1    2    0    0 -0.71330640650E+01  0.44791426047E+01  0.49715673496E+03  0.49722807889E+03  0.00000000000E+00 0.  1.
         11    1    1    2    0    0 -0.78103683698E+01 -0.80220054688E+01 -0.42249048310E+03  0.42263880884E+03  0.00000000000E+00 0.  1.
        -15    1    1    2    0    0 -0.48639785011E+01  0.70628187777E+01 -0.19154957094E+02  0.21062094061E+02  0.17770000000E+01 0. -1.
         15    1    1    2    0    0  0.19807410936E+02 -0.35199559137E+01 -0.55511294762E+02  0.59071018214E+02  0.17770000000E+01 0.  1.
</event>
<event>
 6    1  0.3411206E-003  0.5055193E+03  0.7546771E-02  0.9387544E-01
        -11   -1    0    0    0    0  0.00000000000E+00  0.00000000000E+00  0.50000000000E+03  0.50000000000E+03  0.00000000000E+00 0.  1.
         11   -1    0    0    0    0 -0.00000000000E+00 -0.00000000000E+00 -0.50000000000E+03  0.50000000000E+03  0.00000000000E+00 0.  1.
        -11    1    1    2    0    0  0.41504857169E+01  0.54995410879E+01  0.46561912854E+03  0.46567010248E+03  0.00000000000E+00 0.  1.
         11    1    1    2    0    0 -0.68205253909E+01  0.11500013588E+02 -0.49429987338E+03  0.49448067172E+03  0.00000000000E+00 0.  1.
        -15    1    1    2    0    0  0.32529273758E+01 -0.61970660602E+01 -0.18125588055E+01  0.74450159630E+01  0.17770000000E+01 0.  1.
         15    1    1    2    0    0 -0.58288770177E+00 -0.10802488615E+02  0.30493303653E+02  0.32404209835E+02  0.17770000000E+01 0. -1.
</event>
<event>
 6    1  0.3411206E-003  0.5015941E+03  0.7546771E-02  0.9396250E-01
        -11   -1    0    0    0    0  0.00000000000E+00  0.00000000000E+00  0.50000000000E+03  0.50000000000E+03  0.00000000000E+00 0. -1.
         11   -1    0    0    0    0 -0.00000000000E+00 -0.00000000000E+00 -0.50000000000E+03  0.50000000000E+03  0.00000000000E+00 0.  1.
        -11    1    1    2    0    0 -0.72000710710E+01  0.73880146833E-01  0.22056273056E+03  0.22068023154E+03  0.00000000000E+00 0. -1.
         11    1    1    2    0    0  0.65816408363E+01  0.22584948887E+01 -0.49835727823E+03  0.49840585426E+03  0.00000000000E+00 0.  1.
        -15    1    1    2    0    0  0.88968333301E+01 -0.19598094638E+02  0.11730625613E+03  0.11927763585E+03  0.17770000000E+01 0.  1.
         15    1    1    2    0    0 -0.82784030953E+01  0.17265719602E+02  0.16048829154E+03  0.16163627835E+03  0.17770000000E+01 0. -1.
</event>
<event>
 6    1  0.3411206E-003  0.5002647E+03  0.7546771E-02  0.9399218E-01
        -11   -1    0    0    0    0  0.00000000000E+00  0.00000000000E+00  0.50000000000E+03  0.50000000000E+03  0.00000000000E+00 0. -1.
         11   -1    0    0    0    0 -0.00000000000E+00 -0.00000000000E+00 -0.50000000000E+03  0.50000000000E+03  0.00000000000E+00 0. -1.
        -11    1    1    2    0    0  0.71113478642E-01 -0.34093544279E+01  0.19817267375E+03  0.19820201153E+03  0.00000000000E+00 0. -1.
         11    1    1    2    0    0 -0.58546722566E+01 -0.96607650493E+01 -0.49960761073E+03  0.49973530220E+03  0.00000000000E+00 0. -1.
        -15    1    1    2    0    0  0.31941806262E+01  0.55548447449E+01  0.44065125754E+02  0.44564022785E+02  0.17770000000E+01 0.  1.
         15    1    1    2    0    0  0.25893781518E+01  0.75152747323E+01  0.25736981123E+03  0.25749866348E+03  0.17770000000E+01 0. -1.
</event>
<event>
 6    1  0.3411206E-003  0.5074174E+03  0.7546771E-02  0.9383364E-01
        -11   -1    0    0    0    0  0.00000000000E+00  0.00000000000E+00  0.50000000000E+03  0.50000000000E+03  0.00000000000E+00 0. -1.
         11   -1    0    0    0    0 -0.00000000000E+00 -0.00000000000E+00 -0.50000000000E+03  0.50000000000E+03  0.00000000000E+00 0.  1.
        -11    1    1    2    0    0 -0.27870763324E+02  0.40411732991E+01  0.33825287603E+03  0.33942321469E+03  0.00000000000E+00 0. -1.
         11    1    1    2    0    0 -0.46412875580E+01  0.46990114149E+02 -0.49031416513E+03  0.49258257471E+03  0.00000000000E+00 0.  1.
        -15    1    1    2    0    0  0.23134647091E+02 -0.14333227995E+02  0.99582343262E+02  0.10324947525E+03  0.17770000000E+01 0.  1.
         15    1    1    2    0    0  0.93774037907E+01 -0.36698059453E+02  0.52478945844E+02  0.64744735349E+02  0.17770000000E+01 0. -1.
</event>
<event>
 6    1  0.3411206E-003  0.5009207E+03  0.7546771E-02  0.9397752E-01
        -11   -1    0    0    0    0  0.00000000000E+00  0.00000000000E+00  0.50000000000E+03  0.50000000000E+03  0.00000000000E+00 0.  1.
         11   -1    0    0    0    0 -0.00000000000E+00 -0.00000000000E+00 -0.50000000000E+03  0.50000000000E+03  0.00000000000E+00 0.  1.
        -11    1    1    2    0    0 -0.58910607409E+01  0.86439756479E+01  0.28314992169E+03  0.28334308015E+03  0.00000000000E+00 0.  1.
         11    1    1    2    0    0  0.10957467732E+02  0.62396322803E+01 -0.49892001892E+03  0.49907933677E+03  0.00000000000E+00 0.  1.
        -15    1    1    2    0    0 -0.49540723194E+01 -0.21519703392E+01  0.16834469792E+03  0.16844069834E+03  0.17770000000E+01 0.  1.
         15    1    1    2    0    0 -0.11233467166E+00 -0.12731637589E+02  0.47425399305E+02  0.49136884751E+02  0.17770000000E+01 0. -1.
</event>
<event>
 6    1  0.3411206E-003  0.5086708E+03  0.7546771E-02  0.9380614E-01
        -11   -1    0    0    0    0  0.00000000000E+00  0.00000000000E+00  0.50000000000E+03  0.50000000000E+03  0.00000000000E+00 0.  1.
         11   -1    0    0    0    0 -0.00000000000E+00 -0.00000000000E+00 -0.50000000000E+03  0.50000000000E+03  0.00000000000E+00 0.  1.
        -11    1    1    2    0    0 -0.75596000095E+01  0.12558479050E+02  0.49111050391E+03  0.49132920736E+03  0.00000000000E+00 0.  1.
         11    1    1    2    0    0  0.77233151860E+01 -0.47060975386E+00 -0.48304574576E+03  0.48310771425E+03  0.00000000000E+00 0.  1.
        -15    1    1    2    0    0  0.26707510295E+01 -0.11933392630E+02  0.40422637442E+01  0.13001399767E+02  0.17770000000E+01 0. -1.
         15    1    1    2    0    0 -0.28344662059E+01 -0.15447666536E+00 -0.12107021901E+02  0.12561678631E+02  0.17770000000E+01 0.  1.
</event>
<event>
 6    1  0.3411206E-003  0.4900784E+03  0.7546771E-02  0.9422288E-01
        -11   -1    0    0    0    0  0.00000000000E+00  0.00000000000E+00  0.50000000000E+03  0.50000000000E+03  0.00000000000E+00 0.  1.
         11   -1    0    0    0    0 -0.00000000000E+00 -0.00000000000E+00 -0.50000000000E+03  0.50000000000E+03  0.00000000000E+00 0. -1.
        -11    1    1    2    0    0  0.38393051631E+01  0.83551962059E+01  0.49231312866E+03  0.49239899088E+03  0.00000000000E+00 0.  1.
         11    1    1    2    0    0 -0.56400182604E+01 -0.17149859272E+02 -0.48747673256E+03  0.48781091856E+03  0.00000000000E+00 0. -1.
        -15    1    1    2    0    0  0.71307285368E+01  0.90452328713E+01 -0.71897277865E+01  0.13693554754E+02  0.17770000000E+01 0.  1.
         15    1    1    2    0    0 -0.53300154394E+01 -0.25056980535E+00  0.23533316837E+01  0.60965358053E+01  0.17770000000E+01 0. -1.
</event>
<event>
 6    1  0.3411206E-003  0.4776495E+03  0.7546771E-02  0.9451258E-01
        -11   -1    0    0    0    0  0.00000000000E+00  0.00000000000E+00  0.50000000000E+03  0.50000000000E+03  0.00000000000E+00 0. -1.
         11   -1    0    0    0    0 -0.00000000000E+00 -0.00000000000E+00 -0.50000000000E+03  0.50000000000E+03  0.00000000000E+00 0. -1.
        -11    1    1    2    0    0  0.13063856444E+02  0.11523784703E+02  0.47489664819E+03  0.47521604395E+03  0.00000000000E+00 0. -1.
         11    1    1    2    0    0 -0.36612848891E+01 -0.17218844856E+02 -0.47983610420E+03  0.48015891173E+03  0.00000000000E+00 0. -1.
        -15    1    1    2    0    0  0.68212587656E+01  0.11167819156E+02 -0.13853602657E+02  0.19139743766E+02  0.17770000000E+01 0. -1.
         15    1    1    2    0    0 -0.16223830321E+02 -0.54727590030E+01  0.18793058664E+02  0.25485300554E+02  0.17770000000E+01 0.  1.
</event>
<event>
 6    1  0.3411206E-003  0.5127628E+03  0.7546771E-02  0.9371696E-01
        -11   -1    0    0    0    0  0.00000000000E+00  0.00000000000E+00  0.50000000000E+03  0.50000000000E+03  0.00000000000E+00 0.  1.
         11   -1    0    0    0    0 -0.00000000000E+00 -0.00000000000E+00 -0.50000000000E+03  0.50000000000E+03  0.00000000000E+00 0. -1.
        -11    1    1    2    0    0 -0.46050270365E+00  0.11782217957E+02  0.48709454270E+03  0.48723723816E+03  0.00000000000E+00 0.  1.
         11    1    1    2    0    0 -0.14707394127E+02  0.21293446162E+02 -0.23671161220E+03  0.23812203938E+03  0.00000000000E+00 0. -1.
        -15    1    1    2    0    0  0.53811180612E+00 -0.52293185254E+01  0.10492606167E+02  0.11869618769E+02  0.17770000000E+01 0. -1.
         15    1    1    2    0    0  0.14629785025E+02 -0.27846345593E+02 -0.26087553667E+03  0.26277110369E+03  0.17770000000E+01 0.  1.
</event>
<event>
 6    1  0.3411206E-003  0.5045450E+03  0.7546771E-02  0.9389697E-01
        -11   -1    0    0    0    0  0.00000000000E+00  0.00000000000E+00  0.50000000000E+03  0.50000000000E+03  0.00000000000E+00 0. -1.
         11   -1    0    0    0    0 -0.00000000000E+00 -0.00000000000E+00 -0.50000000000E+03  0.50000000000E+03  0.00000000000E+00 0.  1.
        -11    1    1    2    0    0  0.40915351786E+01 -0.19798809603E+02  0.49504229761E+03  0.49545495249E+03  0.00000000000E+00 0. -1.
         11    1    1    2    0    0 -0.92254806275E+01 -0.38098805007E+00 -0.43884036596E+03  0.43893749150E+03  0.00000000000E+00 0.  1.
        -15    1    1    2    0    0  0.89092954726E+01  0.13180183727E+02 -0.10407253571E+02  0.19093492210E+02  0.17770000000E+01 0. -1.
         15    1    1    2    0    0 -0.37753500236E+01  0.69996139260E+01 -0.45794678077E+02  0.46514063809E+02  0.17770000000E+01 0.  1.
</event>
<event>
 6    1  0.3411206E-003  0.5191198E+03  0.7546771E-02  0.9358015E-01
        -11   -1    0    0    0    0  0.00000000000E+00  0.00000000000E+00  0.50000000000E+03  0.50000000000E+03  0.00000000000E+00 0.  1.
         11   -1    0    0    0    0 -0.00000000000E+00 -0.00000000000E+00 -0.50000000000E+03  0.50000000000E+03  0.00000000000E+00 0.  1.
        -11    1    1    2    0    0  0.69373049816E+01 -0.26312720728E+01  0.48082294720E+03  0.48088018919E+03  0.00000000000E+00 0.  1.
         11    1    1    2    0    0 -0.12624998633E+02 -0.16659923777E+01 -0.42930082088E+03  0.42948965171E+03  0.00000000000E+00 0.  1.
        -15    1    1    2    0    0 -0.16290963778E+02 -0.15772754063E+02  0.71282974425E+01  0.23835805524E+02  0.17770000000E+01 0. -1.
         15    1    1    2    0    0  0.21978657429E+02  0.20070018514E+02 -0.58650423770E+02  0.65794353579E+02  0.17770000000E+01 0.  1.
</event>
<event>
 6    1  0.3411206E-003  0.5111395E+03  0.7546771E-02  0.9375223E-01
        -11   -1    0    0    0    0  0.00000000000E+00  0.00000000000E+00  0.50000000000E+03  0.50000000000E+03  0.00000000000E+00 0.  1.
         11   -1    0    0    0    0 -0.00000000000E+00 -0.00000000000E+00 -0.50000000000E+03  0.50000000000E+03  0.00000000000E+00 0. -1.
        -11    1    1    2    0    0  0.10608665241E+01  0.12148097288E+02  0.45771621391E+03  0.45787862386E+03  0.00000000000E+00 0.  1.
         11    1    1    2    0    0 -0.35398842476E+01 -0.70103902270E+01 -0.48879737241E+03  0.48886045823E+03  0.00000000000E+00 0. -1.
        -15    1    1    2    0    0  0.78817840621E+01  0.45100223678E+01 -0.82312181658E+01  0.12384405648E+02  0.17770000000E+01 0.  1.
         15    1    1    2    0    0 -0.54027663386E+01 -0.96477294289E+01  0.39312376659E+02  0.40876512263E+02  0.17770000000E+01 0. -1.
</event>
<event>
 6    1  0.3411206E-003  0.5116588E+03  0.7546771E-02  0.9374094E-01
        -11   -1    0    0    0    0  0.00000000000E+00  0.00000000000E+00  0.50000000000E+03  0.50000000000E+03  0.00000000000E+00 0. -1.
         11   -1    0    0    0    0 -0.00000000000E+00 -0.00000000000E+00 -0.50000000000E+03  0.50000000000E+03  0.00000000000E+00 0.  1.
        -11    1    1    2    0    0 -0.55509478613E+01 -0.49587526750E+01  0.47913465384E+03  0.47919246526E+03  0.00000000000E+00 0. -1.
         11    1    1    2    0    0  0.44984114213E+01  0.64835300859E+01 -0.48827740885E+03  0.48834117158E+03  0.00000000000E+00 0.  1.
        -15    1    1    2    0    0 -0.83846217171E+01 -0.13357255839E+02  0.38124086233E+01  0.16322081773E+02  0.17770000000E+01 0.  1.
         15    1    1    2    0    0  0.94371581572E+01  0.11832478428E+02  0.53303463840E+01  0.16144281384E+02  0.17770000000E+01 0. -1.
</event>
<event>
 6    1  0.3411206E-003  0.5026015E+03  0.7546771E-02  0.9394007E-01
        -11   -1    0    0    0    0  0.00000000000E+00  0.00000000000E+00  0.50000000000E+03  0.50000000000E+03  0.00000000000E+00 0.  1.
         11   -1    0    0    0    0 -0.00000000000E+00 -0.00000000000E+00 -0.50000000000E+03  0.50000000000E+03  0.00000000000E+00 0. -1.
        -11    1    1    2    0    0 -0.20339245181E+01 -0.89249486728E+01  0.43412742926E+03  0.43422392426E+03  0.00000000000E+00 0.  1.
         11    1    1    2    0    0 -0.59779494095E+01 -0.59550501657E+01 -0.49732696197E+03  0.49739853800E+03  0.00000000000E+00 0. -1.
        -15    1    1    2    0    0  0.11246199764E+02  0.13245286870E+02  0.28374808641E+02  0.33319695794E+02  0.17770000000E+01 0. -1.
         15    1    1    2    0    0 -0.32343258362E+01  0.16347119683E+01  0.34824724066E+02  0.35057841949E+02  0.17770000000E+01 0.  1.
</event>
<event>
 6    1  0.3411206E-003  0.5018735E+03  0.7546771E-02  0.9395627E-01
        -11   -1    0    0    0    0  0.00000000000E+00  0.00000000000E+00  0.50000000000E+03  0.50000000000E+03  0.00000000000E+00 0. -1.
         11   -1    0    0    0    0 -0.00000000000E+00 -0.00000000000E+00 -0.50000000000E+03  0.50000000000E+03  0.00000000000E+00 0.  1.
        -11    1    1    2    0    0  0.34013392001E+00 -0.80888727309E+01  0.24274661586E+03  0.24288158650E+03  0.00000000000E+00 0. -1.
         11    1    1    2    0    0 -0.25722738149E+02  0.71940631876E+01 -0.49740989157E+03  0.49812650404E+03  0.00000000000E+00 0.  1.
        -15    1    1    2    0    0  0.14486725562E+02 -0.19063699761E+02  0.14596807013E+03  0.14792945985E+03  0.17770000000E+01 0.  1.
         15    1    1    2    0    0  0.10895878667E+02  0.19958509304E+02  0.10869520558E+03  0.11106244960E+03  0.17770000000E+01 0. -1.
</event>
<event>
 6    1  0.3411206E-003  0.5244313E+03  0.7546771E-02  0.9346743E-01
        -11   -1    0    0    0    0  0.00000000000E+00  0.00000000000E+00  0.50000000000E+03  0.50000000000E+03  0.00000000000E+00 0.  1.
         11   -1    0    0    0    0 -0.00000000000E+00 -0.00000000000E+00 -0.50000000000E+03  0.50000000000E+03  0.00000000000E+00 0. -1.
        -11    1    1    2    0    0 -0.10279998676E+02  0.77255741139E+01  0.44572620877E+03  0.44591166844E+03  0.00000000000E+00 0.  1.
         11    1    1    2    0    0 -0.25451155808E+00  0.18023663255E+02 -0.47522697492E+03  0.47556870681E+03  0.00000000000E+00 0. -1.
        -15    1    1    2    0    0 -0.29380471953E+01  0.22423969989E+02  0.81879003234E+01  0.24117752633E+02  0.17770000000E+01 0.  1.
         15    1    1    2    0    0  0.13472557430E+02 -0.48173207358E+02  0.21312865827E+02  0.54401872115E+02  0.17770000000E+01 0. -1.
</event>
<event>
 6    1  0.3411206E-003  0.5121180E+03  0.7546771E-02  0.9373096E-01
        -11   -1    0    0    0    0  0.00000000000E+00  0.00000000000E+00  0.50000000000E+03  0.50000000000E+03  0.00000000000E+00 0. -1.
         11   -1    0    0    0    0 -0.00000000000E+00 -0.00000000000E+00 -0.50000000000E+03  0.50000000000E+03  0.00000000000E+00 0.  1.
        -11    1    1    2    0    0 -0.75731331366E+01 -0.69720161752E+01  0.48777341434E+03  0.48788201964E+03  0.00000000000E+00 0. -1.
         11    1    1    2    0    0  0.14744256733E+02 -0.12344696327E+02 -0.46743592876E+03  0.46783130734E+03  0.00000000000E+00 0.  1.
        -15    1    1    2    0    0 -0.16476576673E+02  0.22698376814E+02 -0.19471269649E+02  0.34190378173E+02  0.17770000000E+01 0.  1.
         15    1    1    2    0    0  0.93054530761E+01 -0.33816643113E+01 -0.86621592972E+00  0.10096294840E+02  0.17770000000E+01 0. -1.
</event>
<event>
 6    1  0.3411206E-003  0.5068020E+03  0.7546771E-02  0.9384717E-01
        -11   -1    0    0    0    0  0.00000000000E+00  0.00000000000E+00  0.50000000000E+03  0.50000000000E+03  0.00000000000E+00 0.  1.
         11   -1    0    0    0    0 -0.00000000000E+00 -0.00000000000E+00 -0.50000000000E+03  0.50000000000E+03  0.00000000000E+00 0. -1.
        -11    1    1    2    0    0 -0.11412682048E+02  0.39964268027E+01  0.49304973726E+03  0.49319799690E+03  0.00000000000E+00 0.  1.
         11    1    1    2    0    0 -0.14742174989E+01  0.77333365236E+01 -0.46095315086E+03  0.46102037385E+03  0.00000000000E+00 0. -1.
        -15    1    1    2    0    0  0.11350074817E+02 -0.19642406586E+02 -0.29231647435E+02  0.37044503986E+02  0.17770000000E+01 0. -1.
         15    1    1    2    0    0  0.15368247300E+01  0.79126432593E+01 -0.28649389610E+01  0.87371252623E+01  0.17770000000E+01 0.  1.
</event>
<event>
 6    1  0.3411206E-003  0.5553689E+03  0.7546771E-02  0.9283786E-01
        -11   -1    0    0    0    0  0.00000000000E+00  0.00000000000E+00  0.50000000000E+03  0.50000000000E+03  0.00000000000E+00 0. -1.
         11   -1    0    0    0    0 -0.00000000000E+00 -0.00000000000E+00 -0.50000000000E+03  0.50000000000E+03  0.00000000000E+00 0.  1.
        -11    1    1    2    0    0 -0.31659893905E+01  0.85555420005E+01  0.38655791616E+03  0.38666554454E+03  0.00000000000E+00 0. -1.
         11    1    1    2    0    0  0.21634890068E+02  0.14011843380E+02 -0.44388330437E+03  0.44463106967E+03  0.00000000000E+00 0.  1.
        -15    1    1    2    0    0 -0.14807868079E+02 -0.43354497365E+01  0.11089124134E+03  0.11197363179E+03  0.17770000000E+01 0. -1.
         15    1    1    2    0    0 -0.36610325976E+01 -0.18231935644E+02 -0.53565853136E+02  0.56729753993E+02  0.17770000000E+01 0.  1.
</event>
<event>
 6    1  0.3411206E-003  0.5087913E+03  0.7546771E-02  0.9380351E-01
        -11   -1    0    0    0    0  0.00000000000E+00  0.00000000000E+00  0.50000000000E+03  0.50000000000E+03  0.00000000000E+00 0. -1.
         11   -1    0    0    0    0 -0.00000000000E+00 -0.00000000000E+00 -0.50000000000E+03  0.50000000000E+03  0.00000000000E+00 0. -1.
        -11    1    1    2    0    0 -0.16426776597E+02 -0.99795410287E+01  0.49083255998E+03  0.49120874602E+03  0.00000000000E+00 0. -1.
         11    1    1    2    0    0  0.89733552103E+01 -0.21438437563E+01 -0.40603850735E+03  0.40614330799E+03  0.00000000000E+00 0. -1.
        -15    1    1    2    0    0 -0.73710933995E+01  0.46734781180E+01 -0.85484819156E+02  0.85947579668E+02  0.17770000000E+01 0.  1.
         15    1    1    2    0    0  0.14824514786E+02  0.74499066670E+01  0.69076652528E+00  0.16700366325E+02  0.17770000000E+01 0. -1.
</event>
<event>
 6    1  0.3411206E-003  0.5050161E+03  0.7546771E-02  0.9388655E-01
        -11   -1    0    0    0    0  0.00000000000E+00  0.00000000000E+00  0.50000000000E+03  0.50000000000E+03  0.00000000000E+00 0. -1.
         11   -1    0    0    0    0 -0.00000000000E+00 -0.00000000000E+00 -0.50000000000E+03  0.50000000000E+03  0.00000000000E+00 0.  1.
        -11    1    1    2    0    0  0.88108182444E+01 -0.14298279278E+01  0.49490338719E+03  0.49498387608E+03  0.00000000000E+00 0. -1.
         11    1    1    2    0    0  0.33441081209E+00  0.78173831471E+01 -0.28927235046E+03  0.28937815406E+03  0.00000000000E+00 0.  1.
        -15    1    1    2    0    0 -0.39565442630E+01  0.19432243246E+01  0.37286868493E+01  0.60407944760E+01  0.17770000000E+01 0. -1.
         15    1    1    2    0    0 -0.51886847934E+01 -0.83307795439E+01 -0.20935972358E+03  0.20959717538E+03  0.17770000000E+01 0.  1.
</event>
<event>
 6    1  0.3411206E-003  0.5022353E+03  0.7546771E-02  0.9394822E-01
        -11   -1    0    0    0    0  0.00000000000E+00  0.00000000000E+00  0.50000000000E+03  0.50000000000E+03  0.00000000000E+00 0.  1.
         11   -1    0    0    0    0 -0.00000000000E+00 -0.00000000000E+00 -0.50000000000E+03  0.50000000000E+03  0.00000000000E+00 0.  1.
        -11    1    1    2    0    0  0.30823185706E+02  0.97352053335E+01  0.49671403530E+03  0.49776467921E+03  0.00000000000E+00 0.  1.
         11    1    1    2    0    0  0.35387923761E+01  0.18534390606E+01 -0.22549814547E+03  0.22553352721E+03  0.00000000000E+00 0.  1.
        -15    1    1    2    0    0 -0.42551850568E+02 -0.11444169232E+02 -0.18981521404E+03  0.19487073204E+03  0.17770000000E+01 0.  1.
         15    1    1    2    0    0  0.81898724854E+01 -0.14447516178E+00 -0.81400675797E+02  0.81831061545E+02  0.17770000000E+01 0. -1.
</event>
<event>
 6    1  0.3411206E-003  0.5042419E+03  0.7546771E-02  0.9390368E-01
        -11   -1    0    0    0    0  0.00000000000E+00  0.00000000000E+00  0.50000000000E+03  0.50000000000E+03  0.00000000000E+00 0.  1.
         11   -1    0    0    0    0 -0.00000000000E+00 -0.00000000000E+00 -0.50000000000E+03  0.50000000000E+03  0.00000000000E+00 0.  1.
        -11    1    1    2    0    0  0.27699883203E+01 -0.83754886466E+01  0.49567961804E+03  0.49575811177E+03  0.00000000000E+00 0.  1.
         11    1    1    2    0    0  0.84138792210E+01  0.41438891629E+01 -0.46044524074E+03  0.46054075270E+03  0.00000000000E+00 0.  1.
        -15    1    1    2    0    0 -0.91517691898E+01 -0.65082090696E+01 -0.28635815539E+02  0.30810376907E+02  0.17770000000E+01 0.  1.
         15    1    1    2    0    0 -0.20320983515E+01  0.10739808553E+02 -0.65985617675E+01  0.12890758623E+02  0.17770000000E+01 0.  1.
</event>
<event>
 6    1  0.3411206E-003  0.5000810E+03  0.7546771E-02  0.9399628E-01
        -11   -1    0    0    0    0  0.00000000000E+00  0.00000000000E+00  0.50000000000E+03  0.50000000000E+03  0.00000000000E+00 0. -1.
         11   -1    0    0    0    0 -0.00000000000E+00 -0.00000000000E+00 -0.50000000000E+03  0.50000000000E+03  0.00000000000E+00 0. -1.
        -11    1    1    2    0    0  0.58247862033E+00 -0.14706114130E+00  0.23212015898E+02  0.23219788767E+02  0.00000000000E+00 0. -1.
         11    1    1    2    0    0  0.11986268668E+02  0.17380375476E+01 -0.49977225167E+03  0.49991898839E+03  0.00000000000E+00 0. -1.
        -15    1    1    2    0    0 -0.92098460864E+01 -0.45215347532E+01  0.40818918911E+03  0.40832197758E+03  0.17770000000E+01 0. -1.
         15    1    1    2    0    0 -0.33589012019E+01  0.29305583469E+01  0.68371046670E+02  0.68539245263E+02  0.17770000000E+01 0.  1.
</event>
<event>
 6    1  0.3411206E-003  0.5004331E+03  0.7546771E-02  0.9398841E-01
        -11   -1    0    0    0    0  0.00000000000E+00  0.00000000000E+00  0.50000000000E+03  0.50000000000E+03  0.00000000000E+00 0. -1.
         11   -1    0    0    0    0 -0.00000000000E+00 -0.00000000000E+00 -0.50000000000E+03  0.50000000000E+03  0.00000000000E+00 0. -1.
        -11    1    1    2    0    0  0.15266109217E+01  0.59921384852E+01  0.28398828953E+03  0.28405560170E+03  0.00000000000E+00 0. -1.
         11    1    1    2    0    0  0.64673638304E+01 -0.33951471586E+01 -0.49951347779E+03  0.49956688072E+03  0.00000000000E+00 0. -1.
        -15    1    1    2    0    0 -0.11573383428E+02 -0.32347250476E+01  0.93572996006E+02  0.94358200283E+02  0.17770000000E+01 0.  1.
         15    1    1    2    0    0  0.35794086754E+01  0.63773372091E+00  0.12195219225E+03  0.12201931730E+03  0.17770000000E+01 0.  1.
</event>
<event>
 6    1  0.3411206E-003  0.5104645E+03  0.7546771E-02  0.9376694E-01
        -11   -1    0    0    0    0  0.00000000000E+00  0.00000000000E+00  0.50000000000E+03  0.50000000000E+03  0.00000000000E+00 0. -1.
         11   -1    0    0    0    0 -0.00000000000E+00 -0.00000000000E+00 -0.50000000000E+03  0.50000000000E+03  0.00000000000E+00 0. -1.
        -11    1    1    2    0    0  0.10963811300E+01  0.63419494751E+01  0.32080840014E+03  0.32087295301E+03  0.00000000000E+00 0. -1.
         11    1    1    2    0    0  0.48877312405E+02  0.31460365679E+02 -0.48607226344E+03  0.48953548550E+03  0.00000000000E+00 0. -1.
        -15    1    1    2    0    0 -0.58771242401E+02 -0.44801811197E+02  0.10591033159E+03  0.12915656115E+03  0.17770000000E+01 0.  1.
         15    1    1    2    0    0  0.87975488663E+01  0.69994960422E+01  0.59353531713E+02  0.60435000345E+02  0.17770000000E+01 0. -1.
</event>
<event>
 6    1  0.3411206E-003  0.5009038E+03  0.7546771E-02  0.9397790E-01
        -11   -1    0    0    0    0  0.00000000000E+00  0.00000000000E+00  0.50000000000E+03  0.50000000000E+03  0.00000000000E+00 0. -1.
         11   -1    0    0    0    0 -0.00000000000E+00 -0.00000000000E+00 -0.50000000000E+03  0.50000000000E+03  0.00000000000E+00 0. -1.
        -11    1    1    2    0    0  0.38009166381E+01 -0.14493832626E+01  0.24019567150E+03  0.24023011528E+03  0.00000000000E+00 0. -1.
         11    1    1    2    0    0  0.14735260213E+00 -0.72380652410E+01 -0.49904373107E+03  0.49909624004E+03  0.00000000000E+00 0. -1.
        -15    1    1    2    0    0 -0.44827965661E+01 -0.32026538457E+01  0.21831877292E+03  0.21839550544E+03  0.17770000000E+01 0. -1.
         15    1    1    2    0    0  0.53452732579E+00  0.11890102349E+02  0.40529286643E+02  0.42278139246E+02  0.17770000000E+01 0.  1.
</event>
<event>
 6    1  0.3411206E-003  0.5010296E+03  0.7546771E-02  0.9397509E-01
        -11   -1    0    0    0    0  0.00000000000E+00  0.00000000000E+00  0.50000000000E+03  0.50000000000E+03  0.00000000000E+00 0. -1.
         11   -1    0    0    0    0 -0.00000000000E+00 -0.00000000000E+00 -0.50000000000E+03  0.50000000000E+03  0.00000000000E+00 0.  1.
        -11    1    1    2    0    0 -0.58388126342E+01  0.40771430448E+01  0.45106699822E+03  0.45112321123E+03  0.00000000000E+00 0. -1.
         11    1    1    2    0    0  0.89418602416E+01 -0.38492375923E+01 -0.49887545201E+03  0.49897043009E+03  0.00000000000E+00 0.  1.
        -15    1    1    2    0    0  0.34891723547E+01 -0.10037345888E+01  0.36136905076E+02  0.36362280516E+02  0.17770000000E+01 0. -1.
         15    1    1    2    0    0 -0.65922199621E+01  0.77582913634E+00  0.11671548708E+02  0.13544078157E+02  0.17770000000E+01 0. -1.
</event>
<event>
 6    1  0.3411206E-003  0.5127582E+03  0.7546771E-02  0.9371706E-01
        -11   -1    0    0    0    0  0.00000000000E+00  0.00000000000E+00  0.50000000000E+03  0.50000000000E+03  0.00000000000E+00 0. -1.
         11   -1    0    0    0    0 -0.00000000000E+00 -0.00000000000E+00 -0.50000000000E+03  0.50000000000E+03  0.00000000000E+00 0. -1.
        -11    1    1    2    0    0  0.71129373111E+01 -0.66764536389E+00  0.48718939654E+03  0.48724177544E+03  0.00000000000E+00 0. -1.
         11    1    1    2    0    0  0.22126872019E+01  0.60918532651E+01 -0.46783461686E+03  0.46787950948E+03  0.00000000000E+00 0. -1.
        -15    1    1    2    0    0  0.53926328091E+01 -0.72740977918E+01 -0.26686293001E+02  0.28236659690E+02  0.17770000000E+01 0. -1.
         15    1    1    2    0    0 -0.14718257322E+02  0.18498898906E+01  0.73315133173E+01  0.16642055394E+02  0.17770000000E+01 0.  1.
</event>
<event>
 6    1  0.3411206E-003  0.5095208E+03  0.7546771E-02  0.9378755E-01
        -11   -1    0    0    0    0  0.00000000000E+00  0.00000000000E+00  0.50000000000E+03  0.50000000000E+03  0.00000000000E+00 0.  1.
         11   -1    0    0    0    0 -0.00000000000E+00 -0.00000000000E+00 -0.50000000000E+03  0.50000000000E+03  0.00000000000E+00 0. -1.
        -11    1    1    2    0    0 -0.21206917916E+01 -0.14021332745E+02  0.49027413475E+03  0.49047917622E+03  0.00000000000E+00 0.  1.
         11    1    1    2    0    0 -0.17501911500E+02  0.14555327087E+02 -0.45369426363E+03  0.45426496596E+03  0.00000000000E+00 0. -1.
        -15    1    1    2    0    0  0.16522965770E+02 -0.65977200644E+01 -0.42468690162E+02  0.46079124134E+02  0.17770000000E+01 0. -1.
         15    1    1    2    0    0  0.30996375219E+01  0.60637257220E+01  0.58888190405E+01  0.91767336831E+01  0.17770000000E+01 0.  1.
</event>
<event>
 6    1  0.3411206E-003  0.5066153E+03  0.7546771E-02  0.9385128E-01
        -11   -1    0    0    0    0  0.00000000000E+00  0.00000000000E+00  0.50000000000E+03  0.50000000000E+03  0.00000000000E+00 0.  1.
         11   -1    0    0    0    0 -0.00000000000E+00 -0.00000000000E+00 -0.50000000000E+03  0.50000000000E+03  0.00000000000E+00 0.  1.
        -11    1    1    2    0    0  0.71364111786E+01 -0.38808698305E+01  0.49331782678E+03  0.49338470561E+03  0.00000000000E+00 0.  1.
         11    1    1    2    0    0  0.13203960069E+02 -0.13399472728E+02 -0.42828966969E+03  0.42870261440E+03  0.00000000000E+00 0.  1.
        -15    1    1    2    0    0 -0.16749292892E+02  0.20822388029E+02 -0.67045689889E+02  0.72196903794E+02  0.17770000000E+01 0. -1.
         15    1    1    2    0    0 -0.35910783549E+01 -0.35420454704E+01  0.20175328072E+01  0.57157761935E+01  0.17770000000E+01 0.  1.
</event>
<event>
 6    1  0.3411206E-003  0.4858533E+03  0.7546771E-02  0.9432033E-01
        -11   -1    0    0    0    0  0.00000000000E+00  0.00000000000E+00  0.50000000000E+03  0.50000000000E+03  0.00000000000E+00 0.  1.
         11   -1    0    0    0    0 -0.00000000000E+00 -0.00000000000E+00 -0.50000000000E+03  0.50000000000E+03  0.00000000000E+00 0.  1.
        -11    1    1    2    0    0 -0.67786028240E+01  0.25851707999E+00  0.48970337070E+03  0.48975035229E+03  0.00000000000E+00 0.  1.
         11    1    1    2    0    0  0.13931528778E+02 -0.17225746649E+02 -0.48165477034E+03  0.48216400906E+03  0.00000000000E+00 0.  1.
        -15    1    1    2    0    0 -0.10906350900E+02  0.19159529660E+02 -0.57270924808E+01  0.22847174530E+02  0.17770000000E+01 0.  1.
         15    1    1    2    0    0  0.37534249465E+01 -0.21923000905E+01 -0.23215078870E+01  0.52384641246E+01  0.17770000000E+01 0. -1.
</event>
<event>
 6    1  0.3411206E-003  0.5185280E+03  0.7546771E-02  0.9359280E-01
        -11   -1    0    0    0    0  0.00000000000E+00  0.00000000000E+00  0.50000000000E+03  0.50000000000E+03  0.00000000000E+00 0.  1.
         11   -1    0    0    0    0 -0.00000000000E+00 -0.00000000000E+00 -0.50000000000E+03  0.50000000000E+03  0.00000000000E+00 0. -1.
        -11    1    1    2    0    0  0.30223790440E+02 -0.12716163741E+02  0.48035412392E+03  0.48147197499E+03  0.00000000000E+00 0.  1.
         11    1    1    2    0    0  0.13434705486E+02 -0.41582112510E+01 -0.30789354503E+03  0.30821456342E+03  0.00000000000E+00 0. -1.
        -15    1    1    2    0    0  0.50543838994E+01  0.40336274565E+02 -0.14256581937E+02  0.43115770895E+02  0.17770000000E+01 0.  1.
         15    1    1    2    0    0 -0.48712879826E+02 -0.23461899573E+02 -0.15820399695E+03  0.16719769070E+03  0.17770000000E+01 0. -1.
</event>
<event>
 6    1  0.3411206E-003  0.5148249E+03  0.7546771E-02  0.9367236E-01
        -11   -1    0    0    0    0  0.00000000000E+00  0.00000000000E+00  0.50000000000E+03  0.50000000000E+03  0.00000000000E+00 0.  1.
         11   -1    0    0    0    0 -0.00000000000E+00 -0.00000000000E+00 -0.50000000000E+03  0.50000000000E+03  0.00000000000E+00 0.  1.
        -11    1    1    2    0    0 -0.12453120723E+02 -0.12439336921E+02  0.45468606545E+03  0.45502663157E+03  0.00000000000E+00 0.  1.
         11    1    1    2    0    0  0.12092880843E+02 -0.17159238772E+01 -0.48502134211E+03  0.48517510701E+03  0.00000000000E+00 0.  1.
        -15    1    1    2    0    0 -0.12895958726E+02  0.56796110309E+01 -0.93949372136E+01  0.17028984326E+02  0.17770000000E+01 0.  1.
         15    1    1    2    0    0  0.13256198607E+02  0.84756497674E+01  0.39730213869E+02  0.42769277099E+02  0.17770000000E+01 0. -1.
</event>
<event>
 6    1  0.3411206E-003  0.5170503E+03  0.7546771E-02  0.9362446E-01
        -11   -1    0    0    0    0  0.00000000000E+00  0.00000000000E+00  0.50000000000E+03  0.50000000000E+03  0.00000000000E+00 0.  1.
         11   -1    0    0    0    0 -0.00000000000E+00 -0.00000000000E+00 -0.50000000000E+03  0.50000000000E+03  0.00000000000E+00 0.  1.
        -11    1    1    2    0    0  0.34166979091E+02  0.27832748215E+02  0.48093491433E+03  0.48294972425E+03  0.00000000000E+00 0.  1.
         11    1    1    2    0    0  0.19979412536E+02  0.45709260272E+00 -0.39686124169E+03  0.39736410383E+03  0.00000000000E+00 0.  1.
        -15    1    1    2    0    0 -0.20744709609E+01 -0.11408012783E+02  0.68184988537E+01  0.13568192254E+02  0.17770000000E+01 0. -1.
         15    1    1    2    0    0 -0.52071920666E+02 -0.16881828035E+02 -0.90892171496E+02  0.10611797966E+03  0.17770000000E+01 0.  1.
</event>
<event>
 6    1  0.3411206E-003  0.5000593E+03  0.7546771E-02  0.9399677E-01
        -11   -1    0    0    0    0  0.00000000000E+00  0.00000000000E+00  0.50000000000E+03  0.50000000000E+03  0.00000000000E+00 0.  1.
         11   -1    0    0    0    0 -0.00000000000E+00 -0.00000000000E+00 -0.50000000000E+03  0.50000000000E+03  0.00000000000E+00 0. -1.
        -11    1    1    2    0    0 -0.79808637302E+01  0.44020902802E+01  0.49985765787E+03  0.49994074721E+03  0.00000000000E+00 0.  1.
         11    1    1    2    0    0 -0.42344033309E-01 -0.28622884572E+01 -0.11968532516E+03  0.11971955374E+03  0.00000000000E+00 0. -1.
        -15    1    1    2    0    0  0.63253651472E+00 -0.28712226638E+01 -0.92179965149E+02  0.92243957666E+02  0.17770000000E+01 0.  1.
         15    1    1    2    0    0  0.73906712488E+01  0.13314208407E+01 -0.28799236756E+03  0.28809574139E+03  0.17770000000E+01 0. -1.
</event>
<event>
 6    1  0.3411206E-003  0.5082040E+03  0.7546771E-02  0.9381637E-01
        -11   -1    0    0    0    0  0.00000000000E+00  0.00000000000E+00  0.50000000000E+03  0.50000000000E+03  0.00000000000E+00 0.  1.
         11   -1    0    0    0    0 -0.00000000000E+00 -0.00000000000E+00 -0.50000000000E+03  0.50000000000E+03  0.00000000000E+00 0. -1.
        -11    1    1    2    0    0  0.68461240061E+01  0.17930852627E+01  0.49174506677E+03  0.49179598947E+03  0.00000000000E+00 0.  1.
         11    1    1    2    0    0 -0.61695084079E+01 -0.21044887250E+01 -0.47471661268E+03  0.47476136538E+03  0.00000000000E+00 0. -1.
        -15    1    1    2    0    0  0.10506877298E+01  0.14362452239E+02 -0.88882232675E+01  0.17015940199E+02  0.17770000000E+01 0.  1.
         15    1    1    2    0    0 -0.17273033280E+01 -0.14051048776E+02 -0.81402308232E+01  0.16426704945E+02  0.17770000000E+01 0. -1.
</event>
<event>
 6    1  0.3411206E-003  0.5029949E+03  0.7546771E-02  0.9393133E-01
        -11   -1    0    0    0    0  0.00000000000E+00  0.00000000000E+00  0.50000000000E+03  0.50000000000E+03  0.00000000000E+00 0.  1.
         11   -1    0    0    0    0 -0.00000000000E+00 -0.00000000000E+00 -0.50000000000E+03  0.50000000000E+03  0.00000000000E+00 0. -1.
        -11    1    1    2    0    0  0.16407932582E+02 -0.94723092526E+01  0.36620962303E+03  0.36669937673E+03  0.00000000000E+00 0.  1.
         11    1    1    2    0    0 -0.83649029536E+01  0.55009828221E+00 -0.49693438346E+03  0.49700508616E+03  0.00000000000E+00 0. -1.
        -15    1    1    2    0    0 -0.18650996377E+02  0.28730386000E+01  0.11369866573E+03  0.11526776798E+03  0.17770000000E+01 0.  1.
         15    1    1    2    0    0  0.10607966748E+02  0.60491723704E+01  0.17026094688E+02  0.21027769122E+02  0.17770000000E+01 0.  1.
</event>
<event>
 6    1  0.3411206E-003  0.5454528E+03  0.7546771E-02  0.9303482E-01
        -11   -1    0    0    0    0  0.00000000000E+00  0.00000000000E+00  0.50000000000E+03  0.50000000000E+03  0.00000000000E+00 0.  1.
         11   -1    0    0    0    0 -0.00000000000E+00 -0.00000000000E+00 -0.50000000000E+03  0.50000000000E+03  0.00000000000E+00 0. -1.
        -11    1    1    2    0    0 -0.63822083435E+02  0.28187828528E+02  0.30484315598E+03  0.31272537754E+03  0.00000000000E+00 0.  1.
         11    1    1    2    0    0  0.29305625081E+02  0.41268490150E+02 -0.45172034146E+03  0.45454721958E+03  0.00000000000E+00 0. -1.
        -15    1    1    2    0    0 -0.83702654259E+01 -0.25945165364E+02 -0.32946806667E+02  0.42800265742E+02  0.17770000000E+01 0.  1.
         15    1    1    2    0    0  0.42886723780E+02 -0.43511153314E+02  0.17982399215E+03  0.18992713714E+03  0.17770000000E+01 0. -1.
</event>
<event>
 6    1  0.3411206E-003  0.5006859E+03  0.7546771E-02  0.9398276E-01
        -11   -1    0    0    0    0  0.00000000000E+00  0.00000000000E+00  0.50000000000E+03  0.50000000000E+03  0.00000000000E+00 0. -1.
         11   -1    0    0    0    0 -0.00000000000E+00 -0.00000000000E+00 -0.50000000000E+03  0.50000000000E+03  0.00000000000E+00 0.  1.
        -11    1    1    2    0    0  0.45512910148E+01 -0.79419873870E+01  0.25045134564E+03  0.25061856665E+03  0.00000000000E+00 0. -1.
         11    1    1    2    0    0  0.66862672937E+01  0.60745402459E+01 -0.49923233965E+03  0.49931406465E+03  0.00000000000E+00 0.  1.
        -15    1    1    2    0    0 -0.12775840040E+02 -0.73999580898E+01  0.11723306234E+03  0.11817245916E+03  0.17770000000E+01 0.  1.
         15    1    1    2    0    0  0.15382817316E+01  0.92674052309E+01  0.13154793166E+03  0.13189490954E+03  0.17770000000E+01 0. -1.
</event>
<event>
 6    1  0.3411206E-003  0.5150413E+03  0.7546771E-02  0.9366769E-01
        -11   -1    0    0    0    0  0.00000000000E+00  0.00000000000E+00  0.50000000000E+03  0.50000000000E+03  0.00000000000E+00 0.  1.
         11   -1    0    0    0    0 -0.00000000000E+00 -0.00000000000E+00 -0.50000000000E+03  0.50000000000E+03  0.00000000000E+00 0.  1.
        -11    1    1    2    0    0  0.24458114248E+01 -0.53085121467E+01  0.23145999382E+03  0.23153377946E+03  0.00000000000E+00 0.  1.
         11    1    1    2    0    0 -0.22947984300E+02 -0.22606418613E+02 -0.48388770831E+03  0.48495873474E+03  0.00000000000E+00 0.  1.
        -15    1    1    2    0    0 -0.40711250795E+01  0.11107343904E+01  0.24659347218E+03  0.24663597880E+03  0.17770000000E+01 0.  1.
         15    1    1    2    0    0  0.24573297954E+02  0.26804196369E+02  0.58342423202E+01  0.36871506991E+02  0.17770000000E+01 0. -1.
</event>
<event>
 6    1  0.3757290E-003  0.5028245E+03  0.7546771E-02  0.9393512E-01
        -11   -1    0    0    0    0  0.00000000000E+00  0.00000000000E+00  0.50000000000E+03  0.50000000000E+03  0.00000000000E+00 0.  1.
         11   -1    0    0    0    0 -0.00000000000E+00 -0.00000000000E+00 -0.50000000000E+03  0.50000000000E+03  0.00000000000E+00 0.  1.
        -11    1    1    2    0    0  0.63958978091E+01 -0.34146030282E+01  0.49712268152E+03  0.49717554999E+03  0.00000000000E+00 0.  1.
         11    1    1    2    0    0 -0.12263227644E+01 -0.55173965795E+01 -0.37108177008E+03  0.37112481137E+03  0.00000000000E+00 0.  1.
        -15    1    1    2    0    0 -0.11946626020E+00  0.41586373756E+01 -0.12421621458E+03  0.12429856890E+03  0.17770000000E+01 0.  1.
         15    1    1    2    0    0 -0.50501087846E+01  0.47733622321E+01 -0.18246968691E+01  0.74010697469E+01  0.17770000000E+01 0. -1.
</event>
<event>
 6    1  0.3411206E-003  0.5033949E+03  0.7546771E-02  0.9392245E-01
        -11   -1    0    0    0    0  0.00000000000E+00  0.00000000000E+00  0.50000000000E+03  0.50000000000E+03  0.00000000000E+00 0.  1.
         11   -1    0    0    0    0 -0.00000000000E+00 -0.00000000000E+00 -0.50000000000E+03  0.50000000000E+03  0.00000000000E+00 0.  1.
        -11    1    1    2    0    0  0.29898130898E+01  0.14749964265E+02  0.49637699629E+03  0.49660509751E+03  0.00000000000E+00 0.  1.
         11    1    1    2    0    0 -0.74657560121E+00  0.72300306488E+01 -0.30901395449E+03  0.30909942541E+03  0.00000000000E+00 0.  1.
        -15    1    1    2    0    0 -0.95241618557E+01 -0.22836941230E+02 -0.18460390809E+03  0.18626324424E+03  0.17770000000E+01 0.  1.
         15    1    1    2    0    0  0.72809243671E+01  0.85694631587E+00 -0.27591337083E+01  0.80322328432E+01  0.17770000000E+01 0. -1.
</event>
<event>
 6    1  0.3411206E-003  0.5002257E+03  0.7546771E-02  0.9399305E-01
        -11   -1    0    0    0    0  0.00000000000E+00  0.00000000000E+00  0.50000000000E+03  0.50000000000E+03  0.00000000000E+00 0. -1.
         11   -1    0    0    0    0 -0.00000000000E+00 -0.00000000000E+00 -0.50000000000E+03  0.50000000000E+03  0.00000000000E+00 0. -1.
        -11    1    1    2    0    0  0.13520985696E+01 -0.21422907046E+01  0.36646174420E+02  0.36733631452E+02  0.00000000000E+00 0. -1.
         11    1    1    2    0    0  0.14564371981E+02 -0.97919725667E+01 -0.49946605703E+03  0.49977429484E+03  0.00000000000E+00 0. -1.
        -15    1    1    2    0    0 -0.20300815225E+01  0.10307791390E+01  0.12771125549E+02  0.13093628734E+02  0.17770000000E+01 0.  1.
         15    1    1    2    0    0 -0.13886389028E+02  0.10903484132E+02  0.45004875707E+03  0.45039844497E+03  0.17770000000E+01 0. -1.
</event>
<event>
 6    1  0.3411206E-003  0.5156329E+03  0.7546771E-02  0.9365494E-01
        -11   -1    0    0    0    0  0.00000000000E+00  0.00000000000E+00  0.50000000000E+03  0.50000000000E+03  0.00000000000E+00 0. -1.
         11   -1    0    0    0    0 -0.00000000000E+00 -0.00000000000E+00 -0.50000000000E+03  0.50000000000E+03  0.00000000000E+00 0. -1.
        -11    1    1    2    0    0 -0.92336990268E+01 -0.94233771102E+01  0.48418737692E+03  0.48436708930E+03  0.00000000000E+00 0. -1.
         11    1    1    2    0    0 -0.53226201595E+01  0.11208578658E+02 -0.46703143088E+03  0.46719623281E+03  0.00000000000E+00 0. -1.
        -15    1    1    2    0    0  0.16086652973E+02  0.37712821084E+01  0.10812062957E+02  0.19825776328E+02  0.17770000000E+01 0. -1.
         15    1    1    2    0    0 -0.15303337864E+01 -0.55564836567E+01 -0.27968008997E+02  0.28610901565E+02  0.17770000000E+01 0.  1.
</event>
<event>
 6    1  0.3411206E-003  0.5001120E+03  0.7546771E-02  0.9399559E-01
        -11   -1    0    0    0    0  0.00000000000E+00  0.00000000000E+00  0.50000000000E+03  0.50000000000E+03  0.00000000000E+00 0.  1.
         11   -1    0    0    0    0 -0.00000000000E+00 -0.00000000000E+00 -0.50000000000E+03  0.50000000000E+03  0.00000000000E+00 0. -1.
        -11    1    1    2    0    0 -0.17970526613E+00  0.84031369379E+00  0.49836517894E+02  0.49843925777E+02  0.00000000000E+00 0.  1.
         11    1    1    2    0    0 -0.47602137369E+00  0.87859416326E+01 -0.49981053081E+03  0.49988797352E+03  0.00000000000E+00 0. -1.
        -15    1    1    2    0    0 -0.74587053183E+00 -0.24255809270E+01  0.20961574169E+02  0.21189268187E+02  0.17770000000E+01 0. -1.
         15    1    1    2    0    0  0.14015971716E+01 -0.72006743994E+01  0.42901243874E+03  0.42907883251E+03  0.17770000000E+01 0.  1.
</event>
<event>
 6    1  0.3411206E-003  0.5064185E+03  0.7546771E-02  0.9385561E-01
        -11   -1    0    0    0    0  0.00000000000E+00  0.00000000000E+00  0.50000000000E+03  0.50000000000E+03  0.00000000000E+00 0.  1.
         11   -1    0    0    0    0 -0.00000000000E+00 -0.00000000000E+00 -0.50000000000E+03  0.50000000000E+03  0.00000000000E+00 0.  1.
        -11    1    1    2    0    0  0.14091134880E+01 -0.18517253997E+02  0.49323198519E+03  0.49358146795E+03  0.00000000000E+00 0.  1.
         11    1    1    2    0    0  0.70212040689E+01 -0.26755116273E+01 -0.36618145393E+03  0.36625853283E+03  0.00000000000E+00 0.  1.
        -15    1    1    2    0    0 -0.49298001270E+01  0.52278787878E+01 -0.12300708478E+03  0.12322959986E+03  0.17770000000E+01 0. -1.
         15    1    1    2    0    0 -0.35005174300E+01  0.15964886837E+02 -0.40434464740E+01  0.16930399357E+02  0.17770000000E+01 0.  1.
</event>
<event>
 6    1  0.3411206E-003  0.5008767E+03  0.7546771E-02  0.9397850E-01
        -11   -1    0    0    0    0  0.00000000000E+00  0.00000000000E+00  0.50000000000E+03  0.50000000000E+03  0.00000000000E+00 0.  1.
         11   -1    0    0    0    0 -0.00000000000E+00 -0.00000000000E+00 -0.50000000000E+03  0.50000000000E+03  0.00000000000E+00 0.  1.
        -11    1    1    2    0    0 -0.24589779401E+02  0.35145030312E+01  0.49850486554E+03  0.49912334142E+03  0.00000000000E+00 0.  1.
         11    1    1    2    0    0  0.13011911603E+01 -0.11581463481E+01 -0.67063728046E+02  0.67086347499E+02  0.00000000000E+00 0.  1.
        -15    1    1    2    0    0  0.20213609472E+02  0.26182467339E+01 -0.90073251087E+02  0.92367708179E+02  0.17770000000E+01 0. -1.
         15    1    1    2    0    0  0.30749787683E+01 -0.49746034170E+01 -0.34136788641E+03  0.34142260290E+03  0.17770000000E+01 0.  1.
</event>
<event>
 6    1  0.3411206E-003  0.4855583E+03  0.7546771E-02  0.9432717E-01
        -11   -1    0    0    0    0  0.00000000000E+00  0.00000000000E+00  0.50000000000E+03  0.50000000000E+03  0.00000000000E+00 0.  1.
         11   -1    0    0    0    0 -0.00000000000E+00 -0.00000000000E+00 -0.50000000000E+03  0.50000000000E+03  0.00000000000E+00 0. -1.
        -11    1    1    2    0    0  0.81448041431E+01  0.10282521897E+01  0.48679130627E+03  0.48686052520E+03  0.00000000000E+00 0.  1.
         11    1    1    2    0    0  0.72277113114E+01  0.86888867104E+01 -0.48429762907E+03  0.48442948928E+03  0.00000000000E+00 0. -1.
        -15    1    1    2    0    0 -0.23001990102E+00 -0.52468198449E+01  0.79531143655E+01  0.96949360364E+01  0.17770000000E+01 0.  1.
         15    1    1    2    0    0 -0.15142495554E+02 -0.44703190553E+01 -0.10446791564E+02  0.19015049488E+02  0.17770000000E+01 0. -1.
</event>
<event>
 6    1  0.3411206E-003  0.5013638E+03  0.7546771E-02  0.9396763E-01
        -11   -1    0    0    0    0  0.00000000000E+00  0.00000000000E+00  0.50000000000E+03  0.50000000000E+03  0.00000000000E+00 0.  1.
         11   -1    0    0    0    0 -0.00000000000E+00 -0.00000000000E+00 -0.50000000000E+03  0.50000000000E+03  0.00000000000E+00 0.  1.
        -11    1    1    2    0    0  0.10092709063E+01  0.19069884514E+02  0.12199349884E+03  0.12347911921E+03  0.00000000000E+00 0.  1.
         11    1    1    2    0    0  0.93551205625E+01 -0.29055560719E+01 -0.49854001350E+03  0.49863624577E+03  0.00000000000E+00 0.  1.
        -15    1    1    2    0    0  0.56541643824E+01  0.29271281026E+01  0.96296407526E+02  0.96523020494E+02  0.17770000000E+01 0.  1.
         15    1    1    2    0    0 -0.16018555851E+02 -0.19091456545E+02  0.28025010714E+03  0.28136161452E+03  0.17770000000E+01 0. -1.
</event>
<event>
 6    1  0.3411206E-003  0.5046367E+03  0.7546771E-02  0.9389494E-01
        -11   -1    0    0    0    0  0.00000000000E+00  0.00000000000E+00  0.50000000000E+03  0.50000000000E+03  0.00000000000E+00 0. -1.
         11   -1    0    0    0    0 -0.00000000000E+00 -0.00000000000E+00 -0.50000000000E+03  0.50000000000E+03  0.00000000000E+00 0. -1.
        -11    1    1    2    0    0 -0.14922581747E+02 -0.31615585759E+01  0.49512839387E+03  0.49536330638E+03  0.00000000000E+00 0. -1.
         11    1    1    2    0    0 -0.84333079065E+01  0.64211240078E+00 -0.43933572675E+03  0.43941712960E+03  0.00000000000E+00 0. -1.
        -15    1    1    2    0    0  0.19124627003E+00  0.86835582227E+01 -0.22271976287E+02  0.23971637726E+02  0.17770000000E+01 0.  1.
         15    1    1    2    0    0  0.23164643383E+02 -0.61641120476E+01 -0.33520690834E+02  0.41247926292E+02  0.17770000000E+01 0. -1.
</event>
<event>
 6    1  0.3411206E-003  0.5056180E+03  0.7546771E-02  0.9387326E-01
        -11   -1    0    0    0    0  0.00000000000E+00  0.00000000000E+00  0.50000000000E+03  0.50000000000E+03  0.00000000000E+00 0.  1.
         11   -1    0    0    0    0 -0.00000000000E+00 -0.00000000000E+00 -0.50000000000E+03  0.50000000000E+03  0.00000000000E+00 0.  1.
        -11    1    1    2    0    0 -0.64449852311E+01  0.22943222425E+01  0.49433468937E+03  0.49438202523E+03  0.00000000000E+00 0.  1.
         11    1    1    2    0    0 -0.73081715795E+00  0.91975695490E+01 -0.35348663575E+03  0.35360702910E+03  0.00000000000E+00 0.  1.
        -15    1    1    2    0    0  0.22087154033E+01  0.16525910751E+02 -0.10439501641E+03  0.10573297183E+03  0.17770000000E+01 0.  1.
         15    1    1    2    0    0  0.49670869858E+01 -0.28017802543E+02 -0.36453037211E+02  0.46277973846E+02  0.17770000000E+01 0. -1.
</event>
<event>
 6    1  0.3411206E-003  0.5149765E+03  0.7546771E-02  0.9366909E-01
        -11   -1    0    0    0    0  0.00000000000E+00  0.00000000000E+00  0.50000000000E+03  0.50000000000E+03  0.00000000000E+00 0.  1.
         11   -1    0    0    0    0 -0.00000000000E+00 -0.00000000000E+00 -0.50000000000E+03  0.50000000000E+03  0.00000000000E+00 0.  1.
        -11    1    1    2    0    0  0.37988344695E+02  0.42422632954E+02  0.32180381878E+03  0.32680344536E+03  0.00000000000E+00 0.  1.
         11    1    1    2    0    0 -0.12765857857E+02 -0.30113856291E+01 -0.48484616868E+03  0.48502354876E+03  0.00000000000E+00 0.  1.
        -15    1    1    2    0    0 -0.17479008321E+02 -0.51526121348E+02  0.16481907605E+03  0.17357690650E+03  0.17770000000E+01 0.  1.
         15    1    1    2    0    0 -0.77434785161E+01  0.12114874023E+02 -0.17767261502E+01  0.14596099374E+02  0.17770000000E+01 0. -1.
</event>
<event>
 6    1  0.3411206E-003  0.5150622E+03  0.7546771E-02  0.9366724E-01
        -11   -1    0    0    0    0  0.00000000000E+00  0.00000000000E+00  0.50000000000E+03  0.50000000000E+03  0.00000000000E+00 0. -1.
         11   -1    0    0    0    0 -0.00000000000E+00 -0.00000000000E+00 -0.50000000000E+03  0.50000000000E+03  0.00000000000E+00 0. -1.
        -11    1    1    2    0    0 -0.56781214670E+01 -0.49926617801E+01  0.48487881334E+03  0.48493776029E+03  0.00000000000E+00 0. -1.
         11    1    1    2    0    0  0.12124472016E+02 -0.58729488576E+01 -0.45328402907E+03  0.45348418425E+03  0.00000000000E+00 0. -1.
        -15    1    1    2    0    0 -0.15782017935E+02  0.19416986997E+02  0.24576026793E+01  0.25204940271E+02  0.17770000000E+01 0.  1.
         15    1    1    2    0    0  0.93356673859E+01 -0.85513763594E+01 -0.34052386940E+02  0.36373115188E+02  0.17770000000E+01 0. -1.
</event>
<event>
 6    1  0.3411206E-003  0.5001194E+03  0.7546771E-02  0.9399542E-01
        -11   -1    0    0    0    0  0.00000000000E+00  0.00000000000E+00  0.50000000000E+03  0.50000000000E+03  0.00000000000E+00 0. -1.
         11   -1    0    0    0    0 -0.00000000000E+00 -0.00000000000E+00 -0.50000000000E+03  0.50000000000E+03  0.00000000000E+00 0. -1.
        -11    1    1    2    0    0  0.55883475617E+01  0.41832771973E+01  0.49983181148E+03  0.49988055494E+03  0.00000000000E+00 0. -1.
         11    1    1    2    0    0 -0.19441584935E-01 -0.12350454009E+01 -0.58276058830E+02  0.58289147771E+02  0.00000000000E+00 0. -1.
        -15    1    1    2    0    0 -0.91686084319E+01 -0.40527656414E+01 -0.37868689255E+03  0.37882371706E+03  0.17770000000E+01 0.  1.
         15    1    1    2    0    0  0.35997024551E+01  0.11045338450E+01 -0.62868860100E+02  0.63006580228E+02  0.17770000000E+01 0. -1.
</event>
<event>
 6    1  0.4058216E-003  0.5196372E+03  0.7546771E-02  0.9356911E-01
        -11   -1    0    0    0    0  0.00000000000E+00  0.00000000000E+00  0.50000000000E+03  0.50000000000E+03  0.00000000000E+00 0. -1.
         11   -1    0    0    0    0 -0.00000000000E+00 -0.00000000000E+00 -0.50000000000E+03  0.50000000000E+03  0.00000000000E+00 0.  1.
        -11    1    1    2    0    0  0.72585908622E+00 -0.10153556877E+02  0.48025490768E+03  0.48036277743E+03  0.00000000000E+00 0. -1.
         11    1    1    2    0    0  0.29889737225E+00  0.72590286979E+01 -0.41333365370E+03  0.41339749892E+03  0.00000000000E+00 0.  1.
        -15    1    1    2    0    0 -0.38643320480E+01  0.88637779717E+01  0.18284184403E+02  0.20759786858E+02  0.17770000000E+01 0.  1.
         15    1    1    2    0    0  0.28395755896E+01 -0.59692497922E+01 -0.85205438389E+02  0.85479936785E+02  0.17770000000E+01 0.  1.
</event>
<event>
 6    1  0.3411206E-003  0.5125208E+03  0.7546771E-02  0.9372221E-01
        -11   -1    0    0    0    0  0.00000000000E+00  0.00000000000E+00  0.50000000000E+03  0.50000000000E+03  0.00000000000E+00 0. -1.
         11   -1    0    0    0    0 -0.00000000000E+00 -0.00000000000E+00 -0.50000000000E+03  0.50000000000E+03  0.00000000000E+00 0.  1.
        -11    1    1    2    0    0 -0.32346490056E+02  0.12428685931E+02  0.45341700909E+03  0.45473921294E+03  0.00000000000E+00 0. -1.
         11    1    1    2    0    0  0.75329160524E+01 -0.14364063412E+01 -0.48741890589E+03  0.48747922818E+03  0.00000000000E+00 0.  1.
        -15    1    1    2    0    0  0.30323862019E+02 -0.12286861765E+02  0.38338305794E+02  0.50432995152E+02  0.17770000000E+01 0.  1.
         15    1    1    2    0    0 -0.55102880155E+01  0.12945821745E+01 -0.43364089912E+01  0.73485637344E+01  0.17770000000E+01 0. -1.
</event>
<event>
 6    1  0.3411206E-003  0.5134976E+03  0.7546771E-02  0.9370104E-01
        -11   -1    0    0    0    0  0.00000000000E+00  0.00000000000E+00  0.50000000000E+03  0.50000000000E+03  0.00000000000E+00 0.  1.
         11   -1    0    0    0    0 -0.00000000000E+00 -0.00000000000E+00 -0.50000000000E+03  0.50000000000E+03  0.00000000000E+00 0.  1.
        -11    1    1    2    0    0 -0.11512474924E+02 -0.28259170069E+01  0.43104947557E+03  0.43121244564E+03  0.00000000000E+00 0.  1.
         11    1    1    2    0    0  0.70637335120E+01 -0.10090789105E+02 -0.48634640589E+03  0.48650236060E+03  0.00000000000E+00 0.  1.
        -15    1    1    2    0    0  0.80432789207E+01  0.39416513360E+01  0.66647213768E+02  0.67269902506E+02  0.17770000000E+01 0. -1.
         15    1    1    2    0    0 -0.35945375082E+01  0.89750547757E+01 -0.11350283448E+02  0.15015291255E+02  0.17770000000E+01 0.  1.
</event>
<event>
 6    1  0.3411206E-003  0.5007938E+03  0.7546771E-02  0.9398035E-01
        -11   -1    0    0    0    0  0.00000000000E+00  0.00000000000E+00  0.50000000000E+03  0.50000000000E+03  0.00000000000E+00 0.  1.
         11   -1    0    0    0    0 -0.00000000000E+00 -0.00000000000E+00 -0.50000000000E+03  0.50000000000E+03  0.00000000000E+00 0.  1.
        -11    1    1    2    0    0 -0.50461118815E+01 -0.39281399373E+01  0.37070267013E+03  0.37075782281E+03  0.00000000000E+00 0.  1.
         11    1    1    2    0    0  0.14650631396E+01  0.70912303833E+01 -0.49915369662E+03  0.49920621472E+03  0.00000000000E+00 0.  1.
        -15    1    1    2    0    0  0.27427340367E+01 -0.79458251261E+01  0.24616089092E+02  0.26072366562E+02  0.17770000000E+01 0. -1.
         15    1    1    2    0    0  0.83831470521E+00  0.47827346801E+01  0.10383493740E+03  0.10396359592E+03  0.17770000000E+01 0.  1.
</event>
<event>
 6    1  0.3411206E-003  0.5053620E+03  0.7546771E-02  0.9387891E-01
        -11   -1    0    0    0    0  0.00000000000E+00  0.00000000000E+00  0.50000000000E+03  0.50000000000E+03  0.00000000000E+00 0.  1.
         11   -1    0    0    0    0 -0.00000000000E+00 -0.00000000000E+00 -0.50000000000E+03  0.50000000000E+03  0.00000000000E+00 0. -1.
        -11    1    1    2    0    0  0.28816908026E+01  0.32723236935E+01  0.15280455661E+03  0.15286675494E+03  0.00000000000E+00 0.  1.
         11    1    1    2    0    0 -0.27794583364E+01  0.89953522408E+01 -0.49454836127E+03  0.49463797204E+03  0.00000000000E+00 0. -1.
        -15    1    1    2    0    0  0.38931864028E+02 -0.71169950208E+01  0.10003260865E+03  0.10759192431E+03  0.17770000000E+01 0.  1.
         15    1    1    2    0    0 -0.39034096494E+02 -0.51506809134E+01  0.24171119601E+03  0.24490334871E+03  0.17770000000E+01 0. -1.
</event>
<event>
 6    1  0.3411206E-003  0.5004588E+03  0.7546771E-02  0.9398784E-01
        -11   -1    0    0    0    0  0.00000000000E+00  0.00000000000E+00  0.50000000000E+03  0.50000000000E+03  0.00000000000E+00 0. -1.
         11   -1    0    0    0    0 -0.00000000000E+00 -0.00000000000E+00 -0.50000000000E+03  0.50000000000E+03  0.00000000000E+00 0. -1.
        -11    1    1    2    0    0  0.11224763960E+02 -0.38436647143E+01  0.49940026939E+03  0.49954118764E+03  0.00000000000E+00 0. -1.
         11    1    1    2    0    0  0.81322952685E+00  0.83385632448E+01 -0.30427578354E+03  0.30439110603E+03  0.00000000000E+00 0. -1.
        -15    1    1    2    0    0 -0.10960864821E+02  0.40396016527E+00 -0.74314061058E+02  0.75140143342E+02  0.17770000000E+01 0. -1.
         15    1    1    2    0    0 -0.10771286660E+01 -0.48988586958E+01 -0.12081042479E+03  0.12092756298E+03  0.17770000000E+01 0.  1.
</event>
<event>
 6    1  0.3411206E-003  0.5013935E+03  0.7546771E-02  0.9396697E-01
        -11   -1    0    0    0    0  0.00000000000E+00  0.00000000000E+00  0.50000000000E+03  0.50000000000E+03  0.00000000000E+00 0.  1.
         11   -1    0    0    0    0 -0.00000000000E+00 -0.00000000000E+00 -0.50000000000E+03  0.50000000000E+03  0.00000000000E+00 0.  1.
        -11    1    1    2    0    0  0.46436087629E+01  0.51757273921E+01  0.49855801898E+03  0.49860650773E+03  0.00000000000E+00 0.  1.
         11    1    1    2    0    0  0.13789087746E+00  0.68892929822E+01 -0.44389913264E+03  0.44395261158E+03  0.00000000000E+00 0.  1.
        -15    1    1    2    0    0 -0.53184032195E+01 -0.26956779030E+01 -0.10042982302E+02  0.11814030417E+02  0.17770000000E+01 0. -1.
         15    1    1    2    0    0  0.53690357911E+00 -0.93693424713E+01 -0.44615904043E+02  0.45626850279E+02  0.17770000000E+01 0.  1.
</event>
<event>
 6    1  0.3411206E-003  0.4830871E+03  0.7546771E-02  0.9438470E-01
        -11   -1    0    0    0    0  0.00000000000E+00  0.00000000000E+00  0.50000000000E+03  0.50000000000E+03  0.00000000000E+00 0. -1.
         11   -1    0    0    0    0 -0.00000000000E+00 -0.00000000000E+00 -0.50000000000E+03  0.50000000000E+03  0.00000000000E+00 0.  1.
        -11    1    1    2    0    0 -0.70893211091E+01  0.16640613794E+02  0.48683161705E+03  0.48716751930E+03  0.00000000000E+00 0. -1.
         11    1    1    2    0    0 -0.10630461961E+02  0.81696460117E+00 -0.47923816146E+03  0.47935674560E+03  0.00000000000E+00 0.  1.
        -15    1    1    2    0    0  0.15796298561E+02 -0.25937050229E+01 -0.87665847914E+01  0.18337423262E+02  0.17770000000E+01 0. -1.
         15    1    1    2    0    0  0.19234845089E+01 -0.14863873372E+02  0.11731292024E+01  0.15138311841E+02  0.17770000000E+01 0. -1.
</event>
<event>
 6    1  0.3411206E-003  0.5021909E+03  0.7546771E-02  0.9394921E-01
        -11   -1    0    0    0    0  0.00000000000E+00  0.00000000000E+00  0.50000000000E+03  0.50000000000E+03  0.00000000000E+00 0.  1.
         11   -1    0    0    0    0 -0.00000000000E+00 -0.00000000000E+00 -0.50000000000E+03  0.50000000000E+03  0.00000000000E+00 0.  1.
        -11    1    1    2    0    0 -0.48903050626E+01 -0.45068011530E+01  0.45987985421E+03  0.45992793637E+03  0.00000000000E+00 0.  1.
         11    1    1    2    0    0  0.70355687490E+01  0.51047101648E+01 -0.49773322468E+03  0.49780912029E+03  0.00000000000E+00 0.  1.
        -15    1    1    2    0    0 -0.87079514706E+01  0.38119725874E+01  0.27265499396E+02  0.28929651573E+02  0.17770000000E+01 0.  1.
         15    1    1    2    0    0  0.65626877842E+01 -0.44098815992E+01  0.10587871070E+02  0.13333291771E+02  0.17770000000E+01 0. -1.
</event>
<event>
 6    1  0.3411206E-003  0.4810068E+03  0.7546771E-02  0.9443341E-01
        -11   -1    0    0    0    0  0.00000000000E+00  0.00000000000E+00  0.50000000000E+03  0.50000000000E+03  0.00000000000E+00 0. -1.
         11   -1    0    0    0    0 -0.00000000000E+00 -0.00000000000E+00 -0.50000000000E+03  0.50000000000E+03  0.00000000000E+00 0.  1.
        -11    1    1    2    0    0  0.39954041394E+01  0.14487905078E+02  0.48255904181E+03  0.48279301101E+03  0.00000000000E+00 0. -1.
         11    1    1    2    0    0 -0.14111783176E+02  0.20401592535E+01 -0.47920958464E+03  0.47942166272E+03  0.00000000000E+00 0.  1.
        -15    1    1    2    0    0  0.19426745683E+02 -0.19358151599E+02 -0.44195042795E+01  0.27835700606E+02  0.17770000000E+01 0. -1.
         15    1    1    2    0    0 -0.93103666466E+01  0.28300872679E+01  0.10700471155E+01  0.99496256647E+01  0.17770000000E+01 0.  1.
</event>
<event>
 6    1  0.3411206E-003  0.5033871E+03  0.7546771E-02  0.9392263E-01
        -11   -1    0    0    0    0  0.00000000000E+00  0.00000000000E+00  0.50000000000E+03  0.50000000000E+03  0.00000000000E+00 0. -1.
         11   -1    0    0    0    0 -0.00000000000E+00 -0.00000000000E+00 -0.50000000000E+03  0.50000000000E+03  0.00000000000E+00 0.  1.
        -11    1    1    2    0    0 -0.45467212061E+01  0.55264316534E+01  0.49656134597E+03  0.49661291207E+03  0.00000000000E+00 0. -1.
         11    1    1    2    0    0 -0.10007108839E+02 -0.62578145871E+01 -0.39783633001E+03  0.39801136660E+03  0.00000000000E+00 0.  1.
        -15    1    1    2    0    0  0.21659038603E+02  0.42323763835E+01 -0.36993092138E+02  0.43112336494E+02  0.17770000000E+01 0. -1.
         15    1    1    2    0    0 -0.71052085575E+01 -0.35009934498E+01 -0.61731923823E+02  0.62263384839E+02  0.17770000000E+01 0.  1.
</event>
<event>
 6    1  0.3411206E-003  0.5004989E+03  0.7546771E-02  0.9398694E-01
        -11   -1    0    0    0    0  0.00000000000E+00  0.00000000000E+00  0.50000000000E+03  0.50000000000E+03  0.00000000000E+00 0.  1.
         11   -1    0    0    0    0 -0.00000000000E+00 -0.00000000000E+00 -0.50000000000E+03  0.50000000000E+03  0.00000000000E+00 0. -1.
        -11    1    1    2    0    0  0.34844462677E+01 -0.45545077271E+01  0.40193450224E+03  0.40197540845E+03  0.00000000000E+00 0.  1.
         11    1    1    2    0    0 -0.41001267316E+01 -0.73459742267E+01 -0.49943026346E+03  0.49950111355E+03  0.00000000000E+00 0. -1.
        -15    1    1    2    0    0  0.49235074613E+00  0.34741040035E+01  0.56290980436E+02  0.56428220026E+02  0.17770000000E+01 0.  1.
         15    1    1    2    0    0  0.12332971780E+00  0.84263779503E+01  0.41204780781E+02  0.42095257973E+02  0.17770000000E+01 0. -1.
</event>
<event>
 6    1  0.3411206E-003  0.5019386E+03  0.7546771E-02  0.9395482E-01
        -11   -1    0    0    0    0  0.00000000000E+00  0.00000000000E+00  0.50000000000E+03  0.50000000000E+03  0.00000000000E+00 0. -1.
         11   -1    0    0    0    0 -0.00000000000E+00 -0.00000000000E+00 -0.50000000000E+03  0.50000000000E+03  0.00000000000E+00 0.  1.
        -11    1    1    2    0    0  0.36016617440E+01  0.20510647628E+01  0.23413885722E+03  0.23417553949E+03  0.00000000000E+00 0. -1.
         11    1    1    2    0    0 -0.61913661973E+01 -0.64124043165E+01 -0.49798159083E+03  0.49806135842E+03  0.00000000000E+00 0.  1.
        -15    1    1    2    0    0 -0.73998399805E+01  0.42955542798E+01  0.25206908481E+03  0.25222051991E+03  0.17770000000E+01 0. -1.
         15    1    1    2    0    0  0.99895444338E+01  0.65785273891E-01  0.11773648798E+02  0.15542582176E+02  0.17770000000E+01 0.  1.
</event>
<event>
 6    1  0.3411206E-003  0.5013626E+03  0.7546771E-02  0.9396766E-01
        -11   -1    0    0    0    0  0.00000000000E+00  0.00000000000E+00  0.50000000000E+03  0.50000000000E+03  0.00000000000E+00 0.  1.
         11   -1    0    0    0    0 -0.00000000000E+00 -0.00000000000E+00 -0.50000000000E+03  0.50000000000E+03  0.00000000000E+00 0.  1.
        -11    1    1    2    0    0  0.23912108794E+01  0.11795640142E+02  0.49849208514E+03  0.49863735716E+03  0.00000000000E+00 0.  1.
         11    1    1    2    0    0 -0.71525915891E+01 -0.73394400448E+01 -0.45850470984E+03  0.45861922757E+03  0.00000000000E+00 0.  1.
        -15    1    1    2    0    0  0.56710845068E+01 -0.42542907624E+01 -0.40074003496E+02  0.40735042342E+02  0.17770000000E+01 0. -1.
         15    1    1    2    0    0 -0.90970379712E+00 -0.20190933517E+00  0.86628202048E-01  0.20083729294E+01  0.17770000000E+01 0.  1.
</event>
<event>
 6    1  0.3411206E-003  0.5024513E+03  0.7546771E-02  0.9394341E-01
        -11   -1    0    0    0    0  0.00000000000E+00  0.00000000000E+00  0.50000000000E+03  0.50000000000E+03  0.00000000000E+00 0.  1.
         11   -1    0    0    0    0 -0.00000000000E+00 -0.00000000000E+00 -0.50000000000E+03  0.50000000000E+03  0.00000000000E+00 0.  1.
        -11    1    1    2    0    0 -0.56103452891E+01 -0.87208113934E+01  0.49744065886E+03  0.49754872889E+03  0.00000000000E+00 0.  1.
         11    1    1    2    0    0  0.64150049065E+01  0.46429815290E+01 -0.44780890698E+03  0.44787891973E+03  0.00000000000E+00 0.  1.
        -15    1    1    2    0    0  0.31479925678E+01  0.15077393993E+01 -0.49372039078E+02  0.49527155248E+02  0.17770000000E+01 0.  1.
         15    1    1    2    0    0 -0.39526521852E+01  0.25700904650E+01 -0.25971280429E+00  0.50451961346E+01  0.17770000000E+01 0. -1.
</event>
<event>
 6    1  0.3411206E-003  0.5035899E+03  0.7546771E-02  0.9391813E-01
        -11   -1    0    0    0    0  0.00000000000E+00  0.00000000000E+00  0.50000000000E+03  0.50000000000E+03  0.00000000000E+00 0. -1.
         11   -1    0    0    0    0 -0.00000000000E+00 -0.00000000000E+00 -0.50000000000E+03  0.50000000000E+03  0.00000000000E+00 0.  1.
        -11    1    1    2    0    0  0.15838828189E+02  0.96327688763E+01  0.49606379433E+03  0.49641005909E+03  0.00000000000E+00 0. -1.
         11    1    1    2    0    0  0.45112579307E-01  0.61062367418E+01 -0.42993873667E+03  0.42998209899E+03  0.00000000000E+00 0.  1.
        -15    1    1    2    0    0 -0.61928653894E+01 -0.17748950729E+02 -0.25339757124E+02  0.31601231840E+02  0.17770000000E+01 0. -1.
         15    1    1    2    0    0 -0.96910753792E+01  0.20099451111E+01 -0.40785300543E+02  0.42006610084E+02  0.17770000000E+01 0.  1.
</event>
<event>
 6    1  0.3411206E-003  0.5003234E+03  0.7546771E-02  0.9399086E-01
        -11   -1    0    0    0    0  0.00000000000E+00  0.00000000000E+00  0.50000000000E+03  0.50000000000E+03  0.00000000000E+00 0. -1.
         11   -1    0    0    0    0 -0.00000000000E+00 -0.00000000000E+00 -0.50000000000E+03  0.50000000000E+03  0.00000000000E+00 0. -1.
        -11    1    1    2    0    0 -0.27427435269E+01 -0.38495174092E+01  0.27285981730E+03  0.27290075362E+03  0.00000000000E+00 0. -1.
         11    1    1    2    0    0 -0.53844010388E+01 -0.52806461818E+01 -0.49961968422E+03  0.49967660127E+03  0.00000000000E+00 0. -1.
        -15    1    1    2    0    0  0.55543360669E+01  0.46530603748E+01  0.47733039633E+02  0.48312549318E+02  0.17770000000E+01 0.  1.
         15    1    1    2    0    0  0.25728084988E+01  0.44771032162E+01  0.17902682729E+03  0.17911009579E+03  0.17770000000E+01 0. -1.
</event>
<event>
 6    1  0.3411206E-003  0.5090123E+03  0.7546771E-02  0.9379867E-01
        -11   -1    0    0    0    0  0.00000000000E+00  0.00000000000E+00  0.50000000000E+03  0.50000000000E+03  0.00000000000E+00 0. -1.
         11   -1    0    0    0    0 -0.00000000000E+00 -0.00000000000E+00 -0.50000000000E+03  0.50000000000E+03  0.00000000000E+00 0. -1.
        -11    1    1    2    0    0 -0.17150912261E+02 -0.10319391167E+02  0.41023298289E+03  0.41072100491E+03  0.00000000000E+00 0. -1.
         11    1    1    2    0    0  0.11768730393E+01  0.24533572940E+02 -0.49037297336E+03  0.49098771291E+03  0.00000000000E+00 0. -1.
        -15    1    1    2    0    0 -0.16884602862E+02 -0.90397934813E+01  0.49207453814E+02  0.52833123321E+02  0.17770000000E+01 0.  1.
         15    1    1    2    0    0  0.32858642084E+02 -0.51743882915E+01  0.30932536654E+02  0.45458158857E+02  0.17770000000E+01 0. -1.
</event>
<event>
 6    1  0.3411206E-003  0.4708669E+03  0.7546771E-02  0.9467466E-01
        -11   -1    0    0    0    0  0.00000000000E+00  0.00000000000E+00  0.50000000000E+03  0.50000000000E+03  0.00000000000E+00 0.  1.
         11   -1    0    0    0    0 -0.00000000000E+00 -0.00000000000E+00 -0.50000000000E+03  0.50000000000E+03  0.00000000000E+00 0. -1.
        -11    1    1    2    0    0 -0.50471813233E+00  0.72505433233E+01  0.47330416019E+03  0.47335996152E+03  0.00000000000E+00 0.  1.
         11    1    1    2    0    0  0.33813043170E+01  0.92305659170E+01 -0.46843188941E+03  0.46853502706E+03  0.00000000000E+00 0. -1.
        -15    1    1    2    0    0 -0.10993955000E+02 -0.14626435306E+02 -0.27979865270E+02  0.33478802933E+02  0.17770000000E+01 0. -1.
         15    1    1    2    0    0  0.81173688157E+01 -0.18546739346E+01  0.23107594493E+02  0.24626208481E+02  0.17770000000E+01 0.  1.
</event>
<event>
 6    1  0.3411206E-003  0.5037996E+03  0.7546771E-02  0.9391348E-01
        -11   -1    0    0    0    0  0.00000000000E+00  0.00000000000E+00  0.50000000000E+03  0.50000000000E+03  0.00000000000E+00 0.  1.
         11   -1    0    0    0    0 -0.00000000000E+00 -0.00000000000E+00 -0.50000000000E+03  0.50000000000E+03  0.00000000000E+00 0.  1.
        -11    1    1    2    0    0 -0.84719554549E+01  0.13971292325E+02  0.44223235964E+03  0.44253410146E+03  0.00000000000E+00 0.  1.
         11    1    1    2    0    0 -0.54395780373E+01  0.79709985637E+01 -0.49610657319E+03  0.49620042099E+03  0.00000000000E+00 0.  1.
        -15    1    1    2    0    0  0.15799340807E+02 -0.19372708270E+02  0.50078300163E+02  0.55999239922E+02  0.17770000000E+01 0. -1.
         15    1    1    2    0    0 -0.18878073153E+01 -0.25695826182E+01  0.37959133874E+01  0.52662376262E+01  0.17770000000E+01 0.  1.
</event>
<event>
 6    1  0.3411206E-003  0.5066926E+03  0.7546771E-02  0.9384958E-01
        -11   -1    0    0    0    0  0.00000000000E+00  0.00000000000E+00  0.50000000000E+03  0.50000000000E+03  0.00000000000E+00 0. -1.
         11   -1    0    0    0    0 -0.00000000000E+00 -0.00000000000E+00 -0.50000000000E+03  0.50000000000E+03  0.00000000000E+00 0.  1.
        -11    1    1    2    0    0  0.91749021172E+01 -0.90460050446E+01  0.49313911444E+03  0.49330740439E+03  0.00000000000E+00 0. -1.
         11    1    1    2    0    0 -0.24047126183E+02  0.53142133980E+01 -0.42215604333E+03  0.42287377557E+03  0.00000000000E+00 0.  1.
        -15    1    1    2    0    0  0.16194099585E+00  0.75797002620E+01  0.29428707983E+01  0.83244398300E+01  0.17770000000E+01 0. -1.
         15    1    1    2    0    0  0.14710283070E+02 -0.38479086154E+01 -0.73925941906E+02  0.75494380217E+02  0.17770000000E+01 0.  1.
</event>
<event>
 6    1  0.3411206E-003  0.5102466E+03  0.7546771E-02  0.9377170E-01
        -11   -1    0    0    0    0  0.00000000000E+00  0.00000000000E+00  0.50000000000E+03  0.50000000000E+03  0.00000000000E+00 0. -1.
         11   -1    0    0    0    0 -0.00000000000E+00 -0.00000000000E+00 -0.50000000000E+03  0.50000000000E+03  0.00000000000E+00 0.  1.
        -11    1    1    2    0    0  0.15688694414E+02 -0.88079070396E-01  0.48950203479E+03  0.48975339198E+03  0.00000000000E+00 0. -1.
         11    1    1    2    0    0 -0.78309281188E+01 -0.16651826266E+01 -0.45040925590E+03  0.45048040364E+03  0.00000000000E+00 0.  1.
        -15    1    1    2    0    0 -0.18346876486E+02  0.17029233690E+02 -0.14706433534E+02  0.29086759757E+02  0.17770000000E+01 0.  1.
         15    1    1    2    0    0  0.10489110191E+02 -0.15275971993E+02 -0.24386345362E+02  0.30679444618E+02  0.17770000000E+01 0. -1.
</event>
<event>
 6    1  0.3411206E-003  0.5212183E+03  0.7546771E-02  0.9353545E-01
        -11   -1    0    0    0    0  0.00000000000E+00  0.00000000000E+00  0.50000000000E+03  0.50000000000E+03  0.00000000000E+00 0.  1.
         11   -1    0    0    0    0 -0.00000000000E+00 -0.00000000000E+00 -0.50000000000E+03  0.50000000000E+03  0.00000000000E+00 0.  1.
        -11    1    1    2    0    0 -0.68681164543E+01  0.83129913395E+01  0.44642908665E+03  0.44655929758E+03  0.00000000000E+00 0.  1.
         11    1    1    2    0    0  0.65447435431E+01  0.39934728382E+01 -0.47872033348E+03  0.47878172394E+03  0.00000000000E+00 0.  1.
        -15    1    1    2    0    0 -0.47838996914E+01 -0.94657279683E+01 -0.19628430906E+02  0.22381213797E+02  0.17770000000E+01 0. -1.
         15    1    1    2    0    0  0.51072726026E+01 -0.28407362094E+01  0.51919677733E+02  0.52277764686E+02  0.17770000000E+01 0.  1.
</event>
<event>
 6    1  0.3411206E-003  0.5049770E+03  0.7546771E-02  0.9388742E-01
        -11   -1    0    0    0    0  0.00000000000E+00  0.00000000000E+00  0.50000000000E+03  0.50000000000E+03  0.00000000000E+00 0. -1.
         11   -1    0    0    0    0 -0.00000000000E+00 -0.00000000000E+00 -0.50000000000E+03  0.50000000000E+03  0.00000000000E+00 0. -1.
        -11    1    1    2    0    0  0.45959745331E+01 -0.10869187908E+02  0.49488231017E+03  0.49502299254E+03  0.00000000000E+00 0. -1.
         11    1    1    2    0    0 -0.22702558567E+01 -0.10288411053E+02 -0.46977327715E+03  0.46989141021E+03  0.00000000000E+00 0. -1.
        -15    1    1    2    0    0  0.38798496128E+01  0.80101919088E+01 -0.55072615637E+01  0.10616217140E+02  0.17770000000E+01 0.  1.
         15    1    1    2    0    0 -0.62055682892E+01  0.13147407052E+02 -0.19601771453E+02  0.24469380112E+02  0.17770000000E+01 0. -1.
</event>
<event>
 6    1  0.3411206E-003  0.5061297E+03  0.7546771E-02  0.9386198E-01
        -11   -1    0    0    0    0  0.00000000000E+00  0.00000000000E+00  0.50000000000E+03  0.50000000000E+03  0.00000000000E+00 0. -1.
         11   -1    0    0    0    0 -0.00000000000E+00 -0.00000000000E+00 -0.50000000000E+03  0.50000000000E+03  0.00000000000E+00 0.  1.
        -11    1    1    2    0    0 -0.16163911118E+02 -0.95444195982E+01  0.49351343316E+03  0.49387030350E+03  0.00000000000E+00 0. -1.
         11    1    1    2    0    0  0.87717529242E+01 -0.53850933841E+01 -0.46387045408E+03  0.46398463450E+03  0.00000000000E+00 0.  1.
        -15    1    1    2    0    0 -0.46077216866E+01  0.10977255332E+02 -0.27030402381E+01  0.12336749543E+02  0.17770000000E+01 0.  1.
         15    1    1    2    0    0  0.11999879880E+02  0.39522576503E+01 -0.26939938844E+02  0.29808312458E+02  0.17770000000E+01 0. -1.
</event>
<event>
 6    1  0.3411206E-003  0.5077993E+03  0.7546771E-02  0.9382525E-01
        -11   -1    0    0    0    0  0.00000000000E+00  0.00000000000E+00  0.50000000000E+03  0.50000000000E+03  0.00000000000E+00 0.  1.
         11   -1    0    0    0    0 -0.00000000000E+00 -0.00000000000E+00 -0.50000000000E+03  0.50000000000E+03  0.00000000000E+00 0.  1.
        -11    1    1    2    0    0 -0.68826408200E+01 -0.69732057457E+01  0.49210319163E+03  0.49220071876E+03  0.00000000000E+00 0.  1.
         11    1    1    2    0    0 -0.34251016689E+01  0.85054662331E+01 -0.37932523123E+03  0.37943603588E+03  0.00000000000E+00 0.  1.
        -15    1    1    2    0    0 -0.14648952381E+02 -0.10130859549E+02 -0.94564945914E+02  0.96244027585E+02  0.17770000000E+01 0. -1.
         15    1    1    2    0    0  0.24956694870E+02  0.85985990618E+01 -0.18213014485E+02  0.32119217772E+02  0.17770000000E+01 0.  1.
</event>
<event>
 6    1  0.3411206E-003  0.5014561E+03  0.7546771E-02  0.9396557E-01
        -11   -1    0    0    0    0  0.00000000000E+00  0.00000000000E+00  0.50000000000E+03  0.50000000000E+03  0.00000000000E+00 0.  1.
         11   -1    0    0    0    0 -0.00000000000E+00 -0.00000000000E+00 -0.50000000000E+03  0.50000000000E+03  0.00000000000E+00 0.  1.
        -11    1    1    2    0    0 -0.17951401991E+01  0.65269786194E+01  0.30973702621E+03  0.30981098977E+03  0.00000000000E+00 0.  1.
         11    1    1    2    0    0 -0.93263029458E+01  0.29454026242E-01 -0.49845663834E+03  0.49854388081E+03  0.00000000000E+00 0.  1.
        -15    1    1    2    0    0 -0.24881691870E+01  0.10796761391E+02  0.65939089027E+02  0.66887085698E+02  0.17770000000E+01 0.  1.
         15    1    1    2    0    0  0.13609612332E+02 -0.17353194037E+02  0.12278052310E+03  0.12475804372E+03  0.17770000000E+01 0. -1.
</event>
<event>
 6    1  0.3411206E-003  0.5574303E+03  0.7546771E-02  0.9279746E-01
        -11   -1    0    0    0    0  0.00000000000E+00  0.00000000000E+00  0.50000000000E+03  0.50000000000E+03  0.00000000000E+00 0.  1.
         11   -1    0    0    0    0 -0.00000000000E+00 -0.00000000000E+00 -0.50000000000E+03  0.50000000000E+03  0.00000000000E+00 0.  1.
        -11    1    1    2    0    0  0.80201482287E+02 -0.84482538819E+02  0.31554950258E+03  0.33636448341E+03  0.00000000000E+00 0.  1.
         11    1    1    2    0    0 -0.11216005225E+02  0.63486532267E+01 -0.44238198423E+03  0.44256968281E+03  0.00000000000E+00 0.  1.
        -15    1    1    2    0    0 -0.68184962750E+02  0.81279128743E+02  0.15764723721E+03  0.19002972148E+03  0.17770000000E+01 0.  1.
         15    1    1    2    0    0 -0.80051431215E+00 -0.31452431506E+01 -0.30814755558E+02  0.31036112301E+02  0.17770000000E+01 0. -1.
</event>
<event>
 6    1  0.3411206E-003  0.5335917E+03  0.7546771E-02  0.9327632E-01
        -11   -1    0    0    0    0  0.00000000000E+00  0.00000000000E+00  0.50000000000E+03  0.50000000000E+03  0.00000000000E+00 0. -1.
         11   -1    0    0    0    0 -0.00000000000E+00 -0.00000000000E+00 -0.50000000000E+03  0.50000000000E+03  0.00000000000E+00 0. -1.
        -11    1    1    2    0    0 -0.77856508456E+01 -0.46766763000E+01  0.28536068420E+03  0.28550517989E+03  0.00000000000E+00 0. -1.
         11    1    1    2    0    0 -0.14734767553E+02 -0.14000105212E+01 -0.46617334352E+03  0.46640825422E+03  0.00000000000E+00 0. -1.
        -15    1    1    2    0    0  0.18048466313E+02 -0.27940557603E+02  0.20395883214E+03  0.20666103850E+03  0.17770000000E+01 0.  1.
         15    1    1    2    0    0  0.44719520864E+01  0.34017244424E+02 -0.23146172824E+02  0.41425527384E+02  0.17770000000E+01 0. -1.
</event>
<event>
 6    1  0.3411206E-003  0.5028048E+03  0.7546771E-02  0.9393555E-01
        -11   -1    0    0    0    0  0.00000000000E+00  0.00000000000E+00  0.50000000000E+03  0.50000000000E+03  0.00000000000E+00 0. -1.
         11   -1    0    0    0    0 -0.00000000000E+00 -0.00000000000E+00 -0.50000000000E+03  0.50000000000E+03  0.00000000000E+00 0.  1.
        -11    1    1    2    0    0  0.63360491716E+01  0.11122770968E+02  0.49703035360E+03  0.49719516686E+03  0.00000000000E+00 0. -1.
         11    1    1    2    0    0 -0.68705284931E+01  0.43519906805E+01 -0.32634324557E+03  0.32644457097E+03  0.00000000000E+00 0.  1.
        -15    1    1    2    0    0  0.74637020335E+01 -0.13965363023E+02 -0.20352654235E+02  0.25848142599E+02  0.17770000000E+01 0. -1.
         15    1    1    2    0    0 -0.69292227120E+01 -0.15093986263E+01 -0.15033445379E+03  0.15051211957E+03  0.17770000000E+01 0.  1.
</event>
<event>
 6    1  0.3411206E-003  0.5170461E+03  0.7546771E-02  0.9362455E-01
        -11   -1    0    0    0    0  0.00000000000E+00  0.00000000000E+00  0.50000000000E+03  0.50000000000E+03  0.00000000000E+00 0.  1.
         11   -1    0    0    0    0 -0.00000000000E+00 -0.00000000000E+00 -0.50000000000E+03  0.50000000000E+03  0.00000000000E+00 0. -1.
        -11    1    1    2    0    0  0.63956031706E+01  0.55170810148E+01  0.47955041763E+03  0.47962479604E+03  0.00000000000E+00 0.  1.
         11    1    1    2    0    0 -0.58745801018E+01 -0.84980381022E+01 -0.48284339638E+03  0.48295390336E+03  0.00000000000E+00 0. -1.
        -15    1    1    2    0    0  0.40244947731E+01  0.57995368652E+01 -0.15862983985E+02  0.17453457421E+02  0.17770000000E+01 0. -1.
         15    1    1    2    0    0 -0.45455178418E+01 -0.28185797778E+01  0.19155962731E+02  0.19967843187E+02  0.17770000000E+01 0. -1.
</event>
<event>
 6    1  0.3411206E-003  0.5210844E+03  0.7546771E-02  0.9353829E-01
        -11   -1    0    0    0    0  0.00000000000E+00  0.00000000000E+00  0.50000000000E+03  0.50000000000E+03  0.00000000000E+00 0.  1.
         11   -1    0    0    0    0 -0.00000000000E+00 -0.00000000000E+00 -0.50000000000E+03  0.50000000000E+03  0.00000000000E+00 0. -1.
        -11    1    1    2    0    0 -0.21911345913E+01 -0.73506744616E+01  0.47885413938E+03  0.47891556697E+03  0.00000000000E+00 0.  1.
         11    1    1    2    0    0  0.17005395284E+02 -0.36487971050E+01 -0.46053362614E+03  0.46086192943E+03  0.00000000000E+00 0. -1.
        -15    1    1    2    0    0 -0.94187896852E+01  0.10830120797E+02  0.18208969498E+02  0.23253589288E+02  0.17770000000E+01 0. -1.
         15    1    1    2    0    0 -0.53954710074E+01  0.16935077006E+00 -0.36529482740E+02  0.36968914311E+02  0.17770000000E+01 0.  1.
</event>
<event>
 6    1  0.3411206E-003  0.5071629E+03  0.7546771E-02  0.9383923E-01
        -11   -1    0    0    0    0  0.00000000000E+00  0.00000000000E+00  0.50000000000E+03  0.50000000000E+03  0.00000000000E+00 0. -1.
         11   -1    0    0    0    0 -0.00000000000E+00 -0.00000000000E+00 -0.50000000000E+03  0.50000000000E+03  0.00000000000E+00 0. -1.
        -11    1    1    2    0    0  0.26128572260E+01  0.10646334291E+02  0.49271520816E+03  0.49283714126E+03  0.00000000000E+00 0. -1.
         11    1    1    2    0    0  0.76727689749E+01 -0.20221526859E+02 -0.43189317638E+03  0.43243438500E+03  0.00000000000E+00 0. -1.
        -15    1    1    2    0    0 -0.11767677310E+02 -0.13164209738E+02 -0.13923272096E+02  0.22556371210E+02  0.17770000000E+01 0.  1.
         15    1    1    2    0    0  0.14820511095E+01  0.22739402305E+02 -0.46898759688E+02  0.52172102526E+02  0.17770000000E+01 0. -1.
</event>
<event>
 6    1  0.3411206E-003  0.5006303E+03  0.7546771E-02  0.9398400E-01
        -11   -1    0    0    0    0  0.00000000000E+00  0.00000000000E+00  0.50000000000E+03  0.50000000000E+03  0.00000000000E+00 0.  1.
         11   -1    0    0    0    0 -0.00000000000E+00 -0.00000000000E+00 -0.50000000000E+03  0.50000000000E+03  0.00000000000E+00 0.  1.
        -11    1    1    2    0    0 -0.47282656013E+01 -0.49159436162E+01  0.49932307575E+03  0.49936965964E+03  0.00000000000E+00 0.  1.
         11    1    1    2    0    0  0.68298168164E+01 -0.11411786535E+01 -0.43187515600E+03  0.43193066464E+03  0.00000000000E+00 0.  1.
        -15    1    1    2    0    0 -0.46944347130E+01  0.44693756059E+01 -0.19560415902E+02  0.20682858478E+02  0.17770000000E+01 0.  1.
         15    1    1    2    0    0  0.25928834979E+01  0.15877466637E+01 -0.47887503842E+02  0.48016817236E+02  0.17770000000E+01 0. -1.
</event>
<event>
 6    1  0.3411206E-003  0.5069378E+03  0.7546771E-02  0.9384418E-01
        -11   -1    0    0    0    0  0.00000000000E+00  0.00000000000E+00  0.50000000000E+03  0.50000000000E+03  0.00000000000E+00 0.  1.
         11   -1    0    0    0    0 -0.00000000000E+00 -0.00000000000E+00 -0.50000000000E+03  0.50000000000E+03  0.00000000000E+00 0.  1.
        -11    1    1    2    0    0  0.55105320609E+01  0.51074992467E+00  0.39071625998E+03  0.39075545120E+03  0.00000000000E+00 0.  1.
         11    1    1    2    0    0 -0.13854634185E+02  0.12830000808E+02 -0.49270044259E+03  0.49306215221E+03  0.00000000000E+00 0.  1.
        -15    1    1    2    0    0  0.47475228837E+01 -0.47782058708E+01  0.10576841224E+03  0.10599757064E+03  0.17770000000E+01 0.  1.
         15    1    1    2    0    0  0.35965792408E+01 -0.85625448619E+01 -0.37842296265E+01  0.10184825949E+02  0.17770000000E+01 0. -1.
</event>
<event>
 6    1  0.5259305E-003  0.5003433E+03  0.7546771E-02  0.9399042E-01
        -11   -1    0    0    0    0  0.00000000000E+00  0.00000000000E+00  0.50000000000E+03  0.50000000000E+03  0.00000000000E+00 0.  1.
         11   -1    0    0    0    0 -0.00000000000E+00 -0.00000000000E+00 -0.50000000000E+03  0.50000000000E+03  0.00000000000E+00 0. -1.
        -11    1    1    2    0    0 -0.24543884625E+01  0.89920555199E+01  0.49956976353E+03  0.49965671188E+03  0.00000000000E+00 0.  1.
         11    1    1    2    0    0 -0.13804354533E+01  0.36790921643E+01 -0.25239708147E+03  0.25242766896E+03  0.00000000000E+00 0. -1.
        -15    1    1    2    0    0 -0.64946190110E+00 -0.28782737123E+01 -0.16320100853E+03  0.16323735226E+03  0.17770000000E+01 0. -1.
         15    1    1    2    0    0  0.44842858169E+01 -0.97928739720E+01 -0.83971673541E+02  0.84678266906E+02  0.17770000000E+01 0. -1.
</event>
<event>
 6    1  0.3411206E-003  0.5034236E+03  0.7546771E-02  0.9392182E-01
        -11   -1    0    0    0    0  0.00000000000E+00  0.00000000000E+00  0.50000000000E+03  0.50000000000E+03  0.00000000000E+00 0. -1.
         11   -1    0    0    0    0 -0.00000000000E+00 -0.00000000000E+00 -0.50000000000E+03  0.50000000000E+03  0.00000000000E+00 0. -1.
        -11    1    1    2    0    0  0.17552256145E+02 -0.32910412157E+01  0.23696843470E+03  0.23764038312E+03  0.00000000000E+00 0. -1.
         11    1    1    2    0    0  0.12062385541E+02 -0.59685666085E+01 -0.49639400668E+03  0.49657641386E+03  0.00000000000E+00 0. -1.
        -15    1    1    2    0    0 -0.64035317101E+01 -0.87834932943E+01  0.19063181227E+03  0.19094973304E+03  0.17770000000E+01 0.  1.
         15    1    1    2    0    0 -0.23211109976E+02  0.18043101119E+02  0.68793759714E+02  0.74833469977E+02  0.17770000000E+01 0. -1.
</event>
<event>
 6    1  0.3411206E-003  0.5050072E+03  0.7546771E-02  0.9388675E-01
        -11   -1    0    0    0    0  0.00000000000E+00  0.00000000000E+00  0.50000000000E+03  0.50000000000E+03  0.00000000000E+00 0. -1.
         11   -1    0    0    0    0 -0.00000000000E+00 -0.00000000000E+00 -0.50000000000E+03  0.50000000000E+03  0.00000000000E+00 0.  1.
        -11    1    1    2    0    0 -0.28269360485E+02 -0.14739206884E+02  0.41000921882E+03  0.41124683643E+03  0.00000000000E+00 0. -1.
         11    1    1    2    0    0 -0.67094905859E+01  0.10895326556E+02 -0.49482740520E+03  0.49499281444E+03  0.00000000000E+00 0.  1.
        -15    1    1    2    0    0  0.30738697807E+02  0.97647946606E+01  0.65306102880E+02  0.72857831151E+02  0.17770000000E+01 0. -1.
         15    1    1    2    0    0  0.42401532637E+01 -0.59209143322E+01  0.19512083505E+02  0.20902517981E+02  0.17770000000E+01 0.  1.
</event>
<event>
 6    1  0.3411206E-003  0.5049180E+03  0.7546771E-02  0.9388872E-01
        -11   -1    0    0    0    0  0.00000000000E+00  0.00000000000E+00  0.50000000000E+03  0.50000000000E+03  0.00000000000E+00 0. -1.
         11   -1    0    0    0    0 -0.00000000000E+00 -0.00000000000E+00 -0.50000000000E+03  0.50000000000E+03  0.00000000000E+00 0.  1.
        -11    1    1    2    0    0  0.65189424965E+01  0.35702768132E+01  0.49502623522E+03  0.49508203062E+03  0.00000000000E+00 0. -1.
         11    1    1    2    0    0  0.58148795990E+01 -0.26807229186E+01 -0.42101201488E+03  0.42106070320E+03  0.00000000000E+00 0.  1.
        -15    1    1    2    0    0  0.65610078552E+01  0.11705637962E+02 -0.44874876251E+02  0.46871964240E+02  0.17770000000E+01 0.  1.
         15    1    1    2    0    0 -0.18894829951E+02 -0.12595191857E+02 -0.29139344086E+02  0.36985301939E+02  0.17770000000E+01 0. -1.
</event>
<event>
 6    1  0.3411206E-003  0.5004401E+03  0.7546771E-02  0.9398825E-01
        -11   -1    0    0    0    0  0.00000000000E+00  0.00000000000E+00  0.50000000000E+03  0.50000000000E+03  0.00000000000E+00 0. -1.
         11   -1    0    0    0    0 -0.00000000000E+00 -0.00000000000E+00 -0.50000000000E+03  0.50000000000E+03  0.00000000000E+00 0. -1.
        -11    1    1    2    0    0  0.34519439961E+01 -0.65652485941E+01  0.49950478335E+03  0.49955985327E+03  0.00000000000E+00 0. -1.
         11    1    1    2    0    0  0.20341799058E+01  0.95076637117E+01 -0.38503103056E+03  0.38515377196E+03  0.00000000000E+00 0. -1.
        -15    1    1    2    0    0 -0.47802294804E+00 -0.67419909806E+01 -0.67435605431E+02  0.67796766568E+02  0.17770000000E+01 0.  1.
         15    1    1    2    0    0 -0.50081009539E+01  0.37995758630E+01 -0.47038147355E+02  0.47489608205E+02  0.17770000000E+01 0. -1.
</event>
<event>
 6    1  0.3411206E-003  0.5005047E+03  0.7546771E-02  0.9398681E-01
        -11   -1    0    0    0    0  0.00000000000E+00  0.00000000000E+00  0.50000000000E+03  0.50000000000E+03  0.00000000000E+00 0. -1.
         11   -1    0    0    0    0 -0.00000000000E+00 -0.00000000000E+00 -0.50000000000E+03  0.50000000000E+03  0.00000000000E+00 0. -1.
        -11    1    1    2    0    0 -0.90003094164E+00  0.77089684176E+01  0.49943504051E+03  0.49949534326E+03  0.00000000000E+00 0. -1.
         11    1    1    2    0    0  0.71646355132E+01 -0.19524558877E+01 -0.40579938083E+03  0.40586732015E+03  0.00000000000E+00 0. -1.
        -15    1    1    2    0    0 -0.20139589945E+01 -0.80019940949E+01 -0.50848084449E+02  0.51543897422E+02  0.17770000000E+01 0. -1.
         15    1    1    2    0    0 -0.42506455770E+01  0.22454815650E+01 -0.42787575239E+02  0.43093439166E+02  0.17770000000E+01 0.  1.
</event>
<event>
 6    1  0.3411206E-003  0.5590044E+03  0.7546771E-02  0.9276674E-01
        -11   -1    0    0    0    0  0.00000000000E+00  0.00000000000E+00  0.50000000000E+03  0.50000000000E+03  0.00000000000E+00 0. -1.
         11   -1    0    0    0    0 -0.00000000000E+00 -0.00000000000E+00 -0.50000000000E+03  0.50000000000E+03  0.00000000000E+00 0.  1.
        -11    1    1    2    0    0  0.62599375668E+01  0.38400636987E+01  0.31305755046E+03  0.31314367758E+03  0.00000000000E+00 0. -1.
         11    1    1    2    0    0 -0.26050135275E+02 -0.54937763255E+02 -0.43678409731E+03  0.44099559527E+03  0.00000000000E+00 0.  1.
        -15    1    1    2    0    0  0.24288599726E+02  0.23471729801E+02 -0.55206019423E+02  0.64743497635E+02  0.17770000000E+01 0.  1.
         15    1    1    2    0    0 -0.44984020177E+01  0.27625969755E+02  0.17893256628E+03  0.18111722952E+03  0.17770000000E+01 0. -1.
</event>
<event>
 6    1  0.3411206E-003  0.5015125E+03  0.7546771E-02  0.9396432E-01
        -11   -1    0    0    0    0  0.00000000000E+00  0.00000000000E+00  0.50000000000E+03  0.50000000000E+03  0.00000000000E+00 0.  1.
         11   -1    0    0    0    0 -0.00000000000E+00 -0.00000000000E+00 -0.50000000000E+03  0.50000000000E+03  0.00000000000E+00 0.  1.
        -11    1    1    2    0    0  0.68112462130E+01 -0.47847363711E+01  0.49841797382E+03  0.49848747568E+03  0.00000000000E+00 0.  1.
         11    1    1    2    0    0  0.48215927482E+01  0.78200252299E+01 -0.37712983205E+03  0.37724171399E+03  0.00000000000E+00 0.  1.
        -15    1    1    2    0    0 -0.16762507339E+02  0.13635195776E+01 -0.53156554699E+02  0.55781877652E+02  0.17770000000E+01 0. -1.
         15    1    1    2    0    0  0.51296683780E+01 -0.43988084364E+01 -0.68131587074E+02  0.68488932679E+02  0.17770000000E+01 0.  1.
</event>
<event>
 6    1  0.3411206E-003  0.5010895E+03  0.7546771E-02  0.9397375E-01
        -11   -1    0    0    0    0  0.00000000000E+00  0.00000000000E+00  0.50000000000E+03  0.50000000000E+03  0.00000000000E+00 0.  1.
         11   -1    0    0    0    0 -0.00000000000E+00 -0.00000000000E+00 -0.50000000000E+03  0.50000000000E+03  0.00000000000E+00 0.  1.
        -11    1    1    2    0    0 -0.62588445319E+01  0.10326492291E+02  0.49876432843E+03  0.49891047783E+03  0.00000000000E+00 0.  1.
         11    1    1    2    0    0  0.81406117685E+01  0.56727035794E+00 -0.45469290853E+03  0.45476612938E+03  0.00000000000E+00 0.  1.
        -15    1    1    2    0    0 -0.24291317787E+01  0.52509600079E-01 -0.12470875825E+02  0.12829026124E+02  0.17770000000E+01 0.  1.
         15    1    1    2    0    0  0.54736454204E+00 -0.10946272249E+02 -0.31600544068E+02  0.33494366668E+02  0.17770000000E+01 0. -1.
</event>
<event>
 6    1  0.3411206E-003  0.4793359E+03  0.7546771E-02  0.9447273E-01
        -11   -1    0    0    0    0  0.00000000000E+00  0.00000000000E+00  0.50000000000E+03  0.50000000000E+03  0.00000000000E+00 0. -1.
         11   -1    0    0    0    0 -0.00000000000E+00 -0.00000000000E+00 -0.50000000000E+03  0.50000000000E+03  0.00000000000E+00 0.  1.
        -11    1    1    2    0    0  0.93754707456E+01 -0.74358139668E+01  0.48267181605E+03  0.48282012467E+03  0.00000000000E+00 0. -1.
         11    1    1    2    0    0  0.58975591991E+01 -0.29671311837E+01 -0.47600716955E+03  0.47605294930E+03  0.00000000000E+00 0.  1.
        -15    1    1    2    0    0  0.14831860752E+01  0.47936420866E+01  0.13348199933E+02  0.14370491148E+02  0.17770000000E+01 0.  1.
         15    1    1    2    0    0 -0.16756216020E+02  0.56093030639E+01 -0.20012846430E+02  0.26756434878E+02  0.17770000000E+01 0. -1.
</event>
<event>
 6    1  0.3411206E-003  0.5039179E+03  0.7546771E-02  0.9391086E-01
        -11   -1    0    0    0    0  0.00000000000E+00  0.00000000000E+00  0.50000000000E+03  0.50000000000E+03  0.00000000000E+00 0. -1.
         11   -1    0    0    0    0 -0.00000000000E+00 -0.00000000000E+00 -0.50000000000E+03  0.50000000000E+03  0.00000000000E+00 0. -1.
        -11    1    1    2    0    0 -0.57410722484E+01  0.48932680349E+01  0.48710626898E+03  0.48716467571E+03  0.00000000000E+00 0. -1.
         11    1    1    2    0    0  0.48836413346E+01 -0.52235725662E+01 -0.49603060093E+03  0.49608214312E+03  0.00000000000E+00 0. -1.
        -15    1    1    2    0    0 -0.64067267113E+01  0.52927648238E+00  0.36847017521E+01  0.76197793112E+01  0.17770000000E+01 0. -1.
         15    1    1    2    0    0  0.72641576250E+01 -0.19897195107E+00  0.52396302012E+01  0.91334018572E+01  0.17770000000E+01 0.  1.
</event>
<event>
 6    1  0.3411206E-003  0.5458810E+03  0.7546771E-02  0.9302622E-01
        -11   -1    0    0    0    0  0.00000000000E+00  0.00000000000E+00  0.50000000000E+03  0.50000000000E+03  0.00000000000E+00 0. -1.
         11   -1    0    0    0    0 -0.00000000000E+00 -0.00000000000E+00 -0.50000000000E+03  0.50000000000E+03  0.00000000000E+00 0. -1.
        -11    1    1    2    0    0  0.28653762340E+01  0.42565282501E+02  0.45211062442E+03  0.45411896059E+03  0.00000000000E+00 0. -1.
         11    1    1    2    0    0 -0.10390363078E+02  0.23110340756E+02 -0.39944862223E+03  0.40025148257E+03  0.00000000000E+00 0. -1.
        -15    1    1    2    0    0  0.40072227011E+01 -0.46294721240E+02 -0.91167295507E+02  0.10234203705E+03  0.17770000000E+01 0.  1.
         15    1    1    2    0    0  0.35177641425E+01 -0.19380902016E+02  0.38505293320E+02  0.43287519797E+02  0.17770000000E+01 0. -1.
</event>
<event>
 6    1  0.3411206E-003  0.5207600E+03  0.7546771E-02  0.9354519E-01
        -11   -1    0    0    0    0  0.00000000000E+00  0.00000000000E+00  0.50000000000E+03  0.50000000000E+03  0.00000000000E+00 0. -1.
         11   -1    0    0    0    0 -0.00000000000E+00 -0.00000000000E+00 -0.50000000000E+03  0.50000000000E+03  0.00000000000E+00 0.  1.
        -11    1    1    2    0    0  0.21504614007E+02 -0.11513645752E+01  0.47875593660E+03  0.47924004517E+03  0.00000000000E+00 0. -1.
         11    1    1    2    0    0  0.17138513238E+00 -0.56013207172E+01 -0.13732485575E+03  0.13743915080E+03  0.00000000000E+00 0.  1.
        -15    1    1    2    0    0 -0.15278950211E+01  0.97464029488E+01 -0.35729876337E+03  0.35743935271E+03  0.17770000000E+01 0.  1.
         15    1    1    2    0    0 -0.20148104118E+02 -0.29937176564E+01  0.15867682516E+02  0.25881451319E+02  0.17770000000E+01 0. -1.
</event>
<event>
 6    1  0.3411206E-003  0.5081588E+03  0.7546771E-02  0.9381737E-01
        -11   -1    0    0    0    0  0.00000000000E+00  0.00000000000E+00  0.50000000000E+03  0.50000000000E+03  0.00000000000E+00 0. -1.
         11   -1    0    0    0    0 -0.00000000000E+00 -0.00000000000E+00 -0.50000000000E+03  0.50000000000E+03  0.00000000000E+00 0. -1.
        -11    1    1    2    0    0 -0.73676059273E+01  0.53402581698E+01  0.49175701930E+03  0.49184119999E+03  0.00000000000E+00 0. -1.
         11    1    1    2    0    0  0.12189606976E+02  0.48530863422E+01 -0.48220354181E+03  0.48238200080E+03  0.00000000000E+00 0. -1.
        -15    1    1    2    0    0 -0.12091643498E+01 -0.12258314519E+01  0.64987839067E+01  0.69538954866E+01  0.17770000000E+01 0. -1.
         15    1    1    2    0    0 -0.36128366992E+01 -0.89675130601E+01 -0.16052261401E+02  0.18822903723E+02  0.17770000000E+01 0.  1.
</event>
<event>
 6    1  0.3411206E-003  0.5005319E+03  0.7546771E-02  0.9398620E-01
        -11   -1    0    0    0    0  0.00000000000E+00  0.00000000000E+00  0.50000000000E+03  0.50000000000E+03  0.00000000000E+00 0. -1.
         11   -1    0    0    0    0 -0.00000000000E+00 -0.00000000000E+00 -0.50000000000E+03  0.50000000000E+03  0.00000000000E+00 0.  1.
        -11    1    1    2    0    0 -0.36510187725E+01 -0.95118501921E+00  0.26267629476E+03  0.26270338886E+03  0.00000000000E+00 0. -1.
         11    1    1    2    0    0  0.24766212818E+01 -0.95141855432E+01 -0.49937130387E+03  0.49946806956E+03  0.00000000000E+00 0.  1.
        -15    1    1    2    0    0  0.26955077578E+01  0.98248083259E+01  0.23389795546E+03  0.23412646992E+03  0.17770000000E+01 0. -1.
         15    1    1    2    0    0 -0.15211102671E+01  0.64056223646E+00  0.27970536515E+01  0.37020716569E+01  0.17770000000E+01 0.  1.
</event>
<event>
 6    1  0.3411206E-003  0.5140473E+03  0.7546771E-02  0.9368915E-01
        -11   -1    0    0    0    0  0.00000000000E+00  0.00000000000E+00  0.50000000000E+03  0.50000000000E+03  0.00000000000E+00 0. -1.
         11   -1    0    0    0    0 -0.00000000000E+00 -0.00000000000E+00 -0.50000000000E+03  0.50000000000E+03  0.00000000000E+00 0. -1.
        -11    1    1    2    0    0 -0.68602783736E+00 -0.11875449846E+02  0.48580705518E+03  0.48595266416E+03  0.00000000000E+00 0. -1.
         11    1    1    2    0    0  0.11743374615E+01 -0.87433144230E+01 -0.45269977292E+03  0.45278572086E+03  0.00000000000E+00 0. -1.
        -15    1    1    2    0    0 -0.11794038738E+02 -0.11611430835E+02 -0.62701791582E+01  0.17787567328E+02  0.17770000000E+01 0. -1.
         15    1    1    2    0    0  0.11305729113E+02  0.32230195104E+02 -0.26837103099E+02  0.43474047649E+02  0.17770000000E+01 0.  1.
</event>
<event>
 6    1  0.3411206E-003  0.5062639E+03  0.7546771E-02  0.9385902E-01
        -11   -1    0    0    0    0  0.00000000000E+00  0.00000000000E+00  0.50000000000E+03  0.50000000000E+03  0.00000000000E+00 0.  1.
         11   -1    0    0    0    0 -0.00000000000E+00 -0.00000000000E+00 -0.50000000000E+03  0.50000000000E+03  0.00000000000E+00 0.  1.
        -11    1    1    2    0    0 -0.37868469167E+01  0.70368190555E+01  0.36010683720E+03  0.36019549029E+03  0.00000000000E+00 0.  1.
         11    1    1    2    0    0  0.74623845096E+00 -0.21154081538E+02 -0.49328210863E+03  0.49373605371E+03  0.00000000000E+00 0.  1.
        -15    1    1    2    0    0  0.99092483103E+01  0.15583714674E+02  0.72248348459E+01  0.19909830051E+02  0.17770000000E+01 0. -1.
         15    1    1    2    0    0 -0.68686398446E+01 -0.14664521917E+01  0.12595043659E+03  0.12615862595E+03  0.17770000000E+01 0.  1.
</event>
<event>
 6    1  0.3411206E-003  0.5013513E+03  0.7546771E-02  0.9396791E-01
        -11   -1    0    0    0    0  0.00000000000E+00  0.00000000000E+00  0.50000000000E+03  0.50000000000E+03  0.00000000000E+00 0.  1.
         11   -1    0    0    0    0 -0.00000000000E+00 -0.00000000000E+00 -0.50000000000E+03  0.50000000000E+03  0.00000000000E+00 0.  1.
        -11    1    1    2    0    0  0.13937175126E+02 -0.12953658076E+02  0.49828551347E+03  0.49864866894E+03  0.00000000000E+00 0.  1.
         11    1    1    2    0    0  0.30759889060E+01  0.37156446172E+01 -0.29789541634E+03  0.29793446729E+03  0.00000000000E+00 0.  1.
        -15    1    1    2    0    0 -0.77731378864E+01  0.11632823305E+02 -0.34895830744E+02  0.37638025758E+02  0.17770000000E+01 0. -1.
         15    1    1    2    0    0 -0.92400261458E+01 -0.23948098463E+01 -0.16549426638E+03  0.16577883801E+03  0.17770000000E+01 0.  1.
</event>
<event>
 6    1  0.3411206E-003  0.5196760E+03  0.7546771E-02  0.9356828E-01
        -11   -1    0    0    0    0  0.00000000000E+00  0.00000000000E+00  0.50000000000E+03  0.50000000000E+03  0.00000000000E+00 0. -1.
         11   -1    0    0    0    0 -0.00000000000E+00 -0.00000000000E+00 -0.50000000000E+03  0.50000000000E+03  0.00000000000E+00 0. -1.
        -11    1    1    2    0    0 -0.64703479867E+01  0.79548547087E+01  0.48021457078E+03  0.48032403553E+03  0.00000000000E+00 0. -1.
         11    1    1    2    0    0  0.29239130500E+01 -0.81045926209E+01 -0.47443107853E+03  0.47450930651E+03  0.00000000000E+00 0. -1.
        -15    1    1    2    0    0 -0.45043453477E+01 -0.19837185129E+02  0.49754329087E+01  0.21017033627E+02  0.17770000000E+01 0. -1.
         15    1    1    2    0    0  0.80507802844E+01  0.19986923041E+02 -0.10758925165E+02  0.24149624336E+02  0.17770000000E+01 0.  1.
</event>
<event>
 6    1  0.3411206E-003  0.5108634E+03  0.7546771E-02  0.9375825E-01
        -11   -1    0    0    0    0  0.00000000000E+00  0.00000000000E+00  0.50000000000E+03  0.50000000000E+03  0.00000000000E+00 0. -1.
         11   -1    0    0    0    0 -0.00000000000E+00 -0.00000000000E+00 -0.50000000000E+03  0.50000000000E+03  0.00000000000E+00 0.  1.
        -11    1    1    2    0    0  0.33791241739E+02 -0.17670888565E+01  0.43336778771E+03  0.43468679535E+03  0.00000000000E+00 0. -1.
         11    1    1    2    0    0 -0.82939371965E+01  0.25855524851E+01 -0.48905947344E+03  0.48913663023E+03  0.00000000000E+00 0.  1.
        -15    1    1    2    0    0 -0.54071024181E+01  0.19205868092E+02  0.10054574333E+02  0.22413262140E+02  0.17770000000E+01 0.  1.
         15    1    1    2    0    0 -0.20090202124E+02 -0.20024331721E+02  0.45637111392E+02  0.53763312281E+02  0.17770000000E+01 0. -1.
</event>
<event>
 6    1  0.3411206E-003  0.5104258E+03  0.7546771E-02  0.9376779E-01
        -11   -1    0    0    0    0  0.00000000000E+00  0.00000000000E+00  0.50000000000E+03  0.50000000000E+03  0.00000000000E+00 0. -1.
         11   -1    0    0    0    0 -0.00000000000E+00 -0.00000000000E+00 -0.50000000000E+03  0.50000000000E+03  0.00000000000E+00 0. -1.
        -11    1    1    2    0    0  0.11931198798E+02 -0.63209055557E+01  0.43914757119E+03  0.43935509173E+03  0.00000000000E+00 0. -1.
         11    1    1    2    0    0  0.19281381643E+02 -0.95760287885E+01 -0.48910062973E+03  0.48957420072E+03  0.00000000000E+00 0. -1.
        -15    1    1    2    0    0 -0.38536108435E+02  0.10347893697E+02  0.33445342435E+02  0.52094713906E+02  0.17770000000E+01 0.  1.
         15    1    1    2    0    0  0.73235279943E+01  0.55490406476E+01  0.16507716112E+02  0.18975993640E+02  0.17770000000E+01 0. -1.
</event>
<event>
 6    1  0.3411206E-003  0.5008760E+03  0.7546771E-02  0.9397852E-01
        -11   -1    0    0    0    0  0.00000000000E+00  0.00000000000E+00  0.50000000000E+03  0.50000000000E+03  0.00000000000E+00 0.  1.
         11   -1    0    0    0    0 -0.00000000000E+00 -0.00000000000E+00 -0.50000000000E+03  0.50000000000E+03  0.00000000000E+00 0.  1.
        -11    1    1    2    0    0  0.46707824486E+01  0.89637105450E+01  0.49902169092E+03  0.49912404503E+03  0.00000000000E+00 0.  1.
         11    1    1    2    0    0 -0.72514352520E+00 -0.49406222906E+01 -0.30223416100E+03  0.30227541028E+03  0.00000000000E+00 0.  1.
        -15    1    1    2    0    0 -0.12940837312E+01  0.39219384192E+01 -0.17678903066E+03  0.17684619120E+03  0.17770000000E+01 0.  1.
         15    1    1    2    0    0 -0.26515551923E+01 -0.79450266737E+01 -0.19998499264E+02  0.21754353486E+02  0.17770000000E+01 0. -1.
</event>
<event>
 6    1  0.3411206E-003  0.5054326E+03  0.7546771E-02  0.9387735E-01
        -11   -1    0    0    0    0  0.00000000000E+00  0.00000000000E+00  0.50000000000E+03  0.50000000000E+03  0.00000000000E+00 0. -1.
         11   -1    0    0    0    0 -0.00000000000E+00 -0.00000000000E+00 -0.50000000000E+03  0.50000000000E+03  0.00000000000E+00 0.  1.
        -11    1    1    2    0    0  0.11461820348E+02  0.74765081446E+01  0.42564969043E+03  0.42586961674E+03  0.00000000000E+00 0. -1.
         11    1    1    2    0    0 -0.56043464866E+01  0.15190226286E+02 -0.49430226747E+03  0.49456736983E+03  0.00000000000E+00 0.  1.
        -15    1    1    2    0    0 -0.55928532487E+01 -0.95345827252E+01  0.17157448453E+01  0.11326508049E+02  0.17770000000E+01 0. -1.
         15    1    1    2    0    0 -0.26462061271E+00 -0.13132151706E+02  0.66936832200E+02  0.68236505380E+02  0.17770000000E+01 0.  1.
</event>
<event>
 6    1  0.3411206E-003  0.5015133E+03  0.7546771E-02  0.9396430E-01
        -11   -1    0    0    0    0  0.00000000000E+00  0.00000000000E+00  0.50000000000E+03  0.50000000000E+03  0.00000000000E+00 0.  1.
         11   -1    0    0    0    0 -0.00000000000E+00 -0.00000000000E+00 -0.50000000000E+03  0.50000000000E+03  0.00000000000E+00 0.  1.
        -11    1    1    2    0    0  0.69055346493E+00  0.35174279672E+01  0.24321086055E+03  0.24323727480E+03  0.00000000000E+00 0.  1.
         11    1    1    2    0    0 -0.62196175407E+01  0.35734724455E+01 -0.49843511186E+03  0.49848672408E+03  0.00000000000E+00 0.  1.
        -15    1    1    2    0    0 -0.29885719580E+01 -0.96156033130E+01  0.24217074750E+03  0.24238650966E+03  0.17770000000E+01 0.  1.
         15    1    1    2    0    0  0.85176360338E+01  0.25247029003E+01  0.13053503808E+02  0.15889491465E+02  0.17770000000E+01 0. -1.
</event>
<event>
 6    1  0.3411206E-003  0.5021748E+03  0.7546771E-02  0.9394956E-01
        -11   -1    0    0    0    0  0.00000000000E+00  0.00000000000E+00  0.50000000000E+03  0.50000000000E+03  0.00000000000E+00 0. -1.
         11   -1    0    0    0    0 -0.00000000000E+00 -0.00000000000E+00 -0.50000000000E+03  0.50000000000E+03  0.00000000000E+00 0. -1.
        -11    1    1    2    0    0 -0.79088217042E+01 -0.37173980467E+01  0.43512521873E+03  0.43521296452E+03  0.00000000000E+00 0. -1.
         11    1    1    2    0    0 -0.11654055756E+02 -0.46980970705E+00 -0.49768852442E+03  0.49782517521E+03  0.00000000000E+00 0. -1.
        -15    1    1    2    0    0  0.60000114729E+01  0.39773901282E+01  0.89084913722E+01  0.11590458034E+02  0.17770000000E+01 0.  1.
         15    1    1    2    0    0  0.13562865987E+02  0.20981762557E+00  0.53654814313E+02  0.55371402232E+02  0.17770000000E+01 0. -1.
</event>
<event>
 6    1  0.3411206E-003  0.5001722E+03  0.7546771E-02  0.9399424E-01
        -11   -1    0    0    0    0  0.00000000000E+00  0.00000000000E+00  0.50000000000E+03  0.50000000000E+03  0.00000000000E+00 0. -1.
         11   -1    0    0    0    0 -0.00000000000E+00 -0.00000000000E+00 -0.50000000000E+03  0.50000000000E+03  0.00000000000E+00 0. -1.
        -11    1    1    2    0    0 -0.34985287335E+01 -0.13006349194E+01  0.53021987739E+02  0.53153198759E+02  0.00000000000E+00 0. -1.
         11    1    1    2    0    0  0.70027088123E+01 -0.44233431861E+01 -0.49975913449E+03  0.49982776674E+03  0.00000000000E+00 0. -1.
        -15    1    1    2    0    0 -0.64581491769E+01 -0.54314907683E+00  0.32661324610E+03  0.32668237320E+03  0.17770000000E+01 0. -1.
         15    1    1    2    0    0  0.29539690981E+01  0.62671271823E+01  0.12012390065E+03  0.12033666130E+03  0.17770000000E+01 0.  1.
</event>
<event>
 6    1  0.3411206E-003  0.5004943E+03  0.7546771E-02  0.9398704E-01
        -11   -1    0    0    0    0  0.00000000000E+00  0.00000000000E+00  0.50000000000E+03  0.50000000000E+03  0.00000000000E+00 0.  1.
         11   -1    0    0    0    0 -0.00000000000E+00 -0.00000000000E+00 -0.50000000000E+03  0.50000000000E+03  0.00000000000E+00 0. -1.
        -11    1    1    2    0    0 -0.25913950172E+01  0.68142116240E+01  0.49945247110E+03  0.49950567534E+03  0.00000000000E+00 0.  1.
         11    1    1    2    0    0  0.10377800904E+01  0.44544940470E+01 -0.23302954915E+03  0.23307443077E+03  0.00000000000E+00 0. -1.
        -15    1    1    2    0    0 -0.23738212722E+01 -0.61243772166E+01 -0.25167457553E+02  0.26071088823E+02  0.17770000000E+01 0.  1.
         15    1    1    2    0    0  0.39274361991E+01 -0.51443284543E+01 -0.24125546440E+03  0.24134880506E+03  0.17770000000E+01 0. -1.
</event>
<event>
 6    1  0.3411206E-003  0.5042011E+03  0.7546771E-02  0.9390458E-01
        -11   -1    0    0    0    0  0.00000000000E+00  0.00000000000E+00  0.50000000000E+03  0.50000000000E+03  0.00000000000E+00 0.  1.
         11   -1    0    0    0    0 -0.00000000000E+00 -0.00000000000E+00 -0.50000000000E+03  0.50000000000E+03  0.00000000000E+00 0.  1.
        -11    1    1    2    0    0 -0.10611457057E+02  0.16042144409E+00  0.48708787695E+03  0.48720347764E+03  0.00000000000E+00 0.  1.
         11    1    1    2    0    0  0.10470152325E+02  0.55493093872E+01 -0.49565728171E+03  0.49579891068E+03  0.00000000000E+00 0.  1.
        -15    1    1    2    0    0 -0.27517600788E+01 -0.75889527342E+01  0.98983989283E+01  0.12895751916E+02  0.17770000000E+01 0.  1.
         15    1    1    2    0    0  0.28930648114E+01  0.18792219029E+01 -0.13289941733E+01  0.41018597582E+01  0.17770000000E+01 0.  1.
</event>
<event>
 6    1  0.3411206E-003  0.5020776E+03  0.7546771E-02  0.9395173E-01
        -11   -1    0    0    0    0  0.00000000000E+00  0.00000000000E+00  0.50000000000E+03  0.50000000000E+03  0.00000000000E+00 0. -1.
         11   -1    0    0    0    0 -0.00000000000E+00 -0.00000000000E+00 -0.50000000000E+03  0.50000000000E+03  0.00000000000E+00 0.  1.
        -11    1    1    2    0    0  0.18238629623E+02 -0.63525231639E+01  0.49754768136E+03  0.49792238089E+03  0.00000000000E+00 0. -1.
         11    1    1    2    0    0 -0.52882945921E+01  0.46815581788E+01 -0.20647721967E+03  0.20659797988E+03  0.00000000000E+00 0.  1.
        -15    1    1    2    0    0 -0.14972686515E+02  0.20673931244E+02 -0.92189222814E+02  0.95674465280E+02  0.17770000000E+01 0.  1.
         15    1    1    2    0    0  0.20223514844E+01 -0.19002966259E+02 -0.19888123888E+03  0.19980517395E+03  0.17770000000E+01 0. -1.
</event>
<event>
 6    1  0.3411206E-003  0.5368653E+03  0.7546771E-02  0.9320900E-01
        -11   -1    0    0    0    0  0.00000000000E+00  0.00000000000E+00  0.50000000000E+03  0.50000000000E+03  0.00000000000E+00 0. -1.
         11   -1    0    0    0    0 -0.00000000000E+00 -0.00000000000E+00 -0.50000000000E+03  0.50000000000E+03  0.00000000000E+00 0.  1.
        -11    1    1    2    0    0 -0.17409103605E+02  0.39166823246E+01  0.35764209998E+03  0.35808698520E+03  0.00000000000E+00 0. -1.
         11    1    1    2    0    0  0.24491087668E+02 -0.37321483567E+02 -0.46097832373E+03  0.46313466882E+03  0.00000000000E+00 0.  1.
        -15    1    1    2    0    0  0.12869018495E+02 -0.62639817062E+01  0.12741951358E+03  0.12823314421E+03  0.17770000000E+01 0. -1.
         15    1    1    2    0    0 -0.19951002558E+02  0.39668782948E+02 -0.24083289833E+02  0.50545201769E+02  0.17770000000E+01 0.  1.
</event>
<event>
 6    1  0.3411206E-003  0.5023746E+03  0.7546771E-02  0.9394512E-01
        -11   -1    0    0    0    0  0.00000000000E+00  0.00000000000E+00  0.50000000000E+03  0.50000000000E+03  0.00000000000E+00 0. -1.
         11   -1    0    0    0    0 -0.00000000000E+00 -0.00000000000E+00 -0.50000000000E+03  0.50000000000E+03  0.00000000000E+00 0. -1.
        -11    1    1    2    0    0 -0.54196266525E+01 -0.43015680704E+01  0.49757728116E+03  0.49762538778E+03  0.00000000000E+00 0. -1.
         11    1    1    2    0    0  0.46969741575E+01  0.49144414228E+01 -0.35406196344E+03  0.35412721903E+03  0.00000000000E+00 0. -1.
        -15    1    1    2    0    0  0.12827951888E+01 -0.76716373938E+01 -0.13985183571E+03  0.14007923924E+03  0.17770000000E+01 0. -1.
         15    1    1    2    0    0 -0.56014269377E+00  0.70587640414E+01 -0.36634820019E+01  0.81681539535E+01  0.17770000000E+01 0.  1.
</event>
<event>
 6    1  0.3411206E-003  0.5009179E+03  0.7546771E-02  0.9397758E-01
        -11   -1    0    0    0    0  0.00000000000E+00  0.00000000000E+00  0.50000000000E+03  0.50000000000E+03  0.00000000000E+00 0.  1.
         11   -1    0    0    0    0 -0.00000000000E+00 -0.00000000000E+00 -0.50000000000E+03  0.50000000000E+03  0.00000000000E+00 0. -1.
        -11    1    1    2    0    0  0.11541383805E+01  0.81425403481E+01  0.40045576290E+03  0.40054019903E+03  0.00000000000E+00 0.  1.
         11    1    1    2    0    0  0.11252806978E+01  0.78162845395E+01 -0.49901961384E+03  0.49908209301E+03  0.00000000000E+00 0. -1.
        -15    1    1    2    0    0 -0.19228101434E+00 -0.11331436396E+02  0.41354214404E+02  0.42915815276E+02  0.17770000000E+01 0. -1.
         15    1    1    2    0    0 -0.20871380639E+01 -0.46273884917E+01  0.57209636536E+02  0.57461892686E+02  0.17770000000E+01 0.  1.
</event>
<event>
 6    1  0.3411206E-003  0.5087201E+03  0.7546771E-02  0.9380506E-01
        -11   -1    0    0    0    0  0.00000000000E+00  0.00000000000E+00  0.50000000000E+03  0.50000000000E+03  0.00000000000E+00 0.  1.
         11   -1    0    0    0    0 -0.00000000000E+00 -0.00000000000E+00 -0.50000000000E+03  0.50000000000E+03  0.00000000000E+00 0. -1.
        -11    1    1    2    0    0 -0.25937583039E+02 -0.20990558210E+02  0.49014544324E+03  0.49127987673E+03  0.00000000000E+00 0.  1.
         11    1    1    2    0    0 -0.51312657885E+01 -0.32639600693E+00 -0.28625883382E+03  0.28630500583E+03  0.00000000000E+00 0. -1.
        -15    1    1    2    0    0  0.65012040541E+01  0.15582393214E+02 -0.11611467529E-01  0.16977470255E+02  0.17770000000E+01 0. -1.
         15    1    1    2    0    0  0.24567644774E+02  0.57345610030E+01 -0.20387499796E+03  0.20543764719E+03  0.17770000000E+01 0.  1.
</event>
<event>
 6    1  0.3411206E-003  0.5044399E+03  0.7546771E-02  0.9389930E-01
        -11   -1    0    0    0    0  0.00000000000E+00  0.00000000000E+00  0.50000000000E+03  0.50000000000E+03  0.00000000000E+00 0. -1.
         11   -1    0    0    0    0 -0.00000000000E+00 -0.00000000000E+00 -0.50000000000E+03  0.50000000000E+03  0.00000000000E+00 0.  1.
        -11    1    1    2    0    0 -0.11854331681E+02  0.60511571542E+01  0.49538132922E+03  0.49556009023E+03  0.00000000000E+00 0. -1.
         11    1    1    2    0    0 -0.88298181455E+01  0.96286008767E+01 -0.43949771857E+03  0.43969184695E+03  0.00000000000E+00 0.  1.
        -15    1    1    2    0    0  0.14054681770E+02 -0.18936494697E+02 -0.49366323779E+02  0.54738620402E+02  0.17770000000E+01 0. -1.
         15    1    1    2    0    0  0.66294680570E+01  0.32567366665E+01 -0.65172868730E+01  0.10009442423E+02  0.17770000000E+01 0.  1.
</event>
<event>
 6    1  0.3411206E-003  0.5107396E+03  0.7546771E-02  0.9376095E-01
        -11   -1    0    0    0    0  0.00000000000E+00  0.00000000000E+00  0.50000000000E+03  0.50000000000E+03  0.00000000000E+00 0. -1.
         11   -1    0    0    0    0 -0.00000000000E+00 -0.00000000000E+00 -0.50000000000E+03  0.50000000000E+03  0.00000000000E+00 0.  1.
        -11    1    1    2    0    0  0.77042110640E+01 -0.18283414452E+00  0.46343933462E+03  0.46350340362E+03  0.00000000000E+00 0. -1.
         11    1    1    2    0    0  0.19553833809E+02  0.67318851160E+01 -0.48882314284E+03  0.48926039659E+03  0.00000000000E+00 0.  1.
        -15    1    1    2    0    0 -0.11826332248E+02  0.57437274304E+01 -0.20226650778E+01  0.13420187862E+02  0.17770000000E+01 0. -1.
         15    1    1    2    0    0 -0.15431712624E+02 -0.12292778402E+02  0.27406473300E+02  0.33816011934E+02  0.17770000000E+01 0.  1.
</event>
<event>
 6    1  0.3411206E-003  0.5021833E+03  0.7546771E-02  0.9394938E-01
        -11   -1    0    0    0    0  0.00000000000E+00  0.00000000000E+00  0.50000000000E+03  0.50000000000E+03  0.00000000000E+00 0.  1.
         11   -1    0    0    0    0 -0.00000000000E+00 -0.00000000000E+00 -0.50000000000E+03  0.50000000000E+03  0.00000000000E+00 0. -1.
        -11    1    1    2    0    0 -0.81413343422E+01 -0.14451238522E+01  0.39820338872E+03  0.39828922719E+03  0.00000000000E+00 0.  1.
         11    1    1    2    0    0 -0.72192869312E+01 -0.10938787551E+01 -0.49776315309E+03  0.49781670447E+03  0.00000000000E+00 0. -1.
        -15    1    1    2    0    0  0.17655069108E+02  0.95745763700E+01  0.52795699284E+02  0.56514755328E+02  0.17770000000E+01 0. -1.
         15    1    1    2    0    0 -0.22944478343E+01 -0.70355737627E+01  0.46764065087E+02  0.47379313012E+02  0.17770000000E+01 0.  1.
</event>
<event>
 6    1  0.3411206E-003  0.5042075E+03  0.7546771E-02  0.9390444E-01
        -11   -1    0    0    0    0  0.00000000000E+00  0.00000000000E+00  0.50000000000E+03  0.50000000000E+03  0.00000000000E+00 0. -1.
         11   -1    0    0    0    0 -0.00000000000E+00 -0.00000000000E+00 -0.50000000000E+03  0.50000000000E+03  0.00000000000E+00 0.  1.
        -11    1    1    2    0    0 -0.34974838067E+01  0.67472619716E+01  0.47191712514E+03  0.47197831617E+03  0.00000000000E+00 0. -1.
         11    1    1    2    0    0 -0.82976728175E+01 -0.52063461511E+01 -0.49569569763E+03  0.49579247882E+03  0.00000000000E+00 0.  1.
        -15    1    1    2    0    0 -0.39277504073E+00 -0.36302125214E+01  0.18022212055E+02  0.18474051302E+02  0.17770000000E+01 0. -1.
         15    1    1    2    0    0  0.12187931665E+02  0.20892967009E+01  0.57563604352E+01  0.13755153704E+02  0.17770000000E+01 0.  1.
</event>
<event>
 6    1  0.3411206E-003  0.5039139E+03  0.7546771E-02  0.9391094E-01
        -11   -1    0    0    0    0  0.00000000000E+00  0.00000000000E+00  0.50000000000E+03  0.50000000000E+03  0.00000000000E+00 0.  1.
         11   -1    0    0    0    0 -0.00000000000E+00 -0.00000000000E+00 -0.50000000000E+03  0.50000000000E+03  0.00000000000E+00 0.  1.
        -11    1    1    2    0    0 -0.80224113962E+01 -0.81176422514E+01  0.46599099382E+03  0.46613073437E+03  0.00000000000E+00 0.  1.
         11    1    1    2    0    0  0.11647550446E+02  0.40339496289E+01 -0.49593290547E+03  0.49608606603E+03  0.00000000000E+00 0.  1.
        -15    1    1    2    0    0  0.45899152125E+01  0.20405085210E+00 -0.13850115472E+01  0.51171226675E+01  0.17770000000E+01 0. -1.
         15    1    1    2    0    0 -0.82150542622E+01  0.38796417705E+01  0.31326923191E+02  0.32666076936E+02  0.17770000000E+01 0.  1.
</event>
<event>
 6    1  0.3411206E-003  0.5008769E+03  0.7546771E-02  0.9397850E-01
        -11   -1    0    0    0    0  0.00000000000E+00  0.00000000000E+00  0.50000000000E+03  0.50000000000E+03  0.00000000000E+00 0.  1.
         11   -1    0    0    0    0 -0.00000000000E+00 -0.00000000000E+00 -0.50000000000E+03  0.50000000000E+03  0.00000000000E+00 0. -1.
        -11    1    1    2    0    0  0.66806617764E+01  0.20651223503E+01  0.49907416540E+03  0.49912314968E+03  0.00000000000E+00 0.  1.
         11    1    1    2    0    0  0.46468701259E+01  0.63107569693E+01 -0.25396623137E+03  0.25408712232E+03  0.00000000000E+00 0. -1.
        -15    1    1    2    0    0 -0.98088574197E+01 -0.47656513591E+01 -0.36459130323E+02  0.38096601287E+02  0.17770000000E+01 0. -1.
         15    1    1    2    0    0 -0.15186744825E+01 -0.36102279605E+01 -0.20864880371E+03  0.20869312671E+03  0.17770000000E+01 0.  1.
</event>
<event>
 6    1  0.3411206E-003  0.4834699E+03  0.7546771E-02  0.9437576E-01
        -11   -1    0    0    0    0  0.00000000000E+00  0.00000000000E+00  0.50000000000E+03  0.50000000000E+03  0.00000000000E+00 0. -1.
         11   -1    0    0    0    0 -0.00000000000E+00 -0.00000000000E+00 -0.50000000000E+03  0.50000000000E+03  0.00000000000E+00 0. -1.
        -11    1    1    2    0    0  0.17223378544E+02 -0.10651166937E+02  0.48034285550E+03  0.48076954038E+03  0.00000000000E+00 0. -1.
         11    1    1    2    0    0 -0.72569870540E+01 -0.22437819911E+01 -0.48626644680E+03  0.48632577117E+03  0.00000000000E+00 0. -1.
        -15    1    1    2    0    0 -0.83063412096E+01  0.21604256241E+02  0.30328432443E+01  0.23411430096E+02  0.17770000000E+01 0.  1.
         15    1    1    2    0    0 -0.16600502807E+01 -0.87093073126E+01  0.28907480580E+01  0.94932583518E+01  0.17770000000E+01 0. -1.
</event>
<event>
 6    1  0.3411206E-003  0.5012670E+03  0.7546771E-02  0.9396979E-01
        -11   -1    0    0    0    0  0.00000000000E+00  0.00000000000E+00  0.50000000000E+03  0.50000000000E+03  0.00000000000E+00 0. -1.
         11   -1    0    0    0    0 -0.00000000000E+00 -0.00000000000E+00 -0.50000000000E+03  0.50000000000E+03  0.00000000000E+00 0.  1.
        -11    1    1    2    0    0  0.29430560492E+01 -0.35712505888E+01  0.29397893790E+03  0.29401535902E+03  0.00000000000E+00 0. -1.
         11    1    1    2    0    0 -0.77324312419E+01  0.51798763241E+00 -0.49867277140E+03  0.49873298642E+03  0.00000000000E+00 0.  1.
        -15    1    1    2    0    0  0.16998029263E+01  0.60069802250E+01  0.20155345443E+03  0.20165794272E+03  0.17770000000E+01 0. -1.
         15    1    1    2    0    0  0.30895722664E+01 -0.29537172686E+01  0.31403790684E+01  0.55937118433E+01  0.17770000000E+01 0.  1.
</event>
<event>
 6    1  0.3411206E-003  0.5022082E+03  0.7546771E-02  0.9394882E-01
        -11   -1    0    0    0    0  0.00000000000E+00  0.00000000000E+00  0.50000000000E+03  0.50000000000E+03  0.00000000000E+00 0. -1.
         11   -1    0    0    0    0 -0.00000000000E+00 -0.00000000000E+00 -0.50000000000E+03  0.50000000000E+03  0.00000000000E+00 0. -1.
        -11    1    1    2    0    0 -0.30761264508E+01  0.98209790689E+01  0.36344492611E+03  0.36359060563E+03  0.00000000000E+00 0. -1.
         11    1    1    2    0    0 -0.11695930875E+02 -0.80174313076E+00 -0.49765373956E+03  0.49779180597E+03  0.00000000000E+00 0. -1.
        -15    1    1    2    0    0  0.11175210562E+02 -0.16172511118E+02  0.12381125497E+03  0.12537471848E+03  0.17770000000E+01 0.  1.
         15    1    1    2    0    0  0.35968467635E+01  0.71532751797E+01  0.10397558481E+02  0.13242869923E+02  0.17770000000E+01 0. -1.
</event>
<event>
 6    1  0.3411206E-003  0.5014873E+03  0.7546771E-02  0.9396488E-01
        -11   -1    0    0    0    0  0.00000000000E+00  0.00000000000E+00  0.50000000000E+03  0.50000000000E+03  0.00000000000E+00 0. -1.
         11   -1    0    0    0    0 -0.00000000000E+00 -0.00000000000E+00 -0.50000000000E+03  0.50000000000E+03  0.00000000000E+00 0. -1.
        -11    1    1    2    0    0 -0.47618517166E+00  0.86479835597E+01  0.49843749817E+03  0.49851274201E+03  0.00000000000E+00 0. -1.
         11    1    1    2    0    0 -0.12132633237E+02  0.99804343611E+01 -0.35063040473E+03  0.35098217986E+03  0.00000000000E+00 0. -1.
        -15    1    1    2    0    0  0.16176103091E+02 -0.17405558263E+02 -0.13321075371E+03  0.13532509893E+03  0.17770000000E+01 0. -1.
         15    1    1    2    0    0 -0.35672846822E+01 -0.12228596582E+01 -0.14596339734E+02  0.15179979195E+02  0.17770000000E+01 0.  1.
</event>
<event>
 6    1  0.3411206E-003  0.5334425E+03  0.7546771E-02  0.9327940E-01
        -11   -1    0    0    0    0  0.00000000000E+00  0.00000000000E+00  0.50000000000E+03  0.50000000000E+03  0.00000000000E+00 0.  1.
         11   -1    0    0    0    0 -0.00000000000E+00 -0.00000000000E+00 -0.50000000000E+03  0.50000000000E+03  0.00000000000E+00 0. -1.
        -11    1    1    2    0    0 -0.47135046933E+01 -0.87635392750E+01  0.46645132440E+03  0.46655745067E+03  0.00000000000E+00 0.  1.
         11    1    1    2    0    0 -0.47559714961E+00  0.97684541859E+01 -0.23337422936E+03  0.23357906546E+03  0.00000000000E+00 0. -1.
        -15    1    1    2    0    0  0.34976957264E+01 -0.31511427512E+02 -0.25827517376E+03  0.26021995897E+03  0.17770000000E+01 0. -1.
         15    1    1    2    0    0  0.16914061165E+01  0.30506512601E+02  0.25198078726E+02  0.39643524896E+02  0.17770000000E+01 0.  1.
</event>
<event>
 6    1  0.3411206E-003  0.5030662E+03  0.7546771E-02  0.9392975E-01
        -11   -1    0    0    0    0  0.00000000000E+00  0.00000000000E+00  0.50000000000E+03  0.50000000000E+03  0.00000000000E+00 0. -1.
         11   -1    0    0    0    0 -0.00000000000E+00 -0.00000000000E+00 -0.50000000000E+03  0.50000000000E+03  0.00000000000E+00 0.  1.
        -11    1    1    2    0    0 -0.55294262238E+01  0.46089747643E+01  0.45857288983E+03  0.45862938468E+03  0.00000000000E+00 0. -1.
         11    1    1    2    0    0  0.14453824224E+01  0.13067519684E+02 -0.49675982099E+03  0.49693376717E+03  0.00000000000E+00 0.  1.
        -15    1    1    2    0    0  0.21254536228E+01 -0.19360963472E+02  0.33670296405E+02  0.38938554784E+02  0.17770000000E+01 0. -1.
         15    1    1    2    0    0  0.19585901787E+01  0.16844690241E+01  0.45166347591E+01  0.54982933651E+01  0.17770000000E+01 0. -1.
</event>
<event>
 6    1  0.3411206E-003  0.5000722E+03  0.7546771E-02  0.9399648E-01
        -11   -1    0    0    0    0  0.00000000000E+00  0.00000000000E+00  0.50000000000E+03  0.50000000000E+03  0.00000000000E+00 0. -1.
         11   -1    0    0    0    0 -0.00000000000E+00 -0.00000000000E+00 -0.50000000000E+03  0.50000000000E+03  0.00000000000E+00 0.  1.
        -11    1    1    2    0    0  0.49361662624E+01 -0.77490977833E+01  0.49984341534E+03  0.49992784891E+03  0.00000000000E+00 0. -1.
         11    1    1    2    0    0 -0.36538557331E+00 -0.57947857664E+00 -0.49463591129E+02  0.49468334816E+02  0.00000000000E+00 0.  1.
        -15    1    1    2    0    0  0.21890603007E+01  0.31691680472E-01 -0.52078881912E+02  0.52155159473E+02  0.17770000000E+01 0. -1.
         15    1    1    2    0    0 -0.67598409897E+01  0.82968846795E+01 -0.39830094230E+03  0.39844865681E+03  0.17770000000E+01 0.  1.
</event>
<event>
 6    1  0.3411206E-003  0.5051848E+03  0.7546771E-02  0.9388282E-01
        -11   -1    0    0    0    0  0.00000000000E+00  0.00000000000E+00  0.50000000000E+03  0.50000000000E+03  0.00000000000E+00 0. -1.
         11   -1    0    0    0    0 -0.00000000000E+00 -0.00000000000E+00 -0.50000000000E+03  0.50000000000E+03  0.00000000000E+00 0. -1.
        -11    1    1    2    0    0  0.96213579752E+01 -0.32843319741E+01  0.49471071143E+03  0.49481516283E+03  0.00000000000E+00 0. -1.
         11    1    1    2    0    0 -0.94819827140E+01  0.48708583259E+01 -0.48644604245E+03  0.48656282788E+03  0.00000000000E+00 0. -1.
        -15    1    1    2    0    0 -0.49734683030E+01 -0.63615040985E+01 -0.69697499996E+00  0.82974468667E+01  0.17770000000E+01 0. -1.
         15    1    1    2    0    0  0.48340930418E+01  0.47749777467E+01 -0.75676939806E+01  0.10324562422E+02  0.17770000000E+01 0.  1.
</event>
<event>
 6    1  0.3411206E-003  0.5106800E+03  0.7546771E-02  0.9376224E-01
        -11   -1    0    0    0    0  0.00000000000E+00  0.00000000000E+00  0.50000000000E+03  0.50000000000E+03  0.00000000000E+00 0. -1.
         11   -1    0    0    0    0 -0.00000000000E+00 -0.00000000000E+00 -0.50000000000E+03  0.50000000000E+03  0.00000000000E+00 0.  1.
        -11    1    1    2    0    0 -0.42892656323E+01 -0.10979576075E+02  0.30827845257E+03  0.30850373290E+03  0.00000000000E+00 0. -1.
         11    1    1    2    0    0 -0.11575360514E+02  0.74682841326E+01 -0.48912601373E+03  0.48931995826E+03  0.00000000000E+00 0.  1.
        -15    1    1    2    0    0  0.24283430966E+01  0.19518278221E+02  0.18010969421E+03  0.18118918211E+03  0.17770000000E+01 0. -1.
         15    1    1    2    0    0  0.13436283050E+02 -0.16006986279E+02  0.73786694542E+00  0.20987126734E+02  0.17770000000E+01 0. -1.
</event>
<event>
 6    1  0.3411206E-003  0.5022529E+03  0.7546771E-02  0.9394783E-01
        -11   -1    0    0    0    0  0.00000000000E+00  0.00000000000E+00  0.50000000000E+03  0.50000000000E+03  0.00000000000E+00 0.  1.
         11   -1    0    0    0    0 -0.00000000000E+00 -0.00000000000E+00 -0.50000000000E+03  0.50000000000E+03  0.00000000000E+00 0.  1.
        -11    1    1    2    0    0  0.43011037385E+00 -0.67023146502E+01  0.49770183059E+03  0.49774714283E+03  0.00000000000E+00 0.  1.
         11    1    1    2    0    0 -0.72714593054E+01 -0.69842258583E+01 -0.44256225466E+03  0.44267708635E+03  0.00000000000E+00 0.  1.
        -15    1    1    2    0    0  0.39578033322E+01  0.45186608791E+00 -0.34811656005E+02  0.35083863997E+02  0.17770000000E+01 0. -1.
         15    1    1    2    0    0  0.28835455994E+01  0.13234674421E+02 -0.20327919927E+02  0.24491906823E+02  0.17770000000E+01 0.  1.
</event>
<event>
 6    1  0.3411206E-003  0.5005645E+03  0.7546771E-02  0.9398547E-01
        -11   -1    0    0    0    0  0.00000000000E+00  0.00000000000E+00  0.50000000000E+03  0.50000000000E+03  0.00000000000E+00 0.  1.
         11   -1    0    0    0    0 -0.00000000000E+00 -0.00000000000E+00 -0.50000000000E+03  0.50000000000E+03  0.00000000000E+00 0.  1.
        -11    1    1    2    0    0  0.86107766454E+01 -0.98516707702E+00  0.39213165407E+03  0.39222742147E+03  0.00000000000E+00 0.  1.
         11    1    1    2    0    0  0.11749363402E+01  0.79859717472E+01 -0.49937024457E+03  0.49943547870E+03  0.00000000000E+00 0.  1.
        -15    1    1    2    0    0 -0.23516327945E+01  0.62011117777E-01  0.54603299866E+02  0.54682831926E+02  0.17770000000E+01 0.  1.
         15    1    1    2    0    0 -0.74340801911E+01 -0.70628157880E+01  0.52635290632E+02  0.53654267902E+02  0.17770000000E+01 0. -1.
</event>
<event>
 6    1  0.3411206E-003  0.5250258E+03  0.7546771E-02  0.9345490E-01
        -11   -1    0    0    0    0  0.00000000000E+00  0.00000000000E+00  0.50000000000E+03  0.50000000000E+03  0.00000000000E+00 0. -1.
         11   -1    0    0    0    0 -0.00000000000E+00 -0.00000000000E+00 -0.50000000000E+03  0.50000000000E+03  0.00000000000E+00 0. -1.
        -11    1    1    2    0    0 -0.45331321934E+01  0.39693946416E+02  0.47329098381E+03  0.47497422459E+03  0.00000000000E+00 0. -1.
         11    1    1    2    0    0  0.26955668681E+02 -0.26719057435E+02 -0.32198852308E+03  0.32421771250E+03  0.00000000000E+00 0. -1.
        -15    1    1    2    0    0 -0.17887939362E+01  0.37171242793E+02 -0.14067190262E+03  0.14552196738E+03  0.17770000000E+01 0.  1.
         15    1    1    2    0    0 -0.20633742552E+02 -0.50146131774E+02 -0.10630558111E+02  0.55286095524E+02  0.17770000000E+01 0. -1.
</event>
<event>
 6    1  0.3411206E-003  0.2986806E+03  0.7546771E-02  0.1001467E+00
        -11   -1    0    0    0    0  0.00000000000E+00  0.00000000000E+00  0.50000000000E+03  0.50000000000E+03  0.00000000000E+00 0.  1.
         11   -1    0    0    0    0 -0.00000000000E+00 -0.00000000000E+00 -0.50000000000E+03  0.50000000000E+03  0.00000000000E+00 0. -1.
        -11    1    1    2    0    0  0.16314224816E+02 -0.26194307849E+02  0.25262028164E+03  0.25449813829E+03  0.00000000000E+00 0.  1.
         11    1    1    2    0    0  0.30553767480E+02  0.18035171612E+02 -0.36783500741E+03  0.36954213940E+03  0.00000000000E+00 0. -1.
        -15    1    1    2    0    0 -0.38731467818E+02  0.28570813403E+02 -0.12540337112E+03  0.13433384233E+03  0.17770000000E+01 0. -1.
         15    1    1    2    0    0 -0.81365244776E+01 -0.20411677166E+02  0.24061809689E+03  0.24162587998E+03  0.17770000000E+01 0.  1.
</event>
<event>
 6    1  0.3411206E-003  0.5016149E+03  0.7546771E-02  0.9396203E-01
        -11   -1    0    0    0    0  0.00000000000E+00  0.00000000000E+00  0.50000000000E+03  0.50000000000E+03  0.00000000000E+00 0.  1.
         11   -1    0    0    0    0 -0.00000000000E+00 -0.00000000000E+00 -0.50000000000E+03  0.50000000000E+03  0.00000000000E+00 0.  1.
        -11    1    1    2    0    0  0.27864285991E+01 -0.47747931037E+01  0.40199798668E+03  0.40203599854E+03  0.00000000000E+00 0.  1.
         11    1    1    2    0    0 -0.22869883205E+01 -0.66956853859E+01 -0.49833487196E+03  0.49838509923E+03  0.00000000000E+00 0.  1.
        -15    1    1    2    0    0 -0.16791702069E+01  0.26543720310E+01  0.84923770471E+02  0.85000410726E+02  0.17770000000E+01 0. -1.
         15    1    1    2    0    0  0.11797299283E+01  0.88161064586E+01  0.11413114814E+02  0.14578491505E+02  0.17770000000E+01 0. -1.
</event>
<event>
 6    1  0.3411206E-003  0.5046355E+03  0.7546771E-02  0.9389497E-01
        -11   -1    0    0    0    0  0.00000000000E+00  0.00000000000E+00  0.50000000000E+03  0.50000000000E+03  0.00000000000E+00 0. -1.
         11   -1    0    0    0    0 -0.00000000000E+00 -0.00000000000E+00 -0.50000000000E+03  0.50000000000E+03  0.00000000000E+00 0.  1.
        -11    1    1    2    0    0 -0.67519793256E+01  0.44603364350E+01  0.49529842197E+03  0.49536452299E+03  0.00000000000E+00 0. -1.
         11    1    1    2    0    0  0.25597306684E+01 -0.38906459041E+00 -0.18826415253E+03  0.18828195537E+03  0.00000000000E+00 0.  1.
        -15    1    1    2    0    0 -0.37584652413E+01  0.72953948165E+01 -0.30100889021E+03  0.30112598453E+03  0.17770000000E+01 0.  1.
         15    1    1    2    0    0  0.79507138985E+01 -0.11366666661E+02 -0.60253792365E+01  0.15227537110E+02  0.17770000000E+01 0. -1.
</event>
<event>
 6    1  0.3411206E-003  0.5476020E+03  0.7546771E-02  0.9299175E-01
        -11   -1    0    0    0    0  0.00000000000E+00  0.00000000000E+00  0.50000000000E+03  0.50000000000E+03  0.00000000000E+00 0.  1.
         11   -1    0    0    0    0 -0.00000000000E+00 -0.00000000000E+00 -0.50000000000E+03  0.50000000000E+03  0.00000000000E+00 0. -1.
        -11    1    1    2    0    0 -0.78188051619E+01 -0.84642592866E+01  0.45225117883E+03  0.45239795109E+03  0.00000000000E+00 0.  1.
         11    1    1    2    0    0  0.32227349457E+01  0.14748181747E+02 -0.36680665659E+03  0.36711717231E+03  0.00000000000E+00 0. -1.
        -15    1    1    2    0    0  0.21722782058E+02 -0.23118510148E+02  0.40942276300E+02  0.51824439113E+02  0.17770000000E+01 0.  1.
         15    1    1    2    0    0 -0.17126711842E+02  0.16834587688E+02 -0.12638679854E+03  0.12866043749E+03  0.17770000000E+01 0. -1.
</event>
<event>
 6    1  0.3411206E-003  0.5180892E+03  0.7546771E-02  0.9360219E-01
        -11   -1    0    0    0    0  0.00000000000E+00  0.00000000000E+00  0.50000000000E+03  0.50000000000E+03  0.00000000000E+00 0.  1.
         11   -1    0    0    0    0 -0.00000000000E+00 -0.00000000000E+00 -0.50000000000E+03  0.50000000000E+03  0.00000000000E+00 0. -1.
        -11    1    1    2    0    0 -0.50269177562E+01 -0.10081628858E+02  0.48177909551E+03  0.48191078637E+03  0.00000000000E+00 0.  1.
         11    1    1    2    0    0  0.95499804425E+01 -0.36441051506E+00 -0.44450333345E+03  0.44460605975E+03  0.00000000000E+00 0. -1.
        -15    1    1    2    0    0 -0.23883434830E+02  0.19539019818E+02 -0.41361632560E+02  0.51634621445E+02  0.17770000000E+01 0. -1.
         15    1    1    2    0    0  0.19360372144E+02 -0.90929804444E+01  0.40858704958E+01  0.21848532436E+02  0.17770000000E+01 0.  1.
</event>
<event>
 6    1  0.3411206E-003  0.5024568E+03  0.7546771E-02  0.9394329E-01
        -11   -1    0    0    0    0  0.00000000000E+00  0.00000000000E+00  0.50000000000E+03  0.50000000000E+03  0.00000000000E+00 0. -1.
         11   -1    0    0    0    0 -0.00000000000E+00 -0.00000000000E+00 -0.50000000000E+03  0.50000000000E+03  0.00000000000E+00 0.  1.
        -11    1    1    2    0    0 -0.54508922841E+01  0.48271947979E+01  0.31335481666E+03  0.31343939631E+03  0.00000000000E+00 0. -1.
         11    1    1    2    0    0  0.21533248324E+00  0.10908096575E+02 -0.49742358929E+03  0.49754322437E+03  0.00000000000E+00 0.  1.
        -15    1    1    2    0    0  0.10945873088E+02 -0.41365635487E+01  0.13514061564E+02  0.17964155549E+02  0.17770000000E+01 0. -1.
         15    1    1    2    0    0 -0.57103132868E+01 -0.11598727825E+02  0.17055471106E+03  0.17105322376E+03  0.17770000000E+01 0.  1.
</event>
<event>
 6    1  0.3411206E-003  0.5040523E+03  0.7546771E-02  0.9390788E-01
        -11   -1    0    0    0    0  0.00000000000E+00  0.00000000000E+00  0.50000000000E+03  0.50000000000E+03  0.00000000000E+00 0. -1.
         11   -1    0    0    0    0 -0.00000000000E+00 -0.00000000000E+00 -0.50000000000E+03  0.50000000000E+03  0.00000000000E+00 0. -1.
        -11    1    1    2    0    0  0.19006040182E+01  0.47842603221E+01  0.28474861577E+03  0.28479514677E+03  0.00000000000E+00 0. -1.
         11    1    1    2    0    0 -0.74477833197E+01  0.10097378892E+02 -0.49578894993E+03  0.49594768818E+03  0.00000000000E+00 0. -1.
        -15    1    1    2    0    0  0.38787835551E+01 -0.11350367093E+02  0.49098945202E+01  0.13082071251E+02  0.17770000000E+01 0. -1.
         15    1    1    2    0    0  0.16683957465E+01 -0.35312721208E+01  0.20613043964E+03  0.20617509380E+03  0.17770000000E+01 0.  1.
</event>
<event>
 6    1  0.3411206E-003  0.5026709E+03  0.7546771E-02  0.9393853E-01
        -11   -1    0    0    0    0  0.00000000000E+00  0.00000000000E+00  0.50000000000E+03  0.50000000000E+03  0.00000000000E+00 0.  1.
         11   -1    0    0    0    0 -0.00000000000E+00 -0.00000000000E+00 -0.50000000000E+03  0.50000000000E+03  0.00000000000E+00 0. -1.
        -11    1    1    2    0    0 -0.36891422803E+01  0.75077371642E+01  0.31591646280E+03  0.31602719401E+03  0.00000000000E+00 0.  1.
         11    1    1    2    0    0  0.10090559272E+02 -0.10114220816E+02 -0.49712381697E+03  0.49732907239E+03  0.00000000000E+00 0. -1.
        -15    1    1    2    0    0 -0.68716051343E+01  0.15695072513E+02  0.28047500566E+02  0.32914651377E+02  0.17770000000E+01 0. -1.
         15    1    1    2    0    0  0.47018814225E+00 -0.13088588862E+02  0.15315985360E+03  0.15372908222E+03  0.17770000000E+01 0.  1.
</event>
<event>
 6    1  0.3411206E-003  0.5004695E+03  0.7546771E-02  0.9398760E-01
        -11   -1    0    0    0    0  0.00000000000E+00  0.00000000000E+00  0.50000000000E+03  0.50000000000E+03  0.00000000000E+00 0.  1.
         11   -1    0    0    0    0 -0.00000000000E+00 -0.00000000000E+00 -0.50000000000E+03  0.50000000000E+03  0.00000000000E+00 0. -1.
        -11    1    1    2    0    0 -0.22486053754E+00 -0.40048870276E+01  0.26412954052E+03  0.26415999670E+03  0.00000000000E+00 0.  1.
         11    1    1    2    0    0  0.60703784387E+01 -0.91491582344E+01 -0.49940985995E+03  0.49953054441E+03  0.00000000000E+00 0. -1.
        -15    1    1    2    0    0 -0.72326370459E+01  0.23378261808E+01  0.42374720058E+02  0.43087714013E+02  0.17770000000E+01 0. -1.
         15    1    1    2    0    0  0.13871191447E+01  0.10816219081E+02  0.19290559937E+03  0.19322174487E+03  0.17770000000E+01 0.  1.
</event>
<event>
 6    1  0.3411206E-003  0.5127572E+03  0.7546771E-02  0.9371708E-01
        -11   -1    0    0    0    0  0.00000000000E+00  0.00000000000E+00  0.50000000000E+03  0.50000000000E+03  0.00000000000E+00 0. -1.
         11   -1    0    0    0    0 -0.00000000000E+00 -0.00000000000E+00 -0.50000000000E+03  0.50000000000E+03  0.00000000000E+00 0.  1.
        -11    1    1    2    0    0  0.37688975465E+01  0.58582037870E+01  0.14636260559E+03  0.14652827528E+03  0.00000000000E+00 0. -1.
         11    1    1    2    0    0 -0.50947417160E+01 -0.47629532018E+01 -0.48719285607E+03  0.48724277431E+03  0.00000000000E+00 0.  1.
        -15    1    1    2    0    0 -0.39399816752E+01  0.41631735715E+02  0.27798499447E+02  0.50245787632E+02  0.17770000000E+01 0.  1.
         15    1    1    2    0    0  0.52658258448E+01 -0.42726986300E+02  0.31303175103E+03  0.31598316278E+03  0.17770000000E+01 0. -1.
</event>
<event>
 6    1  0.3411206E-003  0.5002634E+03  0.7546771E-02  0.9399221E-01
        -11   -1    0    0    0    0  0.00000000000E+00  0.00000000000E+00  0.50000000000E+03  0.50000000000E+03  0.00000000000E+00 0. -1.
         11   -1    0    0    0    0 -0.00000000000E+00 -0.00000000000E+00 -0.50000000000E+03  0.50000000000E+03  0.00000000000E+00 0. -1.
        -11    1    1    2    0    0 -0.57242197867E+01  0.10811565745E+00  0.33859110421E+03  0.33863950483E+03  0.00000000000E+00 0. -1.
         11    1    1    2    0    0  0.74491370491E+01 -0.46755953692E+01 -0.49965919196E+03  0.49973658956E+03  0.00000000000E+00 0. -1.
        -15    1    1    2    0    0  0.43557825873E+01  0.33079761374E+01  0.43497068733E+02  0.43875599887E+02  0.17770000000E+01 0.  1.
         15    1    1    2    0    0 -0.60806998496E+01  0.12595035743E+01  0.11757101901E+03  0.11774830572E+03  0.17770000000E+01 0. -1.
</event>
<event>
 6    1  0.3411206E-003  0.5059823E+03  0.7546771E-02  0.9386522E-01
        -11   -1    0    0    0    0  0.00000000000E+00  0.00000000000E+00  0.50000000000E+03  0.50000000000E+03  0.00000000000E+00 0.  1.
         11   -1    0    0    0    0 -0.00000000000E+00 -0.00000000000E+00 -0.50000000000E+03  0.50000000000E+03  0.00000000000E+00 0.  1.
        -11    1    1    2    0    0 -0.61264516596E+01 -0.97341787672E+01  0.47638660629E+03  0.47652543090E+03  0.00000000000E+00 0.  1.
         11    1    1    2    0    0 -0.82233996403E+01  0.18836459908E+01 -0.49394564332E+03  0.49401768286E+03  0.00000000000E+00 0.  1.
        -15    1    1    2    0    0  0.52788046367E+01 -0.17290633571E+01 -0.16728314614E+01  0.60672508259E+01  0.17770000000E+01 0.  1.
         15    1    1    2    0    0  0.90710466631E+01  0.95795961334E+01  0.19231868500E+02  0.23389635411E+02  0.17770000000E+01 0. -1.
</event>
<event>
 6    1  0.3411206E-003  0.5023785E+03  0.7546771E-02  0.9394503E-01
        -11   -1    0    0    0    0  0.00000000000E+00  0.00000000000E+00  0.50000000000E+03  0.50000000000E+03  0.00000000000E+00 0. -1.
         11   -1    0    0    0    0 -0.00000000000E+00 -0.00000000000E+00 -0.50000000000E+03  0.50000000000E+03  0.00000000000E+00 0. -1.
        -11    1    1    2    0    0  0.20720131965E+02 -0.21707671840E+02  0.49671586236E+03  0.49762153772E+03  0.00000000000E+00 0. -1.
         11    1    1    2    0    0  0.49064178088E-01 -0.90355026105E+01 -0.34275438310E+03  0.34287346041E+03  0.00000000000E+00 0. -1.
        -15    1    1    2    0    0  0.26623609881E+01  0.69441025749E+01 -0.40555859036E+02  0.41270378697E+02  0.17770000000E+01 0.  1.
         15    1    1    2    0    0 -0.23431557131E+02  0.23799071876E+02 -0.11340562022E+03  0.11823462318E+03  0.17770000000E+01 0. -1.
</event>
<event>
 6    1  0.3411206E-003  0.5071449E+03  0.7546771E-02  0.9383963E-01
        -11   -1    0    0    0    0  0.00000000000E+00  0.00000000000E+00  0.50000000000E+03  0.50000000000E+03  0.00000000000E+00 0. -1.
         11   -1    0    0    0    0 -0.00000000000E+00 -0.00000000000E+00 -0.50000000000E+03  0.50000000000E+03  0.00000000000E+00 0. -1.
        -11    1    1    2    0    0 -0.21202119495E+01 -0.68614357388E+01  0.47139745742E+03  0.47145215819E+03  0.00000000000E+00 0. -1.
         11    1    1    2    0    0  0.32277653118E+01  0.60132330146E+01 -0.49280786359E+03  0.49285511853E+03  0.00000000000E+00 0. -1.
        -15    1    1    2    0    0 -0.70772149839E-02 -0.66731853127E+01 -0.47570716235E+01  0.83856372290E+01  0.17770000000E+01 0.  1.
         15    1    1    2    0    0 -0.11004761473E+01  0.75213880370E+01  0.26167477792E+02  0.27307086054E+02  0.17770000000E+01 0. -1.
</event>
<event>
 6    1  0.3411206E-003  0.5114523E+03  0.7546771E-02  0.9374543E-01
        -11   -1    0    0    0    0  0.00000000000E+00  0.00000000000E+00  0.50000000000E+03  0.50000000000E+03  0.00000000000E+00 0.  1.
         11   -1    0    0    0    0 -0.00000000000E+00 -0.00000000000E+00 -0.50000000000E+03  0.50000000000E+03  0.00000000000E+00 0. -1.
        -11    1    1    2    0    0 -0.49411658282E+01  0.73376820173E+01  0.48846759931E+03  0.48854769703E+03  0.00000000000E+00 0.  1.
         11    1    1    2    0    0  0.65695408141E+01 -0.13564961524E+02 -0.46553607255E+03  0.46577999302E+03  0.00000000000E+00 0. -1.
        -15    1    1    2    0    0  0.13224358830E+02 -0.41100528224E+01  0.27255417541E+01  0.14225417657E+02  0.17770000000E+01 0.  1.
         15    1    1    2    0    0 -0.14852733816E+02  0.10337332329E+02 -0.25657068510E+02  0.31446892295E+02  0.17770000000E+01 0. -1.
</event>
<event>
 6    1  0.3411206E-003  0.5014278E+03  0.7546771E-02  0.9396621E-01
        -11   -1    0    0    0    0  0.00000000000E+00  0.00000000000E+00  0.50000000000E+03  0.50000000000E+03  0.00000000000E+00 0. -1.
         11   -1    0    0    0    0 -0.00000000000E+00 -0.00000000000E+00 -0.50000000000E+03  0.50000000000E+03  0.00000000000E+00 0.  1.
        -11    1    1    2    0    0  0.72520636497E+01 -0.23729031077E+01  0.44523507300E+03  0.44530045286E+03  0.00000000000E+00 0. -1.
         11    1    1    2    0    0  0.65040603646E+01  0.38703532455E+01 -0.49851477754E+03  0.49857222732E+03  0.00000000000E+00 0.  1.
        -15    1    1    2    0    0 -0.46585140371E+01  0.23421588900E+01  0.33484488589E+02  0.33934586580E+02  0.17770000000E+01 0.  1.
         15    1    1    2    0    0 -0.90976099772E+01 -0.38396090278E+01  0.19795215952E+02  0.22192733234E+02  0.17770000000E+01 0. -1.
</event>
<event>
 6    1  0.3411206E-003  0.4875257E+03  0.7546771E-02  0.9428163E-01
        -11   -1    0    0    0    0  0.00000000000E+00  0.00000000000E+00  0.50000000000E+03  0.50000000000E+03  0.00000000000E+00 0. -1.
         11   -1    0    0    0    0 -0.00000000000E+00 -0.00000000000E+00 -0.50000000000E+03  0.50000000000E+03  0.00000000000E+00 0.  1.
        -11    1    1    2    0    0  0.86901040439E+01  0.10940953612E+02  0.49111380983E+03  0.49131252435E+03  0.00000000000E+00 0. -1.
         11    1    1    2    0    0  0.94165280659E+01 -0.10893531074E+02 -0.48372073786E+03  0.48393500830E+03  0.00000000000E+00 0.  1.
        -15    1    1    2    0    0 -0.57556798246E+01  0.69240060001E+01 -0.15347562701E+01  0.93049940968E+01  0.17770000000E+01 0.  1.
         15    1    1    2    0    0 -0.12350952285E+02 -0.69714285390E+01 -0.58583156954E+01  0.15447473257E+02  0.17770000000E+01 0. -1.
</event>
<event>
 6    1  0.3411206E-003  0.5124284E+03  0.7546771E-02  0.9372422E-01
        -11   -1    0    0    0    0  0.00000000000E+00  0.00000000000E+00  0.50000000000E+03  0.50000000000E+03  0.00000000000E+00 0. -1.
         11   -1    0    0    0    0 -0.00000000000E+00 -0.00000000000E+00 -0.50000000000E+03  0.50000000000E+03  0.00000000000E+00 0.  1.
        -11    1    1    2    0    0  0.10395171625E+02  0.11185021237E+02  0.48733245449E+03  0.48757162088E+03  0.00000000000E+00 0. -1.
         11    1    1    2    0    0 -0.94371721064E+01 -0.20102478821E+02 -0.41793387194E+03  0.41852346552E+03  0.00000000000E+00 0.  1.
        -15    1    1    2    0    0 -0.82429824209E+01 -0.40050908739E+00  0.10297956231E+02  0.13315885185E+02  0.17770000000E+01 0.  1.
         15    1    1    2    0    0  0.72849829021E+01  0.93179666713E+01 -0.79696538775E+02  0.80589028413E+02  0.17770000000E+01 0. -1.
</event>
<event>
 6    1  0.3411206E-003  0.5022975E+03  0.7546771E-02  0.9394684E-01
        -11   -1    0    0    0    0  0.00000000000E+00  0.00000000000E+00  0.50000000000E+03  0.50000000000E+03  0.00000000000E+00 0.  1.
         11   -1    0    0    0    0 -0.00000000000E+00 -0.00000000000E+00 -0.50000000000E+03  0.50000000000E+03  0.00000000000E+00 0.  1.
        -11    1    1    2    0    0  0.76939800767E+01  0.90101664513E-01  0.49764302537E+03  0.49770250768E+03  0.00000000000E+00 0.  1.
         11    1    1    2    0    0 -0.59381858624E+01 -0.12889625138E+02 -0.46174971181E+03  0.46196774871E+03  0.00000000000E+00 0.  1.
        -15    1    1    2    0    0 -0.33019245812E+00 -0.22565061447E+01 -0.86400223985E+01  0.91109035275E+01  0.17770000000E+01 0.  1.
         15    1    1    2    0    0 -0.14256017561E+01  0.15056029618E+02 -0.27253291162E+02  0.31218840088E+02  0.17770000000E+01 0. -1.
</event>
<event>
 6    1  0.3411206E-003  0.5332581E+03  0.7546771E-02  0.9328320E-01
        -11   -1    0    0    0    0  0.00000000000E+00  0.00000000000E+00  0.50000000000E+03  0.50000000000E+03  0.00000000000E+00 0.  1.
         11   -1    0    0    0    0 -0.00000000000E+00 -0.00000000000E+00 -0.50000000000E+03  0.50000000000E+03  0.00000000000E+00 0.  1.
        -11    1    1    2    0    0 -0.44208386091E+01 -0.21784509515E+02  0.22871697827E+03  0.22979461442E+03  0.00000000000E+00 0.  1.
         11    1    1    2    0    0  0.78748973479E+01  0.28816232865E+00 -0.46667532888E+03  0.46674185545E+03  0.00000000000E+00 0.  1.
        -15    1    1    2    0    0  0.20581921479E+02  0.18068606198E+02  0.26537975358E+03  0.26679516742E+03  0.17770000000E+01 0.  1.
         15    1    1    2    0    0 -0.24035980217E+02  0.34277409887E+01 -0.27421402968E+02  0.36668362699E+02  0.17770000000E+01 0. -1.
</event>
<event>
 6    1  0.3411206E-003  0.5088283E+03  0.7546771E-02  0.9380270E-01
        -11   -1    0    0    0    0  0.00000000000E+00  0.00000000000E+00  0.50000000000E+03  0.50000000000E+03  0.00000000000E+00 0. -1.
         11   -1    0    0    0    0 -0.00000000000E+00 -0.00000000000E+00 -0.50000000000E+03  0.50000000000E+03  0.00000000000E+00 0. -1.
        -11    1    1    2    0    0  0.63587279852E+01 -0.27059944880E+01  0.49112311676E+03  0.49117173335E+03  0.00000000000E+00 0. -1.
         11    1    1    2    0    0 -0.29197946299E+01 -0.17569229513E+02 -0.46793816399E+03  0.46827697823E+03  0.00000000000E+00 0. -1.
        -15    1    1    2    0    0  0.10350819456E+02  0.82761166682E+01 -0.39180693978E+01  0.13933505206E+02  0.17770000000E+01 0.  1.
         15    1    1    2    0    0 -0.13789752811E+02  0.11999107333E+02 -0.19266883369E+02  0.26617783212E+02  0.17770000000E+01 0. -1.
</event>
<event>
 6    1  0.3411206E-003  0.5023134E+03  0.7546771E-02  0.9394648E-01
        -11   -1    0    0    0    0  0.00000000000E+00  0.00000000000E+00  0.50000000000E+03  0.50000000000E+03  0.00000000000E+00 0.  1.
         11   -1    0    0    0    0 -0.00000000000E+00 -0.00000000000E+00 -0.50000000000E+03  0.50000000000E+03  0.00000000000E+00 0. -1.
        -11    1    1    2    0    0 -0.29072033162E+01  0.63303657874E+01  0.49763784291E+03  0.49768659622E+03  0.00000000000E+00 0.  1.
         11    1    1    2    0    0 -0.81440813357E+01 -0.88501116293E+00 -0.46867158817E+03  0.46874317794E+03  0.00000000000E+00 0. -1.
        -15    1    1    2    0    0 -0.76937895939E+00 -0.21391543120E+01 -0.13193923164E+02  0.13505749243E+02  0.17770000000E+01 0.  1.
         15    1    1    2    0    0  0.11820663611E+02 -0.33062003125E+01 -0.15772331575E+02  0.20064476595E+02  0.17770000000E+01 0. -1.
</event>
<event>
 6    1  0.3411206E-003  0.4414974E+03  0.7546771E-02  0.9541159E-01
        -11   -1    0    0    0    0  0.00000000000E+00  0.00000000000E+00  0.50000000000E+03  0.50000000000E+03  0.00000000000E+00 0.  1.
         11   -1    0    0    0    0 -0.00000000000E+00 -0.00000000000E+00 -0.50000000000E+03  0.50000000000E+03  0.00000000000E+00 0. -1.
        -11    1    1    2    0    0  0.29746490852E+02 -0.17993109828E+02  0.44703118562E+03  0.44838096150E+03  0.00000000000E+00 0.  1.
         11    1    1    2    0    0  0.24722627799E+01  0.61037273461E+01 -0.43530943475E+03  0.43535924425E+03  0.00000000000E+00 0. -1.
        -15    1    1    2    0    0 -0.29108733883E+02  0.16270959842E+02  0.46784471870E+02  0.57480492862E+02  0.17770000000E+01 0.  1.
         15    1    1    2    0    0 -0.31100197488E+01 -0.43815773601E+01 -0.58506222739E+02  0.58779301384E+02  0.17770000000E+01 0. -1.
</event>
<event>
 6    1  0.3411206E-003  0.5234359E+03  0.7546771E-02  0.9348845E-01
        -11   -1    0    0    0    0  0.00000000000E+00  0.00000000000E+00  0.50000000000E+03  0.50000000000E+03  0.00000000000E+00 0. -1.
         11   -1    0    0    0    0 -0.00000000000E+00 -0.00000000000E+00 -0.50000000000E+03  0.50000000000E+03  0.00000000000E+00 0.  1.
        -11    1    1    2    0    0  0.40199758592E+01 -0.97826576809E+01  0.20173004348E+03  0.20200710641E+03  0.00000000000E+00 0. -1.
         11    1    1    2    0    0 -0.52769230720E+02 -0.26536253722E+02 -0.47288955934E+03  0.47656405635E+03  0.00000000000E+00 0.  1.
        -15    1    1    2    0    0  0.71690662939E+02  0.83770001925E+02  0.22806134362E+03  0.25332212409E+03  0.17770000000E+01 0. -1.
         15    1    1    2    0    0 -0.22941408078E+02 -0.47451090522E+02  0.43098172246E+02  0.68106713151E+02  0.17770000000E+01 0.  1.
</event>
<event>
 6    1  0.3411206E-003  0.5065625E+03  0.7546771E-02  0.9385244E-01
        -11   -1    0    0    0    0  0.00000000000E+00  0.00000000000E+00  0.50000000000E+03  0.50000000000E+03  0.00000000000E+00 0. -1.
         11   -1    0    0    0    0 -0.00000000000E+00 -0.00000000000E+00 -0.50000000000E+03  0.50000000000E+03  0.00000000000E+00 0. -1.
        -11    1    1    2    0    0  0.13744437246E+02  0.38981233767E+01  0.48408110813E+03  0.48429187911E+03  0.00000000000E+00 0. -1.
         11    1    1    2    0    0 -0.84957815323E+01 -0.33504039479E+00 -0.49336422339E+03  0.49343748082E+03  0.00000000000E+00 0. -1.
        -15    1    1    2    0    0  0.19773112180E+01 -0.32073388331E+01 -0.47895253008E+01  0.63477605224E+01  0.17770000000E+01 0. -1.
         15    1    1    2    0    0 -0.72259669318E+01 -0.35574414879E+00  0.14072640558E+02  0.15922879553E+02  0.17770000000E+01 0.  1.
</event>
<event>
 6    1  0.3411206E-003  0.5034492E+03  0.7546771E-02  0.9392125E-01
        -11   -1    0    0    0    0  0.00000000000E+00  0.00000000000E+00  0.50000000000E+03  0.50000000000E+03  0.00000000000E+00 0. -1.
         11   -1    0    0    0    0 -0.00000000000E+00 -0.00000000000E+00 -0.50000000000E+03  0.50000000000E+03  0.00000000000E+00 0.  1.
        -11    1    1    2    0    0  0.45617395579E+01  0.55288712852E+01  0.49649910605E+03  0.49655084351E+03  0.00000000000E+00 0. -1.
         11    1    1    2    0    0  0.73520178555E+01 -0.15641597291E+01 -0.43097654581E+03  0.43104208820E+03  0.00000000000E+00 0.  1.
        -15    1    1    2    0    0 -0.11272866332E+02 -0.65147017703E+01 -0.67433998325E+02  0.68702406899E+02  0.17770000000E+01 0.  1.
         15    1    1    2    0    0 -0.64089108106E+00  0.25499902143E+01  0.19114380859E+01  0.37046613917E+01  0.17770000000E+01 0. -1.
</event>
<event>
 6    1  0.3411206E-003  0.5037311E+03  0.7546771E-02  0.9391499E-01
        -11   -1    0    0    0    0  0.00000000000E+00  0.00000000000E+00  0.50000000000E+03  0.50000000000E+03  0.00000000000E+00 0.  1.
         11   -1    0    0    0    0 -0.00000000000E+00 -0.00000000000E+00 -0.50000000000E+03  0.50000000000E+03  0.00000000000E+00 0. -1.
        -11    1    1    2    0    0  0.13309041844E+02 -0.13188818974E-01  0.49609035666E+03  0.49626885127E+03  0.00000000000E+00 0.  1.
         11    1    1    2    0    0  0.83267523346E+01 -0.60587771383E+01 -0.41240558346E+03  0.41253413053E+03  0.00000000000E+00 0. -1.
        -15    1    1    2    0    0 -0.57649213305E+01  0.53230271108E+01 -0.24588632960E+01  0.84126495991E+01  0.17770000000E+01 0. -1.
         15    1    1    2    0    0 -0.15870872848E+02  0.74893884646E+00 -0.81225909910E+02  0.82784368597E+02  0.17770000000E+01 0.  1.
</event>
<event>
 6    1  0.3411206E-003  0.5075624E+03  0.7546771E-02  0.9383045E-01
        -11   -1    0    0    0    0  0.00000000000E+00  0.00000000000E+00  0.50000000000E+03  0.50000000000E+03  0.00000000000E+00 0.  1.
         11   -1    0    0    0    0 -0.00000000000E+00 -0.00000000000E+00 -0.50000000000E+03  0.50000000000E+03  0.00000000000E+00 0.  1.
        -11    1    1    2    0    0  0.15977385647E+02  0.12046215252E+02  0.49203089244E+03  0.49243759734E+03  0.00000000000E+00 0.  1.
         11    1    1    2    0    0 -0.76591879011E+00  0.16639457455E+01 -0.64900775697E+02  0.64926620373E+02  0.00000000000E+00 0.  1.
        -15    1    1    2    0    0  0.58280876643E+01 -0.42871592360E+02 -0.61376107355E+02  0.75114075381E+02  0.17770000000E+01 0. -1.
         15    1    1    2    0    0 -0.21039554521E+02  0.29161431362E+02 -0.36575400939E+03  0.36752170691E+03  0.17770000000E+01 0.  1.
</event>
<event>
 6    1  0.3411206E-003  0.5073971E+03  0.7546771E-02  0.9383409E-01
        -11   -1    0    0    0    0  0.00000000000E+00  0.00000000000E+00  0.50000000000E+03  0.50000000000E+03  0.00000000000E+00 0. -1.
         11   -1    0    0    0    0 -0.00000000000E+00 -0.00000000000E+00 -0.50000000000E+03  0.50000000000E+03  0.00000000000E+00 0. -1.
        -11    1    1    2    0    0  0.35667115486E+01 -0.67405364075E+01  0.45605933896E+03  0.45612309404E+03  0.00000000000E+00 0. -1.
         11    1    1    2    0    0 -0.18537191595E+02  0.40122914904E+01 -0.49223765706E+03  0.49260292019E+03  0.00000000000E+00 0. -1.
        -15    1    1    2    0    0 -0.66437038839E+01  0.11266693642E+01  0.26624948805E+02  0.27521878806E+02  0.17770000000E+01 0.  1.
         15    1    1    2    0    0  0.21614183930E+02  0.16015755530E+01  0.95533692893E+01  0.23752106959E+02  0.17770000000E+01 0. -1.
</event>
<event>
 6    1  0.3411206E-003  0.5100336E+03  0.7546771E-02  0.9377635E-01
        -11   -1    0    0    0    0  0.00000000000E+00  0.00000000000E+00  0.50000000000E+03  0.50000000000E+03  0.00000000000E+00 0. -1.
         11   -1    0    0    0    0 -0.00000000000E+00 -0.00000000000E+00 -0.50000000000E+03  0.50000000000E+03  0.00000000000E+00 0. -1.
        -11    1    1    2    0    0 -0.24629758726E+02 -0.14935468970E+02  0.48911900150E+03  0.48996641811E+03  0.00000000000E+00 0. -1.
         11    1    1    2    0    0  0.65481998408E+01  0.30967048845E+01 -0.45381216183E+03  0.45386996676E+03  0.00000000000E+00 0. -1.
        -15    1    1    2    0    0  0.13325233259E+02  0.10714575354E+02 -0.43322604267E+02  0.46608687343E+02  0.17770000000E+01 0.  1.
         15    1    1    2    0    0  0.47563256258E+01  0.11241887312E+01  0.80157646005E+01  0.95549277806E+01  0.17770000000E+01 0. -1.
</event>
<event>
 6    1  0.3411206E-003  0.5004164E+03  0.7546771E-02  0.9398878E-01
        -11   -1    0    0    0    0  0.00000000000E+00  0.00000000000E+00  0.50000000000E+03  0.50000000000E+03  0.00000000000E+00 0. -1.
         11   -1    0    0    0    0 -0.00000000000E+00 -0.00000000000E+00 -0.50000000000E+03  0.50000000000E+03  0.00000000000E+00 0. -1.
        -11    1    1    2    0    0  0.31803066242E+01 -0.18231949578E+01  0.25893521913E+03  0.25896116716E+03  0.00000000000E+00 0. -1.
         11    1    1    2    0    0 -0.13947070599E+02 -0.72892392054E+01 -0.49933566431E+03  0.49958358604E+03  0.00000000000E+00 0. -1.
        -15    1    1    2    0    0 -0.21349528240E+01 -0.27484357062E+01  0.78960067755E+02  0.79056700862E+02  0.17770000000E+01 0. -1.
         15    1    1    2    0    0  0.12901716799E+02  0.11860869869E+02  0.16144037743E+03  0.16239854594E+03  0.17770000000E+01 0.  1.
</event>
<event>
 6    1  0.3411206E-003  0.5009064E+03  0.7546771E-02  0.9397784E-01
        -11   -1    0    0    0    0  0.00000000000E+00  0.00000000000E+00  0.50000000000E+03  0.50000000000E+03  0.00000000000E+00 0. -1.
         11   -1    0    0    0    0 -0.00000000000E+00 -0.00000000000E+00 -0.50000000000E+03  0.50000000000E+03  0.00000000000E+00 0. -1.
        -11    1    1    2    0    0 -0.44412577360E+00 -0.73158738333E+00  0.59167089340E+02  0.59173278841E+02  0.00000000000E+00 0. -1.
         11    1    1    2    0    0  0.26215700101E+01 -0.90050160733E+01 -0.49900543615E+03  0.49909356663E+03  0.00000000000E+00 0. -1.
        -15    1    1    2    0    0  0.10903462007E+01  0.31998081844E+01  0.30699159916E+01  0.48999735152E+01  0.17770000000E+01 0.  1.
         15    1    1    2    0    0 -0.32677904371E+01  0.65367952723E+01  0.43676843082E+03  0.43683318101E+03  0.17770000000E+01 0. -1.
</event>
<event>
 6    1  0.3411206E-003  0.5028398E+03  0.7546771E-02  0.9393478E-01
        -11   -1    0    0    0    0  0.00000000000E+00  0.00000000000E+00  0.50000000000E+03  0.50000000000E+03  0.00000000000E+00 0.  1.
         11   -1    0    0    0    0 -0.00000000000E+00 -0.00000000000E+00 -0.50000000000E+03  0.50000000000E+03  0.00000000000E+00 0. -1.
        -11    1    1    2    0    0 -0.46156052734E+01 -0.73352951079E+01  0.49708470237E+03  0.49716024750E+03  0.00000000000E+00 0.  1.
         11    1    1    2    0    0 -0.98076617708E+01 -0.11673835536E+01 -0.44650960377E+03  0.44661882996E+03  0.00000000000E+00 0. -1.
        -15    1    1    2    0    0  0.69861456653E+01  0.12888442187E+02 -0.23574738533E+02  0.27818055273E+02  0.17770000000E+01 0.  1.
         15    1    1    2    0    0  0.74371213789E+01 -0.43857635254E+01 -0.27000360067E+02  0.28402867265E+02  0.17770000000E+01 0. -1.
</event>
<event>
 6    1  0.3411206E-003  0.5058833E+03  0.7546771E-02  0.9386741E-01
        -11   -1    0    0    0    0  0.00000000000E+00  0.00000000000E+00  0.50000000000E+03  0.50000000000E+03  0.00000000000E+00 0.  1.
         11   -1    0    0    0    0 -0.00000000000E+00 -0.00000000000E+00 -0.50000000000E+03  0.50000000000E+03  0.00000000000E+00 0. -1.
        -11    1    1    2    0    0  0.65825933390E+01 -0.56570729304E+01  0.38074902104E+03  0.38084793558E+03  0.00000000000E+00 0.  1.
         11    1    1    2    0    0 -0.60702645300E+01 -0.71892763433E+01 -0.49402712640E+03  0.49411672247E+03  0.00000000000E+00 0. -1.
        -15    1    1    2    0    0  0.26400747076E+01 -0.34043746161E+01  0.10721603944E+03  0.10731727076E+03  0.17770000000E+01 0. -1.
         15    1    1    2    0    0 -0.31524035165E+01  0.16250723890E+02  0.60620659175E+01  0.17718071200E+02  0.17770000000E+01 0.  1.
</event>
<event>
 6    1  0.3411206E-003  0.5000884E+03  0.7546771E-02  0.9399612E-01
        -11   -1    0    0    0    0  0.00000000000E+00  0.00000000000E+00  0.50000000000E+03  0.50000000000E+03  0.00000000000E+00 0. -1.
         11   -1    0    0    0    0 -0.00000000000E+00 -0.00000000000E+00 -0.50000000000E+03  0.50000000000E+03  0.00000000000E+00 0. -1.
        -11    1    1    2    0    0 -0.10824865740E+02 -0.13205315135E+02  0.49961995111E+03  0.49991164581E+03  0.00000000000E+00 0. -1.
         11    1    1    2    0    0 -0.66016991512E+00  0.11268934663E+00 -0.21703050015E+02  0.21713380740E+02  0.00000000000E+00 0. -1.
        -15    1    1    2    0    0 -0.37155970278E+00  0.20637713833E+01 -0.17406910211E+03  0.17409080173E+03  0.17770000000E+01 0.  1.
         15    1    1    2    0    0  0.11856595358E+02  0.11028854405E+02 -0.30384779898E+03  0.30428417172E+03  0.17770000000E+01 0. -1.
</event>
<event>
 6    1  0.3411206E-003  0.5007430E+03  0.7546771E-02  0.9398149E-01
        -11   -1    0    0    0    0  0.00000000000E+00  0.00000000000E+00  0.50000000000E+03  0.50000000000E+03  0.00000000000E+00 0.  1.
         11   -1    0    0    0    0 -0.00000000000E+00 -0.00000000000E+00 -0.50000000000E+03  0.50000000000E+03  0.00000000000E+00 0. -1.
        -11    1    1    2    0    0 -0.74244940990E+01  0.43729006989E+00  0.49811175117E+03  0.49816727210E+03  0.00000000000E+00 0.  1.
         11    1    1    2    0    0  0.78165609636E+00 -0.85409204977E+00 -0.14412236819E+00  0.11667179348E+01  0.00000000000E+00 0. -1.
        -15    1    1    2    0    0 -0.13988592957E+02  0.70745729617E+01 -0.40007237943E+03  0.40038331237E+03  0.17770000000E+01 0. -1.
         15    1    1    2    0    0  0.20631430960E+02 -0.66577709819E+01 -0.97895249373E+02  0.10028269759E+03  0.17770000000E+01 0.  1.
</event>
<event>
 6    1  0.3411206E-003  0.5002356E+03  0.7546771E-02  0.9399283E-01
        -11   -1    0    0    0    0  0.00000000000E+00  0.00000000000E+00  0.50000000000E+03  0.50000000000E+03  0.00000000000E+00 0. -1.
         11   -1    0    0    0    0 -0.00000000000E+00 -0.00000000000E+00 -0.50000000000E+03  0.50000000000E+03  0.00000000000E+00 0.  1.
        -11    1    1    2    0    0 -0.17072997820E+01  0.52689198513E+01  0.28994460587E+03  0.28999750148E+03  0.00000000000E+00 0. -1.
         11    1    1    2    0    0  0.59534733609E+01  0.35067232558E+01 -0.49971663319E+03  0.49976439893E+03  0.00000000000E+00 0.  1.
        -15    1    1    2    0    0 -0.26539517241E+01 -0.76935989892E+01  0.78653038735E+02  0.79092939991E+02  0.17770000000E+01 0. -1.
         15    1    1    2    0    0 -0.15922218548E+01 -0.10820441179E+01  0.13111898859E+03  0.13114515960E+03  0.17770000000E+01 0. -1.
</event>
<event>
 6    1  0.3411206E-003  0.5021246E+03  0.7546771E-02  0.9395068E-01
        -11   -1    0    0    0    0  0.00000000000E+00  0.00000000000E+00  0.50000000000E+03  0.50000000000E+03  0.00000000000E+00 0.  1.
         11   -1    0    0    0    0 -0.00000000000E+00 -0.00000000000E+00 -0.50000000000E+03  0.50000000000E+03  0.00000000000E+00 0. -1.
        -11    1    1    2    0    0  0.21921819301E+01  0.70217980517E+01  0.44252279622E+03  0.44258393157E+03  0.00000000000E+00 0.  1.
         11    1    1    2    0    0 -0.78545928496E+01 -0.39076209450E+01 -0.49779805471E+03  0.49787535328E+03  0.00000000000E+00 0. -1.
        -15    1    1    2    0    0  0.72050008363E+01  0.32672479968E+01  0.67760284602E+01  0.10566893452E+02  0.17770000000E+01 0.  1.
         15    1    1    2    0    0 -0.15425899168E+01 -0.63814251035E+01  0.48499230027E+02  0.48973821704E+02  0.17770000000E+01 0.  1.
</event>
<event>
 6    1  0.3411206E-003  0.5032088E+03  0.7546771E-02  0.9392658E-01
        -11   -1    0    0    0    0  0.00000000000E+00  0.00000000000E+00  0.50000000000E+03  0.50000000000E+03  0.00000000000E+00 0. -1.
         11   -1    0    0    0    0 -0.00000000000E+00 -0.00000000000E+00 -0.50000000000E+03  0.50000000000E+03  0.00000000000E+00 0.  1.
        -11    1    1    2    0    0  0.10771424055E+02  0.10792847554E+01  0.42246944934E+03  0.42260812115E+03  0.00000000000E+00 0. -1.
         11    1    1    2    0    0  0.13224139593E+02  0.10792358942E+01 -0.49661394875E+03  0.49679116005E+03  0.00000000000E+00 0.  1.
        -15    1    1    2    0    0  0.10938747351E+01  0.13803029162E+01  0.26417330362E+02  0.26535539764E+02  0.17770000000E+01 0. -1.
         15    1    1    2    0    0 -0.25089438383E+02 -0.35388235658E+01  0.47727169041E+02  0.54065179037E+02  0.17770000000E+01 0.  1.
</event>
<event>
 6    1  0.3411206E-003  0.5080013E+03  0.7546771E-02  0.9382082E-01
        -11   -1    0    0    0    0  0.00000000000E+00  0.00000000000E+00  0.50000000000E+03  0.50000000000E+03  0.00000000000E+00 0. -1.
         11   -1    0    0    0    0 -0.00000000000E+00 -0.00000000000E+00 -0.50000000000E+03  0.50000000000E+03  0.00000000000E+00 0. -1.
        -11    1    1    2    0    0  0.17666941150E+02 -0.13296756033E+02  0.49150161194E+03  0.49199873889E+03  0.00000000000E+00 0. -1.
         11    1    1    2    0    0  0.93285402096E+00 -0.14275083508E+02 -0.42830069201E+03  0.42853953260E+03  0.00000000000E+00 0. -1.
        -15    1    1    2    0    0 -0.66364060047E+01  0.33575216562E+02 -0.49673573473E+02  0.60348642755E+02  0.17770000000E+01 0. -1.
         15    1    1    2    0    0 -0.11963389166E+02 -0.60033770212E+01 -0.13527346459E+02  0.19113085759E+02  0.17770000000E+01 0.  1.
</event>
<event>
 6    1  0.3411206E-003  0.5037931E+03  0.7546771E-02  0.9391362E-01
        -11   -1    0    0    0    0  0.00000000000E+00  0.00000000000E+00  0.50000000000E+03  0.50000000000E+03  0.00000000000E+00 0. -1.
         11   -1    0    0    0    0 -0.00000000000E+00 -0.00000000000E+00 -0.50000000000E+03  0.50000000000E+03  0.00000000000E+00 0.  1.
        -11    1    1    2    0    0 -0.49548894522E+01 -0.15972382996E+02  0.49592504922E+03  0.49620693505E+03  0.00000000000E+00 0. -1.
         11    1    1    2    0    0 -0.36772751994E+01 -0.56482703209E+01 -0.43172237021E+03  0.43177497640E+03  0.00000000000E+00 0.  1.
        -15    1    1    2    0    0  0.13997810720E+02  0.14222163457E+02 -0.56459107449E+02  0.59908239678E+02  0.17770000000E+01 0. -1.
         15    1    1    2    0    0 -0.53656460683E+01  0.73984898601E+01 -0.77435715686E+01  0.12109848867E+02  0.17770000000E+01 0.  1.
</event>
<event>
 6    1  0.3411206E-003  0.5579750E+03  0.7546771E-02  0.9278682E-01
        -11   -1    0    0    0    0  0.00000000000E+00  0.00000000000E+00  0.50000000000E+03  0.50000000000E+03  0.00000000000E+00 0. -1.
         11   -1    0    0    0    0 -0.00000000000E+00 -0.00000000000E+00 -0.50000000000E+03  0.50000000000E+03  0.00000000000E+00 0.  1.
        -11    1    1    2    0    0  0.54901270760E+02  0.14943806348E+02  0.43834765106E+03  0.44202503331E+03  0.00000000000E+00 0. -1.
         11    1    1    2    0    0  0.83809398110E+01  0.26368752815E+01 -0.33025557601E+03  0.33037242432E+03  0.00000000000E+00 0.  1.
        -15    1    1    2    0    0  0.13505105848E+02 -0.70927224950E+02  0.14246858418E+02  0.73615146722E+02  0.17770000000E+01 0. -1.
         15    1    1    2    0    0 -0.76787316419E+02  0.53346543320E+02 -0.12233893347E+03  0.15398739565E+03  0.17770000000E+01 0.  1.
</event>
<event>
 6    1  0.3411206E-003  0.5120383E+03  0.7546771E-02  0.9373269E-01
        -11   -1    0    0    0    0  0.00000000000E+00  0.00000000000E+00  0.50000000000E+03  0.50000000000E+03  0.00000000000E+00 0.  1.
         11   -1    0    0    0    0 -0.00000000000E+00 -0.00000000000E+00 -0.50000000000E+03  0.50000000000E+03  0.00000000000E+00 0. -1.
        -11    1    1    2    0    0 -0.89462782600E+01 -0.25756836129E-01  0.46605798091E+03  0.46614383845E+03  0.00000000000E+00 0.  1.
         11    1    1    2    0    0  0.19579073579E+02 -0.37259664635E+01 -0.48755447381E+03  0.48796166641E+03  0.00000000000E+00 0. -1.
        -15    1    1    2    0    0 -0.10600344202E+01  0.16259518146E+02 -0.30530615714E+01  0.16672567807E+02  0.17770000000E+01 0. -1.
         15    1    1    2    0    0 -0.95727608984E+01 -0.12507794847E+02  0.24549554475E+02  0.29221927333E+02  0.17770000000E+01 0.  1.
</event>
<event>
 6    1  0.3411206E-003  0.5030318E+03  0.7546771E-02  0.9393051E-01
        -11   -1    0    0    0    0  0.00000000000E+00  0.00000000000E+00  0.50000000000E+03  0.50000000000E+03  0.00000000000E+00 0. -1.
         11   -1    0    0    0    0 -0.00000000000E+00 -0.00000000000E+00 -0.50000000000E+03  0.50000000000E+03  0.00000000000E+00 0. -1.
        -11    1    1    2    0    0  0.10079256455E+02 -0.10169150684E+02  0.49676190691E+03  0.49696820340E+03  0.00000000000E+00 0. -1.
         11    1    1    2    0    0  0.62302050342E+01 -0.33437565332E+01 -0.37727238224E+03  0.37733863646E+03  0.00000000000E+00 0. -1.
        -15    1    1    2    0    0  0.61620573042E+01  0.61843921957E+01 -0.89040193175E+01  0.12595909894E+02  0.17770000000E+01 0.  1.
         15    1    1    2    0    0 -0.22471518793E+02  0.73285150216E+01 -0.11058550535E+03  0.11309725024E+03  0.17770000000E+01 0. -1.
</event>
<event>
 6    1  0.3411206E-003  0.4850471E+03  0.7546771E-02  0.9433904E-01
        -11   -1    0    0    0    0  0.00000000000E+00  0.00000000000E+00  0.50000000000E+03  0.50000000000E+03  0.00000000000E+00 0.  1.
         11   -1    0    0    0    0 -0.00000000000E+00 -0.00000000000E+00 -0.50000000000E+03  0.50000000000E+03  0.00000000000E+00 0.  1.
        -11    1    1    2    0    0  0.32994287481E+01 -0.13859656400E+02  0.48469730185E+03  0.48490664125E+03  0.00000000000E+00 0.  1.
         11    1    1    2    0    0  0.12061055962E+01  0.76512093200E+01 -0.48515613525E+03  0.48521796263E+03  0.00000000000E+00 0.  1.
        -15    1    1    2    0    0  0.78752130021E+00 -0.27508783000E+01 -0.12623388010E+02  0.13065036359E+02  0.17770000000E+01 0.  1.
         15    1    1    2    0    0 -0.52930556445E+01  0.89593253800E+01  0.13082221402E+02  0.16810359756E+02  0.17770000000E+01 0. -1.
</event>
<event>
 6    1  0.3411206E-003  0.5022532E+03  0.7546771E-02  0.9394782E-01
        -11   -1    0    0    0    0  0.00000000000E+00  0.00000000000E+00  0.50000000000E+03  0.50000000000E+03  0.00000000000E+00 0. -1.
         11   -1    0    0    0    0 -0.00000000000E+00 -0.00000000000E+00 -0.50000000000E+03  0.50000000000E+03  0.00000000000E+00 0. -1.
        -11    1    1    2    0    0 -0.44735551206E+01  0.83873311999E+01  0.49765597522E+03  0.49774675257E+03  0.00000000000E+00 0. -1.
         11    1    1    2    0    0  0.13582145786E+02 -0.33894692398E+01 -0.19426016205E+03  0.19476389230E+03  0.00000000000E+00 0. -1.
        -15    1    1    2    0    0 -0.25143895321E+02 -0.58529592384E+01 -0.25818473348E+03  0.25947829761E+03  0.17770000000E+01 0. -1.
         15    1    1    2    0    0  0.16035304656E+02  0.85509727831E+00 -0.45211079699E+02  0.48011057511E+02  0.17770000000E+01 0.  1.
</event>
<event>
 6    1  0.3411206E-003  0.5073526E+03  0.7546771E-02  0.9383506E-01
        -11   -1    0    0    0    0  0.00000000000E+00  0.00000000000E+00  0.50000000000E+03  0.50000000000E+03  0.00000000000E+00 0.  1.
         11   -1    0    0    0    0 -0.00000000000E+00 -0.00000000000E+00 -0.50000000000E+03  0.50000000000E+03  0.00000000000E+00 0.  1.
        -11    1    1    2    0    0  0.44908487315E+01 -0.18503306181E+02  0.49227929529E+03  0.49264738367E+03  0.00000000000E+00 0.  1.
         11    1    1    2    0    0  0.62084101156E+01  0.75698375492E+01 -0.39658523976E+03  0.39670606145E+03  0.00000000000E+00 0.  1.
        -15    1    1    2    0    0  0.68747195036E+00 -0.21254074468E+02 -0.35421920797E+02  0.41353095424E+02  0.17770000000E+01 0.  1.
         15    1    1    2    0    0 -0.11386730797E+02  0.32187543100E+02 -0.60272134733E+02  0.69293459456E+02  0.17770000000E+01 0. -1.
</event>
<event>
 6    1  0.3411206E-003  0.5018929E+03  0.7546771E-02  0.9395584E-01
        -11   -1    0    0    0    0  0.00000000000E+00  0.00000000000E+00  0.50000000000E+03  0.50000000000E+03  0.00000000000E+00 0. -1.
         11   -1    0    0    0    0 -0.00000000000E+00 -0.00000000000E+00 -0.50000000000E+03  0.50000000000E+03  0.00000000000E+00 0.  1.
        -11    1    1    2    0    0 -0.97496888718E+01  0.72898560779E+01  0.37606636679E+03  0.37626335281E+03  0.00000000000E+00 0. -1.
         11    1    1    2    0    0 -0.95167274022E+01 -0.32844040282E+00 -0.49801602425E+03  0.49810705314E+03  0.00000000000E+00 0.  1.
        -15    1    1    2    0    0  0.20921905528E+02 -0.11847574468E+02  0.87936982227E+02  0.91182025223E+02  0.17770000000E+01 0. -1.
         15    1    1    2    0    0 -0.16554892538E+01  0.48861587926E+01  0.34012675238E+02  0.34447568830E+02  0.17770000000E+01 0. -1.
</event>
<event>
 6    1  0.3411206E-003  0.5068814E+03  0.7546771E-02  0.9384542E-01
        -11   -1    0    0    0    0  0.00000000000E+00  0.00000000000E+00  0.50000000000E+03  0.50000000000E+03  0.00000000000E+00 0.  1.
         11   -1    0    0    0    0 -0.00000000000E+00 -0.00000000000E+00 -0.50000000000E+03  0.50000000000E+03  0.00000000000E+00 0.  1.
        -11    1    1    2    0    0  0.88054759065E+01 -0.88656717386E+01  0.49296028844E+03  0.49311862926E+03  0.00000000000E+00 0.  1.
         11    1    1    2    0    0 -0.45082837473E+01 -0.61856586270E+01 -0.48250493591E+03  0.48256564338E+03  0.00000000000E+00 0.  1.
        -15    1    1    2    0    0 -0.97247568499E+01  0.10434357103E+02 -0.85662851085E+01  0.16732772439E+02  0.17770000000E+01 0.  1.
         15    1    1    2    0    0  0.54275646907E+01  0.46169732626E+01 -0.18890674205E+01  0.75829549187E+01  0.17770000000E+01 0. -1.
</event>
<event>
 6    1  0.3411206E-003  0.5011394E+03  0.7546771E-02  0.9397264E-01
        -11   -1    0    0    0    0  0.00000000000E+00  0.00000000000E+00  0.50000000000E+03  0.50000000000E+03  0.00000000000E+00 0. -1.
         11   -1    0    0    0    0 -0.00000000000E+00 -0.00000000000E+00 -0.50000000000E+03  0.50000000000E+03  0.00000000000E+00 0. -1.
        -11    1    1    2    0    0 -0.35710429145E+01  0.51547844256E+01  0.64247983762E+02  0.64553292460E+02  0.00000000000E+00 0. -1.
         11    1    1    2    0    0 -0.52775092947E+01  0.10835751832E+02 -0.49871497684E+03  0.49886059550E+03  0.00000000000E+00 0. -1.
        -15    1    1    2    0    0  0.23968735991E+02 -0.64084869888E+01  0.26670439165E+03  0.26786182869E+03  0.17770000000E+01 0. -1.
         15    1    1    2    0    0 -0.15120183781E+02 -0.95820492693E+01  0.16776260142E+03  0.16872428335E+03  0.17770000000E+01 0.  1.
</event>
<event>
 6    1  0.3411206E-003  0.4924182E+03  0.7546771E-02  0.9416936E-01
        -11   -1    0    0    0    0  0.00000000000E+00  0.00000000000E+00  0.50000000000E+03  0.50000000000E+03  0.00000000000E+00 0.  1.
         11   -1    0    0    0    0 -0.00000000000E+00 -0.00000000000E+00 -0.50000000000E+03  0.50000000000E+03  0.00000000000E+00 0. -1.
        -11    1    1    2    0    0  0.71603975259E+01  0.57749958757E+01  0.49223332759E+03  0.49231927715E+03  0.00000000000E+00 0.  1.
         11    1    1    2    0    0 -0.36847634255E+01 -0.92680522584E+01 -0.49242850005E+03  0.49252949347E+03  0.00000000000E+00 0. -1.
        -15    1    1    2    0    0 -0.39336456444E+01 -0.27233312633E+01  0.49521250507E+01  0.71113551974E+01  0.17770000000E+01 0. -1.
         15    1    1    2    0    0  0.45801154411E+00  0.62163876460E+01 -0.47569525828E+01  0.80398741791E+01  0.17770000000E+01 0.  1.
</event>
<event>
 6    1  0.3411206E-003  0.5036014E+03  0.7546771E-02  0.9391787E-01
        -11   -1    0    0    0    0  0.00000000000E+00  0.00000000000E+00  0.50000000000E+03  0.50000000000E+03  0.00000000000E+00 0. -1.
         11   -1    0    0    0    0 -0.00000000000E+00 -0.00000000000E+00 -0.50000000000E+03  0.50000000000E+03  0.00000000000E+00 0. -1.
        -11    1    1    2    0    0  0.13295922465E+02  0.20875562613E+02  0.49578120718E+03  0.49639860602E+03  0.00000000000E+00 0. -1.
         11    1    1    2    0    0 -0.46870530190E+00 -0.57162805819E+01 -0.32539181881E+03  0.32544236248E+03  0.00000000000E+00 0. -1.
        -15    1    1    2    0    0 -0.75314406139E+01 -0.46895155793E+01 -0.16478889383E+03  0.16503712132E+03  0.17770000000E+01 0. -1.
         15    1    1    2    0    0 -0.52957765489E+01 -0.10469766452E+02 -0.56004945361E+01  0.13121910183E+02  0.17770000000E+01 0.  1.
</event>
<event>
 6    1  0.3411206E-003  0.5110496E+03  0.7546771E-02  0.9375419E-01
        -11   -1    0    0    0    0  0.00000000000E+00  0.00000000000E+00  0.50000000000E+03  0.50000000000E+03  0.00000000000E+00 0. -1.
         11   -1    0    0    0    0 -0.00000000000E+00 -0.00000000000E+00 -0.50000000000E+03  0.50000000000E+03  0.00000000000E+00 0.  1.
        -11    1    1    2    0    0 -0.81543621225E+01  0.75473261264E+01  0.48882412556E+03  0.48895038755E+03  0.00000000000E+00 0. -1.
         11    1    1    2    0    0  0.54536196827E+01 -0.63734887458E+01 -0.32386941453E+03  0.32397802548E+03  0.00000000000E+00 0.  1.
        -15    1    1    2    0    0  0.70471305449E+01 -0.97046150548E+01  0.75561105497E+01  0.14286151963E+02  0.17770000000E+01 0. -1.
         15    1    1    2    0    0 -0.43463881051E+01  0.85307776742E+01 -0.17251082158E+03  0.17278543500E+03  0.17770000000E+01 0.  1.
</event>
<event>
 6    1  0.3411206E-003  0.5007641E+03  0.7546771E-02  0.9398102E-01
        -11   -1    0    0    0    0  0.00000000000E+00  0.00000000000E+00  0.50000000000E+03  0.50000000000E+03  0.00000000000E+00 0.  1.
         11   -1    0    0    0    0 -0.00000000000E+00 -0.00000000000E+00 -0.50000000000E+03  0.50000000000E+03  0.00000000000E+00 0. -1.
        -11    1    1    2    0    0 -0.14082717214E+02 -0.17124790997E-02  0.49903721000E+03  0.49923587601E+03  0.00000000000E+00 0.  1.
         11    1    1    2    0    0 -0.34129824807E+01 -0.33048613746E+01 -0.21185715148E+03  0.21191041313E+03  0.00000000000E+00 0. -1.
        -15    1    1    2    0    0  0.17664639542E+02 -0.26289425075E+01 -0.26989339177E+03  0.27048946649E+03  0.17770000000E+01 0. -1.
         15    1    1    2    0    0 -0.16893984775E+00  0.59355163613E+01 -0.17286666748E+02  0.18364244374E+02  0.17770000000E+01 0.  1.
</event>
<event>
 6    1  0.3411206E-003  0.4876510E+03  0.7546771E-02  0.9427874E-01
        -11   -1    0    0    0    0  0.00000000000E+00  0.00000000000E+00  0.50000000000E+03  0.50000000000E+03  0.00000000000E+00 0. -1.
         11   -1    0    0    0    0 -0.00000000000E+00 -0.00000000000E+00 -0.50000000000E+03  0.50000000000E+03  0.00000000000E+00 0. -1.
        -11    1    1    2    0    0 -0.72770047614E+01 -0.59653083223E+01  0.48907693093E+03  0.48916743971E+03  0.00000000000E+00 0. -1.
         11    1    1    2    0    0 -0.92193075428E+01  0.39881392587E+01 -0.48617656297E+03  0.48628032170E+03  0.00000000000E+00 0. -1.
        -15    1    1    2    0    0  0.14088782257E+02 -0.30057974609E+01 -0.82131759883E+01  0.16677607523E+02  0.17770000000E+01 0.  1.
         15    1    1    2    0    0  0.24075300469E+01  0.49829665245E+01  0.53128080337E+01  0.78746310716E+01  0.17770000000E+01 0. -1.
</event>
<event>
 6    1  0.3411206E-003  0.5237013E+03  0.7546771E-02  0.9348284E-01
        -11   -1    0    0    0    0  0.00000000000E+00  0.00000000000E+00  0.50000000000E+03  0.50000000000E+03  0.00000000000E+00 0.  1.
         11   -1    0    0    0    0 -0.00000000000E+00 -0.00000000000E+00 -0.50000000000E+03  0.50000000000E+03  0.00000000000E+00 0. -1.
        -11    1    1    2    0    0 -0.45981425506E+01  0.16979178663E+02  0.44363397644E+03  0.44398259028E+03  0.00000000000E+00 0.  1.
         11    1    1    2    0    0 -0.85857799496E+01 -0.38045204204E+01 -0.47620609232E+03  0.47629867977E+03  0.00000000000E+00 0. -1.
        -15    1    1    2    0    0  0.53871469059E+01 -0.19547089806E+02  0.53055129820E+02  0.56825298951E+02  0.17770000000E+01 0.  1.
         15    1    1    2    0    0  0.77967755943E+01  0.63724315635E+01 -0.20483013942E+02  0.22893430998E+02  0.17770000000E+01 0. -1.
</event>
<event>
 6    1  0.3411206E-003  0.5001139E+03  0.7546771E-02  0.9399555E-01
        -11   -1    0    0    0    0  0.00000000000E+00  0.00000000000E+00  0.50000000000E+03  0.50000000000E+03  0.00000000000E+00 0. -1.
         11   -1    0    0    0    0 -0.00000000000E+00 -0.00000000000E+00 -0.50000000000E+03  0.50000000000E+03  0.00000000000E+00 0. -1.
        -11    1    1    2    0    0  0.25495041104E+01  0.12971633101E+01  0.13768651980E+03  0.13771623121E+03  0.00000000000E+00 0. -1.
         11    1    1    2    0    0  0.38655836852E+01 -0.60831039056E+01 -0.49983415694E+03  0.49988611836E+03  0.00000000000E+00 0. -1.
        -15    1    1    2    0    0 -0.57076914914E+01  0.15013624581E+01  0.32452123249E+03  0.32457975892E+03  0.17770000000E+01 0. -1.
         15    1    1    2    0    0 -0.70739630421E+00  0.32845781374E+01  0.37626404643E+02  0.37817891512E+02  0.17770000000E+01 0.  1.
</event>
<event>
 6    1  0.3411206E-003  0.5009602E+03  0.7546771E-02  0.9397664E-01
        -11   -1    0    0    0    0  0.00000000000E+00  0.00000000000E+00  0.50000000000E+03  0.50000000000E+03  0.00000000000E+00 0. -1.
         11   -1    0    0    0    0 -0.00000000000E+00 -0.00000000000E+00 -0.50000000000E+03  0.50000000000E+03  0.00000000000E+00 0. -1.
        -11    1    1    2    0    0  0.13562025856E+01 -0.93127589084E+01  0.49895106159E+03  0.49903980665E+03  0.00000000000E+00 0. -1.
         11    1    1    2    0    0  0.78446929480E+01  0.32422685288E+01 -0.40878367458E+03  0.40887179423E+03  0.00000000000E+00 0. -1.
        -15    1    1    2    0    0 -0.43856832089E+01  0.58760801181E+00 -0.75116763211E+02  0.75267956959E+02  0.17770000000E+01 0.  1.
         15    1    1    2    0    0 -0.48152123247E+01  0.54828823678E+01 -0.15050623799E+02  0.16820442162E+02  0.17770000000E+01 0. -1.
</event>
<event>
 6    1  0.3411206E-003  0.5033131E+03  0.7546771E-02  0.9392427E-01
        -11   -1    0    0    0    0  0.00000000000E+00  0.00000000000E+00  0.50000000000E+03  0.50000000000E+03  0.00000000000E+00 0. -1.
         11   -1    0    0    0    0 -0.00000000000E+00 -0.00000000000E+00 -0.50000000000E+03  0.50000000000E+03  0.00000000000E+00 0. -1.
        -11    1    1    2    0    0 -0.26737607855E+01 -0.85822046276E+01  0.49660556361E+03  0.49668691249E+03  0.00000000000E+00 0. -1.
         11    1    1    2    0    0 -0.37830199055E+00 -0.11419398856E+02 -0.20000976911E+03  0.20033585181E+03  0.00000000000E+00 0. -1.
        -15    1    1    2    0    0  0.14543456076E+02  0.86862942528E+01 -0.21621724728E+02  0.27524907478E+02  0.17770000000E+01 0.  1.
         15    1    1    2    0    0 -0.11491393300E+02  0.11315309230E+02 -0.27497406978E+03  0.27545232822E+03  0.17770000000E+01 0. -1.
</event>
<event>
 6    1  0.3411206E-003  0.5062544E+03  0.7546771E-02  0.9385923E-01
        -11   -1    0    0    0    0  0.00000000000E+00  0.00000000000E+00  0.50000000000E+03  0.50000000000E+03  0.00000000000E+00 0. -1.
         11   -1    0    0    0    0 -0.00000000000E+00 -0.00000000000E+00 -0.50000000000E+03  0.50000000000E+03  0.00000000000E+00 0. -1.
        -11    1    1    2    0    0  0.12539075581E+02 -0.11720426965E+01  0.46114135345E+03  0.46131328830E+03  0.00000000000E+00 0. -1.
         11    1    1    2    0    0  0.44546536611E+01  0.13746292323E+02 -0.49353407486E+03  0.49374556964E+03  0.00000000000E+00 0. -1.
        -15    1    1    2    0    0 -0.63455835823E+01  0.28389977223E+01 -0.34167045248E+00  0.71833701537E+01  0.17770000000E+01 0.  1.
         15    1    1    2    0    0 -0.10648145659E+02 -0.15413247349E+02  0.32734391863E+02  0.37757771908E+02  0.17770000000E+01 0. -1.
</event>
<event>
 6    1  0.3411206E-003  0.5003938E+03  0.7546771E-02  0.9398929E-01
        -11   -1    0    0    0    0  0.00000000000E+00  0.00000000000E+00  0.50000000000E+03  0.50000000000E+03  0.00000000000E+00 0.  1.
         11   -1    0    0    0    0 -0.00000000000E+00 -0.00000000000E+00 -0.50000000000E+03  0.50000000000E+03  0.00000000000E+00 0. -1.
        -11    1    1    2    0    0  0.72147288132E+01 -0.29567617347E+01  0.10312096844E+03  0.10341532229E+03  0.00000000000E+00 0.  1.
         11    1    1    2    0    0 -0.15706990112E+02  0.59741354558E+01 -0.49932351620E+03  0.49960621860E+03  0.00000000000E+00 0. -1.
        -15    1    1    2    0    0  0.11678371671E+02  0.38363005347E+00  0.94703283735E+02  0.95437944320E+02  0.17770000000E+01 0. -1.
         15    1    1    2    0    0 -0.31861103725E+01 -0.34010037745E+01  0.30149926402E+03  0.30154051479E+03  0.17770000000E+01 0.  1.
</event>
<event>
 6    1  0.3411206E-003  0.5161044E+03  0.7546771E-02  0.9364479E-01
        -11   -1    0    0    0    0  0.00000000000E+00  0.00000000000E+00  0.50000000000E+03  0.50000000000E+03  0.00000000000E+00 0.  1.
         11   -1    0    0    0    0 -0.00000000000E+00 -0.00000000000E+00 -0.50000000000E+03  0.50000000000E+03  0.00000000000E+00 0.  1.
        -11    1    1    2    0    0 -0.14846872867E+02  0.15933666383E+02  0.43481093609E+03  0.43535601696E+03  0.00000000000E+00 0.  1.
         11    1    1    2    0    0  0.27657468350E+00  0.33145512270E+02 -0.48275895383E+03  0.48389555586E+03  0.00000000000E+00 0.  1.
        -15    1    1    2    0    0  0.27681056630E+02 -0.40849179545E+02  0.37140974306E+02  0.61785969823E+02  0.17770000000E+01 0. -1.
         15    1    1    2    0    0 -0.13110758447E+02 -0.82299991084E+01  0.10807043433E+02  0.18962457360E+02  0.17770000000E+01 0.  1.
</event>
<event>
 6    1  0.3411206E-003  0.5036580E+03  0.7546771E-02  0.9391662E-01
        -11   -1    0    0    0    0  0.00000000000E+00  0.00000000000E+00  0.50000000000E+03  0.50000000000E+03  0.00000000000E+00 0.  1.
         11   -1    0    0    0    0 -0.00000000000E+00 -0.00000000000E+00 -0.50000000000E+03  0.50000000000E+03  0.00000000000E+00 0.  1.
        -11    1    1    2    0    0 -0.39492533073E+01  0.56802679763E+01  0.37600638656E+03  0.37607002643E+03  0.00000000000E+00 0.  1.
         11    1    1    2    0    0  0.45218306880E+01 -0.52528664148E+01 -0.49629365131E+03  0.49634204727E+03  0.00000000000E+00 0.  1.
        -15    1    1    2    0    0 -0.50657619123E+01 -0.29880877290E+01 -0.95903910828E+00  0.62183677151E+01  0.17770000000E+01 0.  1.
         15    1    1    2    0    0  0.44931845316E+01  0.25606861676E+01  0.12124630386E+03  0.12136955858E+03  0.17770000000E+01 0. -1.
</event>
<event>
 6    1  0.4574740E-003  0.5001435E+03  0.7546771E-02  0.9399489E-01
        -11   -1    0    0    0    0  0.00000000000E+00  0.00000000000E+00  0.50000000000E+03  0.50000000000E+03  0.00000000000E+00 0. -1.
         11   -1    0    0    0    0 -0.00000000000E+00 -0.00000000000E+00 -0.50000000000E+03  0.50000000000E+03  0.00000000000E+00 0. -1.
        -11    1    1    2    0    0 -0.53949225182E+01 -0.63190043665E+01  0.49978739540E+03  0.49985645500E+03  0.00000000000E+00 0. -1.
         11    1    1    2    0    0 -0.21244990441E+01 -0.31405783891E+00 -0.92957337617E+02  0.92982142077E+02  0.00000000000E+00 0. -1.
        -15    1    1    2    0    0  0.45888954449E+01 -0.13166532825E+01 -0.57810894770E+02  0.58034893128E+02  0.17770000000E+01 0.  1.
         15    1    1    2    0    0  0.29305261174E+01  0.79497154879E+01 -0.34901916301E+03  0.34912650979E+03  0.17770000000E+01 0. -1.
</event>
<event>
 6    1  0.3411206E-003  0.5160724E+03  0.7546771E-02  0.9364548E-01
        -11   -1    0    0    0    0  0.00000000000E+00  0.00000000000E+00  0.50000000000E+03  0.50000000000E+03  0.00000000000E+00 0.  1.
         11   -1    0    0    0    0 -0.00000000000E+00 -0.00000000000E+00 -0.50000000000E+03  0.50000000000E+03  0.00000000000E+00 0.  1.
        -11    1    1    2    0    0 -0.88415767337E+01  0.19665024410E+02  0.44074006596E+03  0.44126714404E+03  0.00000000000E+00 0.  1.
         11    1    1    2    0    0  0.47321365471E+01 -0.22475378392E+02 -0.48338223185E+03  0.48392759564E+03  0.00000000000E+00 0.  1.
        -15    1    1    2    0    0  0.60902078004E+01 -0.23472481331E+02 -0.38250148647E+00  0.24317731129E+02  0.17770000000E+01 0. -1.
         15    1    1    2    0    0 -0.19807676139E+01  0.26282835313E+02  0.43024667374E+02  0.50487529194E+02  0.17770000000E+01 0.  1.
</event>
<event>
 6    1  0.3411206E-003  0.5185892E+03  0.7546771E-02  0.9359149E-01
        -11   -1    0    0    0    0  0.00000000000E+00  0.00000000000E+00  0.50000000000E+03  0.50000000000E+03  0.00000000000E+00 0. -1.
         11   -1    0    0    0    0 -0.00000000000E+00 -0.00000000000E+00 -0.50000000000E+03  0.50000000000E+03  0.00000000000E+00 0. -1.
        -11    1    1    2    0    0  0.37290469728E+01 -0.97547841158E+01  0.46753108475E+03  0.46764770588E+03  0.00000000000E+00 0. -1.
         11    1    1    2    0    0 -0.11919741078E+02  0.16961154884E+02 -0.48096422557E+03  0.48141078850E+03  0.00000000000E+00 0. -1.
        -15    1    1    2    0    0  0.15748525317E+02 -0.13980462204E+02 -0.11431004619E+02  0.24026963369E+02  0.17770000000E+01 0.  1.
         15    1    1    2    0    0 -0.75578312120E+01  0.67740914358E+01  0.24864145443E+02  0.26914542259E+02  0.17770000000E+01 0. -1.
</event>
<event>
 6    1  0.3411206E-003  0.4791586E+03  0.7546771E-02  0.9447691E-01
        -11   -1    0    0    0    0  0.00000000000E+00  0.00000000000E+00  0.50000000000E+03  0.50000000000E+03  0.00000000000E+00 0. -1.
         11   -1    0    0    0    0 -0.00000000000E+00 -0.00000000000E+00 -0.50000000000E+03  0.50000000000E+03  0.00000000000E+00 0. -1.
        -11    1    1    2    0    0  0.33598607966E+01 -0.63910624427E+01  0.48881501984E+03  0.48886834420E+03  0.00000000000E+00 0. -1.
         11    1    1    2    0    0  0.14738897701E+02 -0.13836004113E+02 -0.53049458124E+02  0.56770724168E+02  0.00000000000E+00 0. -1.
        -15    1    1    2    0    0 -0.54146909774E+02  0.89494704230E+01 -0.82657738984E+02  0.99234270299E+02  0.17770000000E+01 0.  1.
         15    1    1    2    0    0  0.36048151276E+02  0.11277596132E+02 -0.35310782273E+03  0.35512666133E+03  0.17770000000E+01 0. -1.
</event>
<event>
 6    1  0.3411206E-003  0.5029883E+03  0.7546771E-02  0.9393148E-01
        -11   -1    0    0    0    0  0.00000000000E+00  0.00000000000E+00  0.50000000000E+03  0.50000000000E+03  0.00000000000E+00 0.  1.
         11   -1    0    0    0    0 -0.00000000000E+00 -0.00000000000E+00 -0.50000000000E+03  0.50000000000E+03  0.00000000000E+00 0. -1.
        -11    1    1    2    0    0  0.11232342116E+01  0.43246272215E+01  0.19457741350E+03  0.19462870780E+03  0.00000000000E+00 0.  1.
         11    1    1    2    0    0 -0.20311880361E+02 -0.22196670083E+01 -0.49659152877E+03  0.49701171601E+03  0.00000000000E+00 0. -1.
        -15    1    1    2    0    0  0.24551955111E+02  0.10216825542E+02  0.56491268261E+02  0.62462814079E+02  0.17770000000E+01 0. -1.
         15    1    1    2    0    0 -0.53633089616E+01 -0.12321785755E+02  0.24552284700E+03  0.24589676211E+03  0.17770000000E+01 0.  1.
</event>
<event>
 6    1  0.3411206E-003  0.5095498E+03  0.7546771E-02  0.9378691E-01
        -11   -1    0    0    0    0  0.00000000000E+00  0.00000000000E+00  0.50000000000E+03  0.50000000000E+03  0.00000000000E+00 0.  1.
         11   -1    0    0    0    0 -0.00000000000E+00 -0.00000000000E+00 -0.50000000000E+03  0.50000000000E+03  0.00000000000E+00 0. -1.
        -11    1    1    2    0    0  0.74275471213E+01  0.30792686436E+01  0.45977536279E+03  0.45984566387E+03  0.00000000000E+00 0.  1.
         11    1    1    2    0    0 -0.50723439868E+01  0.63415469416E+01 -0.49038300912E+03  0.49045024164E+03  0.00000000000E+00 0. -1.
        -15    1    1    2    0    0 -0.15527764659E+02  0.37286914567E+01  0.25807413658E+02  0.30400574731E+02  0.17770000000E+01 0. -1.
         15    1    1    2    0    0  0.13172561525E+02 -0.13149507042E+02  0.48002326689E+01  0.19303519763E+02  0.17770000000E+01 0.  1.
</event>
<event>
 6    1  0.3411206E-003  0.5281188E+03  0.7546771E-02  0.9339000E-01
        -11   -1    0    0    0    0  0.00000000000E+00  0.00000000000E+00  0.50000000000E+03  0.50000000000E+03  0.00000000000E+00 0.  1.
         11   -1    0    0    0    0 -0.00000000000E+00 -0.00000000000E+00 -0.50000000000E+03  0.50000000000E+03  0.00000000000E+00 0.  1.
        -11    1    1    2    0    0  0.11247505701E+02  0.18670025676E+02  0.44814460898E+03  0.44867434381E+03  0.00000000000E+00 0.  1.
         11    1    1    2    0    0  0.14146552248E+02 -0.61356104526E+01 -0.47162917446E+03  0.47188118087E+03  0.00000000000E+00 0.  1.
        -15    1    1    2    0    0 -0.12572727905E+02  0.19596644161E+02 -0.14931732364E+02  0.27716715349E+02  0.17770000000E+01 0.  1.
         15    1    1    2    0    0 -0.12821330044E+02 -0.32131059385E+02  0.38416297852E+02  0.51727759965E+02  0.17770000000E+01 0. -1.
</event>
<event>
 6    1  0.3411206E-003  0.5014658E+03  0.7546771E-02  0.9396536E-01
        -11   -1    0    0    0    0  0.00000000000E+00  0.00000000000E+00  0.50000000000E+03  0.50000000000E+03  0.00000000000E+00 0.  1.
         11   -1    0    0    0    0 -0.00000000000E+00 -0.00000000000E+00 -0.50000000000E+03  0.50000000000E+03  0.00000000000E+00 0. -1.
        -11    1    1    2    0    0  0.41020669169E+01  0.11671395922E+02  0.49838072690E+03  0.49853424895E+03  0.00000000000E+00 0.  1.
         11    1    1    2    0    0  0.65552643306E+01  0.10014336100E+01 -0.35485070879E+03  0.35491266516E+03  0.00000000000E+00 0. -1.
        -15    1    1    2    0    0  0.33744206998E+01 -0.14672562501E+02 -0.66070196296E+02  0.67787162303E+02  0.17770000000E+01 0.  1.
         15    1    1    2    0    0 -0.14031751947E+02  0.19997329692E+01 -0.77459821810E+02  0.78765923587E+02  0.17770000000E+01 0. -1.
</event>
<event>
 6    1  0.3411206E-003  0.4660298E+03  0.7546771E-02  0.9479203E-01
        -11   -1    0    0    0    0  0.00000000000E+00  0.00000000000E+00  0.50000000000E+03  0.50000000000E+03  0.00000000000E+00 0. -1.
         11   -1    0    0    0    0 -0.00000000000E+00 -0.00000000000E+00 -0.50000000000E+03  0.50000000000E+03  0.00000000000E+00 0. -1.
        -11    1    1    2    0    0  0.10500396711E+02 -0.84902673115E+01  0.46924763835E+03  0.46944189104E+03  0.00000000000E+00 0. -1.
         11    1    1    2    0    0  0.75388615483E+01  0.77594164462E+01 -0.46268909192E+03  0.46281555588E+03  0.00000000000E+00 0. -1.
        -15    1    1    2    0    0 -0.25566775550E+02  0.17445000174E+02 -0.26364645586E+02  0.40696932427E+02  0.17770000000E+01 0.  1.
         15    1    1    2    0    0  0.75275172912E+01 -0.16714149309E+02  0.19806099160E+02  0.27045620655E+02  0.17770000000E+01 0. -1.
</event>
<event>
 6    1  0.3411206E-003  0.5006064E+03  0.7546771E-02  0.9398454E-01
        -11   -1    0    0    0    0  0.00000000000E+00  0.00000000000E+00  0.50000000000E+03  0.50000000000E+03  0.00000000000E+00 0.  1.
         11   -1    0    0    0    0 -0.00000000000E+00 -0.00000000000E+00 -0.50000000000E+03  0.50000000000E+03  0.00000000000E+00 0.  1.
        -11    1    1    2    0    0 -0.64256095250E+01 -0.44655767814E+01  0.49933230116E+03  0.49939360911E+03  0.00000000000E+00 0.  1.
         11    1    1    2    0    0 -0.48162451406E+00  0.69718298060E+01 -0.40289279712E+03  0.40295340220E+03  0.00000000000E+00 0.  1.
        -15    1    1    2    0    0  0.83493268400E+01  0.32476855697E+01 -0.59972404862E+02  0.60663875529E+02  0.17770000000E+01 0.  1.
         15    1    1    2    0    0 -0.14420928009E+01 -0.57539385943E+01 -0.36467099181E+02  0.36989113165E+02  0.17770000000E+01 0.  1.
</event>
<event>
 6    1  0.3411206E-003  0.5038460E+03  0.7546771E-02  0.9391245E-01
        -11   -1    0    0    0    0  0.00000000000E+00  0.00000000000E+00  0.50000000000E+03  0.50000000000E+03  0.00000000000E+00 0.  1.
         11   -1    0    0    0    0 -0.00000000000E+00 -0.00000000000E+00 -0.50000000000E+03  0.50000000000E+03  0.00000000000E+00 0. -1.
        -11    1    1    2    0    0 -0.94737368562E+01 -0.24230662375E+01  0.49605765866E+03  0.49615403218E+03  0.00000000000E+00 0.  1.
         11    1    1    2    0    0 -0.24601853074E+01  0.56775905996E+01 -0.38219959514E+03  0.38224968028E+03  0.00000000000E+00 0. -1.
        -15    1    1    2    0    0  0.51381353439E+01 -0.10348681154E+01  0.17108993938E+01  0.57927793471E+01  0.17770000000E+01 0. -1.
         15    1    1    2    0    0  0.67957868197E+01 -0.22196562466E+01 -0.11556896291E+03  0.11580350819E+03  0.17770000000E+01 0.  1.
</event>
<event>
 6    1  0.3411206E-003  0.5026065E+03  0.7546771E-02  0.9393996E-01
        -11   -1    0    0    0    0  0.00000000000E+00  0.00000000000E+00  0.50000000000E+03  0.50000000000E+03  0.00000000000E+00 0. -1.
         11   -1    0    0    0    0 -0.00000000000E+00 -0.00000000000E+00 -0.50000000000E+03  0.50000000000E+03  0.00000000000E+00 0. -1.
        -11    1    1    2    0    0 -0.61402600050E+01  0.27941104648E+02  0.49657013628E+03  0.49739351460E+03  0.00000000000E+00 0. -1.
         11    1    1    2    0    0 -0.40473998991E+00  0.60495344089E+01 -0.17082228186E+03  0.17092984719E+03  0.00000000000E+00 0. -1.
        -15    1    1    2    0    0  0.20760812235E+02 -0.39063211398E+01 -0.21451644930E+03  0.21556144233E+03  0.17770000000E+01 0. -1.
         15    1    1    2    0    0 -0.14215812240E+02 -0.30084317917E+02 -0.11123140511E+03  0.11611519588E+03  0.17770000000E+01 0.  1.
</event>
<event>
 6    1  0.3411206E-003  0.3901262E+03  0.7546771E-02  0.9686033E-01
        -11   -1    0    0    0    0  0.00000000000E+00  0.00000000000E+00  0.50000000000E+03  0.50000000000E+03  0.00000000000E+00 0.  1.
         11   -1    0    0    0    0 -0.00000000000E+00 -0.00000000000E+00 -0.50000000000E+03  0.50000000000E+03  0.00000000000E+00 0.  1.
        -11    1    1    2    0    0 -0.99217777875E+02  0.45219293083E+02  0.41112033363E+03  0.42533384610E+03  0.00000000000E+00 0.  1.
         11    1    1    2    0    0 -0.14446606596E+02 -0.28894955548E+02 -0.36333612629E+03  0.36476946633E+03  0.00000000000E+00 0.  1.
        -15    1    1    2    0    0 -0.14286240995E+02  0.21186032971E+02 -0.70155807264E+02  0.74685605686E+02  0.17770000000E+01 0.  1.
         15    1    1    2    0    0  0.12795062547E+03 -0.37510370506E+02  0.22371599917E+02  0.13521108189E+03  0.17770000000E+01 0. -1.
</event>
<event>
 6    1  0.3411206E-003  0.5018979E+03  0.7546771E-02  0.9395573E-01
        -11   -1    0    0    0    0  0.00000000000E+00  0.00000000000E+00  0.50000000000E+03  0.50000000000E+03  0.00000000000E+00 0.  1.
         11   -1    0    0    0    0 -0.00000000000E+00 -0.00000000000E+00 -0.50000000000E+03  0.50000000000E+03  0.00000000000E+00 0. -1.
        -11    1    1    2    0    0 -0.13181840840E+02  0.93962865568E+00  0.49792675257E+03  0.49810209271E+03  0.00000000000E+00 0.  1.
         11    1    1    2    0    0 -0.72216572941E+01 -0.78242689800E+00 -0.24067140826E+03  0.24078100274E+03  0.00000000000E+00 0. -1.
        -15    1    1    2    0    0  0.11329727467E+02 -0.48770102131E+01 -0.24381967295E+03  0.24413794994E+03  0.17770000000E+01 0. -1.
         15    1    1    2    0    0  0.90737706670E+01  0.47198084554E+01 -0.13435671363E+02  0.16978954619E+02  0.17770000000E+01 0.  1.
</event>
<event>
 6    1  0.3411206E-003  0.5020485E+03  0.7546771E-02  0.9395238E-01
        -11   -1    0    0    0    0  0.00000000000E+00  0.00000000000E+00  0.50000000000E+03  0.50000000000E+03  0.00000000000E+00 0.  1.
         11   -1    0    0    0    0 -0.00000000000E+00 -0.00000000000E+00 -0.50000000000E+03  0.50000000000E+03  0.00000000000E+00 0.  1.
        -11    1    1    2    0    0  0.64291483118E+01 -0.43261177157E+01  0.40740596919E+03  0.40747965958E+03  0.00000000000E+00 0.  1.
         11    1    1    2    0    0  0.95161513710E+01 -0.28194914458E+01 -0.49785255896E+03  0.49795148070E+03  0.00000000000E+00 0.  1.
        -15    1    1    2    0    0 -0.55909014196E+00 -0.10731553423E+01  0.54811166165E+02  0.54853312658E+02  0.17770000000E+01 0. -1.
         15    1    1    2    0    0 -0.15386209541E+02  0.82187645037E+01  0.35635423601E+02  0.39715547059E+02  0.17770000000E+01 0.  1.
</event>
<event>
 6    1  0.3411206E-003  0.5041479E+03  0.7546771E-02  0.9390576E-01
        -11   -1    0    0    0    0  0.00000000000E+00  0.00000000000E+00  0.50000000000E+03  0.50000000000E+03  0.00000000000E+00 0. -1.
         11   -1    0    0    0    0 -0.00000000000E+00 -0.00000000000E+00 -0.50000000000E+03  0.50000000000E+03  0.00000000000E+00 0.  1.
        -11    1    1    2    0    0 -0.89900913933E+01  0.46339347365E+01  0.45042580158E+03  0.45053934104E+03  0.00000000000E+00 0. -1.
         11    1    1    2    0    0  0.82298691830E+01 -0.10473430099E+02 -0.49567320603E+03  0.49585214596E+03  0.00000000000E+00 0.  1.
        -15    1    1    2    0    0  0.32555485888E+01  0.15972156818E+02  0.17854822835E+02  0.24241716471E+02  0.17770000000E+01 0. -1.
         15    1    1    2    0    0 -0.24953263786E+01 -0.10132661456E+02  0.27392581613E+02  0.29366796528E+02  0.17770000000E+01 0.  1.
</event>
<event>
 6    1  0.3411206E-003  0.5126363E+03  0.7546771E-02  0.9371971E-01
        -11   -1    0    0    0    0  0.00000000000E+00  0.00000000000E+00  0.50000000000E+03  0.50000000000E+03  0.00000000000E+00 0. -1.
         11   -1    0    0    0    0 -0.00000000000E+00 -0.00000000000E+00 -0.50000000000E+03  0.50000000000E+03  0.00000000000E+00 0. -1.
        -11    1    1    2    0    0  0.23317874262E+01  0.85596279497E+01  0.44568489350E+03  0.44577318084E+03  0.00000000000E+00 0. -1.
         11    1    1    2    0    0  0.15898230382E+02 -0.20824975802E+02 -0.48665891186E+03  0.48736365256E+03  0.00000000000E+00 0. -1.
        -15    1    1    2    0    0 -0.43448370106E+01  0.17708917822E+02 -0.45905998259E+01  0.18886892672E+02  0.17770000000E+01 0. -1.
         15    1    1    2    0    0 -0.13885180798E+02 -0.54435699696E+01  0.45564618185E+02  0.47976273919E+02  0.17770000000E+01 0.  1.
</event>
<event>
 6    1  0.3411206E-003  0.5269504E+03  0.7546771E-02  0.9341447E-01
        -11   -1    0    0    0    0  0.00000000000E+00  0.00000000000E+00  0.50000000000E+03  0.50000000000E+03  0.00000000000E+00 0. -1.
         11   -1    0    0    0    0 -0.00000000000E+00 -0.00000000000E+00 -0.50000000000E+03  0.50000000000E+03  0.00000000000E+00 0.  1.
        -11    1    1    2    0    0  0.10475241038E+02 -0.33089012957E+01  0.47292204587E+03  0.47304961787E+03  0.00000000000E+00 0. -1.
         11    1    1    2    0    0 -0.10901752574E+02 -0.12818923932E+02 -0.36945256065E+03  0.36983559535E+03  0.00000000000E+00 0.  1.
        -15    1    1    2    0    0 -0.22030787197E+02  0.29194743671E+02  0.12163847914E+02  0.38585043315E+02  0.17770000000E+01 0. -1.
         15    1    1    2    0    0  0.22457298733E+02 -0.13066918443E+02 -0.11563333313E+03  0.11852974346E+03  0.17770000000E+01 0.  1.
</event>
<event>
 6    1  0.3411206E-003  0.5035798E+03  0.7546771E-02  0.9391835E-01
        -11   -1    0    0    0    0  0.00000000000E+00  0.00000000000E+00  0.50000000000E+03  0.50000000000E+03  0.00000000000E+00 0.  1.
         11   -1    0    0    0    0 -0.00000000000E+00 -0.00000000000E+00 -0.50000000000E+03  0.50000000000E+03  0.00000000000E+00 0. -1.
        -11    1    1    2    0    0 -0.89088874035E+01 -0.12229405621E+01  0.49633878188E+03  0.49642023554E+03  0.00000000000E+00 0.  1.
         11    1    1    2    0    0 -0.10459234423E+02  0.34397755979E+01 -0.46658872544E+03  0.46671861581E+03  0.00000000000E+00 0. -1.
        -15    1    1    2    0    0  0.18740693035E+02 -0.21895511146E+01 -0.29346091122E+02  0.34933629967E+02  0.17770000000E+01 0. -1.
         15    1    1    2    0    0  0.62742879142E+00 -0.27283921208E-01 -0.40396531805E+00  0.19275186844E+01  0.17770000000E+01 0.  1.
</event>
<event>
 6    1  0.3411206E-003  0.5022947E+03  0.7546771E-02  0.9394690E-01
        -11   -1    0    0    0    0  0.00000000000E+00  0.00000000000E+00  0.50000000000E+03  0.50000000000E+03  0.00000000000E+00 0.  1.
         11   -1    0    0    0    0 -0.00000000000E+00 -0.00000000000E+00 -0.50000000000E+03  0.50000000000E+03  0.00000000000E+00 0. -1.
        -11    1    1    2    0    0  0.13224155081E+02 -0.69995427805E+00  0.26458907913E+03  0.26492026915E+03  0.00000000000E+00 0.  1.
         11    1    1    2    0    0  0.87775432713E+01 -0.44231124981E+00 -0.49762772312E+03  0.49770532619E+03  0.00000000000E+00 0. -1.
        -15    1    1    2    0    0 -0.58960041033E+01  0.13016014207E+01  0.33787914684E+01  0.71435979333E+01  0.17770000000E+01 0.  1.
         15    1    1    2    0    0 -0.16105694248E+02 -0.15933589279E+00  0.22965985252E+03  0.23023080673E+03  0.17770000000E+01 0. -1.
</event>
<event>
 6    1  0.3411206E-003  0.5032445E+03  0.7546771E-02  0.9392579E-01
        -11   -1    0    0    0    0  0.00000000000E+00  0.00000000000E+00  0.50000000000E+03  0.50000000000E+03  0.00000000000E+00 0. -1.
         11   -1    0    0    0    0 -0.00000000000E+00 -0.00000000000E+00 -0.50000000000E+03  0.50000000000E+03  0.00000000000E+00 0. -1.
        -11    1    1    2    0    0 -0.46763140958E+01 -0.76512923291E+01  0.49667455445E+03  0.49675549642E+03  0.00000000000E+00 0. -1.
         11    1    1    2    0    0  0.10681204047E+01 -0.78778871339E+01 -0.42614911401E+03  0.42622326234E+03  0.00000000000E+00 0. -1.
        -15    1    1    2    0    0  0.59211590085E+00  0.71594391338E+01 -0.66808341436E+02  0.67216965004E+02  0.17770000000E+01 0.  1.
         15    1    1    2    0    0  0.30160777902E+01  0.83697403291E+01 -0.37170989994E+01  0.98042762295E+01  0.17770000000E+01 0. -1.
</event>
<event>
 6    1  0.3411206E-003  0.5351464E+03  0.7546771E-02  0.9324429E-01
        -11   -1    0    0    0    0  0.00000000000E+00  0.00000000000E+00  0.50000000000E+03  0.50000000000E+03  0.00000000000E+00 0.  1.
         11   -1    0    0    0    0 -0.00000000000E+00 -0.00000000000E+00 -0.50000000000E+03  0.50000000000E+03  0.00000000000E+00 0. -1.
        -11    1    1    2    0    0  0.12572936749E+02 -0.22870907518E+02  0.46412039066E+03  0.46485362662E+03  0.00000000000E+00 0.  1.
         11    1    1    2    0    0  0.55152099598E+00  0.87655091353E+01 -0.43409302516E+03  0.43418186607E+03  0.00000000000E+00 0. -1.
        -15    1    1    2    0    0 -0.21166019224E+02  0.32779831956E+02  0.22174000907E+02  0.44915050908E+02  0.17770000000E+01 0.  1.
         15    1    1    2    0    0  0.80415614795E+01 -0.18674433573E+02 -0.52201366404E+02  0.56049456409E+02  0.17770000000E+01 0. -1.
</event>
<event>
 6    1  0.3411206E-003  0.5099768E+03  0.7546771E-02  0.9377759E-01
        -11   -1    0    0    0    0  0.00000000000E+00  0.00000000000E+00  0.50000000000E+03  0.50000000000E+03  0.00000000000E+00 0. -1.
         11   -1    0    0    0    0 -0.00000000000E+00 -0.00000000000E+00 -0.50000000000E+03  0.50000000000E+03  0.00000000000E+00 0. -1.
        -11    1    1    2    0    0  0.22681602544E+02  0.16819740926E+02  0.48920897683E+03  0.49002324617E+03  0.00000000000E+00 0. -1.
         11    1    1    2    0    0 -0.61969295449E+01 -0.11729130307E+02 -0.47708037586E+03  0.47726476873E+03  0.00000000000E+00 0. -1.
        -15    1    1    2    0    0 -0.17202816370E+02 -0.74349013465E+01 -0.18038053420E+02  0.26071895775E+02  0.17770000000E+01 0. -1.
         15    1    1    2    0    0  0.71814337162E+00  0.23442907280E+01  0.59094524589E+01  0.66400893280E+01  0.17770000000E+01 0.  1.
</event>
<event>
 6    1  0.3411206E-003  0.5334105E+03  0.7546771E-02  0.9328006E-01
        -11   -1    0    0    0    0  0.00000000000E+00  0.00000000000E+00  0.50000000000E+03  0.50000000000E+03  0.00000000000E+00 0.  1.
         11   -1    0    0    0    0 -0.00000000000E+00 -0.00000000000E+00 -0.50000000000E+03  0.50000000000E+03  0.00000000000E+00 0. -1.
        -11    1    1    2    0    0  0.31988075971E+02 -0.43962815497E+01  0.43509359167E+03  0.43629003864E+03  0.00000000000E+00 0.  1.
         11    1    1    2    0    0 -0.75846991927E+01  0.19514573486E+02 -0.46611955315E+03  0.46658952418E+03  0.00000000000E+00 0. -1.
        -15    1    1    2    0    0 -0.35565797353E+02 -0.93504868434E+01  0.57204528289E+02  0.68028474416E+02  0.17770000000E+01 0.  1.
         15    1    1    2    0    0  0.11162420574E+02 -0.57678050929E+01 -0.26178566812E+02  0.29091962773E+02  0.17770000000E+01 0. -1.
</event>
<event>
 6    1  0.3411206E-003  0.5025016E+03  0.7546771E-02  0.9394230E-01
        -11   -1    0    0    0    0  0.00000000000E+00  0.00000000000E+00  0.50000000000E+03  0.50000000000E+03  0.00000000000E+00 0. -1.
         11   -1    0    0    0    0 -0.00000000000E+00 -0.00000000000E+00 -0.50000000000E+03  0.50000000000E+03  0.00000000000E+00 0.  1.
        -11    1    1    2    0    0 -0.66785037067E+01 -0.49044328837E+01  0.49742941660E+03  0.49749842249E+03  0.00000000000E+00 0. -1.
         11    1    1    2    0    0 -0.36292645606E+01 -0.11678389776E+01 -0.21174789757E+03  0.21178221723E+03  0.00000000000E+00 0.  1.
        -15    1    1    2    0    0  0.27952372122E+02  0.81946486905E+01 -0.99729809904E+02  0.10391188617E+03  0.17770000000E+01 0.  1.
         15    1    1    2    0    0 -0.17644603855E+02 -0.21223768292E+01 -0.18595170913E+03  0.18680747411E+03  0.17770000000E+01 0. -1.
</event>
<event>
 6    1  0.3411206E-003  0.4659973E+03  0.7546771E-02  0.9479282E-01
        -11   -1    0    0    0    0  0.00000000000E+00  0.00000000000E+00  0.50000000000E+03  0.50000000000E+03  0.00000000000E+00 0.  1.
         11   -1    0    0    0    0 -0.00000000000E+00 -0.00000000000E+00 -0.50000000000E+03  0.50000000000E+03  0.00000000000E+00 0.  1.
        -11    1    1    2    0    0  0.22737980095E+02  0.13392955977E+00  0.45845083847E+03  0.45901438427E+03  0.00000000000E+00 0.  1.
         11    1    1    2    0    0 -0.30954247814E+02 -0.25877237881E+02 -0.47174441133E+03  0.47346656325E+03  0.00000000000E+00 0.  1.
        -15    1    1    2    0    0  0.32515457906E+02  0.88644098501E+01 -0.26691562245E+01  0.33854318614E+02  0.17770000000E+01 0. -1.
         15    1    1    2    0    0 -0.24299190187E+02  0.16878898471E+02  0.15962729086E+02  0.33664733865E+02  0.17770000000E+01 0.  1.
</event>
<event>
 6    1  0.3411206E-003  0.5014653E+03  0.7546771E-02  0.9396537E-01
        -11   -1    0    0    0    0  0.00000000000E+00  0.00000000000E+00  0.50000000000E+03  0.50000000000E+03  0.00000000000E+00 0.  1.
         11   -1    0    0    0    0 -0.00000000000E+00 -0.00000000000E+00 -0.50000000000E+03  0.50000000000E+03  0.00000000000E+00 0.  1.
        -11    1    1    2    0    0  0.14052838972E+02 -0.39000703068E+01  0.49832134604E+03  0.49853470968E+03  0.00000000000E+00 0.  1.
         11    1    1    2    0    0  0.35327077823E+01 -0.38982148937E+01 -0.37506566358E+03  0.37510255678E+03  0.00000000000E+00 0.  1.
        -15    1    1    2    0    0  0.19371816990E+01  0.54364805537E+01 -0.12760735923E+02  0.14117439712E+02  0.17770000000E+01 0. -1.
         15    1    1    2    0    0 -0.19522728453E+02  0.23618046468E+01 -0.11049494654E+03  0.11224529383E+03  0.17770000000E+01 0.  1.
</event>
<event>
 6    1  0.3411206E-003  0.5040877E+03  0.7546771E-02  0.9390709E-01
        -11   -1    0    0    0    0  0.00000000000E+00  0.00000000000E+00  0.50000000000E+03  0.50000000000E+03  0.00000000000E+00 0. -1.
         11   -1    0    0    0    0 -0.00000000000E+00 -0.00000000000E+00 -0.50000000000E+03  0.50000000000E+03  0.00000000000E+00 0.  1.
        -11    1    1    2    0    0 -0.11133888670E+02  0.12890458320E+02  0.49561974366E+03  0.49591234880E+03  0.00000000000E+00 0. -1.
         11    1    1    2    0    0  0.12189001516E+02  0.48060397070E+01 -0.39526597824E+03  0.39548307591E+03  0.00000000000E+00 0.  1.
        -15    1    1    2    0    0  0.42725490534E+01 -0.28140266663E+02 -0.58150306893E+02  0.64766852664E+02  0.17770000000E+01 0. -1.
         15    1    1    2    0    0 -0.53276618990E+01  0.10443768636E+02 -0.42203458526E+02  0.43837722628E+02  0.17770000000E+01 0.  1.
</event>
<event>
 6    1  0.3411206E-003  0.5002707E+03  0.7546771E-02  0.9399204E-01
        -11   -1    0    0    0    0  0.00000000000E+00  0.00000000000E+00  0.50000000000E+03  0.50000000000E+03  0.00000000000E+00 0.  1.
         11   -1    0    0    0    0 -0.00000000000E+00 -0.00000000000E+00 -0.50000000000E+03  0.50000000000E+03  0.00000000000E+00 0. -1.
        -11    1    1    2    0    0 -0.17395344077E+01 -0.65286701306E+01  0.49968357967E+03  0.49972925601E+03  0.00000000000E+00 0.  1.
         11    1    1    2    0    0  0.14657049847E+01  0.31149189743E+01 -0.89382118880E+02  0.89448388397E+02  0.00000000000E+00 0. -1.
        -15    1    1    2    0    0  0.66331479045E+01 -0.48821044794E+01 -0.10525995132E+03  0.10559663194E+03  0.17770000000E+01 0.  1.
         15    1    1    2    0    0 -0.63593184816E+01  0.82958556357E+01 -0.30504150947E+03  0.30522572366E+03  0.17770000000E+01 0. -1.
</event>
<event>
 6    1  0.3411206E-003  0.5009488E+03  0.7546771E-02  0.9397689E-01
        -11   -1    0    0    0    0  0.00000000000E+00  0.00000000000E+00  0.50000000000E+03  0.50000000000E+03  0.00000000000E+00 0. -1.
         11   -1    0    0    0    0 -0.00000000000E+00 -0.00000000000E+00 -0.50000000000E+03  0.50000000000E+03  0.00000000000E+00 0. -1.
        -11    1    1    2    0    0 -0.12757321773E+02  0.60947504213E+01  0.34786423354E+03  0.34815143288E+03  0.00000000000E+00 0. -1.
         11    1    1    2    0    0  0.11791391592E+02  0.69412349204E+01 -0.49886355104E+03  0.49905115991E+03  0.00000000000E+00 0. -1.
        -15    1    1    2    0    0 -0.63096529083E+01 -0.14342524606E+02  0.10183898601E+03  0.10305268814E+03  0.17770000000E+01 0.  1.
         15    1    1    2    0    0  0.72755830893E+01  0.13065392642E+01  0.49160331486E+02  0.49744719066E+02  0.17770000000E+01 0. -1.
</event>
<event>
 6    1  0.3411206E-003  0.5815616E+03  0.7546771E-02  0.9233791E-01
        -11   -1    0    0    0    0  0.00000000000E+00  0.00000000000E+00  0.50000000000E+03  0.50000000000E+03  0.00000000000E+00 0. -1.
         11   -1    0    0    0    0 -0.00000000000E+00 -0.00000000000E+00 -0.50000000000E+03  0.50000000000E+03  0.00000000000E+00 0. -1.
        -11    1    1    2    0    0  0.51778098617E+02 -0.12778820059E+02  0.31757879759E+03  0.32202571701E+03  0.00000000000E+00 0. -1.
         11    1    1    2    0    0  0.61338551718E+01 -0.35696895442E+01 -0.41837822297E+03  0.41843841162E+03  0.00000000000E+00 0. -1.
        -15    1    1    2    0    0 -0.70246630949E+02  0.72068037144E+01  0.17238744906E+03  0.18629846350E+03  0.17770000000E+01 0. -1.
         15    1    1    2    0    0  0.12334677160E+02  0.91417058889E+01 -0.71588023687E+02  0.73237407871E+02  0.17770000000E+01 0.  1.
</event>
<event>
 6    1  0.3411206E-003  0.5083945E+03  0.7546771E-02  0.9381220E-01
        -11   -1    0    0    0    0  0.00000000000E+00  0.00000000000E+00  0.50000000000E+03  0.50000000000E+03  0.00000000000E+00 0. -1.
         11   -1    0    0    0    0 -0.00000000000E+00 -0.00000000000E+00 -0.50000000000E+03  0.50000000000E+03  0.00000000000E+00 0. -1.
        -11    1    1    2    0    0 -0.32643841638E+00  0.97306667966E+01  0.19488379324E+03  0.19512684414E+03  0.00000000000E+00 0. -1.
         11    1    1    2    0    0 -0.89838484031E+00  0.17395232508E+02 -0.49129680510E+03  0.49160548401E+03  0.00000000000E+00 0. -1.
        -15    1    1    2    0    0  0.11306560713E+02 -0.20416907029E+02  0.82090486212E+01  0.24803923400E+02  0.17770000000E+01 0.  1.
         15    1    1    2    0    0 -0.10081737457E+02 -0.67089922757E+01  0.28820396325E+03  0.28846374844E+03  0.17770000000E+01 0. -1.
</event>
<event>
 6    1  0.3411206E-003  0.5014593E+03  0.7546771E-02  0.9396550E-01
        -11   -1    0    0    0    0  0.00000000000E+00  0.00000000000E+00  0.50000000000E+03  0.50000000000E+03  0.00000000000E+00 0. -1.
         11   -1    0    0    0    0 -0.00000000000E+00 -0.00000000000E+00 -0.50000000000E+03  0.50000000000E+03  0.00000000000E+00 0. -1.
        -11    1    1    2    0    0  0.64610083868E+01  0.16820215309E+02  0.22675819279E+03  0.22747294843E+03  0.00000000000E+00 0. -1.
         11    1    1    2    0    0 -0.53232610217E+01 -0.20946731341E+02 -0.49807202870E+03  0.49854071893E+03  0.00000000000E+00 0. -1.
        -15    1    1    2    0    0 -0.52880830207E+01 -0.13060841166E+02  0.19956010870E+03  0.20006484975E+03  0.17770000000E+01 0.  1.
         15    1    1    2    0    0  0.41503356556E+01  0.17187357198E+02  0.71753727214E+02  0.73921482883E+02  0.17770000000E+01 0. -1.
</event>
<event>
 6    1  0.3411206E-003  0.5013154E+03  0.7546771E-02  0.9396871E-01
        -11   -1    0    0    0    0  0.00000000000E+00  0.00000000000E+00  0.50000000000E+03  0.50000000000E+03  0.00000000000E+00 0. -1.
         11   -1    0    0    0    0 -0.00000000000E+00 -0.00000000000E+00 -0.50000000000E+03  0.50000000000E+03  0.00000000000E+00 0.  1.
        -11    1    1    2    0    0  0.10757568840E+02  0.21934001203E+01  0.49856375748E+03  0.49868462636E+03  0.00000000000E+00 0. -1.
         11    1    1    2    0    0  0.44530713345E+01 -0.33707918417E+01 -0.41066313288E+03  0.41070110882E+03  0.00000000000E+00 0.  1.
        -15    1    1    2    0    0 -0.16750199507E+01 -0.48911561433E+01 -0.11090516187E+02  0.12364723149E+02  0.17770000000E+01 0.  1.
         15    1    1    2    0    0 -0.13535620223E+02  0.60685478646E+01 -0.76810108416E+02  0.78249541672E+02  0.17770000000E+01 0. -1.
</event>
<event>
 6    1  0.3411206E-003  0.5009492E+03  0.7546771E-02  0.9397688E-01
        -11   -1    0    0    0    0  0.00000000000E+00  0.00000000000E+00  0.50000000000E+03  0.50000000000E+03  0.00000000000E+00 0.  1.
         11   -1    0    0    0    0 -0.00000000000E+00 -0.00000000000E+00 -0.50000000000E+03  0.50000000000E+03  0.00000000000E+00 0.  1.
        -11    1    1    2    0    0 -0.66912837244E+01  0.36266791962E+01  0.23424754132E+03  0.23437115158E+03  0.00000000000E+00 0.  1.
         11    1    1    2    0    0  0.67693265097E+01  0.13023609845E+02 -0.49883487214E+03  0.49905076682E+03  0.00000000000E+00 0.  1.
        -15    1    1    2    0    0 -0.16685690533E+01 -0.97931118040E+01  0.25073957656E+03  0.25094258735E+03  0.17770000000E+01 0.  1.
         15    1    1    2    0    0  0.15905262681E+01 -0.68571772375E+01  0.13847754264E+02  0.15635494256E+02  0.17770000000E+01 0. -1.
</event>
<event>
 6    1  0.3411206E-003  0.5251021E+03  0.7546771E-02  0.9345330E-01
        -11   -1    0    0    0    0  0.00000000000E+00  0.00000000000E+00  0.50000000000E+03  0.50000000000E+03  0.00000000000E+00 0.  1.
         11   -1    0    0    0    0 -0.00000000000E+00 -0.00000000000E+00 -0.50000000000E+03  0.50000000000E+03  0.00000000000E+00 0. -1.
        -11    1    1    2    0    0 -0.29902109621E+02  0.14885968177E+02  0.95211447830E+02  0.10090068387E+03  0.00000000000E+00 0.  1.
         11    1    1    2    0    0 -0.37929713717E+02 -0.14339042302E+02 -0.47316356632E+03  0.47489791725E+03  0.00000000000E+00 0. -1.
        -15    1    1    2    0    0 -0.10462381899E+02 -0.69155144674E+02  0.69359161669E+02  0.98517747165E+02  0.17770000000E+01 0.  1.
         15    1    1    2    0    0  0.78294205238E+02  0.68608218799E+02  0.30859295682E+03  0.32568365171E+03  0.17770000000E+01 0. -1.
</event>
<event>
 6    1  0.3411206E-003  0.5018112E+03  0.7546771E-02  0.9395766E-01
        -11   -1    0    0    0    0  0.00000000000E+00  0.00000000000E+00  0.50000000000E+03  0.50000000000E+03  0.00000000000E+00 0. -1.
         11   -1    0    0    0    0 -0.00000000000E+00 -0.00000000000E+00 -0.50000000000E+03  0.50000000000E+03  0.00000000000E+00 0. -1.
        -11    1    1    2    0    0 -0.40449288130E+00 -0.76661934432E+01  0.49812969242E+03  0.49818884432E+03  0.00000000000E+00 0. -1.
         11    1    1    2    0    0  0.29333896281E+01  0.17645324682E+02 -0.36694125151E+03  0.36737697848E+03  0.00000000000E+00 0. -1.
        -15    1    1    2    0    0 -0.61552692856E+01 -0.12361193363E+02 -0.12802128706E+03  0.12877613953E+03  0.17770000000E+01 0. -1.
         15    1    1    2    0    0  0.36263725388E+01  0.23820621248E+01 -0.31671538496E+01  0.56580376689E+01  0.17770000000E+01 0.  1.
</event>
<event>
 6    1  0.3411206E-003  0.4349443E+03  0.7546771E-02  0.9558438E-01
        -11   -1    0    0    0    0  0.00000000000E+00  0.00000000000E+00  0.50000000000E+03  0.50000000000E+03  0.00000000000E+00 0. -1.
         11   -1    0    0    0    0 -0.00000000000E+00 -0.00000000000E+00 -0.50000000000E+03  0.50000000000E+03  0.00000000000E+00 0. -1.
        -11    1    1    2    0    0  0.97932957874E+01 -0.86147319056E+01  0.44606592245E+03  0.44625657353E+03  0.00000000000E+00 0. -1.
         11    1    1    2    0    0  0.93519502502E+01 -0.20478873017E+02 -0.42401103553E+03  0.42460829180E+03  0.00000000000E+00 0. -1.
        -15    1    1    2    0    0 -0.14165941570E+02  0.13805387285E+02  0.50779992806E+02  0.54525480438E+02  0.17770000000E+01 0.  1.
         15    1    1    2    0    0 -0.49793044673E+01  0.15288217637E+02 -0.72834879724E+02  0.74609654234E+02  0.17770000000E+01 0. -1.
</event>
<event>
 6    1  0.3411206E-003  0.5058999E+03  0.7546771E-02  0.9386704E-01
        -11   -1    0    0    0    0  0.00000000000E+00  0.00000000000E+00  0.50000000000E+03  0.50000000000E+03  0.00000000000E+00 0.  1.
         11   -1    0    0    0    0 -0.00000000000E+00 -0.00000000000E+00 -0.50000000000E+03  0.50000000000E+03  0.00000000000E+00 0. -1.
        -11    1    1    2    0    0  0.62787453655E+01 -0.78312016555E+00  0.46006576361E+03  0.46010927264E+03  0.00000000000E+00 0.  1.
         11    1    1    2    0    0  0.59799854555E+01 -0.80913489392E+01 -0.49399762030E+03  0.49410006984E+03  0.00000000000E+00 0. -1.
        -15    1    1    2    0    0 -0.89008386391E+01 -0.90903750462E+00  0.34094979831E+02  0.35294144788E+02  0.17770000000E+01 0.  1.
         15    1    1    2    0    0 -0.33578921820E+01  0.97835066094E+01 -0.16312314713E+00  0.10496512737E+02  0.17770000000E+01 0.  1.
</event>
<event>
 6    1  0.3411206E-003  0.5016148E+03  0.7546771E-02  0.9396204E-01
        -11   -1    0    0    0    0  0.00000000000E+00  0.00000000000E+00  0.50000000000E+03  0.50000000000E+03  0.00000000000E+00 0. -1.
         11   -1    0    0    0    0 -0.00000000000E+00 -0.00000000000E+00 -0.50000000000E+03  0.50000000000E+03  0.00000000000E+00 0. -1.
        -11    1    1    2    0    0  0.73178357793E+01  0.11137015497E+02  0.49820703243E+03  0.49838522349E+03  0.00000000000E+00 0. -1.
         11    1    1    2    0    0  0.54805994095E+01  0.31022889597E+01 -0.42092092151E+03  0.42096803125E+03  0.00000000000E+00 0. -1.
        -15    1    1    2    0    0 -0.14734132669E+02 -0.96035361133E+01 -0.57524596423E+02  0.60179394265E+02  0.17770000000E+01 0.  1.
         15    1    1    2    0    0  0.19356974803E+01 -0.46357683438E+01 -0.19761514492E+02  0.20467350998E+02  0.17770000000E+01 0. -1.
</event>
<event>
 6    1  0.3411206E-003  0.5031390E+03  0.7546771E-02  0.9392813E-01
        -11   -1    0    0    0    0  0.00000000000E+00  0.00000000000E+00  0.50000000000E+03  0.50000000000E+03  0.00000000000E+00 0. -1.
         11   -1    0    0    0    0 -0.00000000000E+00 -0.00000000000E+00 -0.50000000000E+03  0.50000000000E+03  0.00000000000E+00 0.  1.
        -11    1    1    2    0    0  0.21293816102E+02  0.66157962850E+01  0.10920193375E+03  0.11145518247E+03  0.00000000000E+00 0. -1.
         11    1    1    2    0    0 -0.37665727638E+02  0.21301218795E+02 -0.49497316908E+03  0.49686103396E+03  0.00000000000E+00 0.  1.
        -15    1    1    2    0    0 -0.15802829313E+02 -0.14090695816E+02  0.26701438671E+03  0.26785839088E+03  0.17770000000E+01 0. -1.
         15    1    1    2    0    0  0.32174740848E+02 -0.13826319264E+02  0.11875684862E+03  0.12382539269E+03  0.17770000000E+01 0.  1.
</event>
<event>
 6    1  0.3411206E-003  0.5037693E+03  0.7546771E-02  0.9391415E-01
        -11   -1    0    0    0    0  0.00000000000E+00  0.00000000000E+00  0.50000000000E+03  0.50000000000E+03  0.00000000000E+00 0. -1.
         11   -1    0    0    0    0 -0.00000000000E+00 -0.00000000000E+00 -0.50000000000E+03  0.50000000000E+03  0.00000000000E+00 0. -1.
        -11    1    1    2    0    0  0.79790574987E+01 -0.48989344988E+01  0.36381234689E+03  0.36393280790E+03  0.00000000000E+00 0. -1.
         11    1    1    2    0    0  0.15087524290E+02  0.48437351351E+01 -0.49597761210E+03  0.49623067909E+03  0.00000000000E+00 0. -1.
        -15    1    1    2    0    0 -0.18683962066E+02  0.13668066446E+00  0.13358585103E+03  0.13489791120E+03  0.17770000000E+01 0.  1.
         15    1    1    2    0    0 -0.43826197226E+01 -0.81481300712E-01 -0.14205858169E+01  0.49386018161E+01  0.17770000000E+01 0. -1.
</event>
<event>
 6    1  0.3411206E-003  0.5019983E+03  0.7546771E-02  0.9395349E-01
        -11   -1    0    0    0    0  0.00000000000E+00  0.00000000000E+00  0.50000000000E+03  0.50000000000E+03  0.00000000000E+00 0. -1.
         11   -1    0    0    0    0 -0.00000000000E+00 -0.00000000000E+00 -0.50000000000E+03  0.50000000000E+03  0.00000000000E+00 0.  1.
        -11    1    1    2    0    0  0.70461166491E+01  0.70959121499E+01  0.46395862525E+03  0.46406638068E+03  0.00000000000E+00 0. -1.
         11    1    1    2    0    0 -0.63825227684E+01  0.22848714156E+01 -0.49795558358E+03  0.49800172735E+03  0.00000000000E+00 0.  1.
        -15    1    1    2    0    0 -0.39415092073E+01 -0.80945996003E+01  0.32403581057E+02  0.33678002195E+02  0.17770000000E+01 0.  1.
         15    1    1    2    0    0  0.32779153266E+01 -0.12861839652E+01  0.15933772637E+01  0.42538897712E+01  0.17770000000E+01 0. -1.
</event>
<event>
 6    1  0.3411206E-003  0.5085584E+03  0.7546771E-02  0.9380861E-01
        -11   -1    0    0    0    0  0.00000000000E+00  0.00000000000E+00  0.50000000000E+03  0.50000000000E+03  0.00000000000E+00 0.  1.
         11   -1    0    0    0    0 -0.00000000000E+00 -0.00000000000E+00 -0.50000000000E+03  0.50000000000E+03  0.00000000000E+00 0.  1.
        -11    1    1    2    0    0 -0.80835165014E+01  0.17617396503E+02  0.49105918623E+03  0.49144159396E+03  0.00000000000E+00 0.  1.
         11    1    1    2    0    0  0.65387859786E+01 -0.12423594969E+01 -0.48020113131E+03  0.48024725474E+03  0.00000000000E+00 0.  1.
        -15    1    1    2    0    0  0.43041929948E+01 -0.20406494072E+02 -0.82908938903E+01  0.22513278929E+02  0.17770000000E+01 0. -1.
         15    1    1    2    0    0 -0.27594624720E+01  0.40314570661E+01 -0.25671610315E+01  0.57978723660E+01  0.17770000000E+01 0.  1.
</event>
<event>
 6    1  0.3411206E-003  0.5232857E+03  0.7546771E-02  0.9349163E-01
        -11   -1    0    0    0    0  0.00000000000E+00  0.00000000000E+00  0.50000000000E+03  0.50000000000E+03  0.00000000000E+00 0.  1.
         11   -1    0    0    0    0 -0.00000000000E+00 -0.00000000000E+00 -0.50000000000E+03  0.50000000000E+03  0.00000000000E+00 0. -1.
        -11    1    1    2    0    0  0.53411807332E+02  0.14056216339E+02  0.34803215618E+03  0.35238725873E+03  0.00000000000E+00 0.  1.
         11    1    1    2    0    0  0.21146740746E+02 -0.39658468837E+01 -0.47622855774E+03  0.47671432934E+03  0.00000000000E+00 0. -1.
        -15    1    1    2    0    0 -0.55303089901E+02 -0.37290332592E+02  0.11875339611E+03  0.13621500458E+03  0.17770000000E+01 0.  1.
         15    1    1    2    0    0 -0.19255458177E+02  0.27199963137E+02  0.94430054570E+01  0.34683407349E+02  0.17770000000E+01 0. -1.
</event>
<event>
 6    1  0.3411206E-003  0.5012910E+03  0.7546771E-02  0.9396926E-01
        -11   -1    0    0    0    0  0.00000000000E+00  0.00000000000E+00  0.50000000000E+03  0.50000000000E+03  0.00000000000E+00 0. -1.
         11   -1    0    0    0    0 -0.00000000000E+00 -0.00000000000E+00 -0.50000000000E+03  0.50000000000E+03  0.00000000000E+00 0.  1.
        -11    1    1    2    0    0  0.42927390956E+01  0.58155907243E+01  0.49865665012E+03  0.49870903683E+03  0.00000000000E+00 0. -1.
         11    1    1    2    0    0  0.39947316582E+01  0.56839082022E+01 -0.44798214835E+03  0.44803601410E+03  0.00000000000E+00 0.  1.
        -15    1    1    2    0    0 -0.66635741541E+01 -0.12026261234E+02 -0.44396296813E+02  0.46510462044E+02  0.17770000000E+01 0. -1.
         15    1    1    2    0    0 -0.16238965996E+01  0.52676230771E+00 -0.62782049612E+01  0.67444870250E+01  0.17770000000E+01 0. -1.
</event>
<event>
 6    1  0.3411206E-003  0.5005304E+03  0.7546771E-02  0.9398624E-01
        -11   -1    0    0    0    0  0.00000000000E+00  0.00000000000E+00  0.50000000000E+03  0.50000000000E+03  0.00000000000E+00 0.  1.
         11   -1    0    0    0    0 -0.00000000000E+00 -0.00000000000E+00 -0.50000000000E+03  0.50000000000E+03  0.00000000000E+00 0.  1.
        -11    1    1    2    0    0  0.15671812666E+01  0.37152278644E+01  0.21611382111E+03  0.21615143453E+03  0.00000000000E+00 0.  1.
         11    1    1    2    0    0  0.59722398155E+01  0.51461527362E+01 -0.49940734657E+03  0.49946956698E+03  0.00000000000E+00 0.  1.
        -15    1    1    2    0    0 -0.32246328815E+01 -0.89308099374E+01  0.27183436534E+03  0.27200595128E+03  0.17770000000E+01 0.  1.
         15    1    1    2    0    0 -0.43147882007E+01  0.69429336878E-01  0.11459160117E+02  0.12373047209E+02  0.17770000000E+01 0. -1.
</event>
<event>
 6    1  0.3411206E-003  0.5315402E+03  0.7546771E-02  0.9331876E-01
        -11   -1    0    0    0    0  0.00000000000E+00  0.00000000000E+00  0.50000000000E+03  0.50000000000E+03  0.00000000000E+00 0. -1.
         11   -1    0    0    0    0 -0.00000000000E+00 -0.00000000000E+00 -0.50000000000E+03  0.50000000000E+03  0.00000000000E+00 0.  1.
        -11    1    1    2    0    0  0.15185226001E+02 -0.35408758150E+02  0.46687277690E+03  0.46845977527E+03  0.00000000000E+00 0. -1.
         11    1    1    2    0    0  0.33716873533E+02  0.10311490033E+02 -0.36855854989E+03  0.37024121743E+03  0.00000000000E+00 0.  1.
        -15    1    1    2    0    0 -0.78573131424E+01 -0.13569876725E+02  0.22777071629E+02  0.27709775263E+02  0.17770000000E+01 0.  1.
         15    1    1    2    0    0 -0.41044786392E+02  0.38667144843E+02 -0.12109129863E+03  0.13358923203E+03  0.17770000000E+01 0. -1.
</event>
<event>
 6    1  0.3411206E-003  0.5013142E+03  0.7546771E-02  0.9396874E-01
        -11   -1    0    0    0    0  0.00000000000E+00  0.00000000000E+00  0.50000000000E+03  0.50000000000E+03  0.00000000000E+00 0. -1.
         11   -1    0    0    0    0 -0.00000000000E+00 -0.00000000000E+00 -0.50000000000E+03  0.50000000000E+03  0.00000000000E+00 0. -1.
        -11    1    1    2    0    0  0.15757345761E+02 -0.21988760587E+01  0.49843193347E+03  0.49868579417E+03  0.00000000000E+00 0. -1.
         11    1    1    2    0    0  0.13642185841E+01 -0.39141950346E+01 -0.22586306719E+03  0.22590110034E+03  0.00000000000E+00 0. -1.
        -15    1    1    2    0    0 -0.13411824405E+02  0.38544106364E+01 -0.26936254108E+03  0.26972962348E+03  0.17770000000E+01 0. -1.
         15    1    1    2    0    0 -0.37097399392E+01  0.22586604568E+01 -0.32063252041E+01  0.56834820129E+01  0.17770000000E+01 0.  1.
</event>
<event>
 6    1  0.3411206E-003  0.5005034E+03  0.7546771E-02  0.9398684E-01
        -11   -1    0    0    0    0  0.00000000000E+00  0.00000000000E+00  0.50000000000E+03  0.50000000000E+03  0.00000000000E+00 0.  1.
         11   -1    0    0    0    0 -0.00000000000E+00 -0.00000000000E+00 -0.50000000000E+03  0.50000000000E+03  0.00000000000E+00 0. -1.
        -11    1    1    2    0    0 -0.29120526982E+01  0.31414920505E+01  0.16281319043E+03  0.16286953061E+03  0.00000000000E+00 0.  1.
         11    1    1    2    0    0  0.15151887339E+02  0.19542924553E+02 -0.49888406328E+03  0.49949656074E+03  0.00000000000E+00 0. -1.
        -15    1    1    2    0    0 -0.14037387487E+02 -0.20974691704E+02  0.32847510115E+03  0.32944807747E+03  0.17770000000E+01 0.  1.
         15    1    1    2    0    0  0.17975528465E+01 -0.17097249001E+01  0.75957716962E+01  0.81858311814E+01  0.17770000000E+01 0. -1.
</event>
<event>
 6    1  0.3411206E-003  0.5024241E+03  0.7546771E-02  0.9394402E-01
        -11   -1    0    0    0    0  0.00000000000E+00  0.00000000000E+00  0.50000000000E+03  0.50000000000E+03  0.00000000000E+00 0. -1.
         11   -1    0    0    0    0 -0.00000000000E+00 -0.00000000000E+00 -0.50000000000E+03  0.50000000000E+03  0.00000000000E+00 0. -1.
        -11    1    1    2    0    0 -0.85636823228E+01 -0.95024255152E+01  0.49741141618E+03  0.49757587330E+03  0.00000000000E+00 0. -1.
         11    1    1    2    0    0 -0.42156783361E+00  0.93326028109E+01 -0.45708191073E+03  0.45717737074E+03  0.00000000000E+00 0. -1.
        -15    1    1    2    0    0  0.81247289505E+01  0.79893971938E+01 -0.16832830206E+02  0.20404499254E+02  0.17770000000E+01 0. -1.
         15    1    1    2    0    0  0.86052120587E+00 -0.78195744894E+01 -0.23496675239E+02  0.24842256706E+02  0.17770000000E+01 0.  1.
</event>
<event>
 6    1  0.3411206E-003  0.5227729E+03  0.7546771E-02  0.9350247E-01
        -11   -1    0    0    0    0  0.00000000000E+00  0.00000000000E+00  0.50000000000E+03  0.50000000000E+03  0.00000000000E+00 0. -1.
         11   -1    0    0    0    0 -0.00000000000E+00 -0.00000000000E+00 -0.50000000000E+03  0.50000000000E+03  0.00000000000E+00 0.  1.
        -11    1    1    2    0    0  0.33144685628E-01 -0.37399162412E+02  0.44506143575E+03  0.44663002590E+03  0.00000000000E+00 0. -1.
         11    1    1    2    0    0 -0.10190661025E+02  0.30042990615E+01 -0.47710882449E+03  0.47722710086E+03  0.00000000000E+00 0.  1.
        -15    1    1    2    0    0  0.62979182533E+01 -0.49586935704E+00 -0.15605693740E+02  0.16929414250E+02  0.17770000000E+01 0.  1.
         15    1    1    2    0    0  0.38595980856E+01  0.34890732708E+02  0.47653082484E+02  0.59213458990E+02  0.17770000000E+01 0. -1.
</event>
<event>
 6    1  0.3411206E-003  0.5003095E+03  0.7546771E-02  0.9399118E-01
        -11   -1    0    0    0    0  0.00000000000E+00  0.00000000000E+00  0.50000000000E+03  0.50000000000E+03  0.00000000000E+00 0.  1.
         11   -1    0    0    0    0 -0.00000000000E+00 -0.00000000000E+00 -0.50000000000E+03  0.50000000000E+03  0.00000000000E+00 0. -1.
        -11    1    1    2    0    0  0.63926914150E+00 -0.18018848477E+01  0.11916655388E+03  0.11918189048E+03  0.00000000000E+00 0.  1.
         11    1    1    2    0    0  0.16436026863E+02 -0.71157924588E+01 -0.49936945155E+03  0.49969053085E+03  0.00000000000E+00 0. -1.
        -15    1    1    2    0    0  0.74506674947E+00  0.26266658852E+01  0.11957858035E+02  0.12393651437E+02  0.17770000000E+01 0. -1.
         15    1    1    2    0    0 -0.17820362754E+02  0.62910114212E+01  0.36824503963E+03  0.36873392724E+03  0.17770000000E+01 0.  1.
</event>
<event>
 6    1  0.3411206E-003  0.5146211E+03  0.7546771E-02  0.9367675E-01
        -11   -1    0    0    0    0  0.00000000000E+00  0.00000000000E+00  0.50000000000E+03  0.50000000000E+03  0.00000000000E+00 0. -1.
         11   -1    0    0    0    0 -0.00000000000E+00 -0.00000000000E+00 -0.50000000000E+03  0.50000000000E+03  0.00000000000E+00 0. -1.
        -11    1    1    2    0    0 -0.14275606720E+01 -0.13734699232E+02  0.19410517078E+03  0.19459572764E+03  0.00000000000E+00 0. -1.
         11    1    1    2    0    0  0.99035679180E+01 -0.69417773174E+01 -0.48522817238E+03  0.48537887078E+03  0.00000000000E+00 0. -1.
        -15    1    1    2    0    0 -0.38673361878E+02 -0.45608399040E+02  0.12215440442E+03  0.13601695199E+03  0.17770000000E+01 0.  1.
         15    1    1    2    0    0  0.30197354632E+02  0.66284875589E+02  0.16896859718E+03  0.18400844959E+03  0.17770000000E+01 0. -1.
</event>
<event>
 6    1  0.3411206E-003  0.5025742E+03  0.7546771E-02  0.9394068E-01
        -11   -1    0    0    0    0  0.00000000000E+00  0.00000000000E+00  0.50000000000E+03  0.50000000000E+03  0.00000000000E+00 0. -1.
         11   -1    0    0    0    0 -0.00000000000E+00 -0.00000000000E+00 -0.50000000000E+03  0.50000000000E+03  0.00000000000E+00 0.  1.
        -11    1    1    2    0    0 -0.27399666054E+01  0.90578178461E+01  0.49733577317E+03  0.49742579623E+03  0.00000000000E+00 0. -1.
         11    1    1    2    0    0 -0.61929856677E+00  0.78750888062E+01 -0.43503345551E+03  0.43510516886E+03  0.00000000000E+00 0.  1.
        -15    1    1    2    0    0 -0.49205797272E+01 -0.16908095263E+01 -0.45335390960E+01  0.71261242931E+01  0.17770000000E+01 0.  1.
         15    1    1    2    0    0  0.82798448994E+01 -0.15242097126E+02 -0.57768778561E+02  0.60342910617E+02  0.17770000000E+01 0. -1.
</event>
<event>
 6    1  0.3411206E-003  0.5021970E+03  0.7546771E-02  0.9394907E-01
        -11   -1    0    0    0    0  0.00000000000E+00  0.00000000000E+00  0.50000000000E+03  0.50000000000E+03  0.00000000000E+00 0. -1.
         11   -1    0    0    0    0 -0.00000000000E+00 -0.00000000000E+00 -0.50000000000E+03  0.50000000000E+03  0.00000000000E+00 0. -1.
        -11    1    1    2    0    0 -0.32645728337E+01  0.56319848804E+01  0.12256778820E+03  0.12274053688E+03  0.00000000000E+00 0. -1.
         11    1    1    2    0    0  0.11262572081E+02 -0.25350620540E+02 -0.49702950838E+03  0.49780300490E+03  0.00000000000E+00 0. -1.
        -15    1    1    2    0    0 -0.63534850700E+01  0.15406804221E+02  0.25838003649E+02  0.30797671185E+02  0.17770000000E+01 0.  1.
         15    1    1    2    0    0 -0.16445141775E+01  0.43118314380E+01  0.34862371653E+03  0.34865878703E+03  0.17770000000E+01 0. -1.
</event>
<event>
 6    1  0.3411206E-003  0.5087420E+03  0.7546771E-02  0.9380459E-01
        -11   -1    0    0    0    0  0.00000000000E+00  0.00000000000E+00  0.50000000000E+03  0.50000000000E+03  0.00000000000E+00 0. -1.
         11   -1    0    0    0    0 -0.00000000000E+00 -0.00000000000E+00 -0.50000000000E+03  0.50000000000E+03  0.00000000000E+00 0.  1.
        -11    1    1    2    0    0  0.63864931774E+01 -0.11120516179E+02  0.47685620709E+03  0.47702861069E+03  0.00000000000E+00 0. -1.
         11    1    1    2    0    0  0.60517876470E+01 -0.64974076441E+01 -0.49117777076E+03  0.49125802072E+03  0.00000000000E+00 0.  1.
        -15    1    1    2    0    0  0.33969796158E+01  0.10298581718E+01  0.61171538267E+01  0.72922821053E+01  0.17770000000E+01 0.  1.
         15    1    1    2    0    0 -0.15835260440E+02  0.16588065651E+02  0.82044098411E+01  0.24421086485E+02  0.17770000000E+01 0. -1.
</event>
<event>
 6    1  0.3411206E-003  0.5020382E+03  0.7546771E-02  0.9395261E-01
        -11   -1    0    0    0    0  0.00000000000E+00  0.00000000000E+00  0.50000000000E+03  0.50000000000E+03  0.00000000000E+00 0.  1.
         11   -1    0    0    0    0 -0.00000000000E+00 -0.00000000000E+00 -0.50000000000E+03  0.50000000000E+03  0.00000000000E+00 0. -1.
        -11    1    1    2    0    0 -0.44843000953E+00 -0.90331436975E+01  0.49787964105E+03  0.49796178141E+03  0.00000000000E+00 0.  1.
         11    1    1    2    0    0  0.26682530533E+01 -0.14072517638E+02 -0.39464161548E+03  0.39490145606E+03  0.00000000000E+00 0. -1.
        -15    1    1    2    0    0 -0.59432115878E+01  0.16391730298E+02 -0.90321223962E+02  0.92005933576E+02  0.17770000000E+01 0. -1.
         15    1    1    2    0    0  0.37233885440E+01  0.67139310378E+01 -0.12916801604E+02  0.15130828956E+02  0.17770000000E+01 0.  1.
</event>
<event>
 6    1  0.3411206E-003  0.4559876E+03  0.7546771E-02  0.9504062E-01
        -11   -1    0    0    0    0  0.00000000000E+00  0.00000000000E+00  0.50000000000E+03  0.50000000000E+03  0.00000000000E+00 0.  1.
         11   -1    0    0    0    0 -0.00000000000E+00 -0.00000000000E+00 -0.50000000000E+03  0.50000000000E+03  0.00000000000E+00 0.  1.
        -11    1    1    2    0    0 -0.41508697815E+01  0.50823649150E+01  0.45554685030E+03  0.45559410990E+03  0.00000000000E+00 0.  1.
         11    1    1    2    0    0  0.10350081330E+02 -0.30390777752E+01 -0.45627727546E+03  0.45640476803E+03  0.00000000000E+00 0.  1.
        -15    1    1    2    0    0  0.15718979750E+02 -0.35624109705E+02  0.19620561766E+02  0.43638144893E+02  0.17770000000E+01 0.  1.
         15    1    1    2    0    0 -0.21918191298E+02  0.33580822566E+02 -0.18890136611E+02  0.44362977178E+02  0.17770000000E+01 0. -1.
</event>
<event>
 6    1  0.3411206E-003  0.5298734E+03  0.7546771E-02  0.9335340E-01
        -11   -1    0    0    0    0  0.00000000000E+00  0.00000000000E+00  0.50000000000E+03  0.50000000000E+03  0.00000000000E+00 0.  1.
         11   -1    0    0    0    0 -0.00000000000E+00 -0.00000000000E+00 -0.50000000000E+03  0.50000000000E+03  0.00000000000E+00 0.  1.
        -11    1    1    2    0    0 -0.17800122408E+02 -0.13850160296E+01  0.46978746472E+03  0.47012660490E+03  0.00000000000E+00 0.  1.
         11    1    1    2    0    0 -0.10644164679E+02  0.11278737813E+02 -0.21689671257E+03  0.21745043594E+03  0.00000000000E+00 0.  1.
        -15    1    1    2    0    0  0.66448846746E+02  0.42006240003E+02 -0.36546524671E+02  0.86710896822E+02  0.17770000000E+01 0. -1.
         15    1    1    2    0    0 -0.38004559660E+02 -0.51899961787E+02 -0.21634422748E+03  0.22571206233E+03  0.17770000000E+01 0.  1.
</event>
<event>
 6    1  0.3411206E-003  0.5033469E+03  0.7546771E-02  0.9392352E-01
        -11   -1    0    0    0    0  0.00000000000E+00  0.00000000000E+00  0.50000000000E+03  0.50000000000E+03  0.00000000000E+00 0. -1.
         11   -1    0    0    0    0 -0.00000000000E+00 -0.00000000000E+00 -0.50000000000E+03  0.50000000000E+03  0.00000000000E+00 0. -1.
        -11    1    1    2    0    0  0.12862667119E+01  0.78586505451E+01  0.49658922272E+03  0.49665306703E+03  0.00000000000E+00 0. -1.
         11    1    1    2    0    0  0.68044024375E+01 -0.18893856471E+01 -0.27614906100E+03  0.27623934109E+03  0.00000000000E+00 0. -1.
        -15    1    1    2    0    0 -0.74377029108E+01  0.36172658954E+01 -0.21634854567E+03  0.21651386786E+03  0.17770000000E+01 0. -1.
         15    1    1    2    0    0 -0.65296623858E+00 -0.95865307935E+01 -0.40916160519E+01  0.10593724014E+02  0.17770000000E+01 0. -1.
</event>
<event>
 6    1  0.3411206E-003  0.5025990E+03  0.7546771E-02  0.9394013E-01
        -11   -1    0    0    0    0  0.00000000000E+00  0.00000000000E+00  0.50000000000E+03  0.50000000000E+03  0.00000000000E+00 0. -1.
         11   -1    0    0    0    0 -0.00000000000E+00 -0.00000000000E+00 -0.50000000000E+03  0.50000000000E+03  0.00000000000E+00 0. -1.
        -11    1    1    2    0    0 -0.85960098020E+01  0.12886006924E+02  0.49715977251E+03  0.49740102530E+03  0.00000000000E+00 0. -1.
         11    1    1    2    0    0  0.58166404459E+01  0.47089171641E+01 -0.39562542141E+03  0.39569619820E+03  0.00000000000E+00 0. -1.
        -15    1    1    2    0    0 -0.96621054531E+01 -0.22059480078E+01 -0.60256817723E+02  0.61092260553E+02  0.17770000000E+01 0. -1.
         15    1    1    2    0    0  0.12441474809E+02 -0.15388976080E+02 -0.41277533382E+02  0.45810515947E+02  0.17770000000E+01 0. -1.
</event>
<event>
 6    1  0.3411206E-003  0.5061303E+03  0.7546771E-02  0.9386196E-01
        -11   -1    0    0    0    0  0.00000000000E+00  0.00000000000E+00  0.50000000000E+03  0.50000000000E+03  0.00000000000E+00 0.  1.
         11   -1    0    0    0    0 -0.00000000000E+00 -0.00000000000E+00 -0.50000000000E+03  0.50000000000E+03  0.00000000000E+00 0. -1.
        -11    1    1    2    0    0  0.80087214512E+01  0.53196512088E+01  0.49377613018E+03  0.49386972477E+03  0.00000000000E+00 0.  1.
         11    1    1    2    0    0  0.65747843608E+01  0.61595424109E+01 -0.48047441104E+03  0.48055886988E+03  0.00000000000E+00 0. -1.
        -15    1    1    2    0    0 -0.11588361561E+02 -0.62650238259E+01 -0.13948246683E+02  0.19267899775E+02  0.17770000000E+01 0.  1.
         15    1    1    2    0    0 -0.29951442513E+01 -0.52141697939E+01  0.64652754622E+00  0.63035055797E+01  0.17770000000E+01 0. -1.
</event>
<event>
 6    1  0.3411206E-003  0.5009132E+03  0.7546771E-02  0.9397769E-01
        -11   -1    0    0    0    0  0.00000000000E+00  0.00000000000E+00  0.50000000000E+03  0.50000000000E+03  0.00000000000E+00 0.  1.
         11   -1    0    0    0    0 -0.00000000000E+00 -0.00000000000E+00 -0.50000000000E+03  0.50000000000E+03  0.00000000000E+00 0. -1.
        -11    1    1    2    0    0 -0.48543974423E+01  0.71473195587E+01  0.49901196537E+03  0.49908675692E+03  0.00000000000E+00 0.  1.
         11    1    1    2    0    0 -0.98588941707E+00  0.76603818989E+01 -0.34334689188E+03  0.34343375139E+03  0.00000000000E+00 0. -1.
        -15    1    1    2    0    0  0.18782124858E+00 -0.15899225829E+02 -0.13527677869E+03  0.13621962135E+03  0.17770000000E+01 0. -1.
         15    1    1    2    0    0  0.56524656107E+01  0.10915243717E+01 -0.20388294805E+02  0.21259870343E+02  0.17770000000E+01 0.  1.
</event>
<event>
 6    1  0.3411206E-003  0.5005055E+03  0.7546771E-02  0.9398679E-01
        -11   -1    0    0    0    0  0.00000000000E+00  0.00000000000E+00  0.50000000000E+03  0.50000000000E+03  0.00000000000E+00 0. -1.
         11   -1    0    0    0    0 -0.00000000000E+00 -0.00000000000E+00 -0.50000000000E+03  0.50000000000E+03  0.00000000000E+00 0. -1.
        -11    1    1    2    0    0  0.78786122037E+01  0.71821854956E+01  0.49938067749E+03  0.49949446180E+03  0.00000000000E+00 0. -1.
         11    1    1    2    0    0  0.72800096412E+00  0.49337904060E+01 -0.31689859577E+03  0.31693783661E+03  0.00000000000E+00 0. -1.
        -15    1    1    2    0    0 -0.47522094480E+01 -0.10557041221E+02 -0.16772439100E+03  0.16813287507E+03  0.17770000000E+01 0. -1.
         15    1    1    2    0    0 -0.38544037199E+01 -0.15589346804E+01 -0.14757690717E+02  0.15434826519E+02  0.17770000000E+01 0.  1.
</event>
<event>
 6    1  0.3411206E-003  0.5043538E+03  0.7546771E-02  0.9390120E-01
        -11   -1    0    0    0    0  0.00000000000E+00  0.00000000000E+00  0.50000000000E+03  0.50000000000E+03  0.00000000000E+00 0. -1.
         11   -1    0    0    0    0 -0.00000000000E+00 -0.00000000000E+00 -0.50000000000E+03  0.50000000000E+03  0.00000000000E+00 0.  1.
        -11    1    1    2    0    0 -0.39681246232E+01 -0.65443195664E+01  0.49558714483E+03  0.49564623700E+03  0.00000000000E+00 0. -1.
         11    1    1    2    0    0 -0.95407410249E+01  0.61941500913E+01 -0.47221155691E+03  0.47234854474E+03  0.00000000000E+00 0.  1.
        -15    1    1    2    0    0  0.36292726216E+01 -0.54411556757E+01 -0.17993232551E+02  0.19227374794E+02  0.17770000000E+01 0.  1.
         15    1    1    2    0    0  0.98795930265E+01  0.57913251508E+01 -0.53823553659E+01  0.12777843467E+02  0.17770000000E+01 0. -1.
</event>
<event>
 6    1  0.3411206E-003  0.4911986E+03  0.7546771E-02  0.9419722E-01
        -11   -1    0    0    0    0  0.00000000000E+00  0.00000000000E+00  0.50000000000E+03  0.50000000000E+03  0.00000000000E+00 0.  1.
         11   -1    0    0    0    0 -0.00000000000E+00 -0.00000000000E+00 -0.50000000000E+03  0.50000000000E+03  0.00000000000E+00 0.  1.
        -11    1    1    2    0    0 -0.23265393787E+01 -0.30208172318E+01  0.31226421203E+02  0.31458345528E+02  0.00000000000E+00 0.  1.
         11    1    1    2    0    0 -0.45142842350E+01 -0.49025256068E+01 -0.49238401118E+03  0.49242910961E+03  0.00000000000E+00 0.  1.
        -15    1    1    2    0    0 -0.43320250220E+02 -0.13784127053E+01  0.75364896031E+02  0.86957284821E+02  0.17770000000E+01 0. -1.
         15    1    1    2    0    0  0.50161073834E+02  0.93017555439E+01  0.38579269395E+03  0.38915526004E+03  0.17770000000E+01 0.  1.
</event>
<event>
 6    1  0.3411206E-003  0.3904866E+03  0.7546771E-02  0.9684935E-01
        -11   -1    0    0    0    0  0.00000000000E+00  0.00000000000E+00  0.50000000000E+03  0.50000000000E+03  0.00000000000E+00 0. -1.
         11   -1    0    0    0    0 -0.00000000000E+00 -0.00000000000E+00 -0.50000000000E+03  0.50000000000E+03  0.00000000000E+00 0. -1.
        -11    1    1    2    0    0 -0.52352615683E+01 -0.11289984593E+01  0.68021246998E+02  0.68231756861E+02  0.00000000000E+00 0. -1.
         11    1    1    2    0    0  0.50518296891E+02 -0.69015129260E+02 -0.39092023712E+03  0.40016723777E+03  0.00000000000E+00 0. -1.
        -15    1    1    2    0    0 -0.95260791528E+02  0.80097311181E+02 -0.64960749561E+02  0.14040389729E+03  0.17770000000E+01 0.  1.
         15    1    1    2    0    0  0.49977756205E+02 -0.99531834617E+01  0.38785973969E+03  0.39119710809E+03  0.17770000000E+01 0. -1.
</event>
<event>
 6    1  0.3411206E-003  0.5034909E+03  0.7546771E-02  0.9392032E-01
        -11   -1    0    0    0    0  0.00000000000E+00  0.00000000000E+00  0.50000000000E+03  0.50000000000E+03  0.00000000000E+00 0.  1.
         11   -1    0    0    0    0 -0.00000000000E+00 -0.00000000000E+00 -0.50000000000E+03  0.50000000000E+03  0.00000000000E+00 0.  1.
        -11    1    1    2    0    0 -0.45518380098E+01  0.97681399731E+01  0.49639212559E+03  0.49650909169E+03  0.00000000000E+00 0.  1.
         11    1    1    2    0    0  0.74083058283E+01 -0.10272054057E+01 -0.41911424335E+03  0.41918097180E+03  0.00000000000E+00 0.  1.
        -15    1    1    2    0    0 -0.10162228839E+02 -0.10863736518E+01 -0.71253714384E+02  0.72004865427E+02  0.17770000000E+01 0. -1.
         15    1    1    2    0    0  0.73057610199E+01 -0.76545609156E+01 -0.60241678551E+01  0.12305071078E+02  0.17770000000E+01 0.  1.
</event>
<event>
 6    1  0.3411206E-003  0.5077384E+03  0.7546771E-02  0.9382659E-01
        -11   -1    0    0    0    0  0.00000000000E+00  0.00000000000E+00  0.50000000000E+03  0.50000000000E+03  0.00000000000E+00 0.  1.
         11   -1    0    0    0    0 -0.00000000000E+00 -0.00000000000E+00 -0.50000000000E+03  0.50000000000E+03  0.00000000000E+00 0. -1.
        -11    1    1    2    0    0 -0.79942012610E+01 -0.23777483020E+01  0.43233122666E+03  0.43241166785E+03  0.00000000000E+00 0.  1.
         11    1    1    2    0    0 -0.71940776223E+01  0.52740850708E-01 -0.49220905916E+03  0.49226163313E+03  0.00000000000E+00 0. -1.
        -15    1    1    2    0    0  0.10226830553E+02  0.20379282323E+01  0.66229170268E+02  0.67068636023E+02  0.17770000000E+01 0.  1.
         15    1    1    2    0    0  0.49614483304E+01  0.28707921891E+00 -0.63513377695E+01  0.82580629978E+01  0.17770000000E+01 0. -1.
</event>
<event>
 6    1  0.3411206E-003  0.5018559E+03  0.7546771E-02  0.9395667E-01
        -11   -1    0    0    0    0  0.00000000000E+00  0.00000000000E+00  0.50000000000E+03  0.50000000000E+03  0.00000000000E+00 0.  1.
         11   -1    0    0    0    0 -0.00000000000E+00 -0.00000000000E+00 -0.50000000000E+03  0.50000000000E+03  0.00000000000E+00 0.  1.
        -11    1    1    2    0    0  0.12249911928E+01  0.85680781093E+01  0.49806893305E+03  0.49814413038E+03  0.00000000000E+00 0.  1.
         11    1    1    2    0    0 -0.11484336188E+01 -0.11886018522E+02 -0.35632258753E+03  0.35652262582E+03  0.00000000000E+00 0.  1.
        -15    1    1    2    0    0  0.15774788998E+01 -0.48136860250E+01 -0.26651629284E+01  0.59933993077E+01  0.17770000000E+01 0.  1.
         15    1    1    2    0    0 -0.16540364738E+01  0.81316264382E+01 -0.13908118259E+03  0.13933984450E+03  0.17770000000E+01 0. -1.
</event>
<event>
 6    1  0.3411206E-003  0.3939527E+03  0.7546771E-02  0.9674439E-01
        -11   -1    0    0    0    0  0.00000000000E+00  0.00000000000E+00  0.50000000000E+03  0.50000000000E+03  0.00000000000E+00 0.  1.
         11   -1    0    0    0    0 -0.00000000000E+00 -0.00000000000E+00 -0.50000000000E+03  0.50000000000E+03  0.00000000000E+00 0. -1.
        -11    1    1    2    0    0 -0.79516651581E+02 -0.57247968291E+02  0.45180732083E+03  0.46230950986E+03  0.00000000000E+00 0.  1.
         11    1    1    2    0    0 -0.18977713859E+01  0.15652412533E+01 -0.69973237983E+02  0.70016466279E+02  0.00000000000E+00 0. -1.
        -15    1    1    2    0    0  0.95409827120E+02  0.71008589546E+02 -0.40423124028E+02  0.12562818786E+03  0.17770000000E+01 0.  1.
         15    1    1    2    0    0 -0.13995404153E+02 -0.15325862507E+02 -0.34141095881E+03  0.34204583600E+03  0.17770000000E+01 0. -1.
</event>
<event>
 6    1  0.3411206E-003  0.5091546E+03  0.7546771E-02  0.9379555E-01
        -11   -1    0    0    0    0  0.00000000000E+00  0.00000000000E+00  0.50000000000E+03  0.50000000000E+03  0.00000000000E+00 0.  1.
         11   -1    0    0    0    0 -0.00000000000E+00 -0.00000000000E+00 -0.50000000000E+03  0.50000000000E+03  0.00000000000E+00 0. -1.
        -11    1    1    2    0    0 -0.77183913402E+01  0.37483306509E+01  0.45766014145E+03  0.45774056912E+03  0.00000000000E+00 0.  1.
         11    1    1    2    0    0 -0.11594644004E+02  0.20856945863E+02 -0.49026498056E+03  0.49084539228E+03  0.00000000000E+00 0. -1.
        -15    1    1    2    0    0  0.10696375318E+02 -0.21103952190E+02  0.79819225406E+01  0.25033139224E+02  0.17770000000E+01 0. -1.
         15    1    1    2    0    0  0.86166600258E+01 -0.35013243242E+01  0.24622916576E+02  0.26380899373E+02  0.17770000000E+01 0.  1.
</event>
<event>
 6    1  0.3411206E-003  0.5002537E+03  0.7546771E-02  0.9399242E-01
        -11   -1    0    0    0    0  0.00000000000E+00  0.00000000000E+00  0.50000000000E+03  0.50000000000E+03  0.00000000000E+00 0. -1.
         11   -1    0    0    0    0 -0.00000000000E+00 -0.00000000000E+00 -0.50000000000E+03  0.50000000000E+03  0.00000000000E+00 0. -1.
        -11    1    1    2    0    0  0.69523596983E+01  0.96376455327E+01  0.49960499036E+03  0.49974630155E+03  0.00000000000E+00 0. -1.
         11    1    1    2    0    0 -0.22971262400E+01  0.86855420305E+00 -0.17739685131E+03  0.17741384960E+03  0.00000000000E+00 0. -1.
        -15    1    1    2    0    0  0.37602168708E+01 -0.78116985494E+01 -0.84770398154E+02  0.85231097595E+02  0.17770000000E+01 0.  1.
         15    1    1    2    0    0 -0.84154503291E+01 -0.26945011864E+01 -0.23743774090E+03  0.23760875125E+03  0.17770000000E+01 0. -1.
</event>
<event>
 6    1  0.3411206E-003  0.5105387E+03  0.7546771E-02  0.9376532E-01
        -11   -1    0    0    0    0  0.00000000000E+00  0.00000000000E+00  0.50000000000E+03  0.50000000000E+03  0.00000000000E+00 0. -1.
         11   -1    0    0    0    0 -0.00000000000E+00 -0.00000000000E+00 -0.50000000000E+03  0.50000000000E+03  0.00000000000E+00 0. -1.
        -11    1    1    2    0    0 -0.57627040917E+01 -0.21555296407E+01  0.38197922884E+03  0.38202877684E+03  0.00000000000E+00 0. -1.
         11    1    1    2    0    0  0.17181424519E+02  0.84968119103E+01 -0.48908579937E+03  0.48946125108E+03  0.00000000000E+00 0. -1.
        -15    1    1    2    0    0 -0.12405066072E+02  0.17742071471E+02  0.33532780317E+01  0.21978829971E+02  0.17770000000E+01 0. -1.
         15    1    1    2    0    0  0.98634564468E+00 -0.24083353740E+02  0.10375329250E+03  0.10653114211E+03  0.17770000000E+01 0.  1.
</event>
<event>
 6    1  0.3411206E-003  0.5105919E+03  0.7546771E-02  0.9376417E-01
        -11   -1    0    0    0    0  0.00000000000E+00  0.00000000000E+00  0.50000000000E+03  0.50000000000E+03  0.00000000000E+00 0.  1.
         11   -1    0    0    0    0 -0.00000000000E+00 -0.00000000000E+00 -0.50000000000E+03  0.50000000000E+03  0.00000000000E+00 0. -1.
        -11    1    1    2    0    0  0.76303616884E+01  0.38942185473E+01  0.41755545016E+03  0.41764331829E+03  0.00000000000E+00 0.  1.
         11    1    1    2    0    0  0.25147274559E+02 -0.47775711355E+01 -0.48873825907E+03  0.48940810831E+03  0.00000000000E+00 0. -1.
        -15    1    1    2    0    0 -0.49730897928E+01 -0.44628879876E+01  0.63061544569E+02  0.63439460305E+02  0.17770000000E+01 0.  1.
         15    1    1    2    0    0 -0.27804546454E+02  0.53462405758E+01  0.81212643415E+01  0.29509113089E+02  0.17770000000E+01 0. -1.
</event>
<event>
 6    1  0.3411206E-003  0.5023864E+03  0.7546771E-02  0.9394486E-01
        -11   -1    0    0    0    0  0.00000000000E+00  0.00000000000E+00  0.50000000000E+03  0.50000000000E+03  0.00000000000E+00 0.  1.
         11   -1    0    0    0    0 -0.00000000000E+00 -0.00000000000E+00 -0.50000000000E+03  0.50000000000E+03  0.00000000000E+00 0.  1.
        -11    1    1    2    0    0 -0.63315777441E+01  0.55853450693E+01  0.49754201164E+03  0.49761364361E+03  0.00000000000E+00 0.  1.
         11    1    1    2    0    0  0.34526783834E+01 -0.10732687074E+02 -0.40786591694E+03  0.40802171237E+03  0.00000000000E+00 0.  1.
        -15    1    1    2    0    0 -0.12789758755E+01  0.13707334340E+02 -0.77867108441E+02  0.79094697041E+02  0.17770000000E+01 0.  1.
         15    1    1    2    0    0  0.41578752362E+01 -0.85599923353E+01 -0.11808986260E+02  0.15269946979E+02  0.17770000000E+01 0. -1.
</event>
<event>
 6    1  0.3411206E-003  0.5023895E+03  0.7546771E-02  0.9394479E-01
        -11   -1    0    0    0    0  0.00000000000E+00  0.00000000000E+00  0.50000000000E+03  0.50000000000E+03  0.00000000000E+00 0.  1.
         11   -1    0    0    0    0 -0.00000000000E+00 -0.00000000000E+00 -0.50000000000E+03  0.50000000000E+03  0.00000000000E+00 0.  1.
        -11    1    1    2    0    0  0.24505854232E+02  0.46313365015E+01  0.49698515801E+03  0.49761052385E+03  0.00000000000E+00 0.  1.
         11    1    1    2    0    0 -0.51077794286E+01  0.42371763330E+01 -0.30165618555E+03  0.30172917883E+03  0.00000000000E+00 0.  1.
        -15    1    1    2    0    0  0.77357290494E+01  0.93509604036E+00 -0.11520492271E+03  0.11548180746E+03  0.17770000000E+01 0.  1.
         15    1    1    2    0    0 -0.27133803853E+02 -0.98036088749E+01 -0.80124049743E+02  0.85178489860E+02  0.17770000000E+01 0. -1.
</event>
<event>
 6    1  0.3411206E-003  0.5148108E+03  0.7546771E-02  0.9367266E-01
        -11   -1    0    0    0    0  0.00000000000E+00  0.00000000000E+00  0.50000000000E+03  0.50000000000E+03  0.00000000000E+00 0. -1.
         11   -1    0    0    0    0 -0.00000000000E+00 -0.00000000000E+00 -0.50000000000E+03  0.50000000000E+03  0.00000000000E+00 0.  1.
        -11    1    1    2    0    0 -0.10359780407E+02  0.12904327976E+02  0.48490695117E+03  0.48518923939E+03  0.00000000000E+00 0. -1.
         11    1    1    2    0    0  0.40475674128E+01 -0.16657642904E+02 -0.47375144809E+03  0.47406148804E+03  0.00000000000E+00 0.  1.
        -15    1    1    2    0    0 -0.29235267609E+01  0.16792756945E+02 -0.16516905002E+02  0.23801461602E+02  0.17770000000E+01 0.  1.
         15    1    1    2    0    0  0.92357397554E+01 -0.13039442017E+02  0.53614019257E+01  0.16947810966E+02  0.17770000000E+01 0. -1.
</event>
<event>
 6    1  0.3411206E-003  0.5176416E+03  0.7546771E-02  0.9361178E-01
        -11   -1    0    0    0    0  0.00000000000E+00  0.00000000000E+00  0.50000000000E+03  0.50000000000E+03  0.00000000000E+00 0. -1.
         11   -1    0    0    0    0 -0.00000000000E+00 -0.00000000000E+00 -0.50000000000E+03  0.50000000000E+03  0.00000000000E+00 0. -1.
        -11    1    1    2    0    0  0.79851360306E+01  0.10638198228E+02  0.48217491625E+03  0.48235835591E+03  0.00000000000E+00 0. -1.
         11    1    1    2    0    0  0.13211694623E+02  0.19784986905E+02 -0.16352669201E+03  0.16524821809E+03  0.00000000000E+00 0. -1.
        -15    1    1    2    0    0 -0.46876198881E+01 -0.24637133241E+02 -0.33032837934E+03  0.33128380287E+03  0.17770000000E+01 0. -1.
         15    1    1    2    0    0 -0.16509210765E+02 -0.57860518925E+01  0.11680155100E+02  0.21109623131E+02  0.17770000000E+01 0.  1.
</event>
<event>
 6    1  0.3411206E-003  0.5221707E+03  0.7546771E-02  0.9351523E-01
        -11   -1    0    0    0    0  0.00000000000E+00  0.00000000000E+00  0.50000000000E+03  0.50000000000E+03  0.00000000000E+00 0. -1.
         11   -1    0    0    0    0 -0.00000000000E+00 -0.00000000000E+00 -0.50000000000E+03  0.50000000000E+03  0.00000000000E+00 0. -1.
        -11    1    1    2    0    0  0.26711799024E+02 -0.50681389658E+02  0.42652427555E+02  0.71423756840E+02  0.00000000000E+00 0. -1.
         11    1    1    2    0    0  0.15676225862E+02  0.44526412069E+02 -0.47549188038E+03  0.47782933537E+03  0.00000000000E+00 0. -1.
        -15    1    1    2    0    0 -0.22552095966E+02 -0.18538403906E+02  0.41144504517E+03  0.41248327526E+03  0.17770000000E+01 0. -1.
         15    1    1    2    0    0 -0.19835928920E+02  0.24693381496E+02  0.21394407662E+02  0.38263632526E+02  0.17770000000E+01 0.  1.
</event>
<event>
 6    1  0.3411206E-003  0.5309920E+03  0.7546771E-02  0.9333014E-01
        -11   -1    0    0    0    0  0.00000000000E+00  0.00000000000E+00  0.50000000000E+03  0.50000000000E+03  0.00000000000E+00 0. -1.
         11   -1    0    0    0    0 -0.00000000000E+00 -0.00000000000E+00 -0.50000000000E+03  0.50000000000E+03  0.00000000000E+00 0.  1.
        -11    1    1    2    0    0  0.19645931574E+02  0.18337744168E+01  0.46859280177E+03  0.46900803749E+03  0.00000000000E+00 0. -1.
         11    1    1    2    0    0 -0.83133463268E+01  0.18667545964E+02 -0.43410995868E+03  0.43459066398E+03  0.00000000000E+00 0.  1.
        -15    1    1    2    0    0  0.22444257658E+02 -0.71364764226E+01 -0.51192332388E+02  0.56378068625E+02  0.17770000000E+01 0.  1.
         15    1    1    2    0    0 -0.33776842905E+02 -0.13364843958E+02  0.16709489295E+02  0.40023229907E+02  0.17770000000E+01 0. -1.
</event>
<event>
 6    1  0.3411206E-003  0.5031357E+03  0.7546771E-02  0.9392821E-01
        -11   -1    0    0    0    0  0.00000000000E+00  0.00000000000E+00  0.50000000000E+03  0.50000000000E+03  0.00000000000E+00 0.  1.
         11   -1    0    0    0    0 -0.00000000000E+00 -0.00000000000E+00 -0.50000000000E+03  0.50000000000E+03  0.00000000000E+00 0. -1.
        -11    1    1    2    0    0  0.47580493730E+01  0.76245045236E+01  0.44181630573E+03  0.44190770542E+03  0.00000000000E+00 0.  1.
         11    1    1    2    0    0 -0.10305599584E+02  0.52626190545E+00 -0.49675711744E+03  0.49686428334E+03  0.00000000000E+00 0. -1.
        -15    1    1    2    0    0 -0.46387731926E+01 -0.23113345831E+01  0.46097271378E+02  0.46421725967E+02  0.17770000000E+01 0.  1.
         15    1    1    2    0    0  0.10186323403E+02 -0.58394318459E+01  0.88435403352E+01  0.14806285267E+02  0.17770000000E+01 0. -1.
</event>
<event>
 6    1  0.3411206E-003  0.5012953E+03  0.7546771E-02  0.9396916E-01
        -11   -1    0    0    0    0  0.00000000000E+00  0.00000000000E+00  0.50000000000E+03  0.50000000000E+03  0.00000000000E+00 0. -1.
         11   -1    0    0    0    0 -0.00000000000E+00 -0.00000000000E+00 -0.50000000000E+03  0.50000000000E+03  0.00000000000E+00 0.  1.
        -11    1    1    2    0    0 -0.45299499544E+01 -0.71192806749E+01  0.16263262603E+03  0.16285139132E+03  0.00000000000E+00 0. -1.
         11    1    1    2    0    0  0.86376988277E+00  0.73035300031E+01 -0.49865048622E+03  0.49870471729E+03  0.00000000000E+00 0.  1.
        -15    1    1    2    0    0  0.16214841231E+00 -0.91284382296E+01  0.17866621177E+02  0.20142704831E+02  0.17770000000E+01 0. -1.
         15    1    1    2    0    0  0.35040316594E+01  0.89441889015E+01  0.31815123901E+03  0.31830118656E+03  0.17770000000E+01 0. -1.
</event>
<event>
 6    1  0.3411206E-003  0.5042951E+03  0.7546771E-02  0.9390250E-01
        -11   -1    0    0    0    0  0.00000000000E+00  0.00000000000E+00  0.50000000000E+03  0.50000000000E+03  0.00000000000E+00 0.  1.
         11   -1    0    0    0    0 -0.00000000000E+00 -0.00000000000E+00 -0.50000000000E+03  0.50000000000E+03  0.00000000000E+00 0. -1.
        -11    1    1    2    0    0  0.28935983982E+01  0.16808212615E+02  0.46294373651E+03  0.46325780306E+03  0.00000000000E+00 0.  1.
         11    1    1    2    0    0 -0.88947899478E+01  0.16671578399E+00 -0.49562502425E+03  0.49570486153E+03  0.00000000000E+00 0. -1.
        -15    1    1    2    0    0  0.78668609417E+01 -0.50881007532E+01  0.49239981641E+01  0.10732183248E+02  0.17770000000E+01 0.  1.
         15    1    1    2    0    0 -0.18656693921E+01 -0.11886827646E+02  0.27757289580E+02  0.30305152163E+02  0.17770000000E+01 0. -1.
</event>
<event>
 6    1  0.3411206E-003  0.5100522E+03  0.7546771E-02  0.9377594E-01
        -11   -1    0    0    0    0  0.00000000000E+00  0.00000000000E+00  0.50000000000E+03  0.50000000000E+03  0.00000000000E+00 0. -1.
         11   -1    0    0    0    0 -0.00000000000E+00 -0.00000000000E+00 -0.50000000000E+03  0.50000000000E+03  0.00000000000E+00 0. -1.
        -11    1    1    2    0    0  0.20889270022E+01 -0.12334587535E+02  0.48978805211E+03  0.48994779483E+03  0.00000000000E+00 0. -1.
         11    1    1    2    0    0  0.30662408094E+01  0.16123929060E+02 -0.38766089585E+03  0.38800818689E+03  0.00000000000E+00 0. -1.
        -15    1    1    2    0    0  0.16712248828E+02 -0.25268095952E+02 -0.26011175834E+02  0.39968924569E+02  0.17770000000E+01 0.  1.
         15    1    1    2    0    0 -0.21867416640E+02  0.21478754427E+02 -0.76115980431E+02  0.82075093714E+02  0.17770000000E+01 0. -1.
</event>
<event>
 6    1  0.3411206E-003  0.5052990E+03  0.7546771E-02  0.9388030E-01
        -11   -1    0    0    0    0  0.00000000000E+00  0.00000000000E+00  0.50000000000E+03  0.50000000000E+03  0.00000000000E+00 0. -1.
         11   -1    0    0    0    0 -0.00000000000E+00 -0.00000000000E+00 -0.50000000000E+03  0.50000000000E+03  0.00000000000E+00 0. -1.
        -11    1    1    2    0    0 -0.22836848046E+01 -0.61585965962E+01  0.43576778549E+03  0.43581728557E+03  0.00000000000E+00 0. -1.
         11    1    1    2    0    0 -0.12437595229E+02 -0.47246907855E+01 -0.49452203234E+03  0.49470097731E+03  0.00000000000E+00 0. -1.
        -15    1    1    2    0    0  0.46177777904E+01 -0.26217588713E+01  0.50155148380E+02  0.50466762620E+02  0.17770000000E+01 0.  1.
         15    1    1    2    0    0  0.10103502244E+02  0.13505046253E+02  0.85990984746E+01  0.19014974506E+02  0.17770000000E+01 0. -1.
</event>
<event>
 6    1  0.3411206E-003  0.5237182E+03  0.7546771E-02  0.9348248E-01
        -11   -1    0    0    0    0  0.00000000000E+00  0.00000000000E+00  0.50000000000E+03  0.50000000000E+03  0.00000000000E+00 0. -1.
         11   -1    0    0    0    0 -0.00000000000E+00 -0.00000000000E+00 -0.50000000000E+03  0.50000000000E+03  0.00000000000E+00 0.  1.
        -11    1    1    2    0    0 -0.49986278707E+01  0.94771807223E+01  0.47616130856E+03  0.47628184408E+03  0.00000000000E+00 0. -1.
         11    1    1    2    0    0  0.13723634768E+02 -0.28025210908E+02 -0.41920899739E+03  0.42036880722E+03  0.00000000000E+00 0.  1.
        -15    1    1    2    0    0  0.15123686561E+02  0.17409936349E+02 -0.71626377479E+02  0.75268369576E+02  0.17770000000E+01 0.  1.
         15    1    1    2    0    0 -0.23848693458E+02  0.11380938367E+01  0.14674066307E+02  0.28080979118E+02  0.17770000000E+01 0. -1.
</event>
<event>
 6    1  0.3411206E-003  0.5026855E+03  0.7546771E-02  0.9393821E-01
        -11   -1    0    0    0    0  0.00000000000E+00  0.00000000000E+00  0.50000000000E+03  0.50000000000E+03  0.00000000000E+00 0. -1.
         11   -1    0    0    0    0 -0.00000000000E+00 -0.00000000000E+00 -0.50000000000E+03  0.50000000000E+03  0.00000000000E+00 0. -1.
        -11    1    1    2    0    0  0.42024861016E+01  0.61548807276E+01  0.44025958056E+03  0.44032265638E+03  0.00000000000E+00 0. -1.
         11    1    1    2    0    0 -0.97911518380E+01  0.31506489761E+01 -0.49720809316E+03  0.49731446907E+03  0.00000000000E+00 0. -1.
        -15    1    1    2    0    0  0.70370930019E+01 -0.11213601260E+01  0.33106593756E+01  0.80558252805E+01  0.17770000000E+01 0. -1.
         15    1    1    2    0    0 -0.14484272655E+01 -0.81841695778E+01  0.53637853224E+02  0.54307049272E+02  0.17770000000E+01 0.  1.
</event>
<event>
 6    1  0.4453287E-003  0.4716254E+03  0.7546771E-02  0.9465639E-01
        -11   -1    0    0    0    0  0.00000000000E+00  0.00000000000E+00  0.50000000000E+03  0.50000000000E+03  0.00000000000E+00 0.  1.
         11   -1    0    0    0    0 -0.00000000000E+00 -0.00000000000E+00 -0.50000000000E+03  0.50000000000E+03  0.00000000000E+00 0. -1.
        -11    1    1    2    0    0 -0.11461233626E+02 -0.17031131494E+01  0.47246161994E+03  0.47260368470E+03  0.00000000000E+00 0.  1.
         11    1    1    2    0    0 -0.66804132785E+01  0.83878360908E+00 -0.47077524241E+03  0.47082338552E+03  0.00000000000E+00 0. -1.
        -15    1    1    2    0    0  0.15552071207E+02  0.45991841322E+01  0.24775517730E+02  0.29664851614E+02  0.17770000000E+01 0.  1.
         15    1    1    2    0    0  0.25895756980E+01 -0.37348545918E+01 -0.26461895260E+02  0.26908078172E+02  0.17770000000E+01 0. -1.
</event>
<event>
 6    1  0.3411206E-003  0.5095762E+03  0.7546771E-02  0.9378633E-01
        -11   -1    0    0    0    0  0.00000000000E+00  0.00000000000E+00  0.50000000000E+03  0.50000000000E+03  0.00000000000E+00 0. -1.
         11   -1    0    0    0    0 -0.00000000000E+00 -0.00000000000E+00 -0.50000000000E+03  0.50000000000E+03  0.00000000000E+00 0.  1.
        -11    1    1    2    0    0 -0.15054975013E+02 -0.25268519108E+01  0.45710581474E+03  0.45736064885E+03  0.00000000000E+00 0. -1.
         11    1    1    2    0    0 -0.57957541388E+01  0.65660918999E+01 -0.49034556305E+03  0.49042377138E+03  0.00000000000E+00 0.  1.
        -15    1    1    2    0    0  0.66528914786E+01  0.69087889487E+00  0.36201530032E+02  0.36857113076E+02  0.17770000000E+01 0. -1.
         15    1    1    2    0    0  0.14197837673E+02 -0.47301188839E+01 -0.29617817176E+01  0.15358466694E+02  0.17770000000E+01 0.  1.
</event>
<event>
 6    1  0.3411206E-003  0.5080995E+03  0.7546771E-02  0.9381867E-01
        -11   -1    0    0    0    0  0.00000000000E+00  0.00000000000E+00  0.50000000000E+03  0.50000000000E+03  0.00000000000E+00 0. -1.
         11   -1    0    0    0    0 -0.00000000000E+00 -0.00000000000E+00 -0.50000000000E+03  0.50000000000E+03  0.00000000000E+00 0. -1.
        -11    1    1    2    0    0 -0.49900880790E+00  0.11930712402E+02  0.39814745856E+03  0.39832648628E+03  0.00000000000E+00 0. -1.
         11    1    1    2    0    0  0.16541788046E+02  0.16164020713E+02 -0.49135651719E+03  0.49190053192E+03  0.00000000000E+00 0. -1.
        -15    1    1    2    0    0 -0.17854547022E+01 -0.34883448137E+01  0.76742926295E+02  0.76863455968E+02  0.17770000000E+01 0. -1.
         15    1    1    2    0    0 -0.14257324535E+02 -0.24606388302E+02  0.16466132327E+02  0.32909525840E+02  0.17770000000E+01 0.  1.
</event>
<event>
 6    1  0.3411206E-003  0.5040857E+03  0.7546771E-02  0.9390714E-01
        -11   -1    0    0    0    0  0.00000000000E+00  0.00000000000E+00  0.50000000000E+03  0.50000000000E+03  0.00000000000E+00 0.  1.
         11   -1    0    0    0    0 -0.00000000000E+00 -0.00000000000E+00 -0.50000000000E+03  0.50000000000E+03  0.00000000000E+00 0. -1.
        -11    1    1    2    0    0  0.33844725644E+01 -0.69648633959E+01  0.49585386670E+03  0.49591432839E+03  0.00000000000E+00 0.  1.
         11    1    1    2    0    0 -0.89349872094E+01  0.62207149353E+01 -0.43064281688E+03  0.43078041624E+03  0.00000000000E+00 0. -1.
        -15    1    1    2    0    0  0.33493394414E+01  0.16528055260E+02 -0.39743001098E+02  0.43209472927E+02  0.17770000000E+01 0. -1.
         15    1    1    2    0    0  0.22011752036E+01 -0.15783906799E+02 -0.25468048725E+02  0.30095782445E+02  0.17770000000E+01 0.  1.
</event>
<event>
 6    1  0.3411206E-003  0.5045111E+03  0.7546771E-02  0.9389772E-01
        -11   -1    0    0    0    0  0.00000000000E+00  0.00000000000E+00  0.50000000000E+03  0.50000000000E+03  0.00000000000E+00 0.  1.
         11   -1    0    0    0    0 -0.00000000000E+00 -0.00000000000E+00 -0.50000000000E+03  0.50000000000E+03  0.00000000000E+00 0. -1.
        -11    1    1    2    0    0 -0.85603874697E+01 -0.22673881594E+02  0.49489585926E+03  0.49548894706E+03  0.00000000000E+00 0.  1.
         11    1    1    2    0    0  0.99779482096E+01  0.16754461463E+01 -0.32909254163E+03  0.32924803345E+03  0.00000000000E+00 0. -1.
        -15    1    1    2    0    0 -0.21550450601E+01  0.18673759822E+02 -0.14188848198E+02  0.23618523817E+02  0.17770000000E+01 0. -1.
         15    1    1    2    0    0  0.73748432017E+00  0.23246756264E+01 -0.15161446943E+03  0.15164449568E+03  0.17770000000E+01 0.  1.
</event>
<event>
 6    1  0.3894556E-003  0.5032479E+03  0.7546771E-02  0.9392571E-01
        -11   -1    0    0    0    0  0.00000000000E+00  0.00000000000E+00  0.50000000000E+03  0.50000000000E+03  0.00000000000E+00 0. -1.
         11   -1    0    0    0    0 -0.00000000000E+00 -0.00000000000E+00 -0.50000000000E+03  0.50000000000E+03  0.00000000000E+00 0.  1.
        -11    1    1    2    0    0  0.67467187116E+01  0.20156303937E+01  0.49670219198E+03  0.49675209964E+03  0.00000000000E+00 0. -1.
         11    1    1    2    0    0 -0.91340102589E+01 -0.65200909177E+01 -0.42882003145E+03  0.42896685315E+03  0.00000000000E+00 0.  1.
        -15    1    1    2    0    0  0.60628471053E+01  0.58803871457E+01 -0.69230757107E+02  0.69766700700E+02  0.17770000000E+01 0. -1.
         15    1    1    2    0    0 -0.36755555581E+01 -0.13759266217E+01  0.13485965786E+01  0.45143465153E+01  0.17770000000E+01 0.  1.
</event>
<event>
 6    1  0.3411206E-003  0.5148436E+03  0.7546771E-02  0.9367195E-01
        -11   -1    0    0    0    0  0.00000000000E+00  0.00000000000E+00  0.50000000000E+03  0.50000000000E+03  0.00000000000E+00 0. -1.
         11   -1    0    0    0    0 -0.00000000000E+00 -0.00000000000E+00 -0.50000000000E+03  0.50000000000E+03  0.00000000000E+00 0.  1.
        -11    1    1    2    0    0 -0.24243597507E+02 -0.97022550057E+01  0.48445312026E+03  0.48515637840E+03  0.00000000000E+00 0. -1.
         11    1    1    2    0    0 -0.15224675762E+02  0.10693932230E+02 -0.37115370053E+03  0.37161972547E+03  0.00000000000E+00 0.  1.
        -15    1    1    2    0    0  0.18459063075E+02  0.32793416494E+00 -0.11971694589E+03  0.12114515843E+03  0.17770000000E+01 0.  1.
         15    1    1    2    0    0  0.21009210194E+02 -0.13196113895E+01  0.64175261559E+01  0.22078737694E+02  0.17770000000E+01 0. -1.
</event>
<event>
 6    1  0.3411206E-003  0.5043641E+03  0.7546771E-02  0.9390097E-01
        -11   -1    0    0    0    0  0.00000000000E+00  0.00000000000E+00  0.50000000000E+03  0.50000000000E+03  0.00000000000E+00 0. -1.
         11   -1    0    0    0    0 -0.00000000000E+00 -0.00000000000E+00 -0.50000000000E+03  0.50000000000E+03  0.00000000000E+00 0. -1.
        -11    1    1    2    0    0  0.85172594865E+01  0.42195295137E+01  0.30043742363E+03  0.30058774702E+03  0.00000000000E+00 0. -1.
         11    1    1    2    0    0  0.10441741744E+02  0.35442701664E+01 -0.49551326303E+03  0.49563594064E+03  0.00000000000E+00 0. -1.
        -15    1    1    2    0    0 -0.81431224796E+01 -0.66231775136E+00  0.98057337837E-01  0.83616058723E+01  0.17770000000E+01 0. -1.
         15    1    1    2    0    0 -0.10815878751E+02 -0.71014819287E+01  0.19497778206E+03  0.19541470647E+03  0.17770000000E+01 0.  1.
</event>
<event>
 6    1  0.3411206E-003  0.5000696E+03  0.7546771E-02  0.9399654E-01
        -11   -1    0    0    0    0  0.00000000000E+00  0.00000000000E+00  0.50000000000E+03  0.50000000000E+03  0.00000000000E+00 0.  1.
         11   -1    0    0    0    0 -0.00000000000E+00 -0.00000000000E+00 -0.50000000000E+03  0.50000000000E+03  0.00000000000E+00 0.  1.
        -11    1    1    2    0    0  0.14575361056E+00 -0.65843320252E+00  0.39813748947E+02  0.39819459861E+02  0.00000000000E+00 0.  1.
         11    1    1    2    0    0  0.44549915717E+01  0.94173885108E+01 -0.49982184746E+03  0.49993040851E+03  0.00000000000E+00 0.  1.
        -15    1    1    2    0    0 -0.57533343432E+01 -0.11311991827E+00  0.18455695894E+03  0.18465519888E+03  0.17770000000E+01 0. -1.
         15    1    1    2    0    0  0.11525891609E+01 -0.86458353900E+01  0.27545113958E+03  0.27559493274E+03  0.17770000000E+01 0.  1.
</event>
<event>
 6    1  0.3411206E-003  0.5084038E+03  0.7546771E-02  0.9381200E-01
        -11   -1    0    0    0    0  0.00000000000E+00  0.00000000000E+00  0.50000000000E+03  0.50000000000E+03  0.00000000000E+00 0.  1.
         11   -1    0    0    0    0 -0.00000000000E+00 -0.00000000000E+00 -0.50000000000E+03  0.50000000000E+03  0.00000000000E+00 0. -1.
        -11    1    1    2    0    0  0.33550441308E+01  0.56054778223E+01  0.44589855650E+03  0.44594640978E+03  0.00000000000E+00 0.  1.
         11    1    1    2    0    0 -0.53368357122E+01 -0.72447189961E+01 -0.49151388104E+03  0.49159623984E+03  0.00000000000E+00 0. -1.
        -15    1    1    2    0    0 -0.76901237045E+01 -0.58425273644E+01  0.48733957034E+02  0.49713473282E+02  0.17770000000E+01 0. -1.
         15    1    1    2    0    0  0.96719152860E+01  0.74817685383E+01 -0.31186324934E+01  0.12743877094E+02  0.17770000000E+01 0.  1.
</event>
<event>
 6    1  0.3411206E-003  0.5054803E+03  0.7546771E-02  0.9387630E-01
        -11   -1    0    0    0    0  0.00000000000E+00  0.00000000000E+00  0.50000000000E+03  0.50000000000E+03  0.00000000000E+00 0. -1.
         11   -1    0    0    0    0 -0.00000000000E+00 -0.00000000000E+00 -0.50000000000E+03  0.50000000000E+03  0.00000000000E+00 0.  1.
        -11    1    1    2    0    0 -0.82194610027E+01 -0.36671919949E+01  0.48275351406E+03  0.48283740863E+03  0.00000000000E+00 0. -1.
         11    1    1    2    0    0  0.54066217807E+01 -0.48143382853E+01 -0.49446670388E+03  0.49451969693E+03  0.00000000000E+00 0.  1.
        -15    1    1    2    0    0  0.28726731983E+01 -0.26853344527E+01 -0.20939366965E+01  0.47964124423E+01  0.17770000000E+01 0. -1.
         15    1    1    2    0    0 -0.59833976397E-01  0.11166864733E+02  0.13807126511E+02  0.17846481994E+02  0.17770000000E+01 0.  1.
</event>
<event>
 6    1  0.3411206E-003  0.5279428E+03  0.7546771E-02  0.9339368E-01
        -11   -1    0    0    0    0  0.00000000000E+00  0.00000000000E+00  0.50000000000E+03  0.50000000000E+03  0.00000000000E+00 0. -1.
         11   -1    0    0    0    0 -0.00000000000E+00 -0.00000000000E+00 -0.50000000000E+03  0.50000000000E+03  0.00000000000E+00 0. -1.
        -11    1    1    2    0    0  0.25110737423E+01 -0.37796003927E+01  0.32311539847E+03  0.32314725993E+03  0.00000000000E+00 0. -1.
         11    1    1    2    0    0  0.28925184553E+02 -0.14650121583E+01 -0.47116785966E+03  0.47205716236E+03  0.00000000000E+00 0. -1.
        -15    1    1    2    0    0 -0.95492445344E+01 -0.20300276216E+02  0.16538708116E+03  0.16691115489E+03  0.17770000000E+01 0.  1.
         15    1    1    2    0    0 -0.21887013761E+02  0.25544888767E+02 -0.17334619970E+02  0.37884422815E+02  0.17770000000E+01 0. -1.
</event>
<event>
 6    1  0.3411206E-003  0.5064236E+03  0.7546771E-02  0.9385550E-01
        -11   -1    0    0    0    0  0.00000000000E+00  0.00000000000E+00  0.50000000000E+03  0.50000000000E+03  0.00000000000E+00 0.  1.
         11   -1    0    0    0    0 -0.00000000000E+00 -0.00000000000E+00 -0.50000000000E+03  0.50000000000E+03  0.00000000000E+00 0.  1.
        -11    1    1    2    0    0 -0.60154987269E+01 -0.33269011227E+01  0.18977972793E+03  0.18990418539E+03  0.00000000000E+00 0.  1.
         11    1    1    2    0    0 -0.69550823137E+01  0.16729163322E+02 -0.49324379407E+03  0.49357641603E+03  0.00000000000E+00 0.  1.
        -15    1    1    2    0    0  0.23537916047E+01 -0.28783727354E+02  0.27501904542E+02  0.39919365949E+02  0.17770000000E+01 0. -1.
         15    1    1    2    0    0  0.10616789436E+02  0.15381465155E+02  0.27596216160E+03  0.27660003263E+03  0.17770000000E+01 0.  1.
</event>
<event>
 6    1  0.3411206E-003  0.5085195E+03  0.7546771E-02  0.9380946E-01
        -11   -1    0    0    0    0  0.00000000000E+00  0.00000000000E+00  0.50000000000E+03  0.50000000000E+03  0.00000000000E+00 0.  1.
         11   -1    0    0    0    0 -0.00000000000E+00 -0.00000000000E+00 -0.50000000000E+03  0.50000000000E+03  0.00000000000E+00 0.  1.
        -11    1    1    2    0    0  0.18350146299E+01 -0.84024579475E+01  0.49140522804E+03  0.49148048458E+03  0.00000000000E+00 0.  1.
         11    1    1    2    0    0 -0.28219937508E+01 -0.66964501344E+01 -0.16390142547E+03  0.16406243740E+03  0.00000000000E+00 0.  1.
        -15    1    1    2    0    0 -0.45276774867E+01  0.20883346862E+02 -0.52189932738E+01  0.22068295343E+02  0.17770000000E+01 0. -1.
         15    1    1    2    0    0  0.55146566075E+01 -0.57844387799E+01 -0.32228480929E+03  0.32238878268E+03  0.17770000000E+01 0.  1.
</event>
<event>
 6    1  0.3411206E-003  0.5048811E+03  0.7546771E-02  0.9388954E-01
        -11   -1    0    0    0    0  0.00000000000E+00  0.00000000000E+00  0.50000000000E+03  0.50000000000E+03  0.00000000000E+00 0.  1.
         11   -1    0    0    0    0 -0.00000000000E+00 -0.00000000000E+00 -0.50000000000E+03  0.50000000000E+03  0.00000000000E+00 0. -1.
        -11    1    1    2    0    0 -0.26778356688E+01 -0.69059810490E+01  0.49506352581E+03  0.49511893315E+03  0.00000000000E+00 0.  1.
         11    1    1    2    0    0 -0.52737219035E+01 -0.14450009528E+00 -0.26250544440E+03  0.26255845323E+03  0.00000000000E+00 0. -1.
        -15    1    1    2    0    0  0.24911091713E+01 -0.19287311173E+01  0.40754917446E+01  0.54491275069E+01  0.17770000000E+01 0.  1.
         15    1    1    2    0    0  0.54604484010E+01  0.89792122615E+01 -0.23663357315E+03  0.23687348611E+03  0.17770000000E+01 0. -1.
</event>
<event>
 6    1  0.3411206E-003  0.5120026E+03  0.7546771E-02  0.9373346E-01
        -11   -1    0    0    0    0  0.00000000000E+00  0.00000000000E+00  0.50000000000E+03  0.50000000000E+03  0.00000000000E+00 0.  1.
         11   -1    0    0    0    0 -0.00000000000E+00 -0.00000000000E+00 -0.50000000000E+03  0.50000000000E+03  0.00000000000E+00 0.  1.
        -11    1    1    2    0    0 -0.54200814701E+01 -0.91727011481E+01  0.43776749179E+03  0.43789712559E+03  0.00000000000E+00 0.  1.
         11    1    1    2    0    0  0.10154971312E+02  0.61558972694E+01 -0.48785293107E+03  0.48799743940E+03  0.00000000000E+00 0.  1.
        -15    1    1    2    0    0  0.13320957080E+01  0.10795655876E+02  0.59404845286E+02  0.60418656367E+02  0.17770000000E+01 0. -1.
         15    1    1    2    0    0 -0.60669855502E+01 -0.77788519976E+01 -0.93194060109E+01  0.13686778637E+02  0.17770000000E+01 0.  1.
</event>
<event>
 6    1  0.3411206E-003  0.5587128E+03  0.7546771E-02  0.9277242E-01
        -11   -1    0    0    0    0  0.00000000000E+00  0.00000000000E+00  0.50000000000E+03  0.50000000000E+03  0.00000000000E+00 0.  1.
         11   -1    0    0    0    0 -0.00000000000E+00 -0.00000000000E+00 -0.50000000000E+03  0.50000000000E+03  0.00000000000E+00 0. -1.
        -11    1    1    2    0    0 -0.15084269695E+02  0.23295546424E+02  0.44041364543E+03  0.44128720439E+03  0.00000000000E+00 0.  1.
         11    1    1    2    0    0  0.84299876512E+01 -0.38875741075E+02 -0.42548105253E+03  0.42733653483E+03  0.00000000000E+00 0. -1.
        -15    1    1    2    0    0 -0.99855579194E+01 -0.35742654365E+02  0.39837927801E+02  0.54474461250E+02  0.17770000000E+01 0.  1.
         15    1    1    2    0    0  0.16639839963E+02  0.51322849016E+02 -0.54770520697E+02  0.76901799534E+02  0.17770000000E+01 0. -1.
</event>
<event>
 6    1  0.3411206E-003  0.4820133E+03  0.7546771E-02  0.9440981E-01
        -11   -1    0    0    0    0  0.00000000000E+00  0.00000000000E+00  0.50000000000E+03  0.50000000000E+03  0.00000000000E+00 0. -1.
         11   -1    0    0    0    0 -0.00000000000E+00 -0.00000000000E+00 -0.50000000000E+03  0.50000000000E+03  0.00000000000E+00 0. -1.
        -11    1    1    2    0    0  0.87630202125E+01  0.47453705617E+01  0.48110625290E+03  0.48120945091E+03  0.00000000000E+00 0. -1.
         11    1    1    2    0    0  0.74685165745E+01  0.71869479713E-01 -0.48290969424E+03  0.48296744890E+03  0.00000000000E+00 0. -1.
        -15    1    1    2    0    0 -0.23558882792E+02  0.28949907298E+01  0.54855285605E+01  0.24426434090E+02  0.17770000000E+01 0.  1.
         15    1    1    2    0    0  0.73273460053E+01 -0.77122307713E+01 -0.36820872139E+01  0.11396666100E+02  0.17770000000E+01 0. -1.
</event>
<event>
 6    1  0.3411206E-003  0.5146591E+03  0.7546771E-02  0.9367593E-01
        -11   -1    0    0    0    0  0.00000000000E+00  0.00000000000E+00  0.50000000000E+03  0.50000000000E+03  0.00000000000E+00 0. -1.
         11   -1    0    0    0    0 -0.00000000000E+00 -0.00000000000E+00 -0.50000000000E+03  0.50000000000E+03  0.00000000000E+00 0.  1.
        -11    1    1    2    0    0  0.40393901997E+01 -0.24489955326E+02  0.48470584451E+03  0.48534094232E+03  0.00000000000E+00 0. -1.
         11    1    1    2    0    0  0.30337401219E+01 -0.10145568657E+02 -0.37473565725E+03  0.37488524772E+03  0.00000000000E+00 0.  1.
        -15    1    1    2    0    0 -0.93291292708E+01 -0.12758449684E+02  0.39213680672E+01  0.16381255990E+02  0.17770000000E+01 0.  1.
         15    1    1    2    0    0  0.22559989491E+01  0.47393973666E+02 -0.11389155533E+03  0.12339255397E+03  0.17770000000E+01 0. -1.
</event>
<event>
 6    1  0.3411206E-003  0.5065480E+03  0.7546771E-02  0.9385276E-01
        -11   -1    0    0    0    0  0.00000000000E+00  0.00000000000E+00  0.50000000000E+03  0.50000000000E+03  0.00000000000E+00 0.  1.
         11   -1    0    0    0    0 -0.00000000000E+00 -0.00000000000E+00 -0.50000000000E+03  0.50000000000E+03  0.00000000000E+00 0.  1.
        -11    1    1    2    0    0 -0.40001376701E+02  0.19443167587E+02  0.49144351761E+03  0.49345200162E+03  0.00000000000E+00 0.  1.
         11    1    1    2    0    0  0.52458170772E+01  0.41486340793E+01 -0.36483490245E+03  0.36489619867E+03  0.00000000000E+00 0.  1.
        -15    1    1    2    0    0  0.37169129297E+02 -0.33299130587E+02 -0.11870355529E+03  0.12877914442E+03  0.17770000000E+01 0. -1.
         15    1    1    2    0    0 -0.24135696729E+01  0.97073289208E+01 -0.79050598716E+01  0.12872655278E+02  0.17770000000E+01 0.  1.
</event>
<event>
 6    1  0.3411206E-003  0.5038017E+03  0.7546771E-02  0.9391343E-01
        -11   -1    0    0    0    0  0.00000000000E+00  0.00000000000E+00  0.50000000000E+03  0.50000000000E+03  0.00000000000E+00 0.  1.
         11   -1    0    0    0    0 -0.00000000000E+00 -0.00000000000E+00 -0.50000000000E+03  0.50000000000E+03  0.00000000000E+00 0.  1.
        -11    1    1    2    0    0 -0.18810741529E+02  0.94585095348E+01  0.49575137499E+03  0.49619828013E+03  0.00000000000E+00 0.  1.
         11    1    1    2    0    0  0.11565492844E+02  0.29239201908E+01 -0.40266647404E+03  0.40284314473E+03  0.00000000000E+00 0.  1.
        -15    1    1    2    0    0  0.18784113595E+01 -0.19201435054E+02 -0.89211184385E+02  0.91290835716E+02  0.17770000000E+01 0.  1.
         15    1    1    2    0    0  0.53668373260E+01  0.68190053287E+01 -0.38737165658E+01  0.96677394250E+01  0.17770000000E+01 0. -1.
</event>
<event>
 6    1  0.3411206E-003  0.5005270E+03  0.7546771E-02  0.9398631E-01
        -11   -1    0    0    0    0  0.00000000000E+00  0.00000000000E+00  0.50000000000E+03  0.50000000000E+03  0.00000000000E+00 0.  1.
         11   -1    0    0    0    0 -0.00000000000E+00 -0.00000000000E+00 -0.50000000000E+03  0.50000000000E+03  0.00000000000E+00 0.  1.
        -11    1    1    2    0    0  0.56605598790E+01  0.10674686093E+00  0.28251695140E+03  0.28257367387E+03  0.00000000000E+00 0.  1.
         11    1    1    2    0    0  0.20041013178E+01  0.72527532703E+01 -0.49941635272E+03  0.49947303453E+03  0.00000000000E+00 0.  1.
        -15    1    1    2    0    0  0.15750137427E+01 -0.12657834055E+01  0.43942293871E+01  0.51526553180E+01  0.17770000000E+01 0. -1.
         15    1    1    2    0    0 -0.92396749395E+01 -0.60937167257E+01  0.21250517193E+03  0.21280063629E+03  0.17770000000E+01 0.  1.
</event>
<event>
 6    1  0.3411206E-003  0.5021601E+03  0.7546771E-02  0.9394989E-01
        -11   -1    0    0    0    0  0.00000000000E+00  0.00000000000E+00  0.50000000000E+03  0.50000000000E+03  0.00000000000E+00 0. -1.
         11   -1    0    0    0    0 -0.00000000000E+00 -0.00000000000E+00 -0.50000000000E+03  0.50000000000E+03  0.00000000000E+00 0. -1.
        -11    1    1    2    0    0  0.49668448068E+01  0.11203701847E+02  0.46141145598E+03  0.46157418060E+03  0.00000000000E+00 0. -1.
         11    1    1    2    0    0 -0.80730317963E+01 -0.40759486284E+00 -0.49777428357E+03  0.49783991137E+03  0.00000000000E+00 0. -1.
        -15    1    1    2    0    0 -0.12462911899E+01 -0.79717683227E+01  0.33288803896E+02  0.34298753997E+02  0.17770000000E+01 0.  1.
         15    1    1    2    0    0  0.43524781794E+01 -0.28243386611E+01  0.30740236887E+01  0.62871540313E+01  0.17770000000E+01 0. -1.
</event>
<event>
 6    1  0.3411206E-003  0.5079673E+03  0.7546771E-02  0.9382157E-01
        -11   -1    0    0    0    0  0.00000000000E+00  0.00000000000E+00  0.50000000000E+03  0.50000000000E+03  0.00000000000E+00 0. -1.
         11   -1    0    0    0    0 -0.00000000000E+00 -0.00000000000E+00 -0.50000000000E+03  0.50000000000E+03  0.00000000000E+00 0. -1.
        -11    1    1    2    0    0 -0.31850760541E+01  0.29838386783E+02  0.49111676066E+03  0.49203266827E+03  0.00000000000E+00 0. -1.
         11    1    1    2    0    0  0.40519032293E+01 -0.18136970193E+02 -0.34773066130E+03  0.34822690937E+03  0.00000000000E+00 0. -1.
        -15    1    1    2    0    0 -0.10992168697E+02 -0.15723501155E+02 -0.37001872918E+01  0.19619005485E+02  0.17770000000E+01 0. -1.
         15    1    1    2    0    0  0.10125341522E+02  0.40220845646E+01 -0.13968591208E+03  0.14012141688E+03  0.17770000000E+01 0.  1.
</event>
<event>
 6    1  0.3411206E-003  0.5012773E+03  0.7546771E-02  0.9396956E-01
        -11   -1    0    0    0    0  0.00000000000E+00  0.00000000000E+00  0.50000000000E+03  0.50000000000E+03  0.00000000000E+00 0. -1.
         11   -1    0    0    0    0 -0.00000000000E+00 -0.00000000000E+00 -0.50000000000E+03  0.50000000000E+03  0.00000000000E+00 0.  1.
        -11    1    1    2    0    0  0.61309462889E+01 -0.41847713629E+01  0.49866741094E+03  0.49872265594E+03  0.00000000000E+00 0. -1.
         11    1    1    2    0    0  0.13043856223E+01  0.11204327566E+02 -0.44200129379E+03  0.44214520476E+03  0.00000000000E+00 0.  1.
        -15    1    1    2    0    0 -0.75037551680E+01  0.48271397347E+00 -0.16328188040E+02  0.18063964351E+02  0.17770000000E+01 0.  1.
         15    1    1    2    0    0  0.68423256813E-01 -0.75022701768E+01 -0.40337929113E+02  0.41068174949E+02  0.17770000000E+01 0. -1.
</event>
<event>
 6    1  0.3411206E-003  0.5083495E+03  0.7546771E-02  0.9381319E-01
        -11   -1    0    0    0    0  0.00000000000E+00  0.00000000000E+00  0.50000000000E+03  0.50000000000E+03  0.00000000000E+00 0.  1.
         11   -1    0    0    0    0 -0.00000000000E+00 -0.00000000000E+00 -0.50000000000E+03  0.50000000000E+03  0.00000000000E+00 0.  1.
        -11    1    1    2    0    0 -0.18604835451E+02  0.82448454580E+01  0.21000734959E+03  0.21099100516E+03  0.00000000000E+00 0.  1.
         11    1    1    2    0    0 -0.28953086396E+02 -0.50436700807E+01 -0.49077133935E+03  0.49165051342E+03  0.00000000000E+00 0.  1.
        -15    1    1    2    0    0 -0.16904004300E+02 -0.17441870460E+02  0.33435016954E+02  0.41364505246E+02  0.17770000000E+01 0. -1.
         15    1    1    2    0    0  0.64461926146E+02  0.14240695083E+02  0.24732897281E+03  0.25599397617E+03  0.17770000000E+01 0.  1.
</event>
<event>
 6    1  0.3411206E-003  0.5002065E+03  0.7546771E-02  0.9399348E-01
        -11   -1    0    0    0    0  0.00000000000E+00  0.00000000000E+00  0.50000000000E+03  0.50000000000E+03  0.00000000000E+00 0.  1.
         11   -1    0    0    0    0 -0.00000000000E+00 -0.00000000000E+00 -0.50000000000E+03  0.50000000000E+03  0.00000000000E+00 0.  1.
        -11    1    1    2    0    0 -0.43960038012E+01  0.12957532870E+01  0.27158884399E+03  0.27162750966E+03  0.00000000000E+00 0.  1.
         11    1    1    2    0    0  0.79412957046E+01  0.23302607643E+01 -0.49972500207E+03  0.49979352935E+03  0.00000000000E+00 0.  1.
        -15    1    1    2    0    0 -0.53185848012E+01 -0.31234504676E+01  0.48307613610E+02  0.48732192120E+02  0.17770000000E+01 0. -1.
         15    1    1    2    0    0  0.17732928978E+01 -0.50256358375E+00  0.17982854446E+03  0.17984676886E+03  0.17770000000E+01 0.  1.
</event>
