<event>
 6    1  0.1378789E-002  0.1850969E+03  0.7546771E-02  0.1066406E+00
        -11   -1    0    0    0    0  0.00000000000E+00  0.00000000000E+00  0.18250000000E+03  0.18250000000E+03  0.00000000000E+00 0.  1.
         11   -1    0    0    0    0 -0.00000000000E+00 -0.00000000000E+00 -0.18250000000E+03  0.18250000000E+03  0.00000000000E+00 0. -1.
        -11    1    1    2    0    0  0.20594038670E+01 -0.26194739166E+01  0.17987223189E+03  0.17990309223E+03  0.00000000000E+00 0.  1.
         11    1    1    2    0    0 -0.33764611206E+01 -0.15629139390E+02 -0.54486482069E+02  0.56784216258E+02  0.00000000000E+00 0. -1.
        -15    1    1    2    0    0 -0.19394282709E+01  0.19015640798E+01 -0.20410830905E+01  0.38341983712E+01  0.17770000000E+01 0.  1.
         15    1    1    2    0    0  0.32564855245E+01  0.16347049227E+02 -0.12334466673E+03  0.12447849315E+03  0.17770000000E+01 0. -1.
</event>
<event>
 6    1  0.1378789E-002  0.1836459E+03  0.7546771E-02  0.1067546E+00
        -11   -1    0    0    0    0  0.00000000000E+00  0.00000000000E+00  0.18250000000E+03  0.18250000000E+03  0.00000000000E+00 0. -1.
         11   -1    0    0    0    0 -0.00000000000E+00 -0.00000000000E+00 -0.18250000000E+03  0.18250000000E+03  0.00000000000E+00 0. -1.
        -11    1    1    2    0    0 -0.91626916649E+00 -0.58156284689E+01  0.18125852000E+03  0.18135410709E+03  0.00000000000E+00 0. -1.
         11    1    1    2    0    0 -0.27235262862E+01  0.27835161943E+01 -0.11891963988E+03  0.11898338669E+03  0.00000000000E+00 0. -1.
        -15    1    1    2    0    0  0.83008290443E+01 -0.12045868974E+01 -0.49653862026E+02  0.50388674675E+02  0.17770000000E+01 0. -1.
         15    1    1    2    0    0 -0.46610335916E+01  0.42366991720E+01 -0.12685018096E+02  0.14273831550E+02  0.17770000000E+01 0.  1.
</event>
<event>
 6    1  0.1378789E-002  0.1738770E+03  0.7546771E-02  0.1075534E+00
        -11   -1    0    0    0    0  0.00000000000E+00  0.00000000000E+00  0.18250000000E+03  0.18250000000E+03  0.00000000000E+00 0.  1.
         11   -1    0    0    0    0 -0.00000000000E+00 -0.00000000000E+00 -0.18250000000E+03  0.18250000000E+03  0.00000000000E+00 0.  1.
        -11    1    1    2    0    0  0.74116170690E+01 -0.43373616023E+01  0.17544322483E+03  0.17565326616E+03  0.00000000000E+00 0.  1.
         11    1    1    2    0    0 -0.28747418530E+00 -0.26970019994E+01 -0.17223831652E+03  0.17225967067E+03  0.00000000000E+00 0.  1.
        -15    1    1    2    0    0 -0.11311209247E-01  0.84229415863E+00  0.44150809130E+01  0.48332448585E+01  0.17770000000E+01 0. -1.
         15    1    1    2    0    0 -0.71128316744E+01  0.61920694432E+01 -0.76199892200E+01  0.12253818308E+02  0.17770000000E+01 0.  1.
</event>
<event>
 6    1  0.1378789E-002  0.1826592E+03  0.7546771E-02  0.1068328E+00
        -11   -1    0    0    0    0  0.00000000000E+00  0.00000000000E+00  0.18250000000E+03  0.18250000000E+03  0.00000000000E+00 0. -1.
         11   -1    0    0    0    0 -0.00000000000E+00 -0.00000000000E+00 -0.18250000000E+03  0.18250000000E+03  0.00000000000E+00 0. -1.
        -11    1    1    2    0    0  0.75317325569E+00  0.79190039708E+00  0.75837568217E+02  0.75845442377E+02  0.00000000000E+00 0. -1.
         11    1    1    2    0    0 -0.23022695583E+01 -0.32995456602E+01 -0.18229636862E+03  0.18234076192E+03  0.00000000000E+00 0. -1.
        -15    1    1    2    0    0 -0.19288991518E+01  0.27476183008E+01  0.27871421246E+02  0.28129058099E+02  0.17770000000E+01 0.  1.
         15    1    1    2    0    0  0.34779954544E+01 -0.23997303764E+00  0.78587379157E+02  0.78684737600E+02  0.17770000000E+01 0. -1.
</event>
<event>
 6    1  0.1378789E-002  0.1828531E+03  0.7546771E-02  0.1068174E+00
        -11   -1    0    0    0    0  0.00000000000E+00  0.00000000000E+00  0.18250000000E+03  0.18250000000E+03  0.00000000000E+00 0. -1.
         11   -1    0    0    0    0 -0.00000000000E+00 -0.00000000000E+00 -0.18250000000E+03  0.18250000000E+03  0.00000000000E+00 0.  1.
        -11    1    1    2    0    0 -0.32124346014E+01  0.68879391607E+01  0.18198823893E+03  0.18214687082E+03  0.00000000000E+00 0. -1.
         11    1    1    2    0    0  0.21502006658E+01  0.51275018240E+00 -0.84340781493E+02  0.84369743975E+02  0.00000000000E+00 0.  1.
        -15    1    1    2    0    0  0.52052449372E+01 -0.44685965044E+01 -0.66338572266E+02  0.66716016285E+02  0.17770000000E+01 0.  1.
         15    1    1    2    0    0 -0.41430110017E+01 -0.29320928387E+01 -0.31308885168E+02  0.31767368919E+02  0.17770000000E+01 0. -1.
</event>
<event>
 6    1  0.1378789E-002  0.1877002E+03  0.7546771E-02  0.1064389E+00
        -11   -1    0    0    0    0  0.00000000000E+00  0.00000000000E+00  0.18250000000E+03  0.18250000000E+03  0.00000000000E+00 0.  1.
         11   -1    0    0    0    0 -0.00000000000E+00 -0.00000000000E+00 -0.18250000000E+03  0.18250000000E+03  0.00000000000E+00 0. -1.
        -11    1    1    2    0    0  0.25519251442E+01  0.30767300263E+00  0.17728119367E+03  0.17729982688E+03  0.00000000000E+00 0.  1.
         11    1    1    2    0    0 -0.21330034415E+01  0.41951780211E+01 -0.17280734371E+03  0.17287141829E+03  0.00000000000E+00 0. -1.
        -15    1    1    2    0    0  0.29437351361E+01 -0.25746291446E+00 -0.75872366505E+01  0.83340118008E+01  0.17770000000E+01 0.  1.
         15    1    1    2    0    0 -0.33626568388E+01 -0.42453881093E+01  0.31133866942E+01  0.64947430220E+01  0.17770000000E+01 0. -1.
</event>
<event>
 6    1  0.1378789E-002  0.1830692E+03  0.7546771E-02  0.1068003E+00
        -11   -1    0    0    0    0  0.00000000000E+00  0.00000000000E+00  0.18250000000E+03  0.18250000000E+03  0.00000000000E+00 0.  1.
         11   -1    0    0    0    0 -0.00000000000E+00 -0.00000000000E+00 -0.18250000000E+03  0.18250000000E+03  0.00000000000E+00 0. -1.
        -11    1    1    2    0    0 -0.27445009880E+01  0.10649520437E+01  0.18190696834E+03  0.18193078777E+03  0.00000000000E+00 0.  1.
         11    1    1    2    0    0  0.16517003059E+01  0.32989982787E+01 -0.16632343008E+03  0.16636434383E+03  0.00000000000E+00 0. -1.
        -15    1    1    2    0    0  0.29270731388E+00 -0.14666613570E+01 -0.42196311917E+01  0.48166159803E+01  0.17770000000E+01 0.  1.
         15    1    1    2    0    0  0.80009336817E+00 -0.28972889654E+01 -0.11363907070E+02  0.11888252422E+02  0.17770000000E+01 0. -1.
</event>
<event>
 6    1  0.1378789E-002  0.1845305E+03  0.7546771E-02  0.1066850E+00
        -11   -1    0    0    0    0  0.00000000000E+00  0.00000000000E+00  0.18250000000E+03  0.18250000000E+03  0.00000000000E+00 0.  1.
         11   -1    0    0    0    0 -0.00000000000E+00 -0.00000000000E+00 -0.18250000000E+03  0.18250000000E+03  0.00000000000E+00 0. -1.
        -11    1    1    2    0    0 -0.92124925105E+00 -0.23030580917E+01  0.18045242804E+03  0.18046947543E+03  0.00000000000E+00 0.  1.
         11    1    1    2    0    0 -0.28344251638E+01  0.84607636455E+00 -0.98933870977E+02  0.98978081603E+02  0.00000000000E+00 0. -1.
        -15    1    1    2    0    0  0.23870417435E+01 -0.28401503492E-01 -0.82599567941E+02  0.82653161633E+02  0.17770000000E+01 0. -1.
         15    1    1    2    0    0  0.13686326714E+01  0.14853832306E+01  0.10810108779E+01  0.28992813332E+01  0.17770000000E+01 0. -1.
</event>
<event>
 6    1  0.1378789E-002  0.1826457E+03  0.7546771E-02  0.1068339E+00
        -11   -1    0    0    0    0  0.00000000000E+00  0.00000000000E+00  0.18250000000E+03  0.18250000000E+03  0.00000000000E+00 0.  1.
         11   -1    0    0    0    0 -0.00000000000E+00 -0.00000000000E+00 -0.18250000000E+03  0.18250000000E+03  0.00000000000E+00 0. -1.
        -11    1    1    2    0    0 -0.57832923644E+00 -0.26838234539E+01  0.18233360901E+03  0.18235427702E+03  0.00000000000E+00 0.  1.
         11    1    1    2    0    0  0.95892186814E+00 -0.10933690664E+01 -0.65280177590E+02  0.65296374886E+02  0.00000000000E+00 0. -1.
        -15    1    1    2    0    0  0.26726635659E+01  0.47560012520E+00 -0.61647966298E+02  0.61733287647E+02  0.17770000000E+01 0. -1.
         15    1    1    2    0    0 -0.30532561976E+01  0.33015923950E+01 -0.55405465119E+02  0.55616060449E+02  0.17770000000E+01 0.  1.
</event>
<event>
 6    1  0.1378789E-002  0.1840268E+03  0.7546771E-02  0.1067246E+00
        -11   -1    0    0    0    0  0.00000000000E+00  0.00000000000E+00  0.18250000000E+03  0.18250000000E+03  0.00000000000E+00 0.  1.
         11   -1    0    0    0    0 -0.00000000000E+00 -0.00000000000E+00 -0.18250000000E+03  0.18250000000E+03  0.00000000000E+00 0.  1.
        -11    1    1    2    0    0 -0.61594996555E+01 -0.11381675383E+01  0.44372883257E+02  0.44812806539E+02  0.00000000000E+00 0.  1.
         11    1    1    2    0    0  0.69409966942E+01 -0.56624673629E+01 -0.18075138274E+03  0.18097321165E+03  0.00000000000E+00 0.  1.
        -15    1    1    2    0    0  0.39616590618E+01 -0.90800700520E+01  0.72550603089E+02  0.73245410452E+02  0.17770000000E+01 0. -1.
         15    1    1    2    0    0 -0.47431561004E+01  0.15880704953E+02  0.63827896396E+02  0.65968571358E+02  0.17770000000E+01 0.  1.
</event>
<event>
 6    1  0.1378789E-002  0.1826019E+03  0.7546771E-02  0.1068374E+00
        -11   -1    0    0    0    0  0.00000000000E+00  0.00000000000E+00  0.18250000000E+03  0.18250000000E+03  0.00000000000E+00 0.  1.
         11   -1    0    0    0    0 -0.00000000000E+00 -0.00000000000E+00 -0.18250000000E+03  0.18250000000E+03  0.00000000000E+00 0. -1.
        -11    1    1    2    0    0  0.10136764075E+01  0.22439227204E+01  0.18238146206E+03  0.18239808232E+03  0.00000000000E+00 0.  1.
         11    1    1    2    0    0 -0.23852839871E+01 -0.20770615538E+01 -0.70139302438E+02  0.70210579764E+02  0.00000000000E+00 0. -1.
        -15    1    1    2    0    0  0.93195433150E-01  0.72451082053E+00 -0.90621752078E+02  0.90642116480E+02  0.17770000000E+01 0. -1.
         15    1    1    2    0    0  0.12784121465E+01 -0.89137198717E+00 -0.21620407547E+02  0.21749221438E+02  0.17770000000E+01 0.  1.
</event>
<event>
 6    1  0.1378789E-002  0.1895112E+03  0.7546771E-02  0.1063007E+00
        -11   -1    0    0    0    0  0.00000000000E+00  0.00000000000E+00  0.18250000000E+03  0.18250000000E+03  0.00000000000E+00 0. -1.
         11   -1    0    0    0    0 -0.00000000000E+00 -0.00000000000E+00 -0.18250000000E+03  0.18250000000E+03  0.00000000000E+00 0. -1.
        -11    1    1    2    0    0  0.24259777420E+01  0.43571595418E+01  0.11658485794E+03  0.11669147059E+03  0.00000000000E+00 0. -1.
         11    1    1    2    0    0 -0.20423966615E+01  0.26412624757E+01 -0.17545703190E+03  0.17548879649E+03  0.00000000000E+00 0. -1.
        -15    1    1    2    0    0  0.59796420895E+01 -0.34188013307E+01  0.63564200411E+02  0.63961000813E+02  0.17770000000E+01 0. -1.
         15    1    1    2    0    0 -0.63632231700E+01 -0.35796206869E+01 -0.46920264536E+01  0.88587321110E+01  0.17770000000E+01 0.  1.
</event>
<event>
 6    1  0.1378789E-002  0.1838027E+03  0.7546771E-02  0.1067423E+00
        -11   -1    0    0    0    0  0.00000000000E+00  0.00000000000E+00  0.18250000000E+03  0.18250000000E+03  0.00000000000E+00 0.  1.
         11   -1    0    0    0    0 -0.00000000000E+00 -0.00000000000E+00 -0.18250000000E+03  0.18250000000E+03  0.00000000000E+00 0.  1.
        -11    1    1    2    0    0 -0.25500265792E+01 -0.17949210098E+01  0.16865460474E+03  0.16868343154E+03  0.00000000000E+00 0.  1.
         11    1    1    2    0    0 -0.10246085900E+01 -0.35537440406E+01 -0.18115950182E+03  0.18119725168E+03  0.00000000000E+00 0.  1.
        -15    1    1    2    0    0  0.19945628627E+01  0.86654793802E+00  0.74302134132E+01  0.79432352796E+01  0.17770000000E+01 0.  1.
         15    1    1    2    0    0  0.15800723065E+01  0.44821171124E+01  0.50746836650E+01  0.71760814936E+01  0.17770000000E+01 0.  1.
</event>
<event>
 6    1  0.1378789E-002  0.1865592E+03  0.7546771E-02  0.1065269E+00
        -11   -1    0    0    0    0  0.00000000000E+00  0.00000000000E+00  0.18250000000E+03  0.18250000000E+03  0.00000000000E+00 0.  1.
         11   -1    0    0    0    0 -0.00000000000E+00 -0.00000000000E+00 -0.18250000000E+03  0.18250000000E+03  0.00000000000E+00 0. -1.
        -11    1    1    2    0    0  0.38820866743E+01  0.17455688700E+02  0.17754257061E+03  0.17844084746E+03  0.00000000000E+00 0.  1.
         11    1    1    2    0    0 -0.36991220399E+01  0.16913773182E+01 -0.11462370260E+03  0.11469584761E+03  0.00000000000E+00 0. -1.
        -15    1    1    2    0    0  0.12682603360E+02 -0.11929602014E+02 -0.46676620673E+02  0.49850059967E+02  0.17770000000E+01 0. -1.
         15    1    1    2    0    0 -0.12865567994E+02 -0.72174640044E+01 -0.16242247337E+02  0.22013244968E+02  0.17770000000E+01 0.  1.
</event>
<event>
 6    1  0.1378789E-002  0.1962476E+03  0.7546771E-02  0.1058010E+00
        -11   -1    0    0    0    0  0.00000000000E+00  0.00000000000E+00  0.18250000000E+03  0.18250000000E+03  0.00000000000E+00 0. -1.
         11   -1    0    0    0    0 -0.00000000000E+00 -0.00000000000E+00 -0.18250000000E+03  0.18250000000E+03  0.00000000000E+00 0.  1.
        -11    1    1    2    0    0 -0.20750618958E+01 -0.80619698466E+00  0.14375020708E+03  0.14376744371E+03  0.00000000000E+00 0. -1.
         11    1    1    2    0    0 -0.26968818789E+01 -0.27478328022E+01 -0.16870844374E+03  0.16875237108E+03  0.00000000000E+00 0.  1.
        -15    1    1    2    0    0  0.51939385563E+01 -0.26797560857E+01  0.37692781656E+02  0.38184572911E+02  0.17770000000E+01 0. -1.
         15    1    1    2    0    0 -0.42199478160E+00  0.62337858725E+01 -0.12734544992E+02  0.14295612301E+02  0.17770000000E+01 0.  1.
</event>
<event>
 6    1  0.1378789E-002  0.1826469E+03  0.7546771E-02  0.1068338E+00
        -11   -1    0    0    0    0  0.00000000000E+00  0.00000000000E+00  0.18250000000E+03  0.18250000000E+03  0.00000000000E+00 0. -1.
         11   -1    0    0    0    0 -0.00000000000E+00 -0.00000000000E+00 -0.18250000000E+03  0.18250000000E+03  0.00000000000E+00 0. -1.
        -11    1    1    2    0    0 -0.20141725428E+00  0.26883319751E+01  0.64292435889E+02  0.64348931695E+02  0.00000000000E+00 0. -1.
         11    1    1    2    0    0  0.75365334901E+01 -0.36749120699E+01 -0.18216027261E+03  0.18235314429E+03  0.00000000000E+00 0. -1.
        -15    1    1    2    0    0  0.16433205186E-01  0.16780948782E+01  0.33417740215E+02  0.33507004679E+02  0.17770000000E+01 0. -1.
         15    1    1    2    0    0 -0.73515494410E+01 -0.69151478335E+00  0.84450096508E+02  0.84790919331E+02  0.17770000000E+01 0.  1.
</event>
<event>
 6    1  0.1378789E-002  0.1829960E+03  0.7546771E-02  0.1068061E+00
        -11   -1    0    0    0    0  0.00000000000E+00  0.00000000000E+00  0.18250000000E+03  0.18250000000E+03  0.00000000000E+00 0. -1.
         11   -1    0    0    0    0 -0.00000000000E+00 -0.00000000000E+00 -0.18250000000E+03  0.18250000000E+03  0.00000000000E+00 0. -1.
        -11    1    1    2    0    0 -0.24216414652E+01 -0.88195759637E+00  0.14995271386E+03  0.14997485986E+03  0.00000000000E+00 0. -1.
         11    1    1    2    0    0  0.23365439710E+01 -0.49965366201E+01 -0.18192042854E+03  0.18200403055E+03  0.00000000000E+00 0. -1.
        -15    1    1    2    0    0 -0.15157585985E+01  0.56370874127E+00  0.10933394366E+02  0.11194290198E+02  0.17770000000E+01 0. -1.
         15    1    1    2    0    0  0.16008560927E+01  0.53147854752E+01  0.21034320310E+02  0.21826819392E+02  0.17770000000E+01 0.  1.
</event>
<event>
 6    1  0.1464155E-002  0.1847372E+03  0.7546771E-02  0.1066688E+00
        -11   -1    0    0    0    0  0.00000000000E+00  0.00000000000E+00  0.18250000000E+03  0.18250000000E+03  0.00000000000E+00 0.  1.
         11   -1    0    0    0    0 -0.00000000000E+00 -0.00000000000E+00 -0.18250000000E+03  0.18250000000E+03  0.00000000000E+00 0. -1.
        -11    1    1    2    0    0  0.73066973231E+01 -0.18531397910E+01  0.18010513512E+03  0.18026281272E+03  0.00000000000E+00 0.  1.
         11    1    1    2    0    0 -0.34775167051E+01 -0.62476402607E+00 -0.11442906560E+03  0.11448359929E+03  0.00000000000E+00 0. -1.
        -15    1    1    2    0    0  0.40374632276E+00  0.51952910816E+00 -0.65213631349E+02  0.65241155449E+02  0.17770000000E+01 0.  1.
         15    1    1    2    0    0 -0.42329269408E+01  0.19583747089E+01 -0.46243816990E+00  0.50124325479E+01  0.17770000000E+01 0. -1.
</event>
<event>
 6    1  0.1378789E-002  0.1608487E+03  0.7546771E-02  0.1087128E+00
        -11   -1    0    0    0    0  0.00000000000E+00  0.00000000000E+00  0.18250000000E+03  0.18250000000E+03  0.00000000000E+00 0. -1.
         11   -1    0    0    0    0 -0.00000000000E+00 -0.00000000000E+00 -0.18250000000E+03  0.18250000000E+03  0.00000000000E+00 0.  1.
        -11    1    1    2    0    0 -0.31254238278E+01 -0.25385457753E+00  0.16277437655E+03  0.16280457726E+03  0.00000000000E+00 0. -1.
         11    1    1    2    0    0 -0.99162589658E+01  0.11234229616E+01 -0.15886884789E+03  0.15918198737E+03  0.00000000000E+00 0.  1.
        -15    1    1    2    0    0  0.19970886998E+01  0.78716157841E+00  0.18078128146E+02  0.18291649267E+02  0.17770000000E+01 0. -1.
         15    1    1    2    0    0  0.11044594094E+02 -0.16567299625E+01 -0.21983656802E+02  0.24721786105E+02  0.17770000000E+01 0.  1.
</event>
<event>
 6    1  0.1378789E-002  0.1826326E+03  0.7546771E-02  0.1068349E+00
        -11   -1    0    0    0    0  0.00000000000E+00  0.00000000000E+00  0.18250000000E+03  0.18250000000E+03  0.00000000000E+00 0. -1.
         11   -1    0    0    0    0 -0.00000000000E+00 -0.00000000000E+00 -0.18250000000E+03  0.18250000000E+03  0.00000000000E+00 0.  1.
        -11    1    1    2    0    0  0.10585459932E+02 -0.20616472270E+01  0.18204830240E+03  0.18236744983E+03  0.00000000000E+00 0. -1.
         11    1    1    2    0    0 -0.58859312375E+00 -0.14947342129E+00 -0.55912747035E+01  0.56241565571E+01  0.00000000000E+00 0.  1.
        -15    1    1    2    0    0  0.20846547740E+00 -0.12340169054E+01 -0.12438295788E+02  0.12626764696E+02  0.17770000000E+01 0.  1.
         15    1    1    2    0    0 -0.10205332286E+02  0.34451375537E+01 -0.16401873191E+03  0.16438162892E+03  0.17770000000E+01 0.  1.
</event>
<event>
 6    1  0.1378789E-002  0.1958607E+03  0.7546771E-02  0.1058291E+00
        -11   -1    0    0    0    0  0.00000000000E+00  0.00000000000E+00  0.18250000000E+03  0.18250000000E+03  0.00000000000E+00 0. -1.
         11   -1    0    0    0    0 -0.00000000000E+00 -0.00000000000E+00 -0.18250000000E+03  0.18250000000E+03  0.00000000000E+00 0.  1.
        -11    1    1    2    0    0 -0.30652679056E+01 -0.67032149257E+00  0.16911023179E+03  0.16913933810E+03  0.00000000000E+00 0. -1.
         11    1    1    2    0    0 -0.27311481047E+01  0.25226781334E+01 -0.14109681283E+03  0.14114578869E+03  0.00000000000E+00 0.  1.
        -15    1    1    2    0    0  0.61550143657E+01 -0.14752007523E+01  0.12519023304E+02  0.14140158860E+02  0.17770000000E+01 0. -1.
         15    1    1    2    0    0 -0.35859835548E+00 -0.37715588848E+00 -0.40532442261E+02  0.40574714343E+02  0.17770000000E+01 0.  1.
</event>
<event>
 6    1  0.1378789E-002  0.1843846E+03  0.7546771E-02  0.1066964E+00
        -11   -1    0    0    0    0  0.00000000000E+00  0.00000000000E+00  0.18250000000E+03  0.18250000000E+03  0.00000000000E+00 0. -1.
         11   -1    0    0    0    0 -0.00000000000E+00 -0.00000000000E+00 -0.18250000000E+03  0.18250000000E+03  0.00000000000E+00 0.  1.
        -11    1    1    2    0    0 -0.16126093557E+01 -0.49171713242E+01  0.14931732621E+03  0.14940697102E+03  0.00000000000E+00 0. -1.
         11    1    1    2    0    0 -0.83268964292E-01 -0.33078059581E+01 -0.18058506469E+03  0.18061537615E+03  0.00000000000E+00 0.  1.
        -15    1    1    2    0    0 -0.30652807495E+01  0.24868708178E+01  0.20843524244E+01  0.48044486225E+01  0.17770000000E+01 0.  1.
         15    1    1    2    0    0  0.47611590694E+01  0.57381064645E+01  0.29183386055E+02  0.30173204207E+02  0.17770000000E+01 0. -1.
</event>
<event>
 6    1  0.1378789E-002  0.1855687E+03  0.7546771E-02  0.1066038E+00
        -11   -1    0    0    0    0  0.00000000000E+00  0.00000000000E+00  0.18250000000E+03  0.18250000000E+03  0.00000000000E+00 0.  1.
         11   -1    0    0    0    0 -0.00000000000E+00 -0.00000000000E+00 -0.18250000000E+03  0.18250000000E+03  0.00000000000E+00 0.  1.
        -11    1    1    2    0    0 -0.22005620488E+02  0.83092794957E+01  0.17788280693E+03  0.17943128060E+03  0.00000000000E+00 0.  1.
         11    1    1    2    0    0 -0.29194430940E+01 -0.14634662027E+01 -0.96744996012E+02  0.96800098836E+02  0.00000000000E+00 0.  1.
        -15    1    1    2    0    0  0.12822211154E+01  0.63276151983E+00 -0.44110191521E+02  0.44169120470E+02  0.17770000000E+01 0. -1.
         15    1    1    2    0    0  0.23642842467E+02 -0.74785748128E+01 -0.37027619395E+02  0.44599500089E+02  0.17770000000E+01 0.  1.
</event>
<event>
 6    1  0.1378789E-002  0.1742847E+03  0.7546771E-02  0.1075189E+00
        -11   -1    0    0    0    0  0.00000000000E+00  0.00000000000E+00  0.18250000000E+03  0.18250000000E+03  0.00000000000E+00 0.  1.
         11   -1    0    0    0    0 -0.00000000000E+00 -0.00000000000E+00 -0.18250000000E+03  0.18250000000E+03  0.00000000000E+00 0.  1.
        -11    1    1    2    0    0  0.43134409029E+00  0.23451859641E+01  0.17394381155E+03  0.17396015501E+03  0.00000000000E+00 0.  1.
         11    1    1    2    0    0 -0.58734616404E+01  0.10908808712E+01 -0.17456697908E+03  0.17466916659E+03  0.00000000000E+00 0.  1.
        -15    1    1    2    0    0 -0.21999353106E+01 -0.11676809268E+01  0.59006391841E+01  0.66466883407E+01  0.17770000000E+01 0.  1.
         15    1    1    2    0    0  0.76420528608E+01 -0.22683859085E+01 -0.52774716594E+01  0.97239900592E+01  0.17770000000E+01 0.  1.
</event>
<event>
 6    1  0.1378789E-002  0.2020467E+03  0.7546771E-02  0.1053880E+00
        -11   -1    0    0    0    0  0.00000000000E+00  0.00000000000E+00  0.18250000000E+03  0.18250000000E+03  0.00000000000E+00 0.  1.
         11   -1    0    0    0    0 -0.00000000000E+00 -0.00000000000E+00 -0.18250000000E+03  0.18250000000E+03  0.00000000000E+00 0.  1.
        -11    1    1    2    0    0 -0.10762061681E+02 -0.75274752436E+01  0.45769828006E+02  0.47616824872E+02  0.00000000000E+00 0.  1.
         11    1    1    2    0    0 -0.54263927476E+01  0.13810457415E+00 -0.16286289811E+03  0.16295333195E+03  0.00000000000E+00 0.  1.
        -15    1    1    2    0    0  0.20786449033E+02  0.22908668335E+01 -0.12642009349E+02  0.24501074745E+02  0.17770000000E+01 0. -1.
         15    1    1    2    0    0 -0.45979946049E+01  0.50985038359E+01  0.12973507946E+03  0.12992876843E+03  0.17770000000E+01 0.  1.
</event>
<event>
 6    1  0.1378789E-002  0.1840403E+03  0.7546771E-02  0.1067235E+00
        -11   -1    0    0    0    0  0.00000000000E+00  0.00000000000E+00  0.18250000000E+03  0.18250000000E+03  0.00000000000E+00 0.  1.
         11   -1    0    0    0    0 -0.00000000000E+00 -0.00000000000E+00 -0.18250000000E+03  0.18250000000E+03  0.00000000000E+00 0.  1.
        -11    1    1    2    0    0 -0.44650047297E+00 -0.24189324391E+01  0.18094293710E+03  0.18095965596E+03  0.00000000000E+00 0.  1.
         11    1    1    2    0    0 -0.21412706524E+01  0.21415920041E-01 -0.15677108056E+03  0.15678570471E+03  0.00000000000E+00 0.  1.
        -15    1    1    2    0    0 -0.97284625152E+00  0.16623746017E+01  0.12450404866E+00  0.26235756904E+01  0.17770000000E+01 0. -1.
         15    1    1    2    0    0  0.35606173769E+01  0.73514191743E+00 -0.24296360586E+02  0.24631063649E+02  0.17770000000E+01 0.  1.
</event>
<event>
 6    1  0.1378789E-002  0.1833890E+03  0.7546771E-02  0.1067749E+00
        -11   -1    0    0    0    0  0.00000000000E+00  0.00000000000E+00  0.18250000000E+03  0.18250000000E+03  0.00000000000E+00 0. -1.
         11   -1    0    0    0    0 -0.00000000000E+00 -0.00000000000E+00 -0.18250000000E+03  0.18250000000E+03  0.00000000000E+00 0. -1.
        -11    1    1    2    0    0 -0.63563839415E+01  0.52944025698E+01  0.18142251841E+03  0.18161102528E+03  0.00000000000E+00 0. -1.
         11    1    1    2    0    0  0.14609149262E+01  0.18832104444E+01 -0.13658669400E+03  0.13660748784E+03  0.00000000000E+00 0. -1.
        -15    1    1    2    0    0  0.34464716824E+01 -0.66240320007E+00 -0.50538468295E+01  0.64043767717E+01  0.17770000000E+01 0.  1.
         15    1    1    2    0    0  0.14489973329E+01 -0.65152098142E+01 -0.39781977579E+02  0.40377110115E+02  0.17770000000E+01 0. -1.
</event>
<event>
 6    1  0.1378789E-002  0.1736348E+03  0.7546771E-02  0.1075739E+00
        -11   -1    0    0    0    0  0.00000000000E+00  0.00000000000E+00  0.18250000000E+03  0.18250000000E+03  0.00000000000E+00 0.  1.
         11   -1    0    0    0    0 -0.00000000000E+00 -0.00000000000E+00 -0.18250000000E+03  0.18250000000E+03  0.00000000000E+00 0.  1.
        -11    1    1    2    0    0  0.11561030689E+01 -0.47590287064E+01  0.17404746599E+03  0.17411635577E+03  0.00000000000E+00 0.  1.
         11    1    1    2    0    0  0.59978864999E+01  0.17162113906E+01 -0.17312908317E+03  0.17324144846E+03  0.00000000000E+00 0.  1.
        -15    1    1    2    0    0 -0.99219792171E+01  0.15595292879E+01 -0.56746958439E+01  0.11672090863E+02  0.17770000000E+01 0. -1.
         15    1    1    2    0    0  0.27679896483E+01  0.14832880279E+01  0.47563130280E+01  0.59701049143E+01  0.17770000000E+01 0.  1.
</event>
<event>
 6    1  0.1821361E-002  0.1826936E+03  0.7546771E-02  0.1068301E+00
        -11   -1    0    0    0    0  0.00000000000E+00  0.00000000000E+00  0.18250000000E+03  0.18250000000E+03  0.00000000000E+00 0.  1.
         11   -1    0    0    0    0 -0.00000000000E+00 -0.00000000000E+00 -0.18250000000E+03  0.18250000000E+03  0.00000000000E+00 0.  1.
        -11    1    1    2    0    0 -0.27226080313E+01 -0.12059368463E+01  0.18228207483E+03  0.18230639506E+03  0.00000000000E+00 0.  1.
         11    1    1    2    0    0  0.14055865680E-01  0.10393226303E+01 -0.48349423923E+02  0.48360595352E+02  0.00000000000E+00 0.  1.
        -15    1    1    2    0    0 -0.28393833770E+01 -0.78049391200E+00 -0.80875177601E+02  0.80948275767E+02  0.17770000000E+01 0. -1.
         15    1    1    2    0    0  0.55479355426E+01  0.94710812799E+00 -0.53057473301E+02  0.53384733817E+02  0.17770000000E+01 0.  1.
</event>
<event>
 6    1  0.1378789E-002  0.1830109E+03  0.7546771E-02  0.1068049E+00
        -11   -1    0    0    0    0  0.00000000000E+00  0.00000000000E+00  0.18250000000E+03  0.18250000000E+03  0.00000000000E+00 0.  1.
         11   -1    0    0    0    0 -0.00000000000E+00 -0.00000000000E+00 -0.18250000000E+03  0.18250000000E+03  0.00000000000E+00 0.  1.
        -11    1    1    2    0    0 -0.87186655592E+00  0.30463753900E+01  0.90686174290E+02  0.90741516197E+02  0.00000000000E+00 0.  1.
         11    1    1    2    0    0  0.26401144981E+01 -0.92994121901E+01 -0.18173220935E+03  0.18198913481E+03  0.00000000000E+00 0.  1.
        -15    1    1    2    0    0  0.26754232743E+01 -0.30951001003E+01  0.28908268527E+02  0.29250354743E+02  0.17770000000E+01 0. -1.
         15    1    1    2    0    0 -0.44436712165E+01  0.93481369003E+01  0.62137766536E+02  0.63018994252E+02  0.17770000000E+01 0.  1.
</event>
<event>
 6    1  0.1378789E-002  0.1838714E+03  0.7546771E-02  0.1067368E+00
        -11   -1    0    0    0    0  0.00000000000E+00  0.00000000000E+00  0.18250000000E+03  0.18250000000E+03  0.00000000000E+00 0. -1.
         11   -1    0    0    0    0 -0.00000000000E+00 -0.00000000000E+00 -0.18250000000E+03  0.18250000000E+03  0.00000000000E+00 0. -1.
        -11    1    1    2    0    0  0.36548889767E+01 -0.14721446130E+01  0.16157028328E+03  0.16161832155E+03  0.00000000000E+00 0. -1.
         11    1    1    2    0    0 -0.37366862602E+00 -0.64765239459E+01 -0.18101234930E+03  0.18112856095E+03  0.00000000000E+00 0. -1.
        -15    1    1    2    0    0 -0.31603600747E+01  0.28586837586E+01  0.48490236490E+01  0.66955737605E+01  0.17770000000E+01 0.  1.
         15    1    1    2    0    0 -0.12086027594E+00  0.50899848003E+01  0.14593042374E+02  0.15557543739E+02  0.17770000000E+01 0. -1.
</event>
<event>
 6    1  0.1378789E-002  0.1910104E+03  0.7546771E-02  0.1061875E+00
        -11   -1    0    0    0    0  0.00000000000E+00  0.00000000000E+00  0.18250000000E+03  0.18250000000E+03  0.00000000000E+00 0. -1.
         11   -1    0    0    0    0 -0.00000000000E+00 -0.00000000000E+00 -0.18250000000E+03  0.18250000000E+03  0.00000000000E+00 0.  1.
        -11    1    1    2    0    0  0.93677373603E+01  0.11509470774E+01  0.17373342398E+03  0.17398960253E+03  0.00000000000E+00 0. -1.
         11    1    1    2    0    0  0.52509787892E+01 -0.15525987856E+01 -0.16259070948E+03  0.16268288831E+03  0.00000000000E+00 0.  1.
        -15    1    1    2    0    0  0.89131659561E+00 -0.58039012165E+01 -0.96852192486E+01  0.11464768445E+02  0.17770000000E+01 0. -1.
         15    1    1    2    0    0 -0.15510032745E+02  0.62055529248E+01 -0.14574952510E+01  0.16862740710E+02  0.17770000000E+01 0.  1.
</event>
<event>
 6    1  0.1378789E-002  0.1849166E+03  0.7546771E-02  0.1066547E+00
        -11   -1    0    0    0    0  0.00000000000E+00  0.00000000000E+00  0.18250000000E+03  0.18250000000E+03  0.00000000000E+00 0. -1.
         11   -1    0    0    0    0 -0.00000000000E+00 -0.00000000000E+00 -0.18250000000E+03  0.18250000000E+03  0.00000000000E+00 0. -1.
        -11    1    1    2    0    0 -0.22488654828E+01 -0.90004436343E+00  0.17623976265E+03  0.17625640815E+03  0.00000000000E+00 0. -1.
         11    1    1    2    0    0  0.28749887338E+01 -0.25578181283E+01 -0.18004226874E+03  0.18008338771E+03  0.00000000000E+00 0. -1.
        -15    1    1    2    0    0  0.24671998230E+01  0.46398319401E+00  0.10479203882E+01  0.32493417042E+01  0.17770000000E+01 0. -1.
         15    1    1    2    0    0 -0.30933230740E+01  0.29938792977E+01  0.27545857051E+01  0.54108624355E+01  0.17770000000E+01 0. -1.
</event>
<event>
 6    1  0.1378789E-002  0.1834210E+03  0.7546771E-02  0.1067724E+00
        -11   -1    0    0    0    0  0.00000000000E+00  0.00000000000E+00  0.18250000000E+03  0.18250000000E+03  0.00000000000E+00 0.  1.
         11   -1    0    0    0    0 -0.00000000000E+00 -0.00000000000E+00 -0.18250000000E+03  0.18250000000E+03  0.00000000000E+00 0. -1.
        -11    1    1    2    0    0  0.18216720402E+01 -0.24032410995E+01  0.13762477386E+03  0.13765780921E+03  0.00000000000E+00 0.  1.
         11    1    1    2    0    0 -0.13977134483E+00 -0.45999457069E+01 -0.18152065137E+03  0.18157897982E+03  0.00000000000E+00 0. -1.
        -15    1    1    2    0    0  0.15036447362E+01  0.57465043211E+01  0.10879311516E+02  0.12521996944E+02  0.17770000000E+01 0.  1.
         15    1    1    2    0    0 -0.31855454315E+01  0.12566824853E+01  0.33016565997E+02  0.33241214024E+02  0.17770000000E+01 0.  1.
</event>
<event>
 6    1  0.1423327E-002  0.1831787E+03  0.7546771E-02  0.1067916E+00
        -11   -1    0    0    0    0  0.00000000000E+00  0.00000000000E+00  0.18250000000E+03  0.18250000000E+03  0.00000000000E+00 0. -1.
         11   -1    0    0    0    0 -0.00000000000E+00 -0.00000000000E+00 -0.18250000000E+03  0.18250000000E+03  0.00000000000E+00 0. -1.
        -11    1    1    2    0    0  0.25353814680E+01  0.23300273904E+01  0.18178872033E+03  0.18182132996E+03  0.00000000000E+00 0. -1.
         11    1    1    2    0    0  0.26631025447E+01 -0.22019443186E+00 -0.12258999831E+03  0.12261911877E+03  0.00000000000E+00 0. -1.
        -15    1    1    2    0    0 -0.38572511198E+01 -0.34293438471E+00 -0.56433366099E+02  0.56593979613E+02  0.17770000000E+01 0.  1.
         15    1    1    2    0    0 -0.13412328929E+01 -0.17668985738E+01 -0.27653559199E+01  0.39655716620E+01  0.17770000000E+01 0. -1.
</event>
<event>
 6    1  0.1378789E-002  0.1762720E+03  0.7546771E-02  0.1073523E+00
        -11   -1    0    0    0    0  0.00000000000E+00  0.00000000000E+00  0.18250000000E+03  0.18250000000E+03  0.00000000000E+00 0. -1.
         11   -1    0    0    0    0 -0.00000000000E+00 -0.00000000000E+00 -0.18250000000E+03  0.18250000000E+03  0.00000000000E+00 0. -1.
        -11    1    1    2    0    0 -0.11974397391E+02 -0.56517189022E+00  0.17692214984E+03  0.17732781146E+03  0.00000000000E+00 0. -1.
         11    1    1    2    0    0  0.63096188753E+01  0.54313858634E+01 -0.17510213584E+03  0.17529994072E+03  0.00000000000E+00 0. -1.
        -15    1    1    2    0    0  0.69162329914E+01 -0.65206544290E+00  0.30315581253E+00  0.71769840866E+01  0.17770000000E+01 0. -1.
         15    1    1    2    0    0 -0.12514544757E+01 -0.42141485303E+01 -0.21231698185E+01  0.51952637294E+01  0.17770000000E+01 0.  1.
</event>
<event>
 6    1  0.1378789E-002  0.1829090E+03  0.7546771E-02  0.1068130E+00
        -11   -1    0    0    0    0  0.00000000000E+00  0.00000000000E+00  0.18250000000E+03  0.18250000000E+03  0.00000000000E+00 0.  1.
         11   -1    0    0    0    0 -0.00000000000E+00 -0.00000000000E+00 -0.18250000000E+03  0.18250000000E+03  0.00000000000E+00 0.  1.
        -11    1    1    2    0    0 -0.17835856756E+01  0.47445645862E+01  0.18202040593E+03  0.18209096695E+03  0.00000000000E+00 0.  1.
         11    1    1    2    0    0 -0.47349398504E+00 -0.18823590353E+01 -0.13666709386E+03  0.13668087655E+03  0.00000000000E+00 0.  1.
        -15    1    1    2    0    0  0.54557163573E+00 -0.21410540077E+01 -0.41496662030E+02  0.41593418341E+02  0.17770000000E+01 0.  1.
         15    1    1    2    0    0  0.17115080249E+01 -0.72115154312E+00 -0.38566500371E+01  0.46347381561E+01  0.17770000000E+01 0.  1.
</event>
<event>
 6    1  0.1378789E-002  0.1831179E+03  0.7546771E-02  0.1067964E+00
        -11   -1    0    0    0    0  0.00000000000E+00  0.00000000000E+00  0.18250000000E+03  0.18250000000E+03  0.00000000000E+00 0. -1.
         11   -1    0    0    0    0 -0.00000000000E+00 -0.00000000000E+00 -0.18250000000E+03  0.18250000000E+03  0.00000000000E+00 0.  1.
        -11    1    1    2    0    0  0.19870635488E+01 -0.53884781646E+00  0.80159767580E+02  0.80186202784E+02  0.00000000000E+00 0. -1.
         11    1    1    2    0    0 -0.78388658750E+01 -0.42901459330E+01 -0.18166247513E+03  0.18188212678E+03  0.00000000000E+00 0.  1.
        -15    1    1    2    0    0  0.81981982988E+01 -0.24381307267E+01  0.40801713422E+02  0.41726400324E+02  0.17770000000E+01 0.  1.
         15    1    1    2    0    0 -0.23463959726E+01  0.72671244761E+01  0.60700994131E+02  0.61205270113E+02  0.17770000000E+01 0. -1.
</event>
<event>
 6    1  0.1378789E-002  0.1833160E+03  0.7546771E-02  0.1067807E+00
        -11   -1    0    0    0    0  0.00000000000E+00  0.00000000000E+00  0.18250000000E+03  0.18250000000E+03  0.00000000000E+00 0. -1.
         11   -1    0    0    0    0 -0.00000000000E+00 -0.00000000000E+00 -0.18250000000E+03  0.18250000000E+03  0.00000000000E+00 0. -1.
        -11    1    1    2    0    0  0.75296791878E+01 -0.56306094247E+01  0.18144056785E+03  0.18168401001E+03  0.00000000000E+00 0. -1.
         11    1    1    2    0    0  0.15249636694E+01  0.11461151179E+01 -0.94248482075E+02  0.94267785948E+02  0.00000000000E+00 0. -1.
        -15    1    1    2    0    0 -0.14653059458E+01  0.34440239770E+01 -0.50570167937E+01  0.65375508045E+01  0.17770000000E+01 0. -1.
         15    1    1    2    0    0 -0.75893369113E+01  0.10404703298E+01 -0.82135068978E+02  0.82510653241E+02  0.17770000000E+01 0.  1.
</event>
<event>
 6    1  0.1378789E-002  0.1826715E+03  0.7546771E-02  0.1068318E+00
        -11   -1    0    0    0    0  0.00000000000E+00  0.00000000000E+00  0.18250000000E+03  0.18250000000E+03  0.00000000000E+00 0.  1.
         11   -1    0    0    0    0 -0.00000000000E+00 -0.00000000000E+00 -0.18250000000E+03  0.18250000000E+03  0.00000000000E+00 0. -1.
        -11    1    1    2    0    0  0.50248688584E+00  0.25540785654E+00  0.25407011607E+02  0.25413263565E+02  0.00000000000E+00 0.  1.
         11    1    1    2    0    0 -0.10997149822E+01  0.22230998725E+01 -0.18231158016E+03  0.18232845035E+03  0.00000000000E+00 0. -1.
        -15    1    1    2    0    0 -0.43041381797E+01 -0.21402279900E+01  0.92670849959E+02  0.92812447131E+02  0.17770000000E+01 0. -1.
         15    1    1    2    0    0  0.49013662761E+01 -0.33827973906E+00  0.64233718596E+02  0.64445838952E+02  0.17770000000E+01 0.  1.
</event>
<event>
 6    1  0.1378789E-002  0.1420326E+03  0.7546771E-02  0.1106186E+00
        -11   -1    0    0    0    0  0.00000000000E+00  0.00000000000E+00  0.18250000000E+03  0.18250000000E+03  0.00000000000E+00 0. -1.
         11   -1    0    0    0    0 -0.00000000000E+00 -0.00000000000E+00 -0.18250000000E+03  0.18250000000E+03  0.00000000000E+00 0. -1.
        -11    1    1    2    0    0  0.59622981385E+01  0.12183984337E+01  0.13950287120E+03  0.13963554191E+03  0.00000000000E+00 0. -1.
         11    1    1    2    0    0  0.27288032301E+01  0.48835910387E+01 -0.14456496737E+03  0.14467316828E+03  0.00000000000E+00 0. -1.
        -15    1    1    2    0    0 -0.67958955857E+01 -0.13470382066E+01  0.42381399919E+02  0.42980687487E+02  0.17770000000E+01 0. -1.
         15    1    1    2    0    0 -0.18952057830E+01 -0.47549512657E+01 -0.37319303742E+02  0.37710602319E+02  0.17770000000E+01 0. -1.
</event>
<event>
 6    1  0.1378789E-002  0.1763325E+03  0.7546771E-02  0.1073473E+00
        -11   -1    0    0    0    0  0.00000000000E+00  0.00000000000E+00  0.18250000000E+03  0.18250000000E+03  0.00000000000E+00 0. -1.
         11   -1    0    0    0    0 -0.00000000000E+00 -0.00000000000E+00 -0.18250000000E+03  0.18250000000E+03  0.00000000000E+00 0.  1.
        -11    1    1    2    0    0  0.16272661815E+01 -0.57726888915E+01  0.17409476206E+03  0.17419804278E+03  0.00000000000E+00 0. -1.
         11    1    1    2    0    0 -0.19033593735E+01 -0.15873924202E+01 -0.17855492065E+03  0.17857212067E+03  0.00000000000E+00 0.  1.
        -15    1    1    2    0    0 -0.20486722170E+01  0.73189333212E+01  0.49785735728E+01  0.92578489204E+01  0.17770000000E+01 0. -1.
         15    1    1    2    0    0  0.23247654090E+01  0.41147990455E-01 -0.51841498244E+00  0.29719876275E+01  0.17770000000E+01 0.  1.
</event>
<event>
 6    1  0.1378789E-002  0.1851114E+03  0.7546771E-02  0.1066395E+00
        -11   -1    0    0    0    0  0.00000000000E+00  0.00000000000E+00  0.18250000000E+03  0.18250000000E+03  0.00000000000E+00 0.  1.
         11   -1    0    0    0    0 -0.00000000000E+00 -0.00000000000E+00 -0.18250000000E+03  0.18250000000E+03  0.00000000000E+00 0.  1.
        -11    1    1    2    0    0 -0.44573914104E+01  0.28627899918E+00  0.17983314682E+03  0.17988860717E+03  0.00000000000E+00 0.  1.
         11    1    1    2    0    0  0.25541407746E+01 -0.33065872907E+01 -0.17301135095E+03  0.17306179449E+03  0.00000000000E+00 0.  1.
        -15    1    1    2    0    0  0.13955858039E+01  0.53886094805E+01 -0.16550775379E+01  0.60730373394E+01  0.17770000000E+01 0.  1.
         15    1    1    2    0    0  0.50766483196E+00 -0.23683011889E+01 -0.51667183345E+01  0.59765610054E+01  0.17770000000E+01 0. -1.
</event>
<event>
 6    1  0.1378789E-002  0.1829265E+03  0.7546771E-02  0.1068116E+00
        -11   -1    0    0    0    0  0.00000000000E+00  0.00000000000E+00  0.18250000000E+03  0.18250000000E+03  0.00000000000E+00 0. -1.
         11   -1    0    0    0    0 -0.00000000000E+00 -0.00000000000E+00 -0.18250000000E+03  0.18250000000E+03  0.00000000000E+00 0.  1.
        -11    1    1    2    0    0  0.99254458964E+00  0.30463729549E+01  0.18204526227E+03  0.18207345509E+03  0.00000000000E+00 0. -1.
         11    1    1    2    0    0 -0.23208816104E+01 -0.19817249830E+01 -0.15596587154E+03  0.15599572690E+03  0.00000000000E+00 0.  1.
        -15    1    1    2    0    0  0.26308592569E+01  0.12583944717E+01 -0.15777658878E+02  0.16143024059E+02  0.17770000000E+01 0. -1.
         15    1    1    2    0    0 -0.13025222362E+01 -0.23230424436E+01 -0.10301731847E+02  0.10787793955E+02  0.17770000000E+01 0. -1.
</event>
<event>
 6    1  0.1378789E-002  0.1869730E+03  0.7546771E-02  0.1064949E+00
        -11   -1    0    0    0    0  0.00000000000E+00  0.00000000000E+00  0.18250000000E+03  0.18250000000E+03  0.00000000000E+00 0. -1.
         11   -1    0    0    0    0 -0.00000000000E+00 -0.00000000000E+00 -0.18250000000E+03  0.18250000000E+03  0.00000000000E+00 0. -1.
        -11    1    1    2    0    0 -0.21374097093E+02 -0.77552484940E+01  0.11821727856E+03  0.12038405566E+03  0.00000000000E+00 0. -1.
         11    1    1    2    0    0  0.25233858369E+01 -0.29230989323E+01 -0.17798512429E+03  0.17802701045E+03  0.00000000000E+00 0. -1.
        -15    1    1    2    0    0  0.25153816996E+01  0.86526270806E+01  0.38802854433E+02  0.39874983907E+02  0.17770000000E+01 0.  1.
         15    1    1    2    0    0  0.16335329556E+02  0.20257203458E+01  0.20964991293E+02  0.26713949980E+02  0.17770000000E+01 0. -1.
</event>
<event>
 6    1  0.1378789E-002  0.1736433E+03  0.7546771E-02  0.1075732E+00
        -11   -1    0    0    0    0  0.00000000000E+00  0.00000000000E+00  0.18250000000E+03  0.18250000000E+03  0.00000000000E+00 0. -1.
         11   -1    0    0    0    0 -0.00000000000E+00 -0.00000000000E+00 -0.18250000000E+03  0.18250000000E+03  0.00000000000E+00 0. -1.
        -11    1    1    2    0    0  0.46557832987E+01 -0.31247368741E+01  0.17493162355E+03  0.17502146502E+03  0.00000000000E+00 0. -1.
         11    1    1    2    0    0  0.27921882431E+01 -0.94603118141E+00 -0.17235312975E+03  0.17237834151E+03  0.00000000000E+00 0. -1.
        -15    1    1    2    0    0 -0.30761856019E+01 -0.40423739591E+01 -0.55740049265E+01  0.77479652169E+01  0.17770000000E+01 0. -1.
         15    1    1    2    0    0 -0.43717859399E+01  0.81131420146E+01  0.29955111229E+01  0.98522282526E+01  0.17770000000E+01 0.  1.
</event>
<event>
 6    1  0.1378789E-002  0.2010489E+03  0.7546771E-02  0.1054579E+00
        -11   -1    0    0    0    0  0.00000000000E+00  0.00000000000E+00  0.18250000000E+03  0.18250000000E+03  0.00000000000E+00 0.  1.
         11   -1    0    0    0    0 -0.00000000000E+00 -0.00000000000E+00 -0.18250000000E+03  0.18250000000E+03  0.00000000000E+00 0.  1.
        -11    1    1    2    0    0 -0.26388979159E+02 -0.13979900765E+02  0.16120836293E+03  0.16395106625E+03  0.00000000000E+00 0.  1.
         11    1    1    2    0    0 -0.10141535654E+01 -0.15348223011E+01 -0.10215221496E+03  0.10216877805E+03  0.00000000000E+00 0.  1.
        -15    1    1    2    0    0 -0.23685280248E+02  0.24595369570E+01 -0.30980461014E+02  0.39115067635E+02  0.17770000000E+01 0. -1.
         15    1    1    2    0    0  0.51088412972E+02  0.13055186109E+02 -0.28075686954E+02  0.59765088064E+02  0.17770000000E+01 0.  1.
</event>
<event>
 6    1  0.1378789E-002  0.1890556E+03  0.7546771E-02  0.1063353E+00
        -11   -1    0    0    0    0  0.00000000000E+00  0.00000000000E+00  0.18250000000E+03  0.18250000000E+03  0.00000000000E+00 0. -1.
         11   -1    0    0    0    0 -0.00000000000E+00 -0.00000000000E+00 -0.18250000000E+03  0.18250000000E+03  0.00000000000E+00 0. -1.
        -11    1    1    2    0    0  0.27512187360E+01 -0.16789225725E+01  0.16242344306E+03  0.16245541801E+03  0.00000000000E+00 0. -1.
         11    1    1    2    0    0 -0.18681609462E+01 -0.16683406026E+01 -0.17592657209E+03  0.17594440074E+03  0.00000000000E+00 0. -1.
        -15    1    1    2    0    0  0.61019897582E+01  0.95800197767E+01  0.12556597892E+02  0.17024598014E+02  0.17770000000E+01 0. -1.
         15    1    1    2    0    0 -0.69850475480E+01 -0.62327566016E+01  0.94653114091E+00  0.95755832357E+01  0.17770000000E+01 0.  1.
</event>
<event>
 6    1  0.1378789E-002  0.1508086E+03  0.7546771E-02  0.1096917E+00
        -11   -1    0    0    0    0  0.00000000000E+00  0.00000000000E+00  0.18250000000E+03  0.18250000000E+03  0.00000000000E+00 0. -1.
         11   -1    0    0    0    0 -0.00000000000E+00 -0.00000000000E+00 -0.18250000000E+03  0.18250000000E+03  0.00000000000E+00 0.  1.
        -11    1    1    2    0    0  0.15285118181E+02 -0.11417762965E+02  0.15388944684E+03  0.15506760461E+03  0.00000000000E+00 0. -1.
         11    1    1    2    0    0  0.32922189822E+01 -0.29349692568E+00 -0.14738094697E+03  0.14741800560E+03  0.00000000000E+00 0.  1.
        -15    1    1    2    0    0 -0.46799860646E+01 -0.22691957595E+01 -0.30739605180E+02  0.31227112812E+02  0.17770000000E+01 0. -1.
         15    1    1    2    0    0 -0.13897351099E+02  0.13980455650E+02  0.24231105301E+02  0.31287276980E+02  0.17770000000E+01 0. -1.
</event>
<event>
 6    1  0.1378789E-002  0.1826308E+03  0.7546771E-02  0.1068351E+00
        -11   -1    0    0    0    0  0.00000000000E+00  0.00000000000E+00  0.18250000000E+03  0.18250000000E+03  0.00000000000E+00 0. -1.
         11   -1    0    0    0    0 -0.00000000000E+00 -0.00000000000E+00 -0.18250000000E+03  0.18250000000E+03  0.00000000000E+00 0. -1.
        -11    1    1    2    0    0  0.73704577437E-01  0.20345037451E+01  0.11065133686E+03  0.11067006364E+03  0.00000000000E+00 0. -1.
         11    1    1    2    0    0 -0.31626542802E+01 -0.38150953066E+00 -0.18234139654E+03  0.18236922116E+03  0.00000000000E+00 0. -1.
        -15    1    1    2    0    0 -0.52665012815E+00 -0.97516481611E-01  0.26434135858E+02  0.26499210128E+02  0.17770000000E+01 0.  1.
         15    1    1    2    0    0  0.36155998309E+01 -0.15554777329E+01  0.45255923830E+02  0.45461505077E+02  0.17770000000E+01 0.  1.
</event>
<event>
 6    1  0.1378789E-002  0.1895786E+03  0.7546771E-02  0.1062956E+00
        -11   -1    0    0    0    0  0.00000000000E+00  0.00000000000E+00  0.18250000000E+03  0.18250000000E+03  0.00000000000E+00 0.  1.
         11   -1    0    0    0    0 -0.00000000000E+00 -0.00000000000E+00 -0.18250000000E+03  0.18250000000E+03  0.00000000000E+00 0.  1.
        -11    1    1    2    0    0  0.82138300901E+00  0.51041982055E+01  0.17534523731E+03  0.17542143471E+03  0.00000000000E+00 0.  1.
         11    1    1    2    0    0 -0.28086922334E+01 -0.33359988646E+01 -0.15064637345E+03  0.15070948037E+03  0.00000000000E+00 0.  1.
        -15    1    1    2    0    0 -0.81246553074E+01  0.10508648170E+02 -0.15175403686E+02  0.20245797496E+02  0.17770000000E+01 0. -1.
         15    1    1    2    0    0  0.10111964532E+02 -0.12276847511E+02 -0.95234601746E+01  0.18623287416E+02  0.17770000000E+01 0.  1.
</event>
<event>
 6    1  0.1378789E-002  0.1844499E+03  0.7546771E-02  0.1066913E+00
        -11   -1    0    0    0    0  0.00000000000E+00  0.00000000000E+00  0.18250000000E+03  0.18250000000E+03  0.00000000000E+00 0.  1.
         11   -1    0    0    0    0 -0.00000000000E+00 -0.00000000000E+00 -0.18250000000E+03  0.18250000000E+03  0.00000000000E+00 0.  1.
        -11    1    1    2    0    0  0.17594755491E+01  0.36751524511E+01  0.17128013110E+03  0.17132859017E+03  0.00000000000E+00 0.  1.
         11    1    1    2    0    0 -0.52332193860E+00  0.32599348687E+01 -0.18051992208E+03  0.18055011302E+03  0.00000000000E+00 0.  1.
        -15    1    1    2    0    0  0.98917991960E+00 -0.47711940351E+01  0.75643571062E+01  0.91716954193E+01  0.17770000000E+01 0.  1.
         15    1    1    2    0    0 -0.22253335301E+01 -0.21638932847E+01  0.16754338740E+01  0.39496013892E+01  0.17770000000E+01 0. -1.
</event>
<event>
 6    1  0.1378789E-002  0.1730105E+03  0.7546771E-02  0.1076270E+00
        -11   -1    0    0    0    0  0.00000000000E+00  0.00000000000E+00  0.18250000000E+03  0.18250000000E+03  0.00000000000E+00 0. -1.
         11   -1    0    0    0    0 -0.00000000000E+00 -0.00000000000E+00 -0.18250000000E+03  0.18250000000E+03  0.00000000000E+00 0.  1.
        -11    1    1    2    0    0  0.46176137977E+01 -0.85483503463E+00  0.17398105025E+03  0.17404441659E+03  0.00000000000E+00 0. -1.
         11    1    1    2    0    0 -0.37991410146E+01 -0.10822153488E+02 -0.17179897073E+03  0.17218141253E+03  0.00000000000E+00 0.  1.
        -15    1    1    2    0    0  0.32869360037E+01  0.66907356977E+00 -0.52723655502E+01  0.64967049516E+01  0.17770000000E+01 0. -1.
         15    1    1    2    0    0 -0.41054087868E+01  0.11007914953E+02  0.30902860282E+01  0.12277465930E+02  0.17770000000E+01 0.  1.
</event>
<event>
 6    1  0.1378789E-002  0.1876052E+03  0.7546771E-02  0.1064462E+00
        -11   -1    0    0    0    0  0.00000000000E+00  0.00000000000E+00  0.18250000000E+03  0.18250000000E+03  0.00000000000E+00 0.  1.
         11   -1    0    0    0    0 -0.00000000000E+00 -0.00000000000E+00 -0.18250000000E+03  0.18250000000E+03  0.00000000000E+00 0.  1.
        -11    1    1    2    0    0  0.26756096519E+01 -0.30431414816E+01  0.17734850058E+03  0.17739478644E+03  0.00000000000E+00 0.  1.
         11    1    1    2    0    0 -0.17968022449E+01  0.19834660838E+01 -0.17494434464E+03  0.17496481463E+03  0.00000000000E+00 0.  1.
        -15    1    1    2    0    0  0.35951090420E+00 -0.23233618990E+01  0.40678096185E+01  0.50231526650E+01  0.17770000000E+01 0.  1.
         15    1    1    2    0    0 -0.12383183112E+01  0.33830372968E+01 -0.64719655537E+01  0.76172462688E+01  0.17770000000E+01 0. -1.
</event>
<event>
 6    1  0.1378789E-002  0.1841302E+03  0.7546771E-02  0.1067165E+00
        -11   -1    0    0    0    0  0.00000000000E+00  0.00000000000E+00  0.18250000000E+03  0.18250000000E+03  0.00000000000E+00 0.  1.
         11   -1    0    0    0    0 -0.00000000000E+00 -0.00000000000E+00 -0.18250000000E+03  0.18250000000E+03  0.00000000000E+00 0. -1.
        -11    1    1    2    0    0  0.28745471698E+01  0.40063054063E+01  0.17541562481E+03  0.17548491369E+03  0.00000000000E+00 0.  1.
         11    1    1    2    0    0 -0.75170077685E+00 -0.26027396321E+01 -0.18084948843E+03  0.18086977849E+03  0.00000000000E+00 0. -1.
        -15    1    1    2    0    0 -0.32107562300E+01 -0.23581410562E+01  0.29515865814E+01  0.52668185043E+01  0.17770000000E+01 0.  1.
         15    1    1    2    0    0  0.10879098371E+01  0.95457528199E+00  0.24822770316E+01  0.33784893139E+01  0.17770000000E+01 0. -1.
</event>
<event>
 6    1  0.1378789E-002  0.1856714E+03  0.7546771E-02  0.1065958E+00
        -11   -1    0    0    0    0  0.00000000000E+00  0.00000000000E+00  0.18250000000E+03  0.18250000000E+03  0.00000000000E+00 0.  1.
         11   -1    0    0    0    0 -0.00000000000E+00 -0.00000000000E+00 -0.18250000000E+03  0.18250000000E+03  0.00000000000E+00 0. -1.
        -11    1    1    2    0    0  0.10654652767E+02  0.70550435956E+01  0.11366797291E+03  0.11438401694E+03  0.00000000000E+00 0.  1.
         11    1    1    2    0    0  0.36126355821E+01 -0.36329985884E+01 -0.17925543890E+03  0.17932864298E+03  0.00000000000E+00 0. -1.
        -15    1    1    2    0    0 -0.28103216838E+01 -0.72243243130E+01  0.48035753745E+01  0.92909006627E+01  0.17770000000E+01 0. -1.
         15    1    1    2    0    0 -0.11456966666E+02  0.38022793058E+01  0.60783890617E+02  0.61996439419E+02  0.17770000000E+01 0.  1.
</event>
<event>
 6    1  0.1378789E-002  0.2090369E+03  0.7546771E-02  0.1049098E+00
        -11   -1    0    0    0    0  0.00000000000E+00  0.00000000000E+00  0.18250000000E+03  0.18250000000E+03  0.00000000000E+00 0. -1.
         11   -1    0    0    0    0 -0.00000000000E+00 -0.00000000000E+00 -0.18250000000E+03  0.18250000000E+03  0.00000000000E+00 0.  1.
        -11    1    1    2    0    0 -0.66767458669E+00 -0.19227502355E+01  0.12493288037E+03  0.12494945920E+03  0.00000000000E+00 0. -1.
         11    1    1    2    0    0 -0.41119490075E+01 -0.62115039420E+01 -0.15578510142E+03  0.15596310054E+03  0.00000000000E+00 0.  1.
        -15    1    1    2    0    0  0.16238338976E+02  0.10387962609E+02 -0.22362396743E+02  0.29577490376E+02  0.17770000000E+01 0.  1.
         15    1    1    2    0    0 -0.11458715382E+02 -0.22537084320E+01  0.53214617793E+02  0.54509949879E+02  0.17770000000E+01 0. -1.
</event>
<event>
 6    1  0.1378789E-002  0.1746109E+03  0.7546771E-02  0.1074914E+00
        -11   -1    0    0    0    0  0.00000000000E+00  0.00000000000E+00  0.18250000000E+03  0.18250000000E+03  0.00000000000E+00 0. -1.
         11   -1    0    0    0    0 -0.00000000000E+00 -0.00000000000E+00 -0.18250000000E+03  0.18250000000E+03  0.00000000000E+00 0. -1.
        -11    1    1    2    0    0  0.70833648979E+01  0.20250967508E+01  0.17149949833E+03  0.17165766223E+03  0.00000000000E+00 0. -1.
         11    1    1    2    0    0  0.32585115988E+01  0.14324285526E+01 -0.17775460335E+03  0.17779023810E+03  0.00000000000E+00 0. -1.
        -15    1    1    2    0    0 -0.34942501850E+01  0.71359726357E+00 -0.14991141785E+01  0.42572382750E+01  0.17770000000E+01 0. -1.
         15    1    1    2    0    0 -0.68476263117E+01 -0.41711225669E+01  0.77542191969E+01  0.11294861395E+02  0.17770000000E+01 0.  1.
</event>
<event>
 6    1  0.1378789E-002  0.1766366E+03  0.7546771E-02  0.1073220E+00
        -11   -1    0    0    0    0  0.00000000000E+00  0.00000000000E+00  0.18250000000E+03  0.18250000000E+03  0.00000000000E+00 0.  1.
         11   -1    0    0    0    0 -0.00000000000E+00 -0.00000000000E+00 -0.18250000000E+03  0.18250000000E+03  0.00000000000E+00 0. -1.
        -11    1    1    2    0    0 -0.16041920349E+01 -0.27180103191E+01  0.17585994440E+03  0.17588826299E+03  0.00000000000E+00 0.  1.
         11    1    1    2    0    0 -0.47494148760E+01  0.65954992749E+01 -0.17727995459E+03  0.17746616537E+03  0.00000000000E+00 0. -1.
        -15    1    1    2    0    0  0.20530340690E+01  0.15032758727E+01  0.30457139403E+01  0.43484353099E+01  0.17770000000E+01 0. -1.
         15    1    1    2    0    0  0.43005728418E+01 -0.53807648285E+01 -0.16257037495E+01  0.72971363280E+01  0.17770000000E+01 0.  1.
</event>
<event>
 6    1  0.1378789E-002  0.1617897E+03  0.7546771E-02  0.1086250E+00
        -11   -1    0    0    0    0  0.00000000000E+00  0.00000000000E+00  0.18250000000E+03  0.18250000000E+03  0.00000000000E+00 0. -1.
         11   -1    0    0    0    0 -0.00000000000E+00 -0.00000000000E+00 -0.18250000000E+03  0.18250000000E+03  0.00000000000E+00 0.  1.
        -11    1    1    2    0    0  0.93507791657E+01 -0.18444099359E+02  0.15824644083E+03  0.15959184788E+03  0.00000000000E+00 0. -1.
         11    1    1    2    0    0  0.84108998811E+01 -0.39504301861E+01 -0.16505764504E+03  0.16531901077E+03  0.00000000000E+00 0.  1.
        -15    1    1    2    0    0  0.22607771494E+01  0.13942244186E+02 -0.52463199801E+01  0.15171647524E+02  0.17770000000E+01 0. -1.
         15    1    1    2    0    0 -0.20022456196E+02  0.84522853593E+01  0.12057524191E+02  0.24917493825E+02  0.17770000000E+01 0.  1.
</event>
<event>
 6    1  0.1378789E-002  0.1157112E+03  0.7546771E-02  0.1139119E+00
        -11   -1    0    0    0    0  0.00000000000E+00  0.00000000000E+00  0.18250000000E+03  0.18250000000E+03  0.00000000000E+00 0. -1.
         11   -1    0    0    0    0 -0.00000000000E+00 -0.00000000000E+00 -0.18250000000E+03  0.18250000000E+03  0.00000000000E+00 0. -1.
        -11    1    1    2    0    0  0.10849758555E+01 -0.77929468428E+01  0.10141957314E+03  0.10172431867E+03  0.00000000000E+00 0. -1.
         11    1    1    2    0    0 -0.79719846489E+00  0.22237358101E+00 -0.44071217559E+02  0.44078988107E+02  0.00000000000E+00 0. -1.
        -15    1    1    2    0    0  0.30012050193E+02  0.46461737532E+02 -0.12428241652E+03  0.13604665743E+03  0.17770000000E+01 0. -1.
         15    1    1    2    0    0 -0.30299827584E+02 -0.38891164270E+02  0.66934060942E+02  0.83150035797E+02  0.17770000000E+01 0. -1.
</event>
<event>
 6    1  0.1378789E-002  0.1841586E+03  0.7546771E-02  0.1067142E+00
        -11   -1    0    0    0    0  0.00000000000E+00  0.00000000000E+00  0.18250000000E+03  0.18250000000E+03  0.00000000000E+00 0. -1.
         11   -1    0    0    0    0 -0.00000000000E+00 -0.00000000000E+00 -0.18250000000E+03  0.18250000000E+03  0.00000000000E+00 0.  1.
        -11    1    1    2    0    0  0.32945026956E+01  0.84573244853E+00  0.18080941949E+03  0.18084140894E+03  0.00000000000E+00 0. -1.
         11    1    1    2    0    0 -0.53696188849E+01  0.25176441421E+00 -0.17146645244E+03  0.17155069369E+03  0.00000000000E+00 0.  1.
        -15    1    1    2    0    0  0.39818896876E+01  0.16072148759E+01 -0.44002504898E+01  0.63998842579E+01  0.17770000000E+01 0.  1.
         15    1    1    2    0    0 -0.19067734983E+01 -0.27047117387E+01 -0.49427165605E+01  0.62080131089E+01  0.17770000000E+01 0. -1.
</event>
<event>
 6    1  0.1378789E-002  0.1753852E+03  0.7546771E-02  0.1074264E+00
        -11   -1    0    0    0    0  0.00000000000E+00  0.00000000000E+00  0.18250000000E+03  0.18250000000E+03  0.00000000000E+00 0. -1.
         11   -1    0    0    0    0 -0.00000000000E+00 -0.00000000000E+00 -0.18250000000E+03  0.18250000000E+03  0.00000000000E+00 0. -1.
        -11    1    1    2    0    0 -0.46644518609E+01  0.87675703099E+01  0.17490380503E+03  0.17518552570E+03  0.00000000000E+00 0. -1.
         11    1    1    2    0    0 -0.53149716500E+01 -0.37834620053E+01 -0.17564191163E+03  0.17576303545E+03  0.00000000000E+00 0. -1.
        -15    1    1    2    0    0  0.30665161951E+01 -0.55953310631E+01 -0.95083161090E+00  0.66912675207E+01  0.17770000000E+01 0. -1.
         15    1    1    2    0    0  0.69129073158E+01  0.61122275841E+00  0.16889382113E+01  0.73601713363E+01  0.17770000000E+01 0.  1.
</event>
<event>
 6    1  0.1378789E-002  0.1840376E+03  0.7546771E-02  0.1067237E+00
        -11   -1    0    0    0    0  0.00000000000E+00  0.00000000000E+00  0.18250000000E+03  0.18250000000E+03  0.00000000000E+00 0.  1.
         11   -1    0    0    0    0 -0.00000000000E+00 -0.00000000000E+00 -0.18250000000E+03  0.18250000000E+03  0.00000000000E+00 0. -1.
        -11    1    1    2    0    0 -0.10305588021E+01  0.25665551424E+01  0.10604672965E+03  0.10608278902E+03  0.00000000000E+00 0.  1.
         11    1    1    2    0    0 -0.10745660843E+02 -0.14389253720E+00 -0.18064305171E+03  0.18096243274E+03  0.00000000000E+00 0. -1.
        -15    1    1    2    0    0  0.33570762627E+00  0.16154696158E+01  0.53492129996E+02  0.53547064739E+02  0.17770000000E+01 0.  1.
         15    1    1    2    0    0  0.11440512019E+02 -0.40381322211E+01  0.21104192056E+02  0.24407713503E+02  0.17770000000E+01 0. -1.
</event>
<event>
 6    1  0.1378789E-002  0.1828161E+03  0.7546771E-02  0.1068203E+00
        -11   -1    0    0    0    0  0.00000000000E+00  0.00000000000E+00  0.18250000000E+03  0.18250000000E+03  0.00000000000E+00 0.  1.
         11   -1    0    0    0    0 -0.00000000000E+00 -0.00000000000E+00 -0.18250000000E+03  0.18250000000E+03  0.00000000000E+00 0.  1.
        -11    1    1    2    0    0 -0.36051069043E+01 -0.59007021091E+01  0.18205259989E+03  0.18218387472E+03  0.00000000000E+00 0.  1.
         11    1    1    2    0    0 -0.62892139044E+00  0.94693602440E+00 -0.61511578995E+02  0.61522082056E+02  0.00000000000E+00 0.  1.
        -15    1    1    2    0    0 -0.27225390523E+01 -0.38118953469E+00 -0.13974499537E+02  0.14352765958E+02  0.17770000000E+01 0. -1.
         15    1    1    2    0    0  0.69565673471E+01  0.53349556194E+01 -0.10656652136E+03  0.10694127727E+03  0.17770000000E+01 0.  1.
</event>
<event>
 6    1  0.1378789E-002  0.1834534E+03  0.7546771E-02  0.1067698E+00
        -11   -1    0    0    0    0  0.00000000000E+00  0.00000000000E+00  0.18250000000E+03  0.18250000000E+03  0.00000000000E+00 0. -1.
         11   -1    0    0    0    0 -0.00000000000E+00 -0.00000000000E+00 -0.18250000000E+03  0.18250000000E+03  0.00000000000E+00 0.  1.
        -11    1    1    2    0    0 -0.28248153876E+01 -0.69003910922E-01  0.18152460425E+03  0.18154659538E+03  0.00000000000E+00 0. -1.
         11    1    1    2    0    0  0.17072511630E+01  0.28974748374E+01 -0.14247047425E+03  0.14251016139E+03  0.00000000000E+00 0.  1.
        -15    1    1    2    0    0 -0.40994014689E+01 -0.22235310510E+00 -0.27671990853E+02  0.28031256484E+02  0.17770000000E+01 0.  1.
         15    1    1    2    0    0  0.52169656935E+01 -0.26061178214E+01 -0.11382139152E+02  0.12911986750E+02  0.17770000000E+01 0.  1.
</event>
<event>
 6    1  0.1378789E-002  0.1835066E+03  0.7546771E-02  0.1067656E+00
        -11   -1    0    0    0    0  0.00000000000E+00  0.00000000000E+00  0.18250000000E+03  0.18250000000E+03  0.00000000000E+00 0. -1.
         11   -1    0    0    0    0 -0.00000000000E+00 -0.00000000000E+00 -0.18250000000E+03  0.18250000000E+03  0.00000000000E+00 0.  1.
        -11    1    1    2    0    0 -0.72327897574E+00 -0.31886146393E+01  0.18146396703E+03  0.18149342061E+03  0.00000000000E+00 0. -1.
         11    1    1    2    0    0 -0.45115791087E+01  0.23443532382E+01 -0.15616527325E+03  0.15624801729E+03  0.00000000000E+00 0.  1.
        -15    1    1    2    0    0 -0.14631617055E+00  0.25706076994E+01 -0.36176379257E+01  0.47827257425E+01  0.17770000000E+01 0.  1.
         15    1    1    2    0    0  0.53811742550E+01 -0.17263462984E+01 -0.21681055858E+02  0.22475836358E+02  0.17770000000E+01 0. -1.
</event>
<event>
 6    1  0.1378789E-002  0.1846726E+03  0.7546771E-02  0.1066738E+00
        -11   -1    0    0    0    0  0.00000000000E+00  0.00000000000E+00  0.18250000000E+03  0.18250000000E+03  0.00000000000E+00 0. -1.
         11   -1    0    0    0    0 -0.00000000000E+00 -0.00000000000E+00 -0.18250000000E+03  0.18250000000E+03  0.00000000000E+00 0. -1.
        -11    1    1    2    0    0 -0.28916108240E+01 -0.95781026933E+00  0.15469126096E+03  0.15472124945E+03  0.00000000000E+00 0. -1.
         11    1    1    2    0    0 -0.14520996311E+00  0.34207999713E+01 -0.18029484462E+03  0.18032735221E+03  0.00000000000E+00 0. -1.
        -15    1    1    2    0    0  0.86441154439E+01 -0.31897155546E+01  0.13098058827E+02  0.16112476258E+02  0.17770000000E+01 0.  1.
         15    1    1    2    0    0 -0.56072946567E+01  0.72672585258E+00  0.12505524839E+02  0.13838922080E+02  0.17770000000E+01 0. -1.
</event>
<event>
 6    1  0.1378789E-002  0.1851703E+03  0.7546771E-02  0.1066349E+00
        -11   -1    0    0    0    0  0.00000000000E+00  0.00000000000E+00  0.18250000000E+03  0.18250000000E+03  0.00000000000E+00 0.  1.
         11   -1    0    0    0    0 -0.00000000000E+00 -0.00000000000E+00 -0.18250000000E+03  0.18250000000E+03  0.00000000000E+00 0.  1.
        -11    1    1    2    0    0 -0.23632416013E+01  0.78240722658E+00  0.12265387307E+03  0.12267913291E+03  0.00000000000E+00 0.  1.
         11    1    1    2    0    0 -0.54327449617E+01  0.32802924991E+00 -0.17974730314E+03  0.17982968417E+03  0.00000000000E+00 0.  1.
        -15    1    1    2    0    0  0.68022376939E+01 -0.16629954214E+01  0.59123597240E+02  0.59563356781E+02  0.17770000000E+01 0. -1.
         15    1    1    2    0    0  0.99374886907E+00  0.55255894487E+00 -0.20301671641E+01  0.29278261418E+01  0.17770000000E+01 0.  1.
</event>
<event>
 6    1  0.1378789E-002  0.1845733E+03  0.7546771E-02  0.1066816E+00
        -11   -1    0    0    0    0  0.00000000000E+00  0.00000000000E+00  0.18250000000E+03  0.18250000000E+03  0.00000000000E+00 0. -1.
         11   -1    0    0    0    0 -0.00000000000E+00 -0.00000000000E+00 -0.18250000000E+03  0.18250000000E+03  0.00000000000E+00 0. -1.
        -11    1    1    2    0    0  0.56421378854E+01  0.34611978447E+01  0.18030521124E+03  0.18042666879E+03  0.00000000000E+00 0. -1.
         11    1    1    2    0    0 -0.25209394915E+01  0.16818950236E+00 -0.17607900413E+03  0.17609712979E+03  0.00000000000E+00 0. -1.
        -15    1    1    2    0    0 -0.34414783245E+01 -0.26330556313E+01 -0.43744398856E+01  0.64086042418E+01  0.17770000000E+01 0. -1.
         15    1    1    2    0    0  0.32027993062E+00 -0.99633171574E+00  0.14823277929E+00  0.20675971751E+01  0.17770000000E+01 0.  1.
</event>
<event>
 6    1  0.1378789E-002  0.1826123E+03  0.7546771E-02  0.1068365E+00
        -11   -1    0    0    0    0  0.00000000000E+00  0.00000000000E+00  0.18250000000E+03  0.18250000000E+03  0.00000000000E+00 0.  1.
         11   -1    0    0    0    0 -0.00000000000E+00 -0.00000000000E+00 -0.18250000000E+03  0.18250000000E+03  0.00000000000E+00 0.  1.
        -11    1    1    2    0    0 -0.26487657214E+00 -0.73110695198E+00  0.54251685316E+02  0.54257257917E+02  0.00000000000E+00 0.  1.
         11    1    1    2    0    0  0.41639625342E+01  0.16433670677E+01 -0.18233274066E+03  0.18238768477E+03  0.00000000000E+00 0.  1.
        -15    1    1    2    0    0  0.39350606987E+00  0.63747812803E+00  0.80402909705E+02  0.80426033368E+02  0.17770000000E+01 0.  1.
         15    1    1    2    0    0 -0.42925920320E+01 -0.15497382438E+01  0.47678145643E+02  0.47929023941E+02  0.17770000000E+01 0.  1.
</event>
<event>
 6    1  0.1378789E-002  0.1850672E+03  0.7546771E-02  0.1066429E+00
        -11   -1    0    0    0    0  0.00000000000E+00  0.00000000000E+00  0.18250000000E+03  0.18250000000E+03  0.00000000000E+00 0. -1.
         11   -1    0    0    0    0 -0.00000000000E+00 -0.00000000000E+00 -0.18250000000E+03  0.18250000000E+03  0.00000000000E+00 0. -1.
        -11    1    1    2    0    0  0.54887377552E+00  0.37822454226E+01  0.17989220442E+03  0.17993279816E+03  0.00000000000E+00 0. -1.
         11    1    1    2    0    0 -0.30427997954E+01 -0.20215220215E+01 -0.17494844792E+03  0.17498658409E+03  0.00000000000E+00 0. -1.
        -15    1    1    2    0    0  0.57892877441E+00 -0.24154159453E+01  0.12705578588E+01  0.33077846041E+01  0.17770000000E+01 0. -1.
         15    1    1    2    0    0  0.19149972454E+01  0.65469254423E+00 -0.62143143671E+01  0.67728331465E+01  0.17770000000E+01 0.  1.
</event>
<event>
 6    1  0.1378789E-002  0.1827177E+03  0.7546771E-02  0.1068282E+00
        -11   -1    0    0    0    0  0.00000000000E+00  0.00000000000E+00  0.18250000000E+03  0.18250000000E+03  0.00000000000E+00 0.  1.
         11   -1    0    0    0    0 -0.00000000000E+00 -0.00000000000E+00 -0.18250000000E+03  0.18250000000E+03  0.00000000000E+00 0.  1.
        -11    1    1    2    0    0  0.39843752766E+01 -0.18136731878E+00  0.18223870197E+03  0.18228234319E+03  0.00000000000E+00 0.  1.
         11    1    1    2    0    0  0.70236714812E+00 -0.17365445437E+01 -0.79938580829E+02  0.79960525333E+02  0.00000000000E+00 0.  1.
        -15    1    1    2    0    0 -0.28263938333E+01  0.32549639111E+01 -0.26887928940E+02  0.27289223951E+02  0.17770000000E+01 0.  1.
         15    1    1    2    0    0 -0.18603485913E+01 -0.13370520486E+01 -0.75412192204E+02  0.75467907531E+02  0.17770000000E+01 0. -1.
</event>
<event>
 6    1  0.1378789E-002  0.1781863E+03  0.7546771E-02  0.1071941E+00
        -11   -1    0    0    0    0  0.00000000000E+00  0.00000000000E+00  0.18250000000E+03  0.18250000000E+03  0.00000000000E+00 0.  1.
         11   -1    0    0    0    0 -0.00000000000E+00 -0.00000000000E+00 -0.18250000000E+03  0.18250000000E+03  0.00000000000E+00 0.  1.
        -11    1    1    2    0    0 -0.37144423418E+01  0.17503297679E+01  0.17688760707E+03  0.17693526011E+03  0.00000000000E+00 0.  1.
         11    1    1    2    0    0 -0.81838784398E+00 -0.22828066907E+01 -0.17945953600E+03  0.17947592047E+03  0.00000000000E+00 0.  1.
        -15    1    1    2    0    0  0.82238654587E+00  0.26279040455E+01  0.22203782798E+01  0.39585360941E+01  0.17770000000E+01 0. -1.
         15    1    1    2    0    0  0.37104436399E+01 -0.20954271227E+01  0.35155065789E+00  0.46302833278E+01  0.17770000000E+01 0.  1.
</event>
<event>
 6    1  0.1378789E-002  0.1889788E+03  0.7546771E-02  0.1063412E+00
        -11   -1    0    0    0    0  0.00000000000E+00  0.00000000000E+00  0.18250000000E+03  0.18250000000E+03  0.00000000000E+00 0.  1.
         11   -1    0    0    0    0 -0.00000000000E+00 -0.00000000000E+00 -0.18250000000E+03  0.18250000000E+03  0.00000000000E+00 0.  1.
        -11    1    1    2    0    0 -0.27293436901E+01 -0.30000437025E+01  0.16775027232E+03  0.16779929512E+03  0.00000000000E+00 0.  1.
         11    1    1    2    0    0 -0.31566298376E+01  0.21195739323E+01 -0.17598013531E+03  0.17602120591E+03  0.00000000000E+00 0.  1.
        -15    1    1    2    0    0 -0.24907444348E+01 -0.71434724649E+01  0.35937532239E+01  0.85618805137E+01  0.17770000000E+01 0.  1.
         15    1    1    2    0    0  0.83767179625E+01  0.80239422351E+01  0.46361097722E+01  0.12617618461E+02  0.17770000000E+01 0. -1.
</event>
<event>
 6    1  0.1378789E-002  0.1834855E+03  0.7546771E-02  0.1067673E+00
        -11   -1    0    0    0    0  0.00000000000E+00  0.00000000000E+00  0.18250000000E+03  0.18250000000E+03  0.00000000000E+00 0.  1.
         11   -1    0    0    0    0 -0.00000000000E+00 -0.00000000000E+00 -0.18250000000E+03  0.18250000000E+03  0.00000000000E+00 0.  1.
        -11    1    1    2    0    0  0.11653561503E+01  0.44901181697E+00  0.54477221804E+02  0.54491534774E+02  0.00000000000E+00 0.  1.
         11    1    1    2    0    0  0.95399789407E+01 -0.13403122804E+02 -0.18076744896E+03  0.18151453248E+03  0.00000000000E+00 0.  1.
        -15    1    1    2    0    0 -0.91807301111E+01  0.14333380665E+02  0.53878829670E+02  0.56531563062E+02  0.17770000000E+01 0.  1.
         15    1    1    2    0    0 -0.15246049800E+01 -0.13792696781E+01  0.72411397485E+02  0.72462369682E+02  0.17770000000E+01 0.  1.
</event>
<event>
 6    1  0.1378789E-002  0.1828973E+03  0.7546771E-02  0.1068139E+00
        -11   -1    0    0    0    0  0.00000000000E+00  0.00000000000E+00  0.18250000000E+03  0.18250000000E+03  0.00000000000E+00 0.  1.
         11   -1    0    0    0    0 -0.00000000000E+00 -0.00000000000E+00 -0.18250000000E+03  0.18250000000E+03  0.00000000000E+00 0.  1.
        -11    1    1    2    0    0  0.23398409385E+01 -0.15875922586E+01  0.10855591953E+03  0.10859273903E+03  0.00000000000E+00 0.  1.
         11    1    1    2    0    0 -0.22336319667E+01 -0.46740007214E+01 -0.18202904836E+03  0.18210274528E+03  0.00000000000E+00 0.  1.
        -15    1    1    2    0    0  0.11549800034E+01  0.46301396121E+01  0.16534522545E+02  0.17300876753E+02  0.17770000000E+01 0.  1.
         15    1    1    2    0    0 -0.12611889752E+01  0.16314533679E+01  0.56938606283E+02  0.57003638938E+02  0.17770000000E+01 0. -1.
</event>
<event>
 6    1  0.1378789E-002  0.1863752E+03  0.7546771E-02  0.1065411E+00
        -11   -1    0    0    0    0  0.00000000000E+00  0.00000000000E+00  0.18250000000E+03  0.18250000000E+03  0.00000000000E+00 0.  1.
         11   -1    0    0    0    0 -0.00000000000E+00 -0.00000000000E+00 -0.18250000000E+03  0.18250000000E+03  0.00000000000E+00 0. -1.
        -11    1    1    2    0    0 -0.13114458071E+01 -0.30987092202E+01  0.16297822070E+03  0.16301295136E+03  0.00000000000E+00 0.  1.
         11    1    1    2    0    0  0.38291750567E+00 -0.50325281608E+01 -0.17855352904E+03  0.17862484625E+03  0.00000000000E+00 0. -1.
        -15    1    1    2    0    0  0.16357526628E+01  0.12071811691E+02  0.14150075103E+02  0.18755977146E+02  0.17770000000E+01 0.  1.
         15    1    1    2    0    0 -0.70722436137E+00 -0.39405743104E+01  0.14252332322E+01  0.46062252397E+01  0.17770000000E+01 0. -1.
</event>
<event>
 6    1  0.1378789E-002  0.1828669E+03  0.7546771E-02  0.1068163E+00
        -11   -1    0    0    0    0  0.00000000000E+00  0.00000000000E+00  0.18250000000E+03  0.18250000000E+03  0.00000000000E+00 0.  1.
         11   -1    0    0    0    0 -0.00000000000E+00 -0.00000000000E+00 -0.18250000000E+03  0.18250000000E+03  0.00000000000E+00 0. -1.
        -11    1    1    2    0    0  0.32016234085E+01 -0.12324187275E+01  0.57396522118E+02  0.57498956509E+02  0.00000000000E+00 0.  1.
         11    1    1    2    0    0 -0.19672227250E+01  0.26950907810E+01 -0.18210255770E+03  0.18213312439E+03  0.00000000000E+00 0. -1.
        -15    1    1    2    0    0  0.52612374074E+01 -0.20429727049E+01  0.47647159684E+02  0.48013163939E+02  0.17770000000E+01 0.  1.
         15    1    1    2    0    0 -0.64956380909E+01  0.58030065137E+00  0.77058875895E+02  0.77354755163E+02  0.17770000000E+01 0. -1.
</event>
<event>
 6    1  0.1378789E-002  0.1838614E+03  0.7546771E-02  0.1067376E+00
        -11   -1    0    0    0    0  0.00000000000E+00  0.00000000000E+00  0.18250000000E+03  0.18250000000E+03  0.00000000000E+00 0. -1.
         11   -1    0    0    0    0 -0.00000000000E+00 -0.00000000000E+00 -0.18250000000E+03  0.18250000000E+03  0.00000000000E+00 0. -1.
        -11    1    1    2    0    0 -0.37761346006E+00  0.44602495711E+01  0.15476115060E+03  0.15482587042E+03  0.00000000000E+00 0. -1.
         11    1    1    2    0    0 -0.36302260621E+01  0.13100079985E+01 -0.18109752048E+03  0.18113863913E+03  0.00000000000E+00 0. -1.
        -15    1    1    2    0    0  0.22659380934E+01 -0.12332024504E+01  0.11720688787E+01  0.33446581564E+01  0.17770000000E+01 0.  1.
         15    1    1    2    0    0  0.17419014288E+01 -0.45370551193E+01  0.25164301005E+02  0.25690832291E+02  0.17770000000E+01 0. -1.
</event>
<event>
 6    1  0.1378789E-002  0.1866306E+03  0.7546771E-02  0.1065214E+00
        -11   -1    0    0    0    0  0.00000000000E+00  0.00000000000E+00  0.18250000000E+03  0.18250000000E+03  0.00000000000E+00 0.  1.
         11   -1    0    0    0    0 -0.00000000000E+00 -0.00000000000E+00 -0.18250000000E+03  0.18250000000E+03  0.00000000000E+00 0. -1.
        -11    1    1    2    0    0 -0.42877416743E+01 -0.10093708482E+01  0.17831503823E+03  0.17836943801E+03  0.00000000000E+00 0.  1.
         11    1    1    2    0    0  0.34265560047E+01  0.41211102715E+00 -0.14955544015E+03  0.14959525661E+03  0.00000000000E+00 0. -1.
        -15    1    1    2    0    0  0.66913437446E+01 -0.85619846751E+01 -0.20528989264E+02  0.23295467196E+02  0.17770000000E+01 0. -1.
         15    1    1    2    0    0 -0.58301580749E+01  0.91592444962E+01 -0.82306088119E+01  0.13739838184E+02  0.17770000000E+01 0.  1.
</event>
<event>
 6    1  0.1378789E-002  0.1830532E+03  0.7546771E-02  0.1068015E+00
        -11   -1    0    0    0    0  0.00000000000E+00  0.00000000000E+00  0.18250000000E+03  0.18250000000E+03  0.00000000000E+00 0.  1.
         11   -1    0    0    0    0 -0.00000000000E+00 -0.00000000000E+00 -0.18250000000E+03  0.18250000000E+03  0.00000000000E+00 0.  1.
        -11    1    1    2    0    0  0.19333373629E+01 -0.23488034417E+01  0.99878265450E+02  0.99924584464E+02  0.00000000000E+00 0.  1.
         11    1    1    2    0    0 -0.29888166803E+01 -0.14829974883E+01 -0.18191620194E+03  0.18194679672E+03  0.00000000000E+00 0.  1.
        -15    1    1    2    0    0  0.50064473609E+01  0.48178359243E+01  0.27840943469E+02  0.28749816007E+02  0.17770000000E+01 0.  1.
         15    1    1    2    0    0 -0.39509680434E+01 -0.98603499428E+00  0.54196993023E+02  0.54378802812E+02  0.17770000000E+01 0. -1.
</event>
<event>
 6    1  0.1378789E-002  0.1833949E+03  0.7546771E-02  0.1067745E+00
        -11   -1    0    0    0    0  0.00000000000E+00  0.00000000000E+00  0.18250000000E+03  0.18250000000E+03  0.00000000000E+00 0. -1.
         11   -1    0    0    0    0 -0.00000000000E+00 -0.00000000000E+00 -0.18250000000E+03  0.18250000000E+03  0.00000000000E+00 0. -1.
        -11    1    1    2    0    0 -0.15396339953E+01 -0.51280141152E+01  0.13756847900E+03  0.13767263132E+03  0.00000000000E+00 0. -1.
         11    1    1    2    0    0 -0.20409774740E+01  0.13881088409E+01 -0.18158836074E+03  0.18160513537E+03  0.00000000000E+00 0. -1.
        -15    1    1    2    0    0  0.62977599124E+01  0.30442482849E+01  0.39265193151E+02  0.39922955173E+02  0.17770000000E+01 0. -1.
         15    1    1    2    0    0 -0.27171484431E+01  0.69565698938E+00  0.47546885939E+01  0.57992781390E+01  0.17770000000E+01 0. -1.
</event>
<event>
 6    1  0.1378789E-002  0.1915726E+03  0.7546771E-02  0.1061454E+00
        -11   -1    0    0    0    0  0.00000000000E+00  0.00000000000E+00  0.18250000000E+03  0.18250000000E+03  0.00000000000E+00 0.  1.
         11   -1    0    0    0    0 -0.00000000000E+00 -0.00000000000E+00 -0.18250000000E+03  0.18250000000E+03  0.00000000000E+00 0.  1.
        -11    1    1    2    0    0 -0.70217972169E+01 -0.24103264969E+01  0.14699809801E+03  0.14718544809E+03  0.00000000000E+00 0.  1.
         11    1    1    2    0    0 -0.22694281858E+01  0.11037280106E+02 -0.17306094442E+03  0.17342739790E+03  0.00000000000E+00 0.  1.
        -15    1    1    2    0    0  0.98712987591E+00 -0.98770515831E+01 -0.56322312020E+01  0.11550338986E+02  0.17770000000E+01 0. -1.
         15    1    1    2    0    0  0.83040955268E+01  0.12500979740E+01  0.31695077612E+02  0.32836815030E+02  0.17770000000E+01 0.  1.
</event>
<event>
 6    1  0.1378789E-002  0.1825555E+03  0.7546771E-02  0.1068411E+00
        -11   -1    0    0    0    0  0.00000000000E+00  0.00000000000E+00  0.18250000000E+03  0.18250000000E+03  0.00000000000E+00 0. -1.
         11   -1    0    0    0    0 -0.00000000000E+00 -0.00000000000E+00 -0.18250000000E+03  0.18250000000E+03  0.00000000000E+00 0.  1.
        -11    1    1    2    0    0  0.59962653052E+00 -0.43046671760E+00  0.41938748735E+02  0.41945244058E+02  0.00000000000E+00 0. -1.
         11    1    1    2    0    0 -0.11377378677E-01  0.26697211676E+01 -0.18242501378E+03  0.18244454827E+03  0.00000000000E+00 0.  1.
        -15    1    1    2    0    0  0.38379253765E+00 -0.25577520101E+01  0.48672998332E+02  0.48774049326E+02  0.17770000000E+01 0.  1.
         15    1    1    2    0    0 -0.97204168949E+00  0.31849756009E+00  0.91813266715E+02  0.91836158345E+02  0.17770000000E+01 0. -1.
</event>
<event>
 6    1  0.1378789E-002  0.1830168E+03  0.7546771E-02  0.1068044E+00
        -11   -1    0    0    0    0  0.00000000000E+00  0.00000000000E+00  0.18250000000E+03  0.18250000000E+03  0.00000000000E+00 0.  1.
         11   -1    0    0    0    0 -0.00000000000E+00 -0.00000000000E+00 -0.18250000000E+03  0.18250000000E+03  0.00000000000E+00 0. -1.
        -11    1    1    2    0    0 -0.26976283831E-01 -0.18717951685E+01  0.13102290468E+03  0.13103627702E+03  0.00000000000E+00 0.  1.
         11    1    1    2    0    0 -0.78168598550E-01 -0.34509273660E+01 -0.18195043818E+03  0.18198317769E+03  0.00000000000E+00 0. -1.
        -15    1    1    2    0    0  0.22530511360E+01  0.32937063002E+01  0.10055937608E+02  0.10963774477E+02  0.17770000000E+01 0. -1.
         15    1    1    2    0    0 -0.21479062536E+01  0.20290162343E+01  0.40871595891E+02  0.41016770812E+02  0.17770000000E+01 0.  1.
</event>
<event>
 6    1  0.1378789E-002  0.1851224E+03  0.7546771E-02  0.1066386E+00
        -11   -1    0    0    0    0  0.00000000000E+00  0.00000000000E+00  0.18250000000E+03  0.18250000000E+03  0.00000000000E+00 0.  1.
         11   -1    0    0    0    0 -0.00000000000E+00 -0.00000000000E+00 -0.18250000000E+03  0.18250000000E+03  0.00000000000E+00 0. -1.
        -11    1    1    2    0    0  0.71632546016E+01  0.58169185435E+01  0.15220774394E+03  0.15248719971E+03  0.00000000000E+00 0.  1.
         11    1    1    2    0    0  0.17576728362E+01 -0.37401039437E+01 -0.17983012550E+03  0.17987760236E+03  0.00000000000E+00 0. -1.
        -15    1    1    2    0    0 -0.42738184589E+01 -0.20880005478E+01  0.54766684252E+00  0.51071458250E+01  0.17770000000E+01 0.  1.
         15    1    1    2    0    0 -0.46471089789E+01  0.11185947995E-01  0.27074714718E+02  0.27528052112E+02  0.17770000000E+01 0. -1.
</event>
<event>
 6    1  0.1378789E-002  0.1830993E+03  0.7546771E-02  0.1067979E+00
        -11   -1    0    0    0    0  0.00000000000E+00  0.00000000000E+00  0.18250000000E+03  0.18250000000E+03  0.00000000000E+00 0. -1.
         11   -1    0    0    0    0 -0.00000000000E+00 -0.00000000000E+00 -0.18250000000E+03  0.18250000000E+03  0.00000000000E+00 0. -1.
        -11    1    1    2    0    0 -0.28549158742E+01  0.36047041289E+01  0.18184252366E+03  0.18190065378E+03  0.00000000000E+00 0. -1.
         11    1    1    2    0    0 -0.10048005406E+01 -0.50203341999E+01 -0.15094093608E+03  0.15102774435E+03  0.00000000000E+00 0. -1.
        -15    1    1    2    0    0  0.25089145508E+01  0.24882266193E+01 -0.27906036424E+02  0.28184934306E+02  0.17770000000E+01 0. -1.
         15    1    1    2    0    0  0.13508018640E+01 -0.10725965483E+01 -0.29955511542E+01  0.38866675635E+01  0.17770000000E+01 0.  1.
</event>
<event>
 6    1  0.1378789E-002  0.1846342E+03  0.7546771E-02  0.1066769E+00
        -11   -1    0    0    0    0  0.00000000000E+00  0.00000000000E+00  0.18250000000E+03  0.18250000000E+03  0.00000000000E+00 0.  1.
         11   -1    0    0    0    0 -0.00000000000E+00 -0.00000000000E+00 -0.18250000000E+03  0.18250000000E+03  0.00000000000E+00 0. -1.
        -11    1    1    2    0    0 -0.50189202860E+01  0.82002809929E+01  0.16428052457E+03  0.16456161437E+03  0.00000000000E+00 0.  1.
         11    1    1    2    0    0 -0.19917881785E+01 -0.54649585517E+01 -0.18027202829E+03  0.18036584260E+03  0.00000000000E+00 0. -1.
        -15    1    1    2    0    0 -0.61576530368E+00  0.14429117073E+01  0.71984578152E+01  0.75786994281E+01  0.17770000000E+01 0.  1.
         15    1    1    2    0    0  0.76264737682E+01 -0.41782341485E+01  0.87930459033E+01  0.12493843604E+02  0.17770000000E+01 0. -1.
</event>
<event>
 6    1  0.1378789E-002  0.1870099E+03  0.7546771E-02  0.1064921E+00
        -11   -1    0    0    0    0  0.00000000000E+00  0.00000000000E+00  0.18250000000E+03  0.18250000000E+03  0.00000000000E+00 0. -1.
         11   -1    0    0    0    0 -0.00000000000E+00 -0.00000000000E+00 -0.18250000000E+03  0.18250000000E+03  0.00000000000E+00 0.  1.
        -11    1    1    2    0    0  0.67066418612E+00  0.36377933111E+01  0.14745081520E+03  0.14749720754E+03  0.00000000000E+00 0. -1.
         11    1    1    2    0    0 -0.17601466390E+01 -0.20352899162E+01 -0.17796974714E+03  0.17799008798E+03  0.00000000000E+00 0.  1.
        -15    1    1    2    0    0 -0.50191139397E+01  0.44947414042E+01 -0.76652092609E+00  0.70099563737E+01  0.17770000000E+01 0. -1.
         15    1    1    2    0    0  0.61085963926E+01 -0.60972447991E+01  0.31285452868E+02  0.32502748102E+02  0.17770000000E+01 0.  1.
</event>
<event>
 6    1  0.1378789E-002  0.1924273E+03  0.7546771E-02  0.1060816E+00
        -11   -1    0    0    0    0  0.00000000000E+00  0.00000000000E+00  0.18250000000E+03  0.18250000000E+03  0.00000000000E+00 0.  1.
         11   -1    0    0    0    0 -0.00000000000E+00 -0.00000000000E+00 -0.18250000000E+03  0.18250000000E+03  0.00000000000E+00 0.  1.
        -11    1    1    2    0    0 -0.18425922053E+01  0.14771279414E+01  0.17255652187E+03  0.17257268119E+03  0.00000000000E+00 0.  1.
         11    1    1    2    0    0  0.14454147631E+00  0.35312717866E+01 -0.15706433247E+03  0.15710409068E+03  0.00000000000E+00 0.  1.
        -15    1    1    2    0    0  0.64525051022E+01  0.50295758587E+00  0.81293385445E+01  0.10541900332E+02  0.17770000000E+01 0.  1.
         15    1    1    2    0    0 -0.47544543733E+01 -0.55113573139E+01 -0.23621527945E+02  0.24781327795E+02  0.17770000000E+01 0. -1.
</event>
<event>
 6    1  0.1378789E-002  0.1826389E+03  0.7546771E-02  0.1068344E+00
        -11   -1    0    0    0    0  0.00000000000E+00  0.00000000000E+00  0.18250000000E+03  0.18250000000E+03  0.00000000000E+00 0. -1.
         11   -1    0    0    0    0 -0.00000000000E+00 -0.00000000000E+00 -0.18250000000E+03  0.18250000000E+03  0.00000000000E+00 0. -1.
        -11    1    1    2    0    0 -0.26876138575E+01 -0.37125990765E+00  0.21511397048E+02  0.21681819691E+02  0.00000000000E+00 0. -1.
         11    1    1    2    0    0  0.82057451389E+01 -0.18947535428E+01 -0.18216650826E+03  0.18236107336E+03  0.00000000000E+00 0. -1.
        -15    1    1    2    0    0 -0.42072857415E+01 -0.20304237634E+01  0.75803906659E+02  0.75968505762E+02  0.17770000000E+01 0. -1.
         15    1    1    2    0    0 -0.13108455398E+01  0.42964372139E+01  0.84851204554E+02  0.84988601189E+02  0.17770000000E+01 0.  1.
</event>
<event>
 6    1  0.1378789E-002  0.1848227E+03  0.7546771E-02  0.1066621E+00
        -11   -1    0    0    0    0  0.00000000000E+00  0.00000000000E+00  0.18250000000E+03  0.18250000000E+03  0.00000000000E+00 0. -1.
         11   -1    0    0    0    0 -0.00000000000E+00 -0.00000000000E+00 -0.18250000000E+03  0.18250000000E+03  0.00000000000E+00 0.  1.
        -11    1    1    2    0    0  0.47130534406E+01 -0.34012031796E+01  0.18008356851E+03  0.18017733682E+03  0.00000000000E+00 0. -1.
         11    1    1    2    0    0 -0.57263949011E+01 -0.34685925517E+01 -0.17471736781E+03  0.17484559287E+03  0.00000000000E+00 0.  1.
        -15    1    1    2    0    0  0.19656461323E+01  0.49377518070E+01 -0.38575437136E+01  0.68031999917E+01  0.17770000000E+01 0.  1.
         15    1    1    2    0    0 -0.95230467185E+00  0.19320439243E+01 -0.15086569863E+01  0.31738703212E+01  0.17770000000E+01 0. -1.
</event>
<event>
 6    1  0.1378789E-002  0.1826297E+03  0.7546771E-02  0.1068352E+00
        -11   -1    0    0    0    0  0.00000000000E+00  0.00000000000E+00  0.18250000000E+03  0.18250000000E+03  0.00000000000E+00 0.  1.
         11   -1    0    0    0    0 -0.00000000000E+00 -0.00000000000E+00 -0.18250000000E+03  0.18250000000E+03  0.00000000000E+00 0.  1.
        -11    1    1    2    0    0 -0.26216562305E+01  0.30360168429E+00  0.93353788197E+02  0.93391086438E+02  0.00000000000E+00 0.  1.
         11    1    1    2    0    0  0.15896245317E+01 -0.20461050701E+01 -0.18235188868E+03  0.18237029571E+03  0.00000000000E+00 0.  1.
        -15    1    1    2    0    0  0.13243955035E+00  0.63144941587E+00  0.77141512824E+02  0.77164674549E+02  0.17770000000E+01 0.  1.
         15    1    1    2    0    0  0.89959214840E+00  0.11110539699E+01  0.11856587660E+02  0.12073943303E+02  0.17770000000E+01 0.  1.
</event>
<event>
 6    1  0.1378789E-002  0.1836020E+03  0.7546771E-02  0.1067581E+00
        -11   -1    0    0    0    0  0.00000000000E+00  0.00000000000E+00  0.18250000000E+03  0.18250000000E+03  0.00000000000E+00 0.  1.
         11   -1    0    0    0    0 -0.00000000000E+00 -0.00000000000E+00 -0.18250000000E+03  0.18250000000E+03  0.00000000000E+00 0.  1.
        -11    1    1    2    0    0  0.79511336210E+00 -0.54952270424E+01  0.16388752822E+03  0.16398155881E+03  0.00000000000E+00 0.  1.
         11    1    1    2    0    0  0.43358657344E+01  0.27560832477E+01 -0.18132518771E+03  0.18139795872E+03  0.00000000000E+00 0.  1.
        -15    1    1    2    0    0 -0.27548766469E+01  0.38735654311E+01  0.14222833031E+02  0.15101011983E+02  0.17770000000E+01 0.  1.
         15    1    1    2    0    0 -0.23761024495E+01 -0.11344216363E+01  0.32148264667E+01  0.45194704901E+01  0.17770000000E+01 0.  1.
</event>
<event>
 6    1  0.1378789E-002  0.2054030E+03  0.7546771E-02  0.1051558E+00
        -11   -1    0    0    0    0  0.00000000000E+00  0.00000000000E+00  0.18250000000E+03  0.18250000000E+03  0.00000000000E+00 0.  1.
         11   -1    0    0    0    0 -0.00000000000E+00 -0.00000000000E+00 -0.18250000000E+03  0.18250000000E+03  0.00000000000E+00 0.  1.
        -11    1    1    2    0    0  0.15461414068E+01 -0.71496149961E+01  0.15942925775E+03  0.15959697922E+03  0.00000000000E+00 0.  1.
         11    1    1    2    0    0  0.30945264545E+01 -0.65370305808E+01 -0.12819859470E+03  0.12840244759E+03  0.00000000000E+00 0.  1.
        -15    1    1    2    0    0  0.51302752935E+00  0.65806614126E+01  0.21991873718E+02  0.23029731663E+02  0.17770000000E+01 0. -1.
         15    1    1    2    0    0 -0.51536953906E+01  0.71059841643E+01 -0.53222536764E+02  0.53970841533E+02  0.17770000000E+01 0.  1.
</event>
<event>
 6    1  0.1378789E-002  0.1840358E+03  0.7546771E-02  0.1067239E+00
        -11   -1    0    0    0    0  0.00000000000E+00  0.00000000000E+00  0.18250000000E+03  0.18250000000E+03  0.00000000000E+00 0.  1.
         11   -1    0    0    0    0 -0.00000000000E+00 -0.00000000000E+00 -0.18250000000E+03  0.18250000000E+03  0.00000000000E+00 0.  1.
        -11    1    1    2    0    0  0.34015912868E+01 -0.17076357705E+01  0.18092412944E+03  0.18096416070E+03  0.00000000000E+00 0.  1.
         11    1    1    2    0    0  0.19211470042E+01 -0.19768186532E+01 -0.11124713708E+03  0.11128128381E+03  0.00000000000E+00 0.  1.
        -15    1    1    2    0    0 -0.68927617687E+01  0.47444196066E+01 -0.10603252121E+02  0.13623742759E+02  0.17770000000E+01 0. -1.
         15    1    1    2    0    0  0.15700234777E+01 -0.10599651829E+01 -0.59073740243E+02  0.59130812739E+02  0.17770000000E+01 0.  1.
</event>
<event>
 6    1  0.1378789E-002  0.1887166E+03  0.7546771E-02  0.1063611E+00
        -11   -1    0    0    0    0  0.00000000000E+00  0.00000000000E+00  0.18250000000E+03  0.18250000000E+03  0.00000000000E+00 0.  1.
         11   -1    0    0    0    0 -0.00000000000E+00 -0.00000000000E+00 -0.18250000000E+03  0.18250000000E+03  0.00000000000E+00 0.  1.
        -11    1    1    2    0    0 -0.89768282545E+00  0.37055153770E+01  0.14638493418E+03  0.14643457800E+03  0.00000000000E+00 0.  1.
         11    1    1    2    0    0 -0.20949080776E+01 -0.26735741568E+01 -0.17625064362E+03  0.17628336851E+03  0.00000000000E+00 0.  1.
        -15    1    1    2    0    0  0.74746388134E+01  0.11660302535E+02  0.23386355629E+02  0.27238065996E+02  0.17770000000E+01 0. -1.
         15    1    1    2    0    0 -0.44820479104E+01 -0.12692243756E+02  0.64793538091E+01  0.15043987497E+02  0.17770000000E+01 0.  1.
</event>
<event>
 6    1  0.1378789E-002  0.1839765E+03  0.7546771E-02  0.1067286E+00
        -11   -1    0    0    0    0  0.00000000000E+00  0.00000000000E+00  0.18250000000E+03  0.18250000000E+03  0.00000000000E+00 0.  1.
         11   -1    0    0    0    0 -0.00000000000E+00 -0.00000000000E+00 -0.18250000000E+03  0.18250000000E+03  0.00000000000E+00 0. -1.
        -11    1    1    2    0    0 -0.13466811612E+01  0.41403052936E+01  0.12059222854E+03  0.12067079706E+03  0.00000000000E+00 0.  1.
         11    1    1    2    0    0 -0.22835900291E+00 -0.25711937478E+01 -0.18100507794E+03  0.18102348308E+03  0.00000000000E+00 0. -1.
        -15    1    1    2    0    0  0.88169977447E+00 -0.38657666320E+01  0.60152157224E+02  0.60308882379E+02  0.17770000000E+01 0. -1.
         15    1    1    2    0    0  0.69334038967E+00  0.22966550862E+01  0.26069217453E+00  0.29968374815E+01  0.17770000000E+01 0.  1.
</event>
<event>
 6    1  0.1378789E-002  0.2023650E+03  0.7546771E-02  0.1053657E+00
        -11   -1    0    0    0    0  0.00000000000E+00  0.00000000000E+00  0.18250000000E+03  0.18250000000E+03  0.00000000000E+00 0. -1.
         11   -1    0    0    0    0 -0.00000000000E+00 -0.00000000000E+00 -0.18250000000E+03  0.18250000000E+03  0.00000000000E+00 0.  1.
        -11    1    1    2    0    0 -0.92432353784E+01 -0.72121043636E+01  0.14262074626E+03  0.14310181380E+03  0.00000000000E+00 0. -1.
         11    1    1    2    0    0 -0.10076419638E+02  0.27164517413E+01 -0.16229981899E+03  0.16263500418E+03  0.00000000000E+00 0.  1.
        -15    1    1    2    0    0  0.87425779728E+01  0.62618937008E+01 -0.17450751748E+02  0.20574995696E+02  0.17770000000E+01 0. -1.
         15    1    1    2    0    0  0.10577077044E+02 -0.17662410785E+01  0.37129824476E+02  0.38688186323E+02  0.17770000000E+01 0.  1.
</event>
<event>
 6    1  0.1378789E-002  0.1128580E+03  0.7546771E-02  0.1143268E+00
        -11   -1    0    0    0    0  0.00000000000E+00  0.00000000000E+00  0.18250000000E+03  0.18250000000E+03  0.00000000000E+00 0.  1.
         11   -1    0    0    0    0 -0.00000000000E+00 -0.00000000000E+00 -0.18250000000E+03  0.18250000000E+03  0.00000000000E+00 0.  1.
        -11    1    1    2    0    0 -0.53937789708E+00 -0.19680912100E+01  0.30249982788E+02  0.30318736289E+02  0.00000000000E+00 0.  1.
         11    1    1    2    0    0  0.40175504377E+01  0.68747303817E+01 -0.15687743933E+03  0.15707938630E+03  0.00000000000E+00 0.  1.
        -15    1    1    2    0    0 -0.37533900066E+01 -0.64637016049E+02  0.66483808902E+02  0.92818566868E+02  0.17770000000E+01 0.  1.
         15    1    1    2    0    0  0.27521746594E+00  0.59730376877E+02  0.60143647640E+02  0.84783310545E+02  0.17770000000E+01 0. -1.
</event>
<event>
 6    1  0.1378789E-002  0.1752995E+03  0.7546771E-02  0.1074335E+00
        -11   -1    0    0    0    0  0.00000000000E+00  0.00000000000E+00  0.18250000000E+03  0.18250000000E+03  0.00000000000E+00 0. -1.
         11   -1    0    0    0    0 -0.00000000000E+00 -0.00000000000E+00 -0.18250000000E+03  0.18250000000E+03  0.00000000000E+00 0. -1.
        -11    1    1    2    0    0 -0.33155448332E+01  0.31435859101E+01  0.17473330583E+03  0.17479302943E+03  0.00000000000E+00 0. -1.
         11    1    1    2    0    0  0.78639744324E+01 -0.13790147605E+01 -0.17565983264E+03  0.17584117998E+03  0.00000000000E+00 0. -1.
        -15    1    1    2    0    0 -0.97767945669E+00 -0.24049045916E+01  0.66521770766E+01  0.73585740516E+01  0.17770000000E+01 0. -1.
         15    1    1    2    0    0 -0.35707501425E+01  0.64033344194E+00 -0.57256502715E+01  0.70072165322E+01  0.17770000000E+01 0.  1.
</event>
<event>
 6    1  0.1378789E-002  0.1884665E+03  0.7546771E-02  0.1063802E+00
        -11   -1    0    0    0    0  0.00000000000E+00  0.00000000000E+00  0.18250000000E+03  0.18250000000E+03  0.00000000000E+00 0. -1.
         11   -1    0    0    0    0 -0.00000000000E+00 -0.00000000000E+00 -0.18250000000E+03  0.18250000000E+03  0.00000000000E+00 0. -1.
        -11    1    1    2    0    0 -0.63974832195E+00  0.66798572613E+01  0.13946551450E+03  0.13962685811E+03  0.00000000000E+00 0. -1.
         11    1    1    2    0    0 -0.25069947213E+01  0.91866897367E+00 -0.17651326970E+03  0.17653346243E+03  0.00000000000E+00 0. -1.
        -15    1    1    2    0    0  0.41048560322E+01 -0.13106945312E+02  0.39958594128E+02  0.42290528871E+02  0.17770000000E+01 0. -1.
         15    1    1    2    0    0 -0.95811298897E+00  0.55084190774E+01 -0.29108389275E+01  0.65491505933E+01  0.17770000000E+01 0.  1.
</event>
<event>
 6    1  0.1378789E-002  0.1831238E+03  0.7546771E-02  0.1067959E+00
        -11   -1    0    0    0    0  0.00000000000E+00  0.00000000000E+00  0.18250000000E+03  0.18250000000E+03  0.00000000000E+00 0. -1.
         11   -1    0    0    0    0 -0.00000000000E+00 -0.00000000000E+00 -0.18250000000E+03  0.18250000000E+03  0.00000000000E+00 0.  1.
        -11    1    1    2    0    0  0.97598397313E-01  0.84761542073E+00  0.45257753836E+02  0.45265795692E+02  0.00000000000E+00 0. -1.
         11    1    1    2    0    0  0.13229884657E+02  0.20119365394E+01 -0.18138324368E+03  0.18187621841E+03  0.00000000000E+00 0.  1.
        -15    1    1    2    0    0 -0.11518219701E+02 -0.85285821166E+01  0.72108613185E+02  0.73540573308E+02  0.17770000000E+01 0.  1.
         15    1    1    2    0    0 -0.18092633525E+01  0.56690301565E+01  0.64016876654E+02  0.64317412590E+02  0.17770000000E+01 0. -1.
</event>
<event>
 6    1  0.1378789E-002  0.1874437E+03  0.7546771E-02  0.1064586E+00
        -11   -1    0    0    0    0  0.00000000000E+00  0.00000000000E+00  0.18250000000E+03  0.18250000000E+03  0.00000000000E+00 0. -1.
         11   -1    0    0    0    0 -0.00000000000E+00 -0.00000000000E+00 -0.18250000000E+03  0.18250000000E+03  0.00000000000E+00 0.  1.
        -11    1    1    2    0    0 -0.12225644513E+01  0.52573755047E+01  0.17747427399E+03  0.17755633638E+03  0.00000000000E+00 0. -1.
         11    1    1    2    0    0  0.94859178057E+01 -0.42685827238E+01 -0.16711700237E+03  0.16744042498E+03  0.00000000000E+00 0.  1.
        -15    1    1    2    0    0 -0.16311642918E+01 -0.54714918313E+01  0.93039077001E+00  0.60515515194E+01  0.17770000000E+01 0.  1.
         15    1    1    2    0    0 -0.66321890625E+01  0.44826990504E+01 -0.11287662385E+02  0.13951687126E+02  0.17770000000E+01 0. -1.
</event>
<event>
 6    1  0.1378789E-002  0.1767486E+03  0.7546771E-02  0.1073127E+00
        -11   -1    0    0    0    0  0.00000000000E+00  0.00000000000E+00  0.18250000000E+03  0.18250000000E+03  0.00000000000E+00 0.  1.
         11   -1    0    0    0    0 -0.00000000000E+00 -0.00000000000E+00 -0.18250000000E+03  0.18250000000E+03  0.00000000000E+00 0. -1.
        -11    1    1    2    0    0 -0.34142739437E+01 -0.36696227035E+00  0.17629735471E+03  0.17633079483E+03  0.00000000000E+00 0.  1.
         11    1    1    2    0    0  0.29814187880E+00  0.26272435523E+01 -0.17716867813E+03  0.17718840765E+03  0.00000000000E+00 0. -1.
        -15    1    1    2    0    0 -0.32293953635E+00 -0.27633710190E+01  0.48759474259E+01  0.58883870145E+01  0.17770000000E+01 0. -1.
         15    1    1    2    0    0  0.34390716012E+01  0.50308973702E+00 -0.40046240069E+01  0.55924104999E+01  0.17770000000E+01 0.  1.
</event>
<event>
 6    1  0.1378789E-002  0.1826504E+03  0.7546771E-02  0.1068335E+00
        -11   -1    0    0    0    0  0.00000000000E+00  0.00000000000E+00  0.18250000000E+03  0.18250000000E+03  0.00000000000E+00 0.  1.
         11   -1    0    0    0    0 -0.00000000000E+00 -0.00000000000E+00 -0.18250000000E+03  0.18250000000E+03  0.00000000000E+00 0. -1.
        -11    1    1    2    0    0 -0.20602643501E+01  0.29824951635E+00  0.11025851699E+03  0.11027816742E+03  0.00000000000E+00 0.  1.
         11    1    1    2    0    0  0.12716114804E+01  0.21821084237E+01 -0.18233208751E+03  0.18234957836E+03  0.00000000000E+00 0. -1.
        -15    1    1    2    0    0  0.79468605672E+00 -0.12690785985E+01  0.63166852927E+02  0.63209580952E+02  0.17770000000E+01 0.  1.
         15    1    1    2    0    0 -0.60331870439E-02 -0.12112793416E+01  0.89067175969E+01  0.91626732668E+01  0.17770000000E+01 0. -1.
</event>
<event>
 6    1  0.1378789E-002  0.1829181E+03  0.7546771E-02  0.1068122E+00
        -11   -1    0    0    0    0  0.00000000000E+00  0.00000000000E+00  0.18250000000E+03  0.18250000000E+03  0.00000000000E+00 0.  1.
         11   -1    0    0    0    0 -0.00000000000E+00 -0.00000000000E+00 -0.18250000000E+03  0.18250000000E+03  0.00000000000E+00 0. -1.
        -11    1    1    2    0    0 -0.17050081097E+01 -0.29015561403E+01  0.18205076072E+03  0.18208186499E+03  0.00000000000E+00 0.  1.
         11    1    1    2    0    0  0.25914124123E+01 -0.19034811270E+01 -0.10535635847E+03  0.10540541224E+03  0.00000000000E+00 0. -1.
        -15    1    1    2    0    0 -0.37721959748E+01 -0.10482686105E+01 -0.23504060492E+02  0.23894077052E+02  0.17770000000E+01 0. -1.
         15    1    1    2    0    0  0.28857916723E+01  0.58533058778E+01 -0.53190341756E+02  0.53618645716E+02  0.17770000000E+01 0. -1.
</event>
<event>
 6    1  0.1378789E-002  0.2077842E+03  0.7546771E-02  0.1049939E+00
        -11   -1    0    0    0    0  0.00000000000E+00  0.00000000000E+00  0.18250000000E+03  0.18250000000E+03  0.00000000000E+00 0. -1.
         11   -1    0    0    0    0 -0.00000000000E+00 -0.00000000000E+00 -0.18250000000E+03  0.18250000000E+03  0.00000000000E+00 0.  1.
        -11    1    1    2    0    0  0.21698918858E+01  0.27236384939E+01  0.15717725148E+03  0.15721582306E+03  0.00000000000E+00 0. -1.
         11    1    1    2    0    0  0.15389653308E+01  0.22585344270E+00 -0.54260943931E+02  0.54283233694E+02  0.00000000000E+00 0.  1.
        -15    1    1    2    0    0 -0.83233207781E+01  0.25071797318E+01  0.24404529103E+02  0.25967333107E+02  0.17770000000E+01 0. -1.
         15    1    1    2    0    0  0.46144635615E+01 -0.54566716685E+01 -0.12732083665E+03  0.12753361014E+03  0.17770000000E+01 0.  1.
</event>
<event>
 6    1  0.1378789E-002  0.1827936E+03  0.7546771E-02  0.1068221E+00
        -11   -1    0    0    0    0  0.00000000000E+00  0.00000000000E+00  0.18250000000E+03  0.18250000000E+03  0.00000000000E+00 0. -1.
         11   -1    0    0    0    0 -0.00000000000E+00 -0.00000000000E+00 -0.18250000000E+03  0.18250000000E+03  0.00000000000E+00 0. -1.
        -11    1    1    2    0    0 -0.77609451910E+01  0.52756075544E+01  0.18196460648E+03  0.18220642776E+03  0.00000000000E+00 0. -1.
         11    1    1    2    0    0 -0.18219411524E+01  0.75845949431E+00 -0.46507308432E+02  0.46549161840E+02  0.00000000000E+00 0. -1.
        -15    1    1    2    0    0 -0.11521318816E+01 -0.12429538090E+01 -0.34993860758E+02  0.35079913936E+02  0.17770000000E+01 0.  1.
         15    1    1    2    0    0  0.10735018225E+02 -0.47911132397E+01 -0.10046343729E+03  0.10116449646E+03  0.17770000000E+01 0. -1.
</event>
<event>
 6    1  0.1378789E-002  0.1841144E+03  0.7546771E-02  0.1067177E+00
        -11   -1    0    0    0    0  0.00000000000E+00  0.00000000000E+00  0.18250000000E+03  0.18250000000E+03  0.00000000000E+00 0.  1.
         11   -1    0    0    0    0 -0.00000000000E+00 -0.00000000000E+00 -0.18250000000E+03  0.18250000000E+03  0.00000000000E+00 0. -1.
        -11    1    1    2    0    0 -0.43878707822E+01 -0.12363765356E+01  0.18082809614E+03  0.18088555053E+03  0.00000000000E+00 0.  1.
         11    1    1    2    0    0  0.14318166270E+01  0.40342385230E+01 -0.16766159647E+03  0.16771623687E+03  0.00000000000E+00 0. -1.
        -15    1    1    2    0    0 -0.25054952173E+01 -0.55952409853E+00 -0.22047918174E+01  0.38222257205E+01  0.17770000000E+01 0. -1.
         15    1    1    2    0    0  0.54615493726E+01 -0.22383378889E+01 -0.10961707847E+02  0.12575986879E+02  0.17770000000E+01 0. -1.
</event>
<event>
 6    1  0.1378789E-002  0.1828429E+03  0.7546771E-02  0.1068182E+00
        -11   -1    0    0    0    0  0.00000000000E+00  0.00000000000E+00  0.18250000000E+03  0.18250000000E+03  0.00000000000E+00 0. -1.
         11   -1    0    0    0    0 -0.00000000000E+00 -0.00000000000E+00 -0.18250000000E+03  0.18250000000E+03  0.00000000000E+00 0. -1.
        -11    1    1    2    0    0 -0.32829076674E+01  0.29149160553E+01  0.18210419290E+03  0.18215710607E+03  0.00000000000E+00 0. -1.
         11    1    1    2    0    0 -0.37597433305E+00 -0.18414570960E+01 -0.11758869631E+03  0.11760371516E+03  0.00000000000E+00 0. -1.
        -15    1    1    2    0    0  0.29171287107E+01  0.16062012490E+01 -0.11146152088E+02  0.11767920706E+02  0.17770000000E+01 0.  1.
         15    1    1    2    0    0  0.74175328979E+00 -0.26796602084E+01 -0.53369344508E+02  0.53471258064E+02  0.17770000000E+01 0. -1.
</event>
<event>
 6    1  0.1378789E-002  0.1847875E+03  0.7546771E-02  0.1066648E+00
        -11   -1    0    0    0    0  0.00000000000E+00  0.00000000000E+00  0.18250000000E+03  0.18250000000E+03  0.00000000000E+00 0.  1.
         11   -1    0    0    0    0 -0.00000000000E+00 -0.00000000000E+00 -0.18250000000E+03  0.18250000000E+03  0.00000000000E+00 0.  1.
        -11    1    1    2    0    0  0.23196885806E+01  0.28305561820E+01  0.16300158155E+03  0.16304265881E+03  0.00000000000E+00 0.  1.
         11    1    1    2    0    0 -0.28985043453E+01  0.10080964872E+01 -0.18018634100E+03  0.18021247202E+03  0.00000000000E+00 0.  1.
        -15    1    1    2    0    0 -0.44136795410E+01  0.14820302272E+01  0.10775715316E+02  0.11872268117E+02  0.17770000000E+01 0.  1.
         15    1    1    2    0    0  0.49924953057E+01 -0.53206828964E+01  0.64090441388E+01  0.98726010572E+01  0.17770000000E+01 0. -1.
</event>
<event>
 6    1  0.1378789E-002  0.1751285E+03  0.7546771E-02  0.1074479E+00
        -11   -1    0    0    0    0  0.00000000000E+00  0.00000000000E+00  0.18250000000E+03  0.18250000000E+03  0.00000000000E+00 0.  1.
         11   -1    0    0    0    0 -0.00000000000E+00 -0.00000000000E+00 -0.18250000000E+03  0.18250000000E+03  0.00000000000E+00 0. -1.
        -11    1    1    2    0    0 -0.60170826123E+01 -0.87963077666E+01  0.17546020451E+03  0.17578357056E+03  0.00000000000E+00 0.  1.
         11    1    1    2    0    0  0.49632859408E+00  0.44814324171E+01 -0.17448659445E+03  0.17454484015E+03  0.00000000000E+00 0. -1.
        -15    1    1    2    0    0  0.78145012011E+01  0.37656456571E+01  0.33233230999E+01  0.94577334316E+01  0.17770000000E+01 0.  1.
         15    1    1    2    0    0 -0.22937471828E+01  0.54922969240E+00 -0.42969331549E+01  0.52138558602E+01  0.17770000000E+01 0. -1.
</event>
<event>
 6    1  0.1378789E-002  0.1827319E+03  0.7546771E-02  0.1068270E+00
        -11   -1    0    0    0    0  0.00000000000E+00  0.00000000000E+00  0.18250000000E+03  0.18250000000E+03  0.00000000000E+00 0. -1.
         11   -1    0    0    0    0 -0.00000000000E+00 -0.00000000000E+00 -0.18250000000E+03  0.18250000000E+03  0.00000000000E+00 0.  1.
        -11    1    1    2    0    0 -0.13900793865E+01 -0.14433514556E+01  0.11119840310E+03  0.11121645758E+03  0.00000000000E+00 0. -1.
         11    1    1    2    0    0 -0.30359079238E+01  0.10570715641E+01 -0.18223979662E+03  0.18226814755E+03  0.00000000000E+00 0.  1.
        -15    1    1    2    0    0 -0.73724575208E+00 -0.96583173371E+00  0.10835652516E+02  0.11047418553E+02  0.17770000000E+01 0. -1.
         15    1    1    2    0    0  0.51632330624E+01  0.13521116251E+01  0.60205741005E+02  0.60467976322E+02  0.17770000000E+01 0. -1.
</event>
<event>
 6    1  0.1378789E-002  0.1835647E+03  0.7546771E-02  0.1067610E+00
        -11   -1    0    0    0    0  0.00000000000E+00  0.00000000000E+00  0.18250000000E+03  0.18250000000E+03  0.00000000000E+00 0.  1.
         11   -1    0    0    0    0 -0.00000000000E+00 -0.00000000000E+00 -0.18250000000E+03  0.18250000000E+03  0.00000000000E+00 0. -1.
        -11    1    1    2    0    0 -0.32408791690E+00 -0.24533098830E+01  0.15504604940E+03  0.15506579635E+03  0.00000000000E+00 0.  1.
         11    1    1    2    0    0 -0.35397976203E+00  0.31600054875E+01 -0.18140742684E+03  0.18143529273E+03  0.00000000000E+00 0. -1.
        -15    1    1    2    0    0  0.10458335131E+01  0.14771664251E+01  0.25362369434E+02  0.25488885827E+02  0.17770000000E+01 0.  1.
         15    1    1    2    0    0 -0.36776583421E+00 -0.21838620295E+01  0.99900800807E+00  0.30100250951E+01  0.17770000000E+01 0. -1.
</event>
<event>
 6    1  0.1378789E-002  0.1826021E+03  0.7546771E-02  0.1068374E+00
        -11   -1    0    0    0    0  0.00000000000E+00  0.00000000000E+00  0.18250000000E+03  0.18250000000E+03  0.00000000000E+00 0.  1.
         11   -1    0    0    0    0 -0.00000000000E+00 -0.00000000000E+00 -0.18250000000E+03  0.18250000000E+03  0.00000000000E+00 0. -1.
        -11    1    1    2    0    0 -0.22924401854E+01 -0.28930059482E+01  0.18236051385E+03  0.18239786670E+03  0.00000000000E+00 0.  1.
         11    1    1    2    0    0  0.16923696216E+01  0.58169023761E+00 -0.80539716756E+02  0.80559595665E+02  0.00000000000E+00 0. -1.
        -15    1    1    2    0    0  0.16663267704E+00  0.38471315326E+01 -0.56565358928E+02  0.56724119624E+02  0.17770000000E+01 0.  1.
         15    1    1    2    0    0  0.43343788675E+00 -0.15358158220E+01 -0.45255438164E+02  0.45318418011E+02  0.17770000000E+01 0. -1.
</event>
<event>
 6    1  0.1378789E-002  0.1832924E+03  0.7546771E-02  0.1067826E+00
        -11   -1    0    0    0    0  0.00000000000E+00  0.00000000000E+00  0.18250000000E+03  0.18250000000E+03  0.00000000000E+00 0.  1.
         11   -1    0    0    0    0 -0.00000000000E+00 -0.00000000000E+00 -0.18250000000E+03  0.18250000000E+03  0.00000000000E+00 0. -1.
        -11    1    1    2    0    0  0.17419955313E+01  0.99567815368E+00  0.13024519833E+03  0.13026065258E+03  0.00000000000E+00 0.  1.
         11    1    1    2    0    0 -0.25058529823E+01 -0.77358453158E+00 -0.18168863660E+03  0.18170756286E+03  0.00000000000E+00 0. -1.
        -15    1    1    2    0    0  0.19327696683E+01  0.57518761766E+01  0.30540448887E+02  0.31188081463E+02  0.17770000000E+01 0.  1.
         15    1    1    2    0    0 -0.11689122173E+01 -0.59739697987E+01  0.20902989378E+02  0.21843703094E+02  0.17770000000E+01 0. -1.
</event>
<event>
 6    1  0.1378789E-002  0.1830019E+03  0.7546771E-02  0.1068056E+00
        -11   -1    0    0    0    0  0.00000000000E+00  0.00000000000E+00  0.18250000000E+03  0.18250000000E+03  0.00000000000E+00 0.  1.
         11   -1    0    0    0    0 -0.00000000000E+00 -0.00000000000E+00 -0.18250000000E+03  0.18250000000E+03  0.00000000000E+00 0.  1.
        -11    1    1    2    0    0 -0.71825306500E+00 -0.42813500083E+01  0.18194636445E+03  0.18199814665E+03  0.00000000000E+00 0.  1.
         11    1    1    2    0    0 -0.66149236579E+00 -0.18803507216E+01 -0.13909855796E+03  0.13911283952E+03  0.00000000000E+00 0.  1.
        -15    1    1    2    0    0  0.32485293072E+01  0.54710756326E+01 -0.34428167376E+02  0.35056269755E+02  0.17770000000E+01 0.  1.
         15    1    1    2    0    0 -0.18687838764E+01  0.69062509720E+00 -0.84196391150E+01  0.88327440826E+01  0.17770000000E+01 0.  1.
</event>
<event>
 6    1  0.1378789E-002  0.1850926E+03  0.7546771E-02  0.1066410E+00
        -11   -1    0    0    0    0  0.00000000000E+00  0.00000000000E+00  0.18250000000E+03  0.18250000000E+03  0.00000000000E+00 0.  1.
         11   -1    0    0    0    0 -0.00000000000E+00 -0.00000000000E+00 -0.18250000000E+03  0.18250000000E+03  0.00000000000E+00 0.  1.
        -11    1    1    2    0    0 -0.23338045554E+01 -0.16248856414E+01  0.17656618700E+03  0.17658908599E+03  0.00000000000E+00 0.  1.
         11    1    1    2    0    0  0.33728552063E+01 -0.34905307481E+01 -0.17984195325E+03  0.17990744317E+03  0.00000000000E+00 0.  1.
        -15    1    1    2    0    0 -0.26681367925E+01  0.25301223004E+01  0.73328018811E+00  0.41492049399E+01  0.17770000000E+01 0.  1.
         15    1    1    2    0    0  0.16290861417E+01  0.25852940891E+01  0.25424860652E+01  0.43542659055E+01  0.17770000000E+01 0. -1.
</event>
<event>
 6    1  0.1378789E-002  0.1829414E+03  0.7546771E-02  0.1068104E+00
        -11   -1    0    0    0    0  0.00000000000E+00  0.00000000000E+00  0.18250000000E+03  0.18250000000E+03  0.00000000000E+00 0. -1.
         11   -1    0    0    0    0 -0.00000000000E+00 -0.00000000000E+00 -0.18250000000E+03  0.18250000000E+03  0.00000000000E+00 0.  1.
        -11    1    1    2    0    0 -0.21259251588E+01  0.27550414396E+01  0.14192002413E+03  0.14196268193E+03  0.00000000000E+00 0. -1.
         11    1    1    2    0    0  0.76017688941E+00  0.28310338220E+01 -0.18203497237E+03  0.18205857240E+03  0.00000000000E+00 0.  1.
        -15    1    1    2    0    0  0.73058462873E+00 -0.35235013900E+01  0.34219610434E+02  0.34454147547E+02  0.17770000000E+01 0. -1.
         15    1    1    2    0    0  0.63516364065E+00 -0.20625738716E+01  0.58953378044E+01  0.65245981221E+01  0.17770000000E+01 0.  1.
</event>
<event>
 6    1  0.1378789E-002  0.1850559E+03  0.7546771E-02  0.1066438E+00
        -11   -1    0    0    0    0  0.00000000000E+00  0.00000000000E+00  0.18250000000E+03  0.18250000000E+03  0.00000000000E+00 0. -1.
         11   -1    0    0    0    0 -0.00000000000E+00 -0.00000000000E+00 -0.18250000000E+03  0.18250000000E+03  0.00000000000E+00 0.  1.
        -11    1    1    2    0    0  0.11443257362E+01  0.51224435684E+01  0.17986755556E+03  0.17994412036E+03  0.00000000000E+00 0. -1.
         11    1    1    2    0    0  0.12714555899E+01  0.20991896885E+01 -0.15040542059E+03  0.15042544246E+03  0.00000000000E+00 0.  1.
        -15    1    1    2    0    0  0.73210917478E+00 -0.11260219826E+02 -0.13033716401E+02  0.17331013432E+02  0.17770000000E+01 0.  1.
         15    1    1    2    0    0 -0.31478905009E+01  0.40385865688E+01 -0.16428418568E+02  0.17299423740E+02  0.17770000000E+01 0.  1.
</event>
<event>
 6    1  0.1378789E-002  0.1829588E+03  0.7546771E-02  0.1068090E+00
        -11   -1    0    0    0    0  0.00000000000E+00  0.00000000000E+00  0.18250000000E+03  0.18250000000E+03  0.00000000000E+00 0.  1.
         11   -1    0    0    0    0 -0.00000000000E+00 -0.00000000000E+00 -0.18250000000E+03  0.18250000000E+03  0.00000000000E+00 0.  1.
        -11    1    1    2    0    0  0.43703925073E+01  0.30967828644E+01  0.18196237690E+03  0.18204119589E+03  0.00000000000E+00 0.  1.
         11    1    1    2    0    0  0.21964240972E+01  0.25743621347E+01 -0.11733090009E+03  0.11737969047E+03  0.00000000000E+00 0.  1.
        -15    1    1    2    0    0 -0.34851300512E+01 -0.32579503441E+01 -0.51739659513E+02  0.51989522670E+02  0.17770000000E+01 0.  1.
         15    1    1    2    0    0 -0.30816865533E+01 -0.24131946550E+01 -0.12891817295E+02  0.13589590966E+02  0.17770000000E+01 0. -1.
</event>
<event>
 6    1  0.1378789E-002  0.1851887E+03  0.7546771E-02  0.1066335E+00
        -11   -1    0    0    0    0  0.00000000000E+00  0.00000000000E+00  0.18250000000E+03  0.18250000000E+03  0.00000000000E+00 0.  1.
         11   -1    0    0    0    0 -0.00000000000E+00 -0.00000000000E+00 -0.18250000000E+03  0.18250000000E+03  0.00000000000E+00 0.  1.
        -11    1    1    2    0    0 -0.26511418774E+01 -0.15591423233E-01  0.17672103137E+03  0.17674091696E+03  0.00000000000E+00 0.  1.
         11    1    1    2    0    0  0.17360341560E+01  0.31442623237E+01 -0.17977543612E+03  0.17981131119E+03  0.00000000000E+00 0.  1.
        -15    1    1    2    0    0  0.45570380966E+00 -0.23102190225E+01 -0.16158059732E+01  0.33635302640E+01  0.17770000000E+01 0. -1.
         15    1    1    2    0    0  0.45940391172E+00 -0.81845187803E+00  0.46702107167E+01  0.50842415923E+01  0.17770000000E+01 0.  1.
</event>
<event>
 6    1  0.1378789E-002  0.1829113E+03  0.7546771E-02  0.1068128E+00
        -11   -1    0    0    0    0  0.00000000000E+00  0.00000000000E+00  0.18250000000E+03  0.18250000000E+03  0.00000000000E+00 0. -1.
         11   -1    0    0    0    0 -0.00000000000E+00 -0.00000000000E+00 -0.18250000000E+03  0.18250000000E+03  0.00000000000E+00 0. -1.
        -11    1    1    2    0    0  0.21055592236E+01  0.13305066607E+01  0.18207162860E+03  0.18208866403E+03  0.00000000000E+00 0. -1.
         11    1    1    2    0    0 -0.38806715506E+01 -0.14862768278E+00 -0.15873851914E+03  0.15878601689E+03  0.00000000000E+00 0. -1.
        -15    1    1    2    0    0 -0.28252529235E+00 -0.11563676408E+01 -0.34645221102E+01  0.40715659289E+01  0.17770000000E+01 0. -1.
         15    1    1    2    0    0  0.20576376193E+01 -0.25511337090E-01 -0.19868587346E+02  0.20053753153E+02  0.17770000000E+01 0.  1.
</event>
<event>
 6    1  0.1378789E-002  0.1897244E+03  0.7546771E-02  0.1062845E+00
        -11   -1    0    0    0    0  0.00000000000E+00  0.00000000000E+00  0.18250000000E+03  0.18250000000E+03  0.00000000000E+00 0. -1.
         11   -1    0    0    0    0 -0.00000000000E+00 -0.00000000000E+00 -0.18250000000E+03  0.18250000000E+03  0.00000000000E+00 0. -1.
        -11    1    1    2    0    0 -0.34065908485E+01 -0.24017006961E+01  0.16859203007E+03  0.16864354607E+03  0.00000000000E+00 0. -1.
         11    1    1    2    0    0 -0.45743069053E+01 -0.40843195310E+01 -0.17516828391E+03  0.17527559339E+03  0.00000000000E+00 0. -1.
        -15    1    1    2    0    0  0.41146669768E+01  0.52069211163E+01  0.12146962471E+02  0.13955247691E+02  0.17770000000E+01 0.  1.
         15    1    1    2    0    0  0.38662307770E+01  0.12790991109E+01 -0.55707086280E+01  0.71256128561E+01  0.17770000000E+01 0. -1.
</event>
<event>
 6    1  0.1378789E-002  0.1936423E+03  0.7546771E-02  0.1059916E+00
        -11   -1    0    0    0    0  0.00000000000E+00  0.00000000000E+00  0.18250000000E+03  0.18250000000E+03  0.00000000000E+00 0.  1.
         11   -1    0    0    0    0 -0.00000000000E+00 -0.00000000000E+00 -0.18250000000E+03  0.18250000000E+03  0.00000000000E+00 0.  1.
        -11    1    1    2    0    0  0.10532219279E+02  0.25348279988E+02  0.16914492722E+03  0.17135772333E+03  0.00000000000E+00 0.  1.
         11    1    1    2    0    0 -0.12616318791E+01  0.14677629950E+00 -0.73124266375E+02  0.73135296480E+02  0.00000000000E+00 0.  1.
        -15    1    1    2    0    0 -0.33785781013E+02 -0.12427953805E+02 -0.81491380540E+02  0.89106317766E+02  0.17770000000E+01 0.  1.
         15    1    1    2    0    0  0.24515193613E+02 -0.13067102483E+02 -0.14529280307E+02  0.31400662420E+02  0.17770000000E+01 0.  1.
</event>
<event>
 6    1  0.1378789E-002  0.1690724E+03  0.7546771E-02  0.1079676E+00
        -11   -1    0    0    0    0  0.00000000000E+00  0.00000000000E+00  0.18250000000E+03  0.18250000000E+03  0.00000000000E+00 0. -1.
         11   -1    0    0    0    0 -0.00000000000E+00 -0.00000000000E+00 -0.18250000000E+03  0.18250000000E+03  0.00000000000E+00 0. -1.
        -11    1    1    2    0    0 -0.11047279245E+02  0.37112769999E+01  0.17545544642E+03  0.17584205877E+03  0.00000000000E+00 0. -1.
         11    1    1    2    0    0 -0.19164741352E+01  0.30752678487E+01 -0.90753424101E+01  0.97720000671E+01  0.00000000000E+00 0. -1.
        -15    1    1    2    0    0 -0.13345064707E+00  0.25941628087E+01 -0.16274511482E+03  0.16277554367E+03  0.17770000000E+01 0. -1.
         15    1    1    2    0    0  0.13097204027E+02 -0.93807076572E+01 -0.36349891925E+01  0.16610397494E+02  0.17770000000E+01 0.  1.
</event>
<event>
 6    1  0.1378789E-002  0.1846512E+03  0.7546771E-02  0.1066755E+00
        -11   -1    0    0    0    0  0.00000000000E+00  0.00000000000E+00  0.18250000000E+03  0.18250000000E+03  0.00000000000E+00 0.  1.
         11   -1    0    0    0    0 -0.00000000000E+00 -0.00000000000E+00 -0.18250000000E+03  0.18250000000E+03  0.00000000000E+00 0.  1.
        -11    1    1    2    0    0  0.68629981353E+01 -0.59442937038E-01  0.18021814753E+03  0.18034878701E+03  0.00000000000E+00 0.  1.
         11    1    1    2    0    0  0.11072665736E+01 -0.20217604186E+00 -0.32793549371E+02  0.32812860204E+02  0.00000000000E+00 0.  1.
        -15    1    1    2    0    0 -0.14426680153E+02 -0.30839148598E+01 -0.24277252141E+02  0.28463702002E+02  0.17770000000E+01 0. -1.
         15    1    1    2    0    0  0.64564154445E+01  0.33455338387E+01 -0.12314734602E+03  0.12337465079E+03  0.17770000000E+01 0.  1.
</event>
<event>
 6    1  0.1378789E-002  0.1846941E+03  0.7546771E-02  0.1066722E+00
        -11   -1    0    0    0    0  0.00000000000E+00  0.00000000000E+00  0.18250000000E+03  0.18250000000E+03  0.00000000000E+00 0.  1.
         11   -1    0    0    0    0 -0.00000000000E+00 -0.00000000000E+00 -0.18250000000E+03  0.18250000000E+03  0.00000000000E+00 0. -1.
        -11    1    1    2    0    0 -0.13152173856E+02  0.53839234508E+01  0.17974499685E+03  0.18030593502E+03  0.00000000000E+00 0.  1.
         11    1    1    2    0    0  0.79271116641E-01 -0.35853694913E+01 -0.12465491615E+03  0.12470649253E+03  0.00000000000E+00 0. -1.
        -15    1    1    2    0    0  0.11143416002E+02 -0.16049460680E+01 -0.11069419366E+02  0.15888402883E+02  0.17770000000E+01 0. -1.
         15    1    1    2    0    0  0.19294867379E+01 -0.19360789143E+00 -0.44020661334E+02  0.44099169566E+02  0.17770000000E+01 0.  1.
</event>
<event>
 6    1  0.1378789E-002  0.1825959E+03  0.7546771E-02  0.1068379E+00
        -11   -1    0    0    0    0  0.00000000000E+00  0.00000000000E+00  0.18250000000E+03  0.18250000000E+03  0.00000000000E+00 0.  1.
         11   -1    0    0    0    0 -0.00000000000E+00 -0.00000000000E+00 -0.18250000000E+03  0.18250000000E+03  0.00000000000E+00 0.  1.
        -11    1    1    2    0    0  0.25432064081E+01 -0.64770814670E+00  0.29456477802E+02  0.29573155212E+02  0.00000000000E+00 0.  1.
         11    1    1    2    0    0 -0.17053560338E+01  0.22568897750E+01 -0.18238221282E+03  0.18240414837E+03  0.00000000000E+00 0.  1.
        -15    1    1    2    0    0  0.11367759444E+01 -0.10877390160E+01  0.99613547594E+02  0.99641818675E+02  0.17770000000E+01 0.  1.
         15    1    1    2    0    0 -0.19746263187E+01 -0.52144261227E+00  0.53312187424E+02  0.53380877741E+02  0.17770000000E+01 0. -1.
</event>
<event>
 6    1  0.1378789E-002  0.1828565E+03  0.7546771E-02  0.1068171E+00
        -11   -1    0    0    0    0  0.00000000000E+00  0.00000000000E+00  0.18250000000E+03  0.18250000000E+03  0.00000000000E+00 0. -1.
         11   -1    0    0    0    0 -0.00000000000E+00 -0.00000000000E+00 -0.18250000000E+03  0.18250000000E+03  0.00000000000E+00 0. -1.
        -11    1    1    2    0    0  0.49460562262E+01  0.93145619282E+01  0.18183787381E+03  0.18214345140E+03  0.00000000000E+00 0. -1.
         11    1    1    2    0    0 -0.63098766203E+00  0.72918644188E+00 -0.45213055413E+02  0.45223337317E+02  0.00000000000E+00 0. -1.
        -15    1    1    2    0    0 -0.62131297731E+01 -0.11667441964E+02 -0.10101741043E+03  0.10189409758E+03  0.17770000000E+01 0. -1.
         15    1    1    2    0    0  0.18980612090E+01  0.16236935941E+01 -0.35607407968E+02  0.35739113705E+02  0.17770000000E+01 0. -1.
</event>
<event>
 6    1  0.1378789E-002  0.1831800E+03  0.7546771E-02  0.1067915E+00
        -11   -1    0    0    0    0  0.00000000000E+00  0.00000000000E+00  0.18250000000E+03  0.18250000000E+03  0.00000000000E+00 0.  1.
         11   -1    0    0    0    0 -0.00000000000E+00 -0.00000000000E+00 -0.18250000000E+03  0.18250000000E+03  0.00000000000E+00 0.  1.
        -11    1    1    2    0    0  0.11168558405E+01  0.14797032593E+01  0.64490789622E+02  0.64517430472E+02  0.00000000000E+00 0.  1.
         11    1    1    2    0    0 -0.39604550700E+01  0.21395786336E+01 -0.18176428596E+03  0.18182001719E+03  0.00000000000E+00 0.  1.
        -15    1    1    2    0    0  0.90778257636E+01 -0.61776357723E+01  0.74084076151E+02  0.74914472384E+02  0.17770000000E+01 0.  1.
         15    1    1    2    0    0 -0.62342265342E+01  0.25583538794E+01  0.43189420183E+02  0.43748079956E+02  0.17770000000E+01 0. -1.
</event>
<event>
 6    1  0.1378789E-002  0.1618985E+03  0.7546771E-02  0.1086149E+00
        -11   -1    0    0    0    0  0.00000000000E+00  0.00000000000E+00  0.18250000000E+03  0.18250000000E+03  0.00000000000E+00 0. -1.
         11   -1    0    0    0    0 -0.00000000000E+00 -0.00000000000E+00 -0.18250000000E+03  0.18250000000E+03  0.00000000000E+00 0.  1.
        -11    1    1    2    0    0  0.18550897505E+02 -0.16608588439E+02  0.16371097971E+03  0.16559367707E+03  0.00000000000E+00 0. -1.
         11    1    1    2    0    0 -0.37679723564E+01 -0.74558741434E+01 -0.15924435493E+03  0.15946332573E+03  0.00000000000E+00 0.  1.
        -15    1    1    2    0    0  0.55969525378E+01  0.10723628768E+01 -0.68370821772E+01  0.90763021957E+01  0.17770000000E+01 0.  1.
         15    1    1    2    0    0 -0.20379877687E+02  0.22992099705E+02  0.23704573972E+01  0.30866695007E+02  0.17770000000E+01 0. -1.
</event>
<event>
 6    1  0.1378789E-002  0.1834363E+03  0.7546771E-02  0.1067712E+00
        -11   -1    0    0    0    0  0.00000000000E+00  0.00000000000E+00  0.18250000000E+03  0.18250000000E+03  0.00000000000E+00 0.  1.
         11   -1    0    0    0    0 -0.00000000000E+00 -0.00000000000E+00 -0.18250000000E+03  0.18250000000E+03  0.00000000000E+00 0. -1.
        -11    1    1    2    0    0 -0.35866006357E+01 -0.84734176610E+00  0.18152629017E+03  0.18156369602E+03  0.00000000000E+00 0.  1.
         11    1    1    2    0    0 -0.12114016484E+01  0.48931755868E+01 -0.16599741829E+03  0.16607393997E+03  0.00000000000E+00 0. -1.
        -15    1    1    2    0    0  0.17486985856E+01 -0.27531654203E+01 -0.53602673524E+01  0.65213542814E+01  0.17770000000E+01 0. -1.
         15    1    1    2    0    0  0.30493036985E+01 -0.12926684004E+01 -0.10168604530E+02  0.10841009719E+02  0.17770000000E+01 0.  1.
</event>
<event>
 6    1  0.1378789E-002  0.1879202E+03  0.7546771E-02  0.1064220E+00
        -11   -1    0    0    0    0  0.00000000000E+00  0.00000000000E+00  0.18250000000E+03  0.18250000000E+03  0.00000000000E+00 0.  1.
         11   -1    0    0    0    0 -0.00000000000E+00 -0.00000000000E+00 -0.18250000000E+03  0.18250000000E+03  0.00000000000E+00 0. -1.
        -11    1    1    2    0    0  0.15929006231E+01  0.23294152240E+01  0.17705730406E+03  0.17707979114E+03  0.00000000000E+00 0.  1.
         11    1    1    2    0    0 -0.37614029524E+00  0.25415523366E+01 -0.17224263215E+03  0.17226179292E+03  0.00000000000E+00 0. -1.
        -15    1    1    2    0    0 -0.32605716103E+01  0.40685720654E+01 -0.24135950989E+01  0.60139650962E+01  0.17770000000E+01 0. -1.
         15    1    1    2    0    0  0.20438112825E+01 -0.89395396261E+01 -0.24010768114E+01  0.96444508469E+01  0.17770000000E+01 0.  1.
</event>
<event>
 6    1  0.1378789E-002  0.1850736E+03  0.7546771E-02  0.1066424E+00
        -11   -1    0    0    0    0  0.00000000000E+00  0.00000000000E+00  0.18250000000E+03  0.18250000000E+03  0.00000000000E+00 0. -1.
         11   -1    0    0    0    0 -0.00000000000E+00 -0.00000000000E+00 -0.18250000000E+03  0.18250000000E+03  0.00000000000E+00 0. -1.
        -11    1    1    2    0    0  0.53441389080E+00 -0.27486732236E+01  0.17990460210E+03  0.17992639234E+03  0.00000000000E+00 0. -1.
         11    1    1    2    0    0 -0.32818823108E+01  0.10249229643E+01 -0.14031392464E+03  0.14035604250E+03  0.00000000000E+00 0. -1.
        -15    1    1    2    0    0  0.15981659174E+01  0.10153637658E+02 -0.30062356832E+02  0.31820646117E+02  0.17770000000E+01 0. -1.
         15    1    1    2    0    0  0.11493025027E+01 -0.84298873990E+01 -0.95283206316E+01  0.12896919045E+02  0.17770000000E+01 0. -1.
</event>
<event>
 6    1  0.1378789E-002  0.1827452E+03  0.7546771E-02  0.1068260E+00
        -11   -1    0    0    0    0  0.00000000000E+00  0.00000000000E+00  0.18250000000E+03  0.18250000000E+03  0.00000000000E+00 0.  1.
         11   -1    0    0    0    0 -0.00000000000E+00 -0.00000000000E+00 -0.18250000000E+03  0.18250000000E+03  0.00000000000E+00 0. -1.
        -11    1    1    2    0    0  0.26090030154E+01 -0.44033631596E+00  0.19474632607E+02  0.19653552045E+02  0.00000000000E+00 0.  1.
         11    1    1    2    0    0  0.25956966007E+01  0.40378549384E+01 -0.18219153925E+03  0.18225476369E+03  0.00000000000E+00 0. -1.
        -15    1    1    2    0    0 -0.72783116428E+01 -0.19616219730E+01  0.12558355103E+03  0.12582212762E+03  0.17770000000E+01 0. -1.
         15    1    1    2    0    0  0.20736120268E+01 -0.16358966494E+01  0.37133355611E+02  0.37269556647E+02  0.17770000000E+01 0.  1.
</event>
<event>
 6    1  0.1378789E-002  0.1864577E+03  0.7546771E-02  0.1065347E+00
        -11   -1    0    0    0    0  0.00000000000E+00  0.00000000000E+00  0.18250000000E+03  0.18250000000E+03  0.00000000000E+00 0.  1.
         11   -1    0    0    0    0 -0.00000000000E+00 -0.00000000000E+00 -0.18250000000E+03  0.18250000000E+03  0.00000000000E+00 0.  1.
        -11    1    1    2    0    0  0.15138795000E+01  0.27559069772E+01  0.17851457253E+03  0.17854226239E+03  0.00000000000E+00 0.  1.
         11    1    1    2    0    0  0.38410245740E+01  0.37949524622E+01 -0.16437369023E+03  0.16446235185E+03  0.00000000000E+00 0.  1.
        -15    1    1    2    0    0 -0.64899404117E+01 -0.59408368897E+01 -0.16493482720E+02  0.18777794618E+02  0.17770000000E+01 0. -1.
         15    1    1    2    0    0  0.11350363378E+01 -0.61002254976E+00  0.23526004236E+01  0.32175911413E+01  0.17770000000E+01 0.  1.
</event>
<event>
 6    1  0.1378789E-002  0.1826755E+03  0.7546771E-02  0.1068315E+00
        -11   -1    0    0    0    0  0.00000000000E+00  0.00000000000E+00  0.18250000000E+03  0.18250000000E+03  0.00000000000E+00 0.  1.
         11   -1    0    0    0    0 -0.00000000000E+00 -0.00000000000E+00 -0.18250000000E+03  0.18250000000E+03  0.00000000000E+00 0.  1.
        -11    1    1    2    0    0  0.19542327184E+00  0.82174923224E+00  0.34395967658E+02  0.34406337399E+02  0.00000000000E+00 0.  1.
         11    1    1    2    0    0 -0.16669835010E+01  0.66520641721E+01 -0.18219552427E+03  0.18232453992E+03  0.00000000000E+00 0.  1.
        -15    1    1    2    0    0  0.16709299661E+01  0.56656730829E-01  0.78636060472E+02  0.78673902614E+02  0.17770000000E+01 0. -1.
         15    1    1    2    0    0 -0.19936973685E+00 -0.75304701352E+01  0.69163496142E+02  0.69595220068E+02  0.17770000000E+01 0.  1.
</event>
<event>
 6    1  0.1378789E-002  0.1878717E+03  0.7546771E-02  0.1064258E+00
        -11   -1    0    0    0    0  0.00000000000E+00  0.00000000000E+00  0.18250000000E+03  0.18250000000E+03  0.00000000000E+00 0.  1.
         11   -1    0    0    0    0 -0.00000000000E+00 -0.00000000000E+00 -0.18250000000E+03  0.18250000000E+03  0.00000000000E+00 0. -1.
        -11    1    1    2    0    0  0.25735276892E+01 -0.50445115491E+00  0.14817472769E+03  0.14819793333E+03  0.00000000000E+00 0.  1.
         11    1    1    2    0    0  0.45765868026E+01  0.27598442644E+00 -0.17706896151E+03  0.17712831068E+03  0.00000000000E+00 0. -1.
        -15    1    1    2    0    0  0.31042706812E+01  0.50316621853E+00  0.29038123520E+02  0.29261920977E+02  0.17770000000E+01 0.  1.
         15    1    1    2    0    0 -0.10254385173E+02 -0.27469949006E+00 -0.14388970115E+00  0.10411835013E+02  0.17770000000E+01 0. -1.
</event>
<event>
 6    1  0.1378789E-002  0.1869736E+03  0.7546771E-02  0.1064949E+00
        -11   -1    0    0    0    0  0.00000000000E+00  0.00000000000E+00  0.18250000000E+03  0.18250000000E+03  0.00000000000E+00 0. -1.
         11   -1    0    0    0    0 -0.00000000000E+00 -0.00000000000E+00 -0.18250000000E+03  0.18250000000E+03  0.00000000000E+00 0.  1.
        -11    1    1    2    0    0  0.69758662684E+00  0.25480313932E+01  0.17800676241E+03  0.17802636477E+03  0.00000000000E+00 0. -1.
         11    1    1    2    0    0  0.47072701364E+00 -0.28400041519E+01 -0.15269935959E+03  0.15272649288E+03  0.00000000000E+00 0.  1.
        -15    1    1    2    0    0 -0.10325128009E+02  0.56552275656E+01 -0.16474781732E+02  0.20326485908E+02  0.17770000000E+01 0. -1.
         15    1    1    2    0    0  0.91568143689E+01 -0.53632548069E+01 -0.88326210834E+01  0.13920656440E+02  0.17770000000E+01 0.  1.
</event>
<event>
 6    1  0.1378789E-002  0.1826575E+03  0.7546771E-02  0.1068329E+00
        -11   -1    0    0    0    0  0.00000000000E+00  0.00000000000E+00  0.18250000000E+03  0.18250000000E+03  0.00000000000E+00 0.  1.
         11   -1    0    0    0    0 -0.00000000000E+00 -0.00000000000E+00 -0.18250000000E+03  0.18250000000E+03  0.00000000000E+00 0.  1.
        -11    1    1    2    0    0  0.74615712211E+00 -0.43467239974E+00  0.21617650262E+02  0.21634890649E+02  0.00000000000E+00 0.  1.
         11    1    1    2    0    0 -0.23584614770E+01 -0.49522089238E+01 -0.18225995617E+03  0.18234247541E+03  0.00000000000E+00 0.  1.
        -15    1    1    2    0    0  0.22193509087E+01  0.60693290329E+01  0.62199410528E+02  0.62559465090E+02  0.17770000000E+01 0.  1.
         15    1    1    2    0    0 -0.60704655384E+00 -0.68244770932E+00  0.98442895383E+02  0.98463168854E+02  0.17770000000E+01 0.  1.
</event>
<event>
 6    1  0.1378789E-002  0.1847360E+03  0.7546771E-02  0.1066689E+00
        -11   -1    0    0    0    0  0.00000000000E+00  0.00000000000E+00  0.18250000000E+03  0.18250000000E+03  0.00000000000E+00 0.  1.
         11   -1    0    0    0    0 -0.00000000000E+00 -0.00000000000E+00 -0.18250000000E+03  0.18250000000E+03  0.00000000000E+00 0. -1.
        -11    1    1    2    0    0  0.19301426258E+01  0.31454716726E+01  0.14599673035E+03  0.14604336588E+03  0.00000000000E+00 0.  1.
         11    1    1    2    0    0  0.19463044248E+01  0.40538374162E+01 -0.18020789964E+03  0.18026399749E+03  0.00000000000E+00 0. -1.
        -15    1    1    2    0    0 -0.23459941163E+01 -0.52862320553E+01  0.20481501123E+01  0.63875336100E+01  0.17770000000E+01 0. -1.
         15    1    1    2    0    0 -0.15304529343E+01 -0.19130770334E+01  0.32163019174E+02  0.32305103023E+02  0.17770000000E+01 0. -1.
</event>
<event>
 6    1  0.1378789E-002  0.1828343E+03  0.7546771E-02  0.1068189E+00
        -11   -1    0    0    0    0  0.00000000000E+00  0.00000000000E+00  0.18250000000E+03  0.18250000000E+03  0.00000000000E+00 0. -1.
         11   -1    0    0    0    0 -0.00000000000E+00 -0.00000000000E+00 -0.18250000000E+03  0.18250000000E+03  0.00000000000E+00 0.  1.
        -11    1    1    2    0    0 -0.16455919909E+01 -0.71107813611E+00  0.10117855239E+03  0.10119443200E+03  0.00000000000E+00 0. -1.
         11    1    1    2    0    0  0.23429689978E+01 -0.32886966172E+01 -0.18212098533E+03  0.18216574411E+03  0.00000000000E+00 0.  1.
        -15    1    1    2    0    0 -0.27763924274E+01  0.54539326024E+01  0.69299555279E+02  0.69591952312E+02  0.17770000000E+01 0. -1.
         15    1    1    2    0    0  0.20790154205E+01 -0.14541578491E+01  0.11642877665E+02  0.12047871575E+02  0.17770000000E+01 0. -1.
</event>
<event>
 6    1  0.1378789E-002  0.1855782E+03  0.7546771E-02  0.1066031E+00
        -11   -1    0    0    0    0  0.00000000000E+00  0.00000000000E+00  0.18250000000E+03  0.18250000000E+03  0.00000000000E+00 0. -1.
         11   -1    0    0    0    0 -0.00000000000E+00 -0.00000000000E+00 -0.18250000000E+03  0.18250000000E+03  0.00000000000E+00 0. -1.
        -11    1    1    2    0    0 -0.22496585929E+01 -0.42405645988E+01  0.17935754363E+03  0.17942177072E+03  0.00000000000E+00 0. -1.
         11    1    1    2    0    0  0.58010936129E+01  0.41367767089E-01 -0.17346847767E+03  0.17356545493E+03  0.00000000000E+00 0. -1.
        -15    1    1    2    0    0  0.17848548515E+01  0.36738969113E+01 -0.41864881053E+01  0.61129074106E+01  0.17770000000E+01 0. -1.
         15    1    1    2    0    0 -0.53362898715E+01  0.52529992041E+00 -0.17025778481E+01  0.58998669415E+01  0.17770000000E+01 0.  1.
</event>
<event>
 6    1  0.1378789E-002  0.1767946E+03  0.7546771E-02  0.1073089E+00
        -11   -1    0    0    0    0  0.00000000000E+00  0.00000000000E+00  0.18250000000E+03  0.18250000000E+03  0.00000000000E+00 0.  1.
         11   -1    0    0    0    0 -0.00000000000E+00 -0.00000000000E+00 -0.18250000000E+03  0.18250000000E+03  0.00000000000E+00 0.  1.
        -11    1    1    2    0    0 -0.27128509468E+01 -0.64653098008E+00  0.17789038817E+03  0.17791224737E+03  0.00000000000E+00 0.  1.
         11    1    1    2    0    0 -0.39924208992E+01  0.30967987150E+01 -0.17568331361E+03  0.17575595657E+03  0.00000000000E+00 0.  1.
        -15    1    1    2    0    0  0.86917400906E+00 -0.47994880201E+00  0.26120723298E+01  0.33115653650E+01  0.17770000000E+01 0. -1.
         15    1    1    2    0    0  0.58360978369E+01 -0.19703189330E+01 -0.48191468867E+01  0.80202306934E+01  0.17770000000E+01 0. -1.
</event>
<event>
 6    1  0.1378789E-002  0.1836826E+03  0.7546771E-02  0.1067517E+00
        -11   -1    0    0    0    0  0.00000000000E+00  0.00000000000E+00  0.18250000000E+03  0.18250000000E+03  0.00000000000E+00 0.  1.
         11   -1    0    0    0    0 -0.00000000000E+00 -0.00000000000E+00 -0.18250000000E+03  0.18250000000E+03  0.00000000000E+00 0. -1.
        -11    1    1    2    0    0 -0.73049363991E+01  0.61547568226E+01  0.10985050724E+03  0.11026503103E+03  0.00000000000E+00 0.  1.
         11    1    1    2    0    0  0.47655045447E+01  0.18464484158E+01 -0.18124532523E+03  0.18131736630E+03  0.00000000000E+00 0. -1.
        -15    1    1    2    0    0 -0.24853949645E+00  0.11425626169E+01  0.99303522581E+00  0.23475666497E+01  0.17770000000E+01 0. -1.
         15    1    1    2    0    0  0.27879713508E+01 -0.91437678553E+01  0.70401782760E+02  0.71070036018E+02  0.17770000000E+01 0.  1.
</event>
<event>
 6    1  0.1378789E-002  0.1906587E+03  0.7546771E-02  0.1062140E+00
        -11   -1    0    0    0    0  0.00000000000E+00  0.00000000000E+00  0.18250000000E+03  0.18250000000E+03  0.00000000000E+00 0. -1.
         11   -1    0    0    0    0 -0.00000000000E+00 -0.00000000000E+00 -0.18250000000E+03  0.18250000000E+03  0.00000000000E+00 0.  1.
        -11    1    1    2    0    0 -0.38227463141E+01 -0.95454406921E+00  0.12669568572E+03  0.12675693797E+03  0.00000000000E+00 0. -1.
         11    1    1    2    0    0 -0.13887201739E+02 -0.90822852229E+01 -0.17354984648E+03  0.17434130747E+03  0.00000000000E+00 0.  1.
        -15    1    1    2    0    0  0.23657346750E+02 -0.74650142113E+01  0.27559969444E+02  0.37122851953E+02  0.17770000000E+01 0. -1.
         15    1    1    2    0    0 -0.59473986971E+01  0.17501843503E+02  0.19294191311E+02  0.26778902603E+02  0.17770000000E+01 0.  1.
</event>
<event>
 6    1  0.1378789E-002  0.1844789E+03  0.7546771E-02  0.1066890E+00
        -11   -1    0    0    0    0  0.00000000000E+00  0.00000000000E+00  0.18250000000E+03  0.18250000000E+03  0.00000000000E+00 0. -1.
         11   -1    0    0    0    0 -0.00000000000E+00 -0.00000000000E+00 -0.18250000000E+03  0.18250000000E+03  0.00000000000E+00 0. -1.
        -11    1    1    2    0    0  0.31853346930E+01  0.35898263313E+01  0.18045726236E+03  0.18052107010E+03  0.00000000000E+00 0. -1.
         11    1    1    2    0    0  0.17470131569E+01  0.15292354010E+01 -0.15446120496E+03  0.15447865372E+03  0.00000000000E+00 0. -1.
        -15    1    1    2    0    0 -0.21528837324E+01 -0.15422452865E+01 -0.24780477576E+02  0.24984859951E+02  0.17770000000E+01 0. -1.
         15    1    1    2    0    0 -0.27794641175E+01 -0.35768164459E+01 -0.12155798266E+01  0.50154162323E+01  0.17770000000E+01 0. -1.
</event>
<event>
 6    1  0.1378789E-002  0.1858600E+03  0.7546771E-02  0.1065811E+00
        -11   -1    0    0    0    0  0.00000000000E+00  0.00000000000E+00  0.18250000000E+03  0.18250000000E+03  0.00000000000E+00 0.  1.
         11   -1    0    0    0    0 -0.00000000000E+00 -0.00000000000E+00 -0.18250000000E+03  0.18250000000E+03  0.00000000000E+00 0. -1.
        -11    1    1    2    0    0 -0.28664112006E+01 -0.26443240083E+01  0.13315818794E+03  0.13321528357E+03  0.00000000000E+00 0.  1.
         11    1    1    2    0    0 -0.19108481524E+01 -0.19533079048E+01 -0.17911918524E+03  0.17914002700E+03  0.00000000000E+00 0. -1.
        -15    1    1    2    0    0  0.59852051460E+01  0.13024165319E+01 -0.13684715524E+00  0.63792966389E+01  0.17770000000E+01 0.  1.
         15    1    1    2    0    0 -0.12079457931E+01  0.32952153812E+01  0.46097844458E+02  0.46265392791E+02  0.17770000000E+01 0.  1.
</event>
<event>
 6    1  0.1378789E-002  0.1854471E+03  0.7546771E-02  0.1066133E+00
        -11   -1    0    0    0    0  0.00000000000E+00  0.00000000000E+00  0.18250000000E+03  0.18250000000E+03  0.00000000000E+00 0.  1.
         11   -1    0    0    0    0 -0.00000000000E+00 -0.00000000000E+00 -0.18250000000E+03  0.18250000000E+03  0.00000000000E+00 0.  1.
        -11    1    1    2    0    0  0.57041888072E+01 -0.44938000966E+00  0.17946174035E+03  0.17955293359E+03  0.00000000000E+00 0.  1.
         11    1    1    2    0    0  0.30336646415E+01 -0.11048029042E+01 -0.14056319124E+03  0.14060026473E+03  0.00000000000E+00 0.  1.
        -15    1    1    2    0    0 -0.30537355649E+01 -0.86804079939E+01 -0.10475911111E+02  0.14056216648E+02  0.17770000000E+01 0. -1.
         15    1    1    2    0    0 -0.56841178837E+01  0.10234590908E+02 -0.28422637992E+02  0.30790585032E+02  0.17770000000E+01 0.  1.
</event>
<event>
 6    1  0.1378789E-002  0.1855576E+03  0.7546771E-02  0.1066047E+00
        -11   -1    0    0    0    0  0.00000000000E+00  0.00000000000E+00  0.18250000000E+03  0.18250000000E+03  0.00000000000E+00 0. -1.
         11   -1    0    0    0    0 -0.00000000000E+00 -0.00000000000E+00 -0.18250000000E+03  0.18250000000E+03  0.00000000000E+00 0.  1.
        -11    1    1    2    0    0  0.45263311593E+01 -0.53683183031E+01  0.14158856240E+03  0.14176257446E+03  0.00000000000E+00 0. -1.
         11    1    1    2    0    0  0.22511637289E+01 -0.46911816057E+01 -0.17936698224E+03  0.17944243991E+03  0.00000000000E+00 0.  1.
        -15    1    1    2    0    0 -0.59200063274E+01  0.67941739738E+01  0.38778090998E+02  0.39851039451E+02  0.17770000000E+01 0.  1.
         15    1    1    2    0    0 -0.85748856083E+00  0.32653259351E+01 -0.99967115922E+00  0.39439461864E+01  0.17770000000E+01 0. -1.
</event>
<event>
 6    1  0.1378789E-002  0.1834650E+03  0.7546771E-02  0.1067689E+00
        -11   -1    0    0    0    0  0.00000000000E+00  0.00000000000E+00  0.18250000000E+03  0.18250000000E+03  0.00000000000E+00 0. -1.
         11   -1    0    0    0    0 -0.00000000000E+00 -0.00000000000E+00 -0.18250000000E+03  0.18250000000E+03  0.00000000000E+00 0. -1.
        -11    1    1    2    0    0  0.39174758254E+01  0.13200030226E+01  0.15237695043E+03  0.15243301495E+03  0.00000000000E+00 0. -1.
         11    1    1    2    0    0 -0.30969826704E+01 -0.27057293986E+01 -0.18148845699E+03  0.18153504426E+03  0.00000000000E+00 0. -1.
        -15    1    1    2    0    0 -0.51870691095E+01  0.11071820453E+01  0.20023737563E+02  0.20790366351E+02  0.17770000000E+01 0. -1.
         15    1    1    2    0    0  0.43665759545E+01  0.27854433066E+00  0.90877690002E+01  0.10241574435E+02  0.17770000000E+01 0.  1.
</event>
<event>
 6    1  0.1378789E-002  0.1859266E+03  0.7546771E-02  0.1065760E+00
        -11   -1    0    0    0    0  0.00000000000E+00  0.00000000000E+00  0.18250000000E+03  0.18250000000E+03  0.00000000000E+00 0.  1.
         11   -1    0    0    0    0 -0.00000000000E+00 -0.00000000000E+00 -0.18250000000E+03  0.18250000000E+03  0.00000000000E+00 0. -1.
        -11    1    1    2    0    0  0.22350862438E+01  0.15006807476E+01  0.17905319739E+03  0.17907343507E+03  0.00000000000E+00 0.  1.
         11    1    1    2    0    0 -0.68003016728E+00 -0.27837976717E+01 -0.17579479982E+03  0.17581815496E+03  0.00000000000E+00 0. -1.
        -15    1    1    2    0    0  0.63739517462E+00  0.32014635782E+01 -0.50374067072E+01  0.62600987999E+01  0.17770000000E+01 0. -1.
         15    1    1    2    0    0 -0.21924512512E+01 -0.19183466541E+01  0.17790091370E+01  0.38483111729E+01  0.17770000000E+01 0. -1.
</event>
<event>
 6    1  0.1378789E-002  0.1888286E+03  0.7546771E-02  0.1063526E+00
        -11   -1    0    0    0    0  0.00000000000E+00  0.00000000000E+00  0.18250000000E+03  0.18250000000E+03  0.00000000000E+00 0.  1.
         11   -1    0    0    0    0 -0.00000000000E+00 -0.00000000000E+00 -0.18250000000E+03  0.18250000000E+03  0.00000000000E+00 0.  1.
        -11    1    1    2    0    0  0.95375272155E+00 -0.31576695557E+01  0.17614047954E+03  0.17617136276E+03  0.00000000000E+00 0.  1.
         11    1    1    2    0    0  0.33961472814E+01 -0.76076108904E+01 -0.16794077264E+03  0.16814729458E+03  0.00000000000E+00 0.  1.
        -15    1    1    2    0    0  0.21733738544E+01  0.11593537348E+02 -0.67891434525E+01  0.13725299996E+02  0.17770000000E+01 0. -1.
         15    1    1    2    0    0 -0.65232738574E+01 -0.82825690212E+00 -0.14105634466E+01  0.69560426645E+01  0.17770000000E+01 0.  1.
</event>
<event>
 6    1  0.1378789E-002  0.1848805E+03  0.7546771E-02  0.1066576E+00
        -11   -1    0    0    0    0  0.00000000000E+00  0.00000000000E+00  0.18250000000E+03  0.18250000000E+03  0.00000000000E+00 0.  1.
         11   -1    0    0    0    0 -0.00000000000E+00 -0.00000000000E+00 -0.18250000000E+03  0.18250000000E+03  0.00000000000E+00 0. -1.
        -11    1    1    2    0    0 -0.50952417154E+01 -0.44521744823E+01  0.17999238604E+03  0.18011952248E+03  0.00000000000E+00 0.  1.
         11    1    1    2    0    0 -0.10401254453E+01 -0.10009435394E+01 -0.19437742633E+02  0.19491269522E+02  0.00000000000E+00 0. -1.
        -15    1    1    2    0    0  0.10659161420E+02  0.11885321736E+01 -0.10237309023E+02  0.14932868309E+02  0.17770000000E+01 0.  1.
         15    1    1    2    0    0 -0.45237942595E+01  0.42645858480E+01 -0.15031733438E+03  0.15045633969E+03  0.17770000000E+01 0. -1.
</event>
<event>
 6    1  0.1378789E-002  0.1776377E+03  0.7546771E-02  0.1072392E+00
        -11   -1    0    0    0    0  0.00000000000E+00  0.00000000000E+00  0.18250000000E+03  0.18250000000E+03  0.00000000000E+00 0. -1.
         11   -1    0    0    0    0 -0.00000000000E+00 -0.00000000000E+00 -0.18250000000E+03  0.18250000000E+03  0.00000000000E+00 0.  1.
        -11    1    1    2    0    0  0.24923110759E+01  0.30815089229E+01  0.17901663096E+03  0.17906049668E+03  0.00000000000E+00 0. -1.
         11    1    1    2    0    0  0.21386432481E+01 -0.17822758483E+01 -0.17623641033E+03  0.17625839732E+03  0.00000000000E+00 0.  1.
        -15    1    1    2    0    0 -0.40908812497E+01 -0.11476656491E+01  0.16363520627E+01  0.48875170500E+01  0.17770000000E+01 0. -1.
         15    1    1    2    0    0 -0.54007307426E+00 -0.15156742545E+00 -0.44165726940E+01  0.47935889448E+01  0.17770000000E+01 0.  1.
</event>
<event>
 6    1  0.1378789E-002  0.1161461E+03  0.7546771E-02  0.1138498E+00
        -11   -1    0    0    0    0  0.00000000000E+00  0.00000000000E+00  0.18250000000E+03  0.18250000000E+03  0.00000000000E+00 0. -1.
         11   -1    0    0    0    0 -0.00000000000E+00 -0.00000000000E+00 -0.18250000000E+03  0.18250000000E+03  0.00000000000E+00 0.  1.
        -11    1    1    2    0    0 -0.15017092534E+01 -0.18745363072E+01  0.64335198802E+02  0.64380018810E+02  0.00000000000E+00 0. -1.
         11    1    1    2    0    0 -0.67769117310E+01  0.12543373300E+02 -0.66413209695E+02  0.67926262729E+02  0.00000000000E+00 0.  1.
        -15    1    1    2    0    0 -0.20367345616E+01 -0.60914555843E+01 -0.11493313730E+03  0.11512618250E+03  0.17770000000E+01 0.  1.
         15    1    1    2    0    0  0.10315355546E+02 -0.45773814087E+01  0.11701114819E+03  0.11756753596E+03  0.17770000000E+01 0. -1.
</event>
<event>
 6    1  0.1378789E-002  0.1723612E+03  0.7546771E-02  0.1076825E+00
        -11   -1    0    0    0    0  0.00000000000E+00  0.00000000000E+00  0.18250000000E+03  0.18250000000E+03  0.00000000000E+00 0. -1.
         11   -1    0    0    0    0 -0.00000000000E+00 -0.00000000000E+00 -0.18250000000E+03  0.18250000000E+03  0.00000000000E+00 0.  1.
        -11    1    1    2    0    0 -0.26725907799E+01  0.40079057550E+01  0.81695819074E+01  0.94840981943E+01  0.00000000000E+00 0. -1.
         11    1    1    2    0    0 -0.16256640014E+02  0.18723157197E+01 -0.17397283018E+03  0.17474074954E+03  0.00000000000E+00 0.  1.
        -15    1    1    2    0    0  0.61928584731E+01  0.76417036263E+01 -0.33911347159E+01  0.10554840313E+02  0.17770000000E+01 0.  1.
         15    1    1    2    0    0  0.12736372321E+02 -0.13521925101E+02  0.16919438298E+03  0.17022031195E+03  0.17770000000E+01 0. -1.
</event>
<event>
 6    1  0.1378789E-002  0.1829135E+03  0.7546771E-02  0.1068126E+00
        -11   -1    0    0    0    0  0.00000000000E+00  0.00000000000E+00  0.18250000000E+03  0.18250000000E+03  0.00000000000E+00 0.  1.
         11   -1    0    0    0    0 -0.00000000000E+00 -0.00000000000E+00 -0.18250000000E+03  0.18250000000E+03  0.00000000000E+00 0. -1.
        -11    1    1    2    0    0  0.16546216635E+01 -0.29686380224E+01  0.14463103826E+03  0.14467096395E+03  0.00000000000E+00 0.  1.
         11    1    1    2    0    0 -0.27845098068E+01 -0.17351508552E+00 -0.18206510462E+03  0.18208647924E+03  0.00000000000E+00 0. -1.
        -15    1    1    2    0    0  0.50330298530E+00  0.33291393336E+01  0.93590832363E+01  0.10103793873E+02  0.17770000000E+01 0.  1.
         15    1    1    2    0    0  0.62658515799E+00 -0.18698622569E+00  0.28074983126E+02  0.28138762932E+02  0.17770000000E+01 0. -1.
</event>
<event>
 6    1  0.1378789E-002  0.1828489E+03  0.7546771E-02  0.1068177E+00
        -11   -1    0    0    0    0  0.00000000000E+00  0.00000000000E+00  0.18250000000E+03  0.18250000000E+03  0.00000000000E+00 0.  1.
         11   -1    0    0    0    0 -0.00000000000E+00 -0.00000000000E+00 -0.18250000000E+03  0.18250000000E+03  0.00000000000E+00 0. -1.
        -11    1    1    2    0    0  0.18644289507E+01 -0.38881525987E+00  0.10207607308E+03  0.10209383903E+03  0.00000000000E+00 0.  1.
         11    1    1    2    0    0 -0.22285909507E+01  0.20160521293E+01 -0.18212626373E+03  0.18215105551E+03  0.00000000000E+00 0. -1.
        -15    1    1    2    0    0  0.33719959436E+01 -0.90779356847E+00  0.12254479928E+02  0.12865630693E+02  0.17770000000E+01 0. -1.
         15    1    1    2    0    0 -0.30078339436E+01 -0.71944330094E+00  0.67795710718E+02  0.67889474769E+02  0.17770000000E+01 0.  1.
</event>
<event>
 6    1  0.1378789E-002  0.1837602E+03  0.7546771E-02  0.1067456E+00
        -11   -1    0    0    0    0  0.00000000000E+00  0.00000000000E+00  0.18250000000E+03  0.18250000000E+03  0.00000000000E+00 0. -1.
         11   -1    0    0    0    0 -0.00000000000E+00 -0.00000000000E+00 -0.18250000000E+03  0.18250000000E+03  0.00000000000E+00 0.  1.
        -11    1    1    2    0    0 -0.17254947211E+01  0.14949124306E+01  0.16606709407E+03  0.16608278607E+03  0.00000000000E+00 0. -1.
         11    1    1    2    0    0  0.25770150020E+01  0.10835916187E+01 -0.18121819903E+03  0.18123976064E+03  0.00000000000E+00 0.  1.
        -15    1    1    2    0    0  0.33603121761E+00  0.63418932734E+00 -0.12596845049E+00  0.19206015028E+01  0.17770000000E+01 0.  1.
         15    1    1    2    0    0 -0.11875514985E+01 -0.32126933766E+01  0.15277073410E+02  0.15756851788E+02  0.17770000000E+01 0.  1.
</event>
<event>
 6    1  0.1378789E-002  0.1859835E+03  0.7546771E-02  0.1065715E+00
        -11   -1    0    0    0    0  0.00000000000E+00  0.00000000000E+00  0.18250000000E+03  0.18250000000E+03  0.00000000000E+00 0.  1.
         11   -1    0    0    0    0 -0.00000000000E+00 -0.00000000000E+00 -0.18250000000E+03  0.18250000000E+03  0.00000000000E+00 0. -1.
        -11    1    1    2    0    0 -0.30311661393E+01 -0.40918780595E+00  0.16824312284E+03  0.16827092377E+03  0.00000000000E+00 0.  1.
         11    1    1    2    0    0  0.23187360002E-01  0.34284431323E+01 -0.17898362300E+03  0.17901645752E+03  0.00000000000E+00 0. -1.
        -15    1    1    2    0    0  0.11885846887E+00  0.44205058360E+01  0.75652636555E+01  0.89412494853E+01  0.17770000000E+01 0. -1.
         15    1    1    2    0    0  0.28891203104E+01 -0.74397611623E+01  0.31752365047E+01  0.87713692307E+01  0.17770000000E+01 0.  1.
</event>
<event>
 6    1  0.1378789E-002  0.1847668E+03  0.7546771E-02  0.1066665E+00
        -11   -1    0    0    0    0  0.00000000000E+00  0.00000000000E+00  0.18250000000E+03  0.18250000000E+03  0.00000000000E+00 0.  1.
         11   -1    0    0    0    0 -0.00000000000E+00 -0.00000000000E+00 -0.18250000000E+03  0.18250000000E+03  0.00000000000E+00 0.  1.
        -11    1    1    2    0    0 -0.65037400652E+01 -0.62065268058E+00  0.16366144787E+03  0.16379179883E+03  0.00000000000E+00 0.  1.
         11    1    1    2    0    0  0.15191169475E+01 -0.32462267171E+01 -0.18019759781E+03  0.18023323767E+03  0.00000000000E+00 0.  1.
        -15    1    1    2    0    0  0.73586756261E+01  0.26922787325E+01  0.15763594360E+02  0.17693137310E+02  0.17770000000E+01 0. -1.
         15    1    1    2    0    0 -0.23740525084E+01  0.11746006652E+01  0.77255557491E+00  0.32818261916E+01  0.17770000000E+01 0.  1.
</event>
<event>
 6    1  0.1378789E-002  0.1828738E+03  0.7546771E-02  0.1068158E+00
        -11   -1    0    0    0    0  0.00000000000E+00  0.00000000000E+00  0.18250000000E+03  0.18250000000E+03  0.00000000000E+00 0. -1.
         11   -1    0    0    0    0 -0.00000000000E+00 -0.00000000000E+00 -0.18250000000E+03  0.18250000000E+03  0.00000000000E+00 0.  1.
        -11    1    1    2    0    0  0.16004491741E+01 -0.20495955528E+01  0.18210760487E+03  0.18212617063E+03  0.00000000000E+00 0. -1.
         11    1    1    2    0    0 -0.26717849063E+00 -0.46435917901E+00 -0.40695012157E+01  0.41046137380E+01  0.00000000000E+00 0.  1.
        -15    1    1    2    0    0 -0.14485663153E+01 -0.25403457346E+01 -0.87353254730E+01  0.93816491589E+01  0.17770000000E+01 0. -1.
         15    1    1    2    0    0  0.11529563186E+00  0.50543004664E+01 -0.16930277818E+03  0.16938756647E+03  0.17770000000E+01 0.  1.
</event>
<event>
 6    1  0.1378789E-002  0.1832511E+03  0.7546771E-02  0.1067858E+00
        -11   -1    0    0    0    0  0.00000000000E+00  0.00000000000E+00  0.18250000000E+03  0.18250000000E+03  0.00000000000E+00 0.  1.
         11   -1    0    0    0    0 -0.00000000000E+00 -0.00000000000E+00 -0.18250000000E+03  0.18250000000E+03  0.00000000000E+00 0. -1.
        -11    1    1    2    0    0 -0.15613191984E+01 -0.54003615951E+01  0.13523584367E+03  0.13535263218E+03  0.00000000000E+00 0.  1.
         11    1    1    2    0    0 -0.52834710773E+01  0.22649704112E+00 -0.18167189714E+03  0.18174885028E+03  0.00000000000E+00 0. -1.
        -15    1    1    2    0    0  0.28312071680E+01  0.44748605417E+00  0.30802770915E+02  0.30986842415E+02  0.17770000000E+01 0.  1.
         15    1    1    2    0    0  0.40135831077E+01  0.47263784998E+01  0.15633282556E+02  0.16911675126E+02  0.17770000000E+01 0. -1.
</event>
<event>
 6    1  0.1378789E-002  0.2014609E+03  0.7546771E-02  0.1054290E+00
        -11   -1    0    0    0    0  0.00000000000E+00  0.00000000000E+00  0.18250000000E+03  0.18250000000E+03  0.00000000000E+00 0.  1.
         11   -1    0    0    0    0 -0.00000000000E+00 -0.00000000000E+00 -0.18250000000E+03  0.18250000000E+03  0.00000000000E+00 0. -1.
        -11    1    1    2    0    0 -0.13566868807E+02  0.11179403768E+02  0.16259147828E+03  0.16353907119E+03  0.00000000000E+00 0.  1.
         11    1    1    2    0    0  0.17329017719E+01 -0.26899873091E+01 -0.15360710765E+03  0.15364043251E+03  0.00000000000E+00 0. -1.
        -15    1    1    2    0    0  0.26111026660E+02 -0.24024372807E+01 -0.15921074659E+02  0.30727768638E+02  0.17770000000E+01 0.  1.
         15    1    1    2    0    0 -0.14277059625E+02 -0.60869791779E+01  0.69367040333E+01  0.17092727661E+02  0.17770000000E+01 0. -1.
</event>
<event>
 6    1  0.1378789E-002  0.1830115E+03  0.7546771E-02  0.1068048E+00
        -11   -1    0    0    0    0  0.00000000000E+00  0.00000000000E+00  0.18250000000E+03  0.18250000000E+03  0.00000000000E+00 0. -1.
         11   -1    0    0    0    0 -0.00000000000E+00 -0.00000000000E+00 -0.18250000000E+03  0.18250000000E+03  0.00000000000E+00 0.  1.
        -11    1    1    2    0    0  0.28229892217E+01  0.77470815152E+01  0.18180164092E+03  0.18198852486E+03  0.00000000000E+00 0. -1.
         11    1    1    2    0    0 -0.21168357325E+01 -0.85528426563E+00 -0.12675184814E+03  0.12677240832E+03  0.00000000000E+00 0.  1.
        -15    1    1    2    0    0  0.77383882267E+00  0.13760709437E+00 -0.31365685156E+02  0.31425812584E+02  0.17770000000E+01 0. -1.
         15    1    1    2    0    0 -0.14799923119E+01 -0.70294043439E+01 -0.23684107623E+02  0.24813254232E+02  0.17770000000E+01 0.  1.
</event>
<event>
 6    1  0.1378789E-002  0.1865853E+03  0.7546771E-02  0.1065249E+00
        -11   -1    0    0    0    0  0.00000000000E+00  0.00000000000E+00  0.18250000000E+03  0.18250000000E+03  0.00000000000E+00 0. -1.
         11   -1    0    0    0    0 -0.00000000000E+00 -0.00000000000E+00 -0.18250000000E+03  0.18250000000E+03  0.00000000000E+00 0.  1.
        -11    1    1    2    0    0  0.24228195546E+01 -0.11391371183E+01  0.17839459796E+03  0.17841468625E+03  0.00000000000E+00 0. -1.
         11    1    1    2    0    0  0.19921040985E+01  0.13826196517E+01 -0.17468611021E+03  0.17470293992E+03  0.00000000000E+00 0.  1.
        -15    1    1    2    0    0 -0.44718013744E+01 -0.25228243249E+01 -0.60723506454E+01  0.81481790276E+01  0.17770000000E+01 0.  1.
         15    1    1    2    0    0  0.56877721228E-01  0.22793417915E+01  0.23638628895E+01  0.37341948045E+01  0.17770000000E+01 0. -1.
</event>
<event>
 6    1  0.1378789E-002  0.1832190E+03  0.7546771E-02  0.1067884E+00
        -11   -1    0    0    0    0  0.00000000000E+00  0.00000000000E+00  0.18250000000E+03  0.18250000000E+03  0.00000000000E+00 0.  1.
         11   -1    0    0    0    0 -0.00000000000E+00 -0.00000000000E+00 -0.18250000000E+03  0.18250000000E+03  0.00000000000E+00 0. -1.
        -11    1    1    2    0    0  0.67677173528E+00  0.23543755606E+01  0.10085617221E+03  0.10088591862E+03  0.00000000000E+00 0.  1.
         11    1    1    2    0    0 -0.46577349592E+00 -0.29059913006E+01 -0.18175712415E+03  0.18178095035E+03  0.00000000000E+00 0. -1.
        -15    1    1    2    0    0  0.20826814186E+01  0.46005243859E+01  0.10786458193E+02  0.12041918280E+02  0.17770000000E+01 0. -1.
         15    1    1    2    0    0 -0.22936796580E+01 -0.40489086459E+01  0.70114493747E+02  0.70291212751E+02  0.17770000000E+01 0.  1.
</event>
<event>
 6    1  0.1378789E-002  0.1828210E+03  0.7546771E-02  0.1068200E+00
        -11   -1    0    0    0    0  0.00000000000E+00  0.00000000000E+00  0.18250000000E+03  0.18250000000E+03  0.00000000000E+00 0.  1.
         11   -1    0    0    0    0 -0.00000000000E+00 -0.00000000000E+00 -0.18250000000E+03  0.18250000000E+03  0.00000000000E+00 0. -1.
        -11    1    1    2    0    0  0.32885870516E+01  0.12519863778E+01  0.12218767462E+03  0.12223833321E+03  0.00000000000E+00 0.  1.
         11    1    1    2    0    0  0.98238457421E+00  0.26139759517E+01 -0.18215754923E+03  0.18217895238E+03  0.00000000000E+00 0. -1.
        -15    1    1    2    0    0  0.64540195535E+00  0.15353936516E+00  0.98580932029E+01  0.10038916705E+02  0.17770000000E+01 0.  1.
         15    1    1    2    0    0 -0.49163735812E+01 -0.40195016947E+01  0.50111781399E+02  0.50543797711E+02  0.17770000000E+01 0.  1.
</event>
<event>
 6    1  0.1378789E-002  0.1835749E+03  0.7546771E-02  0.1067602E+00
        -11   -1    0    0    0    0  0.00000000000E+00  0.00000000000E+00  0.18250000000E+03  0.18250000000E+03  0.00000000000E+00 0.  1.
         11   -1    0    0    0    0 -0.00000000000E+00 -0.00000000000E+00 -0.18250000000E+03  0.18250000000E+03  0.00000000000E+00 0. -1.
        -11    1    1    2    0    0 -0.22866531038E+01  0.56581287024E+00  0.11493981034E+03  0.11496394621E+03  0.00000000000E+00 0.  1.
         11    1    1    2    0    0  0.34479595294E+01  0.32022297716E+01 -0.18136406266E+03  0.18142509729E+03  0.00000000000E+00 0. -1.
        -15    1    1    2    0    0 -0.72115586510E+00 -0.95660270551E+01  0.52767680559E+02  0.53662042264E+02  0.17770000000E+01 0. -1.
         15    1    1    2    0    0 -0.44015056047E+00  0.57979844132E+01  0.13656571761E+02  0.14948914243E+02  0.17770000000E+01 0. -1.
</event>
<event>
 6    1  0.1378789E-002  0.1854578E+03  0.7546771E-02  0.1066124E+00
        -11   -1    0    0    0    0  0.00000000000E+00  0.00000000000E+00  0.18250000000E+03  0.18250000000E+03  0.00000000000E+00 0.  1.
         11   -1    0    0    0    0 -0.00000000000E+00 -0.00000000000E+00 -0.18250000000E+03  0.18250000000E+03  0.00000000000E+00 0. -1.
        -11    1    1    2    0    0 -0.32670780975E+01 -0.96414252129E+00  0.17224914022E+03  0.17228281886E+03  0.00000000000E+00 0.  1.
         11    1    1    2    0    0  0.56880838457E+01  0.39723137040E+01 -0.17940812365E+03  0.17954221901E+03  0.00000000000E+00 0. -1.
        -15    1    1    2    0    0  0.14129433662E+01  0.69815164638E+00  0.71709952504E+01  0.75541198401E+01  0.17770000000E+01 0. -1.
         15    1    1    2    0    0 -0.38339491144E+01 -0.37063228290E+01 -0.12011811930E-01  0.56208422864E+01  0.17770000000E+01 0.  1.
</event>
<event>
 6    1  0.1378789E-002  0.1837279E+03  0.7546771E-02  0.1067482E+00
        -11   -1    0    0    0    0  0.00000000000E+00  0.00000000000E+00  0.18250000000E+03  0.18250000000E+03  0.00000000000E+00 0.  1.
         11   -1    0    0    0    0 -0.00000000000E+00 -0.00000000000E+00 -0.18250000000E+03  0.18250000000E+03  0.00000000000E+00 0. -1.
        -11    1    1    2    0    0  0.31062374647E-01  0.62689775068E+01  0.18116369266E+03  0.18127212853E+03  0.00000000000E+00 0.  1.
         11    1    1    2    0    0  0.39299854491E+00  0.23454570684E+01 -0.15209947605E+03  0.15211806675E+03  0.00000000000E+00 0. -1.
        -15    1    1    2    0    0  0.12237106050E+01  0.26811299234E+00 -0.12234348583E+02  0.12426035831E+02  0.17770000000E+01 0. -1.
         15    1    1    2    0    0 -0.16477715245E+01 -0.88825475676E+01 -0.16829868027E+02  0.19183768897E+02  0.17770000000E+01 0.  1.
</event>
<event>
 6    1  0.1378789E-002  0.1848960E+03  0.7546771E-02  0.1066563E+00
        -11   -1    0    0    0    0  0.00000000000E+00  0.00000000000E+00  0.18250000000E+03  0.18250000000E+03  0.00000000000E+00 0. -1.
         11   -1    0    0    0    0 -0.00000000000E+00 -0.00000000000E+00 -0.18250000000E+03  0.18250000000E+03  0.00000000000E+00 0. -1.
        -11    1    1    2    0    0 -0.19244612732E+01  0.23321409725E+01  0.18007861619E+03  0.18010399896E+03  0.00000000000E+00 0. -1.
         11    1    1    2    0    0 -0.29504780360E+01 -0.38304910397E+01 -0.15688761659E+03  0.15696210441E+03  0.00000000000E+00 0. -1.
        -15    1    1    2    0    0  0.12295819143E+01 -0.12841710267E+00  0.16434937219E+01  0.27179336361E+01  0.17770000000E+01 0. -1.
         15    1    1    2    0    0  0.36453573949E+01  0.16267671699E+01 -0.24834493326E+02  0.25215962994E+02  0.17770000000E+01 0.  1.
</event>
<event>
 6    1  0.1378789E-002  0.1833827E+03  0.7546771E-02  0.1067754E+00
        -11   -1    0    0    0    0  0.00000000000E+00  0.00000000000E+00  0.18250000000E+03  0.18250000000E+03  0.00000000000E+00 0. -1.
         11   -1    0    0    0    0 -0.00000000000E+00 -0.00000000000E+00 -0.18250000000E+03  0.18250000000E+03  0.00000000000E+00 0. -1.
        -11    1    1    2    0    0 -0.61486824575E+01 -0.50709269763E+01  0.13776106868E+03  0.13799142234E+03  0.00000000000E+00 0. -1.
         11    1    1    2    0    0 -0.27244173935E+01  0.11633771288E+01 -0.18159310529E+03  0.18161726731E+03  0.00000000000E+00 0. -1.
        -15    1    1    2    0    0  0.37373245961E+01  0.31355930638E+01  0.11791235392E+02  0.12883730053E+02  0.17770000000E+01 0. -1.
         15    1    1    2    0    0  0.51357752550E+01  0.77195678373E+00  0.32040801222E+02  0.32507580296E+02  0.17770000000E+01 0.  1.
</event>
<event>
 6    1  0.1378789E-002  0.1832879E+03  0.7546771E-02  0.1067829E+00
        -11   -1    0    0    0    0  0.00000000000E+00  0.00000000000E+00  0.18250000000E+03  0.18250000000E+03  0.00000000000E+00 0.  1.
         11   -1    0    0    0    0 -0.00000000000E+00 -0.00000000000E+00 -0.18250000000E+03  0.18250000000E+03  0.00000000000E+00 0. -1.
        -11    1    1    2    0    0 -0.87441334556E-01  0.31356348330E+01  0.18168504764E+03  0.18171212504E+03  0.00000000000E+00 0.  1.
         11    1    1    2    0    0  0.34799924170E+01  0.18686939362E+01 -0.15369221542E+03  0.15374296551E+03  0.00000000000E+00 0. -1.
        -15    1    1    2    0    0 -0.45346408425E+01 -0.43331721905E+01 -0.24904386101E+02  0.25743455962E+02  0.17770000000E+01 0. -1.
         15    1    1    2    0    0  0.11420897601E+01 -0.67115657872E+00 -0.30884461182E+01  0.38014534849E+01  0.17770000000E+01 0.  1.
</event>
<event>
 6    1  0.1378789E-002  0.1846434E+03  0.7546771E-02  0.1066761E+00
        -11   -1    0    0    0    0  0.00000000000E+00  0.00000000000E+00  0.18250000000E+03  0.18250000000E+03  0.00000000000E+00 0.  1.
         11   -1    0    0    0    0 -0.00000000000E+00 -0.00000000000E+00 -0.18250000000E+03  0.18250000000E+03  0.00000000000E+00 0. -1.
        -11    1    1    2    0    0  0.55751224204E+01  0.95455631137E+00  0.18026791859E+03  0.18035663459E+03  0.00000000000E+00 0.  1.
         11    1    1    2    0    0 -0.60763911268E+01  0.52656514929E-01 -0.16913194313E+03  0.16924106915E+03  0.00000000000E+00 0. -1.
        -15    1    1    2    0    0 -0.42569556925E+01 -0.25954608907E+01 -0.50171836286E+01  0.72930068947E+01  0.17770000000E+01 0.  1.
         15    1    1    2    0    0  0.47582243988E+01  0.15882480644E+01 -0.61187918390E+01  0.81092893593E+01  0.17770000000E+01 0. -1.
</event>
<event>
 6    1  0.1378789E-002  0.1825424E+03  0.7546771E-02  0.1068421E+00
        -11   -1    0    0    0    0  0.00000000000E+00  0.00000000000E+00  0.18250000000E+03  0.18250000000E+03  0.00000000000E+00 0. -1.
         11   -1    0    0    0    0 -0.00000000000E+00 -0.00000000000E+00 -0.18250000000E+03  0.18250000000E+03  0.00000000000E+00 0.  1.
        -11    1    1    2    0    0  0.30428370564E+01 -0.81318726149E+00  0.18243041366E+03  0.18245760045E+03  0.00000000000E+00 0. -1.
         11    1    1    2    0    0  0.22172763540E+00 -0.48489861269E+00 -0.12328991980E+02  0.12340515915E+02  0.00000000000E+00 0.  1.
        -15    1    1    2    0    0 -0.57207565030E+00  0.17570482121E+01 -0.67200978186E+02  0.67249860127E+02  0.17770000000E+01 0.  1.
         15    1    1    2    0    0 -0.26924890415E+01 -0.45896233794E+00 -0.10290044350E+03  0.10295202351E+03  0.17770000000E+01 0. -1.
</event>
<event>
 6    1  0.1378789E-002  0.1940574E+03  0.7546771E-02  0.1059610E+00
        -11   -1    0    0    0    0  0.00000000000E+00  0.00000000000E+00  0.18250000000E+03  0.18250000000E+03  0.00000000000E+00 0.  1.
         11   -1    0    0    0    0 -0.00000000000E+00 -0.00000000000E+00 -0.18250000000E+03  0.18250000000E+03  0.00000000000E+00 0. -1.
        -11    1    1    2    0    0 -0.60575440902E+01  0.20775352814E+01  0.17082256472E+03  0.17094255939E+03  0.00000000000E+00 0.  1.
         11    1    1    2    0    0  0.41689123895E+00  0.28281956147E+01 -0.51852940926E+02  0.51931685621E+02  0.00000000000E+00 0. -1.
        -15    1    1    2    0    0  0.15866447422E+02 -0.65501830944E+00  0.56905052462E+01  0.16962098389E+02  0.17770000000E+01 0.  1.
         15    1    1    2    0    0 -0.10225794571E+02 -0.42507125867E+01 -0.12466012904E+03  0.12516365660E+03  0.17770000000E+01 0. -1.
</event>
<event>
 6    1  0.1378789E-002  0.2050881E+03  0.7546771E-02  0.1051773E+00
        -11   -1    0    0    0    0  0.00000000000E+00  0.00000000000E+00  0.18250000000E+03  0.18250000000E+03  0.00000000000E+00 0.  1.
         11   -1    0    0    0    0 -0.00000000000E+00 -0.00000000000E+00 -0.18250000000E+03  0.18250000000E+03  0.00000000000E+00 0. -1.
        -11    1    1    2    0    0 -0.47646498714E+01  0.31387887888E+01  0.15883108411E+03  0.15893353065E+03  0.00000000000E+00 0.  1.
         11    1    1    2    0    0  0.47471611756E+01 -0.45576519882E+01 -0.15977642303E+03  0.15991189164E+03  0.00000000000E+00 0. -1.
        -15    1    1    2    0    0  0.18285012578E+02  0.49022396158E+01 -0.12834990998E+02  0.22940539688E+02  0.17770000000E+01 0.  1.
         15    1    1    2    0    0 -0.18267523883E+02 -0.34833764165E+01  0.13780329913E+02  0.23214038028E+02  0.17770000000E+01 0. -1.
</event>
<event>
 6    1  0.1378789E-002  0.1832075E+03  0.7546771E-02  0.1067893E+00
        -11   -1    0    0    0    0  0.00000000000E+00  0.00000000000E+00  0.18250000000E+03  0.18250000000E+03  0.00000000000E+00 0.  1.
         11   -1    0    0    0    0 -0.00000000000E+00 -0.00000000000E+00 -0.18250000000E+03  0.18250000000E+03  0.00000000000E+00 0. -1.
        -11    1    1    2    0    0 -0.69242091203E+01 -0.64404272634E+01  0.18154635114E+03  0.18179246791E+03  0.00000000000E+00 0.  1.
         11    1    1    2    0    0  0.10193135450E+01  0.17361291361E+01 -0.14695059461E+03  0.14696438480E+03  0.00000000000E+00 0. -1.
        -15    1    1    2    0    0 -0.49227379435E+00 -0.92565645887E+00 -0.78374302157E+01  0.81044564750E+01  0.17770000000E+01 0. -1.
         15    1    1    2    0    0  0.63971693697E+01  0.56299545862E+01 -0.26758326316E+02  0.28138690815E+02  0.17770000000E+01 0. -1.
</event>
<event>
 6    1  0.1378789E-002  0.1828249E+03  0.7546771E-02  0.1068196E+00
        -11   -1    0    0    0    0  0.00000000000E+00  0.00000000000E+00  0.18250000000E+03  0.18250000000E+03  0.00000000000E+00 0. -1.
         11   -1    0    0    0    0 -0.00000000000E+00 -0.00000000000E+00 -0.18250000000E+03  0.18250000000E+03  0.00000000000E+00 0. -1.
        -11    1    1    2    0    0 -0.46975610449E+01 -0.33269396235E+01  0.18208415259E+03  0.18217511969E+03  0.00000000000E+00 0. -1.
         11    1    1    2    0    0  0.42057979163E+00  0.60147505616E+00 -0.35717160710E+02  0.35724700542E+02  0.00000000000E+00 0. -1.
        -15    1    1    2    0    0  0.74760926178E+01 -0.17530347863E+01 -0.56477843856E+02  0.57025166966E+02  0.17770000000E+01 0. -1.
         15    1    1    2    0    0 -0.31991113646E+01  0.44784993537E+01 -0.89889148027E+02  0.90075012806E+02  0.17770000000E+01 0.  1.
</event>
<event>
 6    1  0.1378789E-002  0.1826938E+03  0.7546771E-02  0.1068301E+00
        -11   -1    0    0    0    0  0.00000000000E+00  0.00000000000E+00  0.18250000000E+03  0.18250000000E+03  0.00000000000E+00 0. -1.
         11   -1    0    0    0    0 -0.00000000000E+00 -0.00000000000E+00 -0.18250000000E+03  0.18250000000E+03  0.00000000000E+00 0.  1.
        -11    1    1    2    0    0 -0.51427047578E+01  0.37055874279E+01  0.18219598888E+03  0.18230621809E+03  0.00000000000E+00 0. -1.
         11    1    1    2    0    0  0.14445052369E+01  0.15369119991E+01 -0.10126004915E+03  0.10128201345E+03  0.00000000000E+00 0.  1.
        -15    1    1    2    0    0  0.36092442191E+01 -0.26158880981E+01 -0.30405895705E+02  0.30782230865E+02  0.17770000000E+01 0.  1.
         15    1    1    2    0    0  0.88955301881E-01 -0.26266113289E+01 -0.50530044022E+02  0.50629537604E+02  0.17770000000E+01 0. -1.
</event>
<event>
 6    1  0.1378789E-002  0.1860461E+03  0.7546771E-02  0.1065667E+00
        -11   -1    0    0    0    0  0.00000000000E+00  0.00000000000E+00  0.18250000000E+03  0.18250000000E+03  0.00000000000E+00 0.  1.
         11   -1    0    0    0    0 -0.00000000000E+00 -0.00000000000E+00 -0.18250000000E+03  0.18250000000E+03  0.00000000000E+00 0. -1.
        -11    1    1    2    0    0  0.14860234158E+01 -0.17165038160E+01  0.11254972932E+03  0.11257262643E+03  0.00000000000E+00 0.  1.
         11    1    1    2    0    0 -0.10755203940E+02  0.63304235097E+01 -0.17851820150E+03  0.17895389613E+03  0.00000000000E+00 0. -1.
        -15    1    1    2    0    0  0.18560569482E+01 -0.62798512047E+01 -0.25681222627E+00  0.67900780605E+01  0.17770000000E+01 0. -1.
         15    1    1    2    0    0  0.74131235763E+01  0.16659315110E+01  0.66225284410E+02  0.66683399382E+02  0.17770000000E+01 0.  1.
</event>
<event>
 6    1  0.1378789E-002  0.1878675E+03  0.7546771E-02  0.1064261E+00
        -11   -1    0    0    0    0  0.00000000000E+00  0.00000000000E+00  0.18250000000E+03  0.18250000000E+03  0.00000000000E+00 0.  1.
         11   -1    0    0    0    0 -0.00000000000E+00 -0.00000000000E+00 -0.18250000000E+03  0.18250000000E+03  0.00000000000E+00 0.  1.
        -11    1    1    2    0    0 -0.59190651315E+01 -0.15223963313E+02  0.14854657702E+03  0.14944192831E+03  0.00000000000E+00 0.  1.
         11    1    1    2    0    0  0.74683165145E+01  0.93868747779E+00 -0.17697253489E+03  0.17713253511E+03  0.00000000000E+00 0.  1.
        -15    1    1    2    0    0  0.10103995083E+01  0.14267114506E+02  0.31126922511E+02  0.34301814784E+02  0.17770000000E+01 0.  1.
         15    1    1    2    0    0 -0.25596508913E+01  0.18161329751E-01 -0.27009646398E+01  0.41237218025E+01  0.17770000000E+01 0. -1.
</event>
<event>
 6    1  0.1378789E-002  0.1906224E+03  0.7546771E-02  0.1062167E+00
        -11   -1    0    0    0    0  0.00000000000E+00  0.00000000000E+00  0.18250000000E+03  0.18250000000E+03  0.00000000000E+00 0.  1.
         11   -1    0    0    0    0 -0.00000000000E+00 -0.00000000000E+00 -0.18250000000E+03  0.18250000000E+03  0.00000000000E+00 0.  1.
        -11    1    1    2    0    0  0.36036725130E+01 -0.89911920644E+01  0.15640149759E+03  0.15670116923E+03  0.00000000000E+00 0.  1.
         11    1    1    2    0    0  0.52167834101E+01  0.32321327919E-01 -0.17429955717E+03  0.17437761182E+03  0.00000000000E+00 0.  1.
        -15    1    1    2    0    0  0.56844687428E+00  0.14385990598E+01 -0.63620320462E+01  0.67842376035E+01  0.17770000000E+01 0.  1.
         15    1    1    2    0    0 -0.93889027974E+01  0.75202716767E+01  0.24260091625E+02  0.27136981344E+02  0.17770000000E+01 0. -1.
</event>
<event>
 6    1  0.1378789E-002  0.1834427E+03  0.7546771E-02  0.1067707E+00
        -11   -1    0    0    0    0  0.00000000000E+00  0.00000000000E+00  0.18250000000E+03  0.18250000000E+03  0.00000000000E+00 0. -1.
         11   -1    0    0    0    0 -0.00000000000E+00 -0.00000000000E+00 -0.18250000000E+03  0.18250000000E+03  0.00000000000E+00 0.  1.
        -11    1    1    2    0    0 -0.97506940187E+01 -0.92954310654E+00  0.18129286518E+03  0.18155727209E+03  0.00000000000E+00 0. -1.
         11    1    1    2    0    0 -0.76693158973E+00 -0.23445132734E+01 -0.12698351401E+03  0.12700747127E+03  0.00000000000E+00 0.  1.
        -15    1    1    2    0    0  0.64034096123E+00 -0.23460118356E+01 -0.53174241940E+01  0.61111813210E+01  0.17770000000E+01 0.  1.
         15    1    1    2    0    0  0.98772846472E+01  0.56200682156E+01 -0.48991926974E+02  0.50324075316E+02  0.17770000000E+01 0.  1.
</event>
<event>
 6    1  0.1378789E-002  0.1855900E+03  0.7546771E-02  0.1066021E+00
        -11   -1    0    0    0    0  0.00000000000E+00  0.00000000000E+00  0.18250000000E+03  0.18250000000E+03  0.00000000000E+00 0. -1.
         11   -1    0    0    0    0 -0.00000000000E+00 -0.00000000000E+00 -0.18250000000E+03  0.18250000000E+03  0.00000000000E+00 0.  1.
        -11    1    1    2    0    0 -0.54993400095E+01  0.74119364936E+01  0.17917247487E+03  0.17941002005E+03  0.00000000000E+00 0. -1.
         11    1    1    2    0    0 -0.22553288810E+01 -0.39477001091E+00 -0.16553854233E+03  0.16555437581E+03  0.00000000000E+00 0.  1.
        -15    1    1    2    0    0  0.71191229555E+01 -0.73338493749E+01 -0.56247103789E+01  0.11800947172E+02  0.17770000000E+01 0.  1.
         15    1    1    2    0    0  0.63554593497E+00  0.31668289220E+00 -0.80092221638E+01  0.82346569667E+01  0.17770000000E+01 0.  1.
</event>
<event>
 6    1  0.1378789E-002  0.1799515E+03  0.7546771E-02  0.1070502E+00
        -11   -1    0    0    0    0  0.00000000000E+00  0.00000000000E+00  0.18250000000E+03  0.18250000000E+03  0.00000000000E+00 0. -1.
         11   -1    0    0    0    0 -0.00000000000E+00 -0.00000000000E+00 -0.18250000000E+03  0.18250000000E+03  0.00000000000E+00 0. -1.
        -11    1    1    2    0    0  0.49345399039E+01 -0.69790620462E+01  0.18009834690E+03  0.18030105808E+03  0.00000000000E+00 0. -1.
         11    1    1    2    0    0  0.60833521235E+00  0.21979784534E+00 -0.91982466428E+01  0.92209611280E+01  0.00000000000E+00 0. -1.
        -15    1    1    2    0    0  0.95737381049E+01  0.14799397071E+02 -0.12852238653E+03  0.12973758200E+03  0.17770000000E+01 0. -1.
         15    1    1    2    0    0 -0.15116613221E+02 -0.80401328699E+01 -0.42377713726E+02  0.45740398791E+02  0.17770000000E+01 0.  1.
</event>
<event>
 6    1  0.1378789E-002  0.1828711E+03  0.7546771E-02  0.1068160E+00
        -11   -1    0    0    0    0  0.00000000000E+00  0.00000000000E+00  0.18250000000E+03  0.18250000000E+03  0.00000000000E+00 0. -1.
         11   -1    0    0    0    0 -0.00000000000E+00 -0.00000000000E+00 -0.18250000000E+03  0.18250000000E+03  0.00000000000E+00 0.  1.
        -11    1    1    2    0    0 -0.28560270357E+01 -0.25495714090E+00  0.15366845015E+03  0.15369519987E+03  0.00000000000E+00 0. -1.
         11    1    1    2    0    0 -0.59648722966E+00 -0.31365155437E+01 -0.18210093829E+03  0.18212892481E+03  0.00000000000E+00 0.  1.
        -15    1    1    2    0    0  0.22700335678E+01  0.10622574371E+01  0.18489833243E+02  0.18743348303E+02  0.17770000000E+01 0.  1.
         15    1    1    2    0    0  0.11824806976E+01  0.23292152475E+01  0.99426549018E+01  0.10432527008E+02  0.17770000000E+01 0.  1.
</event>
<event>
 6    1  0.1378789E-002  0.1621676E+03  0.7546771E-02  0.1085900E+00
        -11   -1    0    0    0    0  0.00000000000E+00  0.00000000000E+00  0.18250000000E+03  0.18250000000E+03  0.00000000000E+00 0.  1.
         11   -1    0    0    0    0 -0.00000000000E+00 -0.00000000000E+00 -0.18250000000E+03  0.18250000000E+03  0.00000000000E+00 0.  1.
        -11    1    1    2    0    0  0.57583284238E+01 -0.10514773624E+01  0.16600653396E+03  0.16610970252E+03  0.00000000000E+00 0.  1.
         11    1    1    2    0    0  0.18363633872E+02  0.37548006359E+01 -0.15812104433E+03  0.15922809500E+03  0.00000000000E+00 0.  1.
        -15    1    1    2    0    0 -0.14881894662E+02  0.80444950025E+01 -0.15898841138E+02  0.23283375337E+02  0.17770000000E+01 0.  1.
         15    1    1    2    0    0 -0.92400676339E+01 -0.10747818276E+02  0.80133515012E+01  0.16378827151E+02  0.17770000000E+01 0. -1.
</event>
<event>
 6    1  0.1378789E-002  0.1828355E+03  0.7546771E-02  0.1068188E+00
        -11   -1    0    0    0    0  0.00000000000E+00  0.00000000000E+00  0.18250000000E+03  0.18250000000E+03  0.00000000000E+00 0.  1.
         11   -1    0    0    0    0 -0.00000000000E+00 -0.00000000000E+00 -0.18250000000E+03  0.18250000000E+03  0.00000000000E+00 0.  1.
        -11    1    1    2    0    0 -0.18987142454E+01 -0.10593288169E+01  0.70412526902E+02  0.70446087457E+02  0.00000000000E+00 0.  1.
         11    1    1    2    0    0  0.26257471386E+01 -0.12960167538E+01 -0.18214093141E+03  0.18216446718E+03  0.00000000000E+00 0.  1.
        -15    1    1    2    0    0  0.30340709201E+01 -0.15871360362E+01  0.83289377429E+02  0.83378670586E+02  0.17770000000E+01 0.  1.
         15    1    1    2    0    0 -0.37611038132E+01  0.39424816070E+01  0.28439027078E+02  0.29010774779E+02  0.17770000000E+01 0.  1.
</event>
<event>
 6    1  0.1378789E-002  0.1768574E+03  0.7546771E-02  0.1073037E+00
        -11   -1    0    0    0    0  0.00000000000E+00  0.00000000000E+00  0.18250000000E+03  0.18250000000E+03  0.00000000000E+00 0. -1.
         11   -1    0    0    0    0 -0.00000000000E+00 -0.00000000000E+00 -0.18250000000E+03  0.18250000000E+03  0.00000000000E+00 0. -1.
        -11    1    1    2    0    0  0.28742236965E+01 -0.48088279174E+00  0.17805864100E+03  0.17808248663E+03  0.00000000000E+00 0. -1.
         11    1    1    2    0    0  0.33468896346E+00  0.33197841865E+01 -0.17563479107E+03  0.17566648178E+03  0.00000000000E+00 0. -1.
        -15    1    1    2    0    0  0.13302894631E+01 -0.48489502729E+01 -0.26871991861E+01  0.59716628565E+01  0.17770000000E+01 0.  1.
         15    1    1    2    0    0 -0.45392021231E+01  0.20100488782E+01  0.26334925974E+00  0.52793687350E+01  0.17770000000E+01 0.  1.
</event>
<event>
 6    1  0.1378789E-002  0.1911147E+03  0.7546771E-02  0.1061797E+00
        -11   -1    0    0    0    0  0.00000000000E+00  0.00000000000E+00  0.18250000000E+03  0.18250000000E+03  0.00000000000E+00 0.  1.
         11   -1    0    0    0    0 -0.00000000000E+00 -0.00000000000E+00 -0.18250000000E+03  0.18250000000E+03  0.00000000000E+00 0.  1.
        -11    1    1    2    0    0 -0.66441127619E+00  0.62904351303E+01  0.15293248811E+03  0.15306324489E+03  0.00000000000E+00 0.  1.
         11    1    1    2    0    0 -0.16644219812E+01 -0.33727533069E+01 -0.17384460281E+03  0.17388528313E+03  0.00000000000E+00 0.  1.
        -15    1    1    2    0    0  0.12653702362E+02 -0.85179447228E+01  0.21188950992E+02  0.26168701514E+02  0.17770000000E+01 0.  1.
         15    1    1    2    0    0 -0.10324869105E+02  0.56002628994E+01 -0.27683629430E+00  0.11882770464E+02  0.17770000000E+01 0. -1.
</event>
<event>
 6    1  0.1378789E-002  0.1831351E+03  0.7546771E-02  0.1067950E+00
        -11   -1    0    0    0    0  0.00000000000E+00  0.00000000000E+00  0.18250000000E+03  0.18250000000E+03  0.00000000000E+00 0.  1.
         11   -1    0    0    0    0 -0.00000000000E+00 -0.00000000000E+00 -0.18250000000E+03  0.18250000000E+03  0.00000000000E+00 0.  1.
        -11    1    1    2    0    0 -0.20772338081E+01  0.16539776904E+01  0.14137796835E+03  0.14140290124E+03  0.00000000000E+00 0.  1.
         11    1    1    2    0    0 -0.40880905692E+00  0.30911037119E+01 -0.18183817605E+03  0.18186490677E+03  0.00000000000E+00 0.  1.
        -15    1    1    2    0    0  0.20036525791E+01  0.62532799341E-01  0.29519065651E+02  0.29640369429E+02  0.17770000000E+01 0. -1.
         15    1    1    2    0    0  0.48239028595E+00 -0.48076142016E+01  0.10941142041E+02  0.12091822562E+02  0.17770000000E+01 0. -1.
</event>
<event>
 6    1  0.1378789E-002  0.1826451E+03  0.7546771E-02  0.1068339E+00
        -11   -1    0    0    0    0  0.00000000000E+00  0.00000000000E+00  0.18250000000E+03  0.18250000000E+03  0.00000000000E+00 0.  1.
         11   -1    0    0    0    0 -0.00000000000E+00 -0.00000000000E+00 -0.18250000000E+03  0.18250000000E+03  0.00000000000E+00 0.  1.
        -11    1    1    2    0    0 -0.36517216579E+01 -0.12031861480E+01  0.18231435328E+03  0.18235489064E+03  0.00000000000E+00 0.  1.
         11    1    1    2    0    0  0.98035923331E+00 -0.18320243640E+01 -0.12656162935E+03  0.12657868478E+03  0.00000000000E+00 0.  1.
        -15    1    1    2    0    0  0.21065477367E+01  0.27325528608E+01 -0.31055412891E+02  0.31296977287E+02  0.17770000000E+01 0.  1.
         15    1    1    2    0    0  0.56481468791E+00  0.30265765118E+00 -0.24697311047E+02  0.24769447294E+02  0.17770000000E+01 0. -1.
</event>
<event>
 6    1  0.1378789E-002  0.1826195E+03  0.7546771E-02  0.1068360E+00
        -11   -1    0    0    0    0  0.00000000000E+00  0.00000000000E+00  0.18250000000E+03  0.18250000000E+03  0.00000000000E+00 0.  1.
         11   -1    0    0    0    0 -0.00000000000E+00 -0.00000000000E+00 -0.18250000000E+03  0.18250000000E+03  0.00000000000E+00 0.  1.
        -11    1    1    2    0    0 -0.26896858838E+01  0.90580817952E+00  0.18235840879E+03  0.18238049281E+03  0.00000000000E+00 0.  1.
         11    1    1    2    0    0 -0.16104599017E+01 -0.62605940803E+00 -0.86160003926E+02  0.86177327691E+02  0.00000000000E+00 0.  1.
        -15    1    1    2    0    0  0.18730617462E+01  0.54222218833E+00 -0.71365880494E+02  0.71414627304E+02  0.17770000000E+01 0.  1.
         15    1    1    2    0    0  0.24270840393E+01 -0.82197095983E+00 -0.24832524374E+02  0.25027552198E+02  0.17770000000E+01 0. -1.
</event>
<event>
 6    1  0.1378789E-002  0.1829338E+03  0.7546771E-02  0.1068110E+00
        -11   -1    0    0    0    0  0.00000000000E+00  0.00000000000E+00  0.18250000000E+03  0.18250000000E+03  0.00000000000E+00 0.  1.
         11   -1    0    0    0    0 -0.00000000000E+00 -0.00000000000E+00 -0.18250000000E+03  0.18250000000E+03  0.00000000000E+00 0. -1.
        -11    1    1    2    0    0 -0.62847891234E+00 -0.28431775066E+01  0.18204286528E+03  0.18206615128E+03  0.00000000000E+00 0.  1.
         11    1    1    2    0    0 -0.22452153309E+01 -0.68838727046E+00 -0.11865110062E+03  0.11867433820E+03  0.00000000000E+00 0. -1.
        -15    1    1    2    0    0 -0.13928957716E+01 -0.19062164575E+01 -0.11248921856E+02  0.11630554232E+02  0.17770000000E+01 0.  1.
         15    1    1    2    0    0  0.42665900149E+01  0.54377812346E+01 -0.52142842799E+02  0.52628956281E+02  0.17770000000E+01 0.  1.
</event>
<event>
 6    1  0.1378789E-002  0.1828280E+03  0.7546771E-02  0.1068194E+00
        -11   -1    0    0    0    0  0.00000000000E+00  0.00000000000E+00  0.18250000000E+03  0.18250000000E+03  0.00000000000E+00 0. -1.
         11   -1    0    0    0    0 -0.00000000000E+00 -0.00000000000E+00 -0.18250000000E+03  0.18250000000E+03  0.00000000000E+00 0.  1.
        -11    1    1    2    0    0 -0.12429110626E+01 -0.20412392404E+01  0.13828504195E+03  0.13830569154E+03  0.00000000000E+00 0. -1.
         11    1    1    2    0    0  0.30359905807E+01  0.44922475704E+01 -0.18209127296E+03  0.18217197703E+03  0.00000000000E+00 0.  1.
        -15    1    1    2    0    0 -0.69130602395E+00  0.40326479805E-01  0.36196153958E+02  0.36246362860E+02  0.17770000000E+01 0. -1.
         15    1    1    2    0    0 -0.11017734942E+01 -0.24913348097E+01  0.76100770529E+01  0.82759685668E+01  0.17770000000E+01 0.  1.
</event>
<event>
 6    1  0.1378789E-002  0.1890034E+03  0.7546771E-02  0.1063393E+00
        -11   -1    0    0    0    0  0.00000000000E+00  0.00000000000E+00  0.18250000000E+03  0.18250000000E+03  0.00000000000E+00 0.  1.
         11   -1    0    0    0    0 -0.00000000000E+00 -0.00000000000E+00 -0.18250000000E+03  0.18250000000E+03  0.00000000000E+00 0.  1.
        -11    1    1    2    0    0  0.16532836663E+01  0.36333177079E+01  0.16224933953E+03  0.16229843660E+03  0.00000000000E+00 0.  1.
         11    1    1    2    0    0  0.52534537593E+01  0.57462565109E+01 -0.17582425961E+03  0.17599655822E+03  0.00000000000E+00 0.  1.
        -15    1    1    2    0    0  0.51706164915E+00  0.55622610168E+01  0.15542242248E+01  0.60646057011E+01  0.17770000000E+01 0. -1.
         15    1    1    2    0    0 -0.74237990747E+01 -0.14941835236E+02  0.12020695853E+02  0.20640399480E+02  0.17770000000E+01 0. -1.
</event>
<event>
 6    1  0.1378789E-002  0.1757271E+03  0.7546771E-02  0.1073978E+00
        -11   -1    0    0    0    0  0.00000000000E+00  0.00000000000E+00  0.18250000000E+03  0.18250000000E+03  0.00000000000E+00 0.  1.
         11   -1    0    0    0    0 -0.00000000000E+00 -0.00000000000E+00 -0.18250000000E+03  0.18250000000E+03  0.00000000000E+00 0. -1.
        -11    1    1    2    0    0  0.25733832077E+01  0.10103142842E+01  0.17784410682E+03  0.17786559355E+03  0.00000000000E+00 0.  1.
         11    1    1    2    0    0  0.40978249696E+01  0.13208953913E+01 -0.17363158062E+03  0.17368495249E+03  0.00000000000E+00 0. -1.
        -15    1    1    2    0    0 -0.83925850597E+00 -0.10431323561E+01  0.31167022067E+01  0.38293656913E+01  0.17770000000E+01 0. -1.
         15    1    1    2    0    0 -0.58319496713E+01 -0.12880773194E+01 -0.73292284111E+01  0.96200882663E+01  0.17770000000E+01 0. -1.
</event>
<event>
 6    1  0.1378789E-002  0.1886864E+03  0.7546771E-02  0.1063634E+00
        -11   -1    0    0    0    0  0.00000000000E+00  0.00000000000E+00  0.18250000000E+03  0.18250000000E+03  0.00000000000E+00 0. -1.
         11   -1    0    0    0    0 -0.00000000000E+00 -0.00000000000E+00 -0.18250000000E+03  0.18250000000E+03  0.00000000000E+00 0.  1.
        -11    1    1    2    0    0 -0.45553662480E+01 -0.88830233521E-01  0.13560555114E+03  0.13568207233E+03  0.00000000000E+00 0. -1.
         11    1    1    2    0    0 -0.39968402241E+01  0.56214837903E+01 -0.17617858991E+03  0.17631355975E+03  0.00000000000E+00 0.  1.
        -15    1    1    2    0    0  0.19625939376E+02 -0.20524751240E+01  0.34498981699E+02  0.39783509370E+02  0.17770000000E+01 0.  1.
         15    1    1    2    0    0 -0.11073732904E+02 -0.34801784328E+01  0.60740570672E+01  0.13220858542E+02  0.17770000000E+01 0. -1.
</event>
<event>
 6    1  0.1378789E-002  0.1873806E+03  0.7546771E-02  0.1064635E+00
        -11   -1    0    0    0    0  0.00000000000E+00  0.00000000000E+00  0.18250000000E+03  0.18250000000E+03  0.00000000000E+00 0.  1.
         11   -1    0    0    0    0 -0.00000000000E+00 -0.00000000000E+00 -0.18250000000E+03  0.18250000000E+03  0.00000000000E+00 0. -1.
        -11    1    1    2    0    0 -0.12389592626E+01 -0.36690090657E+01  0.16564258747E+03  0.16568784937E+03  0.00000000000E+00 0.  1.
         11    1    1    2    0    0  0.50552985891E+01  0.98459422126E+00 -0.17754467501E+03  0.17761936013E+03  0.00000000000E+00 0. -1.
        -15    1    1    2    0    0 -0.15662453118E+01 -0.18418049911E+01 -0.39496022432E+01  0.49600863785E+01  0.17770000000E+01 0. -1.
         15    1    1    2    0    0 -0.22500940147E+01  0.45262198356E+01  0.15851689785E+02  0.16732704119E+02  0.17770000000E+01 0.  1.
</event>
<event>
 6    1  0.1378789E-002  0.1849075E+03  0.7546771E-02  0.1066554E+00
        -11   -1    0    0    0    0  0.00000000000E+00  0.00000000000E+00  0.18250000000E+03  0.18250000000E+03  0.00000000000E+00 0.  1.
         11   -1    0    0    0    0 -0.00000000000E+00 -0.00000000000E+00 -0.18250000000E+03  0.18250000000E+03  0.00000000000E+00 0.  1.
        -11    1    1    2    0    0  0.43120796031E+00  0.43522000852E+01  0.14408568235E+03  0.14415204280E+03  0.00000000000E+00 0.  1.
         11    1    1    2    0    0 -0.88819971099E+00  0.26976094653E+01 -0.18007008479E+03  0.18009248022E+03  0.00000000000E+00 0.  1.
        -15    1    1    2    0    0  0.42743622651E+00 -0.74278279950E+00 -0.16395324353E+01  0.25651946556E+01  0.17770000000E+01 0. -1.
         15    1    1    2    0    0  0.29555524171E-01 -0.63070267510E+01  0.37623934869E+02  0.38190282325E+02  0.17770000000E+01 0.  1.
</event>
<event>
 6    1  0.1378789E-002  0.1671995E+03  0.7546771E-02  0.1081331E+00
        -11   -1    0    0    0    0  0.00000000000E+00  0.00000000000E+00  0.18250000000E+03  0.18250000000E+03  0.00000000000E+00 0. -1.
         11   -1    0    0    0    0 -0.00000000000E+00 -0.00000000000E+00 -0.18250000000E+03  0.18250000000E+03  0.00000000000E+00 0.  1.
        -11    1    1    2    0    0 -0.21138592203E+01  0.17915143811E+01  0.16656710193E+03  0.16659014788E+03  0.00000000000E+00 0. -1.
         11    1    1    2    0    0 -0.17333440223E+01 -0.18787309704E+01 -0.16781388111E+03  0.16783334830E+03  0.00000000000E+00 0.  1.
        -15    1    1    2    0    0 -0.89009087323E+01  0.52516507460E+01  0.97414847697E+01  0.14312940520E+02  0.17770000000E+01 0. -1.
         15    1    1    2    0    0  0.12748111975E+02 -0.51644341566E+01 -0.84947055928E+01  0.16263563299E+02  0.17770000000E+01 0.  1.
</event>
<event>
 6    1  0.1378789E-002  0.1723317E+03  0.7546771E-02  0.1076850E+00
        -11   -1    0    0    0    0  0.00000000000E+00  0.00000000000E+00  0.18250000000E+03  0.18250000000E+03  0.00000000000E+00 0.  1.
         11   -1    0    0    0    0 -0.00000000000E+00 -0.00000000000E+00 -0.18250000000E+03  0.18250000000E+03  0.00000000000E+00 0.  1.
        -11    1    1    2    0    0  0.27463771778E+01 -0.27858344556E+01  0.17089701214E+03  0.17094178021E+03  0.00000000000E+00 0.  1.
         11    1    1    2    0    0  0.66570050245E+01  0.16091402949E+01 -0.17372865741E+03  0.17386360014E+03  0.00000000000E+00 0.  1.
        -15    1    1    2    0    0 -0.11504703654E+01 -0.75468273271E+01  0.69930806551E+00  0.78692404677E+01  0.17770000000E+01 0. -1.
         15    1    1    2    0    0 -0.82529118368E+01  0.87235214878E+01  0.21323372037E+01  0.12325379178E+02  0.17770000000E+01 0.  1.
</event>
<event>
 6    1  0.1378789E-002  0.1886015E+03  0.7546771E-02  0.1063699E+00
        -11   -1    0    0    0    0  0.00000000000E+00  0.00000000000E+00  0.18250000000E+03  0.18250000000E+03  0.00000000000E+00 0.  1.
         11   -1    0    0    0    0 -0.00000000000E+00 -0.00000000000E+00 -0.18250000000E+03  0.18250000000E+03  0.00000000000E+00 0. -1.
        -11    1    1    2    0    0 -0.90150464203E+00 -0.62318958531E+01  0.15909994697E+03  0.15922450302E+03  0.00000000000E+00 0.  1.
         11    1    1    2    0    0  0.31099821768E+01  0.30011991465E+01 -0.17634554930E+03  0.17639850324E+03  0.00000000000E+00 0. -1.
        -15    1    1    2    0    0 -0.33241243389E+01  0.88391227149E+01  0.20442967223E+02  0.22588770016E+02  0.17770000000E+01 0.  1.
         15    1    1    2    0    0  0.11156468041E+01 -0.56084260082E+01 -0.31973648909E+01  0.67882237240E+01  0.17770000000E+01 0. -1.
</event>
<event>
 6    1  0.1378789E-002  0.1825475E+03  0.7546771E-02  0.1068417E+00
        -11   -1    0    0    0    0  0.00000000000E+00  0.00000000000E+00  0.18250000000E+03  0.18250000000E+03  0.00000000000E+00 0. -1.
         11   -1    0    0    0    0 -0.00000000000E+00 -0.00000000000E+00 -0.18250000000E+03  0.18250000000E+03  0.00000000000E+00 0. -1.
        -11    1    1    2    0    0 -0.51273207612E+00  0.72233100441E+00  0.13807872170E+02  0.13836256362E+02  0.00000000000E+00 0. -1.
         11    1    1    2    0    0 -0.12912981418E+01  0.26157354843E+01 -0.18242918836E+03  0.18245250968E+03  0.00000000000E+00 0. -1.
        -15    1    1    2    0    0  0.12306644953E+01 -0.87804337348E+00  0.58219709308E+02  0.58266437820E+02  0.17770000000E+01 0.  1.
         15    1    1    2    0    0  0.57336572261E+00 -0.24600231152E+01  0.11040160688E+03  0.11044479614E+03  0.17770000000E+01 0. -1.
</event>
<event>
 6    1  0.1378789E-002  0.1839887E+03  0.7546771E-02  0.1067276E+00
        -11   -1    0    0    0    0  0.00000000000E+00  0.00000000000E+00  0.18250000000E+03  0.18250000000E+03  0.00000000000E+00 0. -1.
         11   -1    0    0    0    0 -0.00000000000E+00 -0.00000000000E+00 -0.18250000000E+03  0.18250000000E+03  0.00000000000E+00 0.  1.
        -11    1    1    2    0    0 -0.26262227242E+02  0.90708284039E+01  0.17886619197E+03  0.18101132323E+03  0.00000000000E+00 0. -1.
         11    1    1    2    0    0  0.84018831740E+00  0.21526850060E+01 -0.28634985550E+02  0.28728076277E+02  0.00000000000E+00 0.  1.
        -15    1    1    2    0    0 -0.63648902787E+00  0.36549666216E+01 -0.32651139303E+01  0.52519136765E+01  0.17770000000E+01 0. -1.
         15    1    1    2    0    0  0.26058527953E+02 -0.14878480032E+02 -0.14696609249E+03  0.15000868681E+03  0.17770000000E+01 0.  1.
</event>
<event>
 6    1  0.1378789E-002  0.1854928E+03  0.7546771E-02  0.1066097E+00
        -11   -1    0    0    0    0  0.00000000000E+00  0.00000000000E+00  0.18250000000E+03  0.18250000000E+03  0.00000000000E+00 0.  1.
         11   -1    0    0    0    0 -0.00000000000E+00 -0.00000000000E+00 -0.18250000000E+03  0.18250000000E+03  0.00000000000E+00 0. -1.
        -11    1    1    2    0    0  0.20675370736E+01 -0.74950112719E+00  0.16275179315E+03  0.16276665087E+03  0.00000000000E+00 0.  1.
         11    1    1    2    0    0  0.48204799792E+01 -0.13421119717E+01 -0.17943740787E+03  0.17950716319E+03  0.00000000000E+00 0. -1.
        -15    1    1    2    0    0 -0.73003131293E+01  0.10297813281E+01  0.18467425156E+02  0.19963931032E+02  0.17770000000E+01 0.  1.
         15    1    1    2    0    0  0.41229607663E+00  0.10618317708E+01 -0.17818104352E+01  0.27622549106E+01  0.17770000000E+01 0.  1.
</event>
<event>
 6    1  0.1378789E-002  0.1894090E+03  0.7546771E-02  0.1063085E+00
        -11   -1    0    0    0    0  0.00000000000E+00  0.00000000000E+00  0.18250000000E+03  0.18250000000E+03  0.00000000000E+00 0.  1.
         11   -1    0    0    0    0 -0.00000000000E+00 -0.00000000000E+00 -0.18250000000E+03  0.18250000000E+03  0.00000000000E+00 0. -1.
        -11    1    1    2    0    0  0.35081681583E+01 -0.78744140771E+00  0.14897438083E+03  0.14901776220E+03  0.00000000000E+00 0.  1.
         11    1    1    2    0    0  0.35280733467E+01 -0.60633295765E+01 -0.17545085304E+03  0.17559103934E+03  0.00000000000E+00 0. -1.
        -15    1    1    2    0    0 -0.27080252531E+01  0.96935842433E+01  0.31404155863E+02  0.33025410076E+02  0.17770000000E+01 0.  1.
         15    1    1    2    0    0 -0.43282162519E+01 -0.28428132591E+01 -0.49276836588E+01  0.73657883753E+01  0.17770000000E+01 0. -1.
</event>
<event>
 6    1  0.1378789E-002  0.1894243E+03  0.7546771E-02  0.1063073E+00
        -11   -1    0    0    0    0  0.00000000000E+00  0.00000000000E+00  0.18250000000E+03  0.18250000000E+03  0.00000000000E+00 0.  1.
         11   -1    0    0    0    0 -0.00000000000E+00 -0.00000000000E+00 -0.18250000000E+03  0.18250000000E+03  0.00000000000E+00 0. -1.
        -11    1    1    2    0    0  0.93317662959E+01 -0.22775288946E+01  0.16594246858E+03  0.16622025111E+03  0.00000000000E+00 0.  1.
         11    1    1    2    0    0  0.19153961123E+01  0.10564408878E+02 -0.17524713137E+03  0.17557571737E+03  0.00000000000E+00 0. -1.
        -15    1    1    2    0    0 -0.69188479089E+01  0.20329834726E+00  0.11239256938E+02  0.13318799200E+02  0.17770000000E+01 0.  1.
         15    1    1    2    0    0 -0.43283144992E+01 -0.84901783303E+01 -0.19345941505E+01  0.98852323195E+01  0.17770000000E+01 0. -1.
</event>
<event>
 6    1  0.1378789E-002  0.1863495E+03  0.7546771E-02  0.1065431E+00
        -11   -1    0    0    0    0  0.00000000000E+00  0.00000000000E+00  0.18250000000E+03  0.18250000000E+03  0.00000000000E+00 0. -1.
         11   -1    0    0    0    0 -0.00000000000E+00 -0.00000000000E+00 -0.18250000000E+03  0.18250000000E+03  0.00000000000E+00 0. -1.
        -11    1    1    2    0    0 -0.51540563184E+00 -0.24891894508E+01  0.17863241097E+03  0.17865049666E+03  0.00000000000E+00 0. -1.
         11    1    1    2    0    0 -0.33871726671E+00  0.30479976590E+01 -0.78576832949E+02  0.78636656181E+02  0.00000000000E+00 0. -1.
        -15    1    1    2    0    0 -0.12960245078E+01  0.43142396282E+01  0.21889345672E+01  0.53142738576E+01  0.17770000000E+01 0.  1.
         15    1    1    2    0    0  0.21501474063E+01 -0.48730478364E+01 -0.10224451259E+03  0.10239857330E+03  0.17770000000E+01 0. -1.
</event>
<event>
 6    1  0.1378789E-002  0.1836825E+03  0.7546771E-02  0.1067517E+00
        -11   -1    0    0    0    0  0.00000000000E+00  0.00000000000E+00  0.18250000000E+03  0.18250000000E+03  0.00000000000E+00 0. -1.
         11   -1    0    0    0    0 -0.00000000000E+00 -0.00000000000E+00 -0.18250000000E+03  0.18250000000E+03  0.00000000000E+00 0. -1.
        -11    1    1    2    0    0  0.10274221651E+01  0.23716214139E+01  0.18129907385E+03  0.18131749602E+03  0.00000000000E+00 0. -1.
         11    1    1    2    0    0  0.14782347086E+00  0.23194725506E+01 -0.16213840406E+03  0.16215506121E+03  0.00000000000E+00 0. -1.
        -15    1    1    2    0    0 -0.46888946799E+00 -0.32408464470E+01 -0.18720251328E+02  0.19087390650E+02  0.17770000000E+01 0. -1.
         15    1    1    2    0    0 -0.70635616795E+00 -0.14502475174E+01 -0.44041846375E+00  0.24400521144E+01  0.17770000000E+01 0.  1.
</event>
<event>
 6    1  0.1378789E-002  0.1868502E+03  0.7546771E-02  0.1065044E+00
        -11   -1    0    0    0    0  0.00000000000E+00  0.00000000000E+00  0.18250000000E+03  0.18250000000E+03  0.00000000000E+00 0.  1.
         11   -1    0    0    0    0 -0.00000000000E+00 -0.00000000000E+00 -0.18250000000E+03  0.18250000000E+03  0.00000000000E+00 0. -1.
        -11    1    1    2    0    0  0.39188594346E+01 -0.25732862752E+01  0.17808805591E+03  0.17814975419E+03  0.00000000000E+00 0.  1.
         11    1    1    2    0    0 -0.12472775618E+01 -0.24497068352E+01 -0.12309350812E+03  0.12312419951E+03  0.00000000000E+00 0. -1.
        -15    1    1    2    0    0 -0.55004568069E+01  0.17759085709E+01  0.21304834547E+01  0.64113621865E+01  0.17770000000E+01 0. -1.
         15    1    1    2    0    0  0.28288749340E+01  0.32470845396E+01 -0.57125031240E+02  0.57314684110E+02  0.17770000000E+01 0. -1.
</event>
<event>
 6    1  0.1447214E-002  0.1826557E+03  0.7546771E-02  0.1068331E+00
        -11   -1    0    0    0    0  0.00000000000E+00  0.00000000000E+00  0.18250000000E+03  0.18250000000E+03  0.00000000000E+00 0.  1.
         11   -1    0    0    0    0 -0.00000000000E+00 -0.00000000000E+00 -0.18250000000E+03  0.18250000000E+03  0.00000000000E+00 0. -1.
        -11    1    1    2    0    0 -0.11878467506E+01  0.21897329430E+01  0.18232724880E+03  0.18234426661E+03  0.00000000000E+00 0.  1.
         11    1    1    2    0    0 -0.12100231131E+01  0.66200817215E-01 -0.23317022484E+02  0.23348491943E+02  0.00000000000E+00 0. -1.
        -15    1    1    2    0    0  0.68886589228E+00  0.16370170026E+01 -0.13988550635E+02  0.14212376253E+02  0.17770000000E+01 0.  1.
         15    1    1    2    0    0  0.17090039714E+01 -0.38929507628E+01 -0.14502167568E+03  0.14509486520E+03  0.17770000000E+01 0. -1.
</event>
<event>
 6    1  0.1378789E-002  0.1875032E+03  0.7546771E-02  0.1064541E+00
        -11   -1    0    0    0    0  0.00000000000E+00  0.00000000000E+00  0.18250000000E+03  0.18250000000E+03  0.00000000000E+00 0.  1.
         11   -1    0    0    0    0 -0.00000000000E+00 -0.00000000000E+00 -0.18250000000E+03  0.18250000000E+03  0.00000000000E+00 0.  1.
        -11    1    1    2    0    0 -0.32939992859E+01 -0.38993058415E+01  0.10897718558E+03  0.10909666353E+03  0.00000000000E+00 0.  1.
         11    1    1    2    0    0 -0.30117891496E+01 -0.20275099998E+01 -0.17745963497E+03  0.17749677100E+03  0.00000000000E+00 0.  1.
        -15    1    1    2    0    0  0.68670071609E+00  0.20775973961E+02  0.28254818360E+02  0.35122715462E+02  0.17770000000E+01 0. -1.
         15    1    1    2    0    0  0.56190877194E+01 -0.14849158119E+02  0.40227631038E+02  0.43283850008E+02  0.17770000000E+01 0.  1.
</event>
<event>
 6    1  0.1378789E-002  0.1829088E+03  0.7546771E-02  0.1068130E+00
        -11   -1    0    0    0    0  0.00000000000E+00  0.00000000000E+00  0.18250000000E+03  0.18250000000E+03  0.00000000000E+00 0. -1.
         11   -1    0    0    0    0 -0.00000000000E+00 -0.00000000000E+00 -0.18250000000E+03  0.18250000000E+03  0.00000000000E+00 0.  1.
        -11    1    1    2    0    0  0.33590715017E+01 -0.18314638637E+01  0.18205104155E+03  0.18209123909E+03  0.00000000000E+00 0. -1.
         11    1    1    2    0    0 -0.83177699541E+00 -0.35845642376E+01 -0.72687220979E+02  0.72780306728E+02  0.00000000000E+00 0.  1.
        -15    1    1    2    0    0  0.28470687175E+01  0.54551161374E+01 -0.77625841603E+02  0.77889621298E+02  0.17770000000E+01 0.  1.
         15    1    1    2    0    0 -0.53743632239E+01 -0.39088036085E-01 -0.31737978970E+02  0.32238832889E+02  0.17770000000E+01 0. -1.
</event>
<event>
 6    1  0.1378789E-002  0.1845899E+03  0.7546771E-02  0.1066803E+00
        -11   -1    0    0    0    0  0.00000000000E+00  0.00000000000E+00  0.18250000000E+03  0.18250000000E+03  0.00000000000E+00 0. -1.
         11   -1    0    0    0    0 -0.00000000000E+00 -0.00000000000E+00 -0.18250000000E+03  0.18250000000E+03  0.00000000000E+00 0. -1.
        -11    1    1    2    0    0  0.67877172832E+01  0.33938182573E+01  0.12342831773E+03  0.12366139546E+03  0.00000000000E+00 0. -1.
         11    1    1    2    0    0  0.26689930843E+01 -0.20219978622E+01 -0.18037899160E+03  0.18041006793E+03  0.00000000000E+00 0. -1.
        -15    1    1    2    0    0 -0.82053047124E+01  0.47919777123E+01  0.11557676770E+02  0.15067438307E+02  0.17770000000E+01 0.  1.
         15    1    1    2    0    0 -0.12514056551E+01 -0.61637981073E+01  0.45392997100E+02  0.45861098307E+02  0.17770000000E+01 0. -1.
</event>
<event>
 6    1  0.1378789E-002  0.1727181E+03  0.7546771E-02  0.1076519E+00
        -11   -1    0    0    0    0  0.00000000000E+00  0.00000000000E+00  0.18250000000E+03  0.18250000000E+03  0.00000000000E+00 0.  1.
         11   -1    0    0    0    0 -0.00000000000E+00 -0.00000000000E+00 -0.18250000000E+03  0.18250000000E+03  0.00000000000E+00 0. -1.
        -11    1    1    2    0    0 -0.36114202646E+01  0.15386845827E+01  0.17399706150E+03  0.17404133795E+03  0.00000000000E+00 0.  1.
         11    1    1    2    0    0 -0.83131326603E+00  0.25463458029E+01 -0.17143616157E+03  0.17145708633E+03  0.00000000000E+00 0. -1.
        -15    1    1    2    0    0  0.22292470914E+00 -0.21777190858E+01  0.76481778393E+01  0.81513501400E+01  0.17770000000E+01 0. -1.
         15    1    1    2    0    0  0.42198088215E+01 -0.19073112998E+01 -0.10209077766E+02  0.11350225580E+02  0.17770000000E+01 0.  1.
</event>
<event>
 6    1  0.1378789E-002  0.1832320E+03  0.7546771E-02  0.1067874E+00
        -11   -1    0    0    0    0  0.00000000000E+00  0.00000000000E+00  0.18250000000E+03  0.18250000000E+03  0.00000000000E+00 0.  1.
         11   -1    0    0    0    0 -0.00000000000E+00 -0.00000000000E+00 -0.18250000000E+03  0.18250000000E+03  0.00000000000E+00 0.  1.
        -11    1    1    2    0    0 -0.43905836518E+01 -0.20210007959E+01  0.18170372504E+03  0.18176799873E+03  0.00000000000E+00 0.  1.
         11    1    1    2    0    0 -0.52153585304E+00  0.35057132202E+01 -0.15756882085E+03  0.15760867783E+03  0.00000000000E+00 0.  1.
        -15    1    1    2    0    0  0.62071351521E+00 -0.65154309237E+00 -0.16692876001E+02  0.16811294770E+02  0.17770000000E+01 0.  1.
         15    1    1    2    0    0  0.42914059896E+01 -0.83316933200E+00 -0.74420281976E+01  0.88120286653E+01  0.17770000000E+01 0. -1.
</event>
<event>
 6    1  0.1378789E-002  0.1855181E+03  0.7546771E-02  0.1066077E+00
        -11   -1    0    0    0    0  0.00000000000E+00  0.00000000000E+00  0.18250000000E+03  0.18250000000E+03  0.00000000000E+00 0. -1.
         11   -1    0    0    0    0 -0.00000000000E+00 -0.00000000000E+00 -0.18250000000E+03  0.18250000000E+03  0.00000000000E+00 0.  1.
        -11    1    1    2    0    0  0.38021940763E+01  0.22747593691E+01  0.17942716315E+03  0.17948186005E+03  0.00000000000E+00 0. -1.
         11    1    1    2    0    0  0.37896239723E+00 -0.39054940657E+01 -0.17647818177E+03  0.17652179791E+03  0.00000000000E+00 0.  1.
        -15    1    1    2    0    0 -0.50992865433E+01 -0.16531678742E+00 -0.61716194663E+00  0.54377082267E+01  0.17770000000E+01 0.  1.
         15    1    1    2    0    0  0.91813006974E+00  0.17960514840E+01 -0.23318194325E+01  0.35586338143E+01  0.17770000000E+01 0.  1.
</event>
<event>
 6    1  0.1378789E-002  0.1830544E+03  0.7546771E-02  0.1068014E+00
        -11   -1    0    0    0    0  0.00000000000E+00  0.00000000000E+00  0.18250000000E+03  0.18250000000E+03  0.00000000000E+00 0. -1.
         11   -1    0    0    0    0 -0.00000000000E+00 -0.00000000000E+00 -0.18250000000E+03  0.18250000000E+03  0.00000000000E+00 0. -1.
        -11    1    1    2    0    0 -0.56632764389E+00 -0.24543051831E+01  0.18192815840E+03  0.18194559395E+03  0.00000000000E+00 0. -1.
         11    1    1    2    0    0 -0.36832173507E+01 -0.13483062473E+00 -0.16246450001E+03  0.16250630151E+03  0.00000000000E+00 0. -1.
        -15    1    1    2    0    0  0.36311337745E+01  0.18151820561E+01 -0.15035292884E+02  0.15674749743E+02  0.17770000000E+01 0. -1.
         15    1    1    2    0    0  0.61841122011E+00  0.77395375175E+00 -0.44283655061E+01  0.48733547894E+01  0.17770000000E+01 0.  1.
</event>
<event>
 6    1  0.1378789E-002  0.1832534E+03  0.7546771E-02  0.1067857E+00
        -11   -1    0    0    0    0  0.00000000000E+00  0.00000000000E+00  0.18250000000E+03  0.18250000000E+03  0.00000000000E+00 0. -1.
         11   -1    0    0    0    0 -0.00000000000E+00 -0.00000000000E+00 -0.18250000000E+03  0.18250000000E+03  0.00000000000E+00 0.  1.
        -11    1    1    2    0    0  0.20915565647E+01 -0.61457586879E+01  0.14712846097E+03  0.14727161636E+03  0.00000000000E+00 0. -1.
         11    1    1    2    0    0 -0.19827234887E+01  0.20771349007E+01 -0.18172387947E+03  0.18174656545E+03  0.00000000000E+00 0.  1.
        -15    1    1    2    0    0  0.33747114877E+01  0.25193799427E+01  0.95727477507E+01  0.10608071522E+02  0.17770000000E+01 0.  1.
         15    1    1    2    0    0 -0.34835445636E+01  0.15492438445E+01  0.25022670757E+02  0.25373746669E+02  0.17770000000E+01 0. -1.
</event>
<event>
 6    1  0.1378789E-002  0.1698975E+03  0.7546771E-02  0.1078954E+00
        -11   -1    0    0    0    0  0.00000000000E+00  0.00000000000E+00  0.18250000000E+03  0.18250000000E+03  0.00000000000E+00 0. -1.
         11   -1    0    0    0    0 -0.00000000000E+00 -0.00000000000E+00 -0.18250000000E+03  0.18250000000E+03  0.00000000000E+00 0.  1.
        -11    1    1    2    0    0 -0.60976025604E+01 -0.61300395749E+01  0.16453527154E+03  0.16476229460E+03  0.00000000000E+00 0. -1.
         11    1    1    2    0    0 -0.11889484109E+02  0.18358632010E+00 -0.17532868212E+03  0.17573144371E+03  0.00000000000E+00 0.  1.
        -15    1    1    2    0    0  0.11632213325E+02 -0.15029049191E+01  0.42735396373E+01  0.12609043583E+02  0.17770000000E+01 0. -1.
         15    1    1    2    0    0  0.63548733444E+01  0.74493581739E+01  0.65198709407E+01  0.11897218100E+02  0.17770000000E+01 0.  1.
</event>
<event>
 6    1  0.1378789E-002  0.1420455E+03  0.7546771E-02  0.1106172E+00
        -11   -1    0    0    0    0  0.00000000000E+00  0.00000000000E+00  0.18250000000E+03  0.18250000000E+03  0.00000000000E+00 0.  1.
         11   -1    0    0    0    0 -0.00000000000E+00 -0.00000000000E+00 -0.18250000000E+03  0.18250000000E+03  0.00000000000E+00 0. -1.
        -11    1    1    2    0    0 -0.62912375198E+00  0.15127527217E+02  0.13641779869E+03  0.13725543223E+03  0.00000000000E+00 0.  1.
         11    1    1    2    0    0 -0.28490485738E+01  0.24438811728E+01 -0.14757045325E+03  0.14761818420E+03  0.00000000000E+00 0. -1.
        -15    1    1    2    0    0 -0.47328951852E+01 -0.99815866033E+00 -0.32383477693E+02  0.32790912979E+02  0.17770000000E+01 0. -1.
         15    1    1    2    0    0  0.82110675110E+01 -0.16573249729E+02  0.43536132254E+02  0.47335470600E+02  0.17770000000E+01 0.  1.
</event>
<event>
 6    1  0.1378789E-002  0.1830948E+03  0.7546771E-02  0.1067982E+00
        -11   -1    0    0    0    0  0.00000000000E+00  0.00000000000E+00  0.18250000000E+03  0.18250000000E+03  0.00000000000E+00 0. -1.
         11   -1    0    0    0    0 -0.00000000000E+00 -0.00000000000E+00 -0.18250000000E+03  0.18250000000E+03  0.00000000000E+00 0. -1.
        -11    1    1    2    0    0  0.21266983355E+01  0.18563357825E+01  0.15354853972E+03  0.15357448642E+03  0.00000000000E+00 0. -1.
         11    1    1    2    0    0  0.25967378279E+01 -0.11860367700E+01 -0.18188279158E+03  0.18190519400E+03  0.00000000000E+00 0. -1.
        -15    1    1    2    0    0 -0.12253139227E+01  0.13794296573E+01  0.37545194884E+01  0.45451475199E+01  0.17770000000E+01 0. -1.
         15    1    1    2    0    0 -0.34981222407E+01 -0.20497286699E+01  0.24579732371E+02  0.24975172057E+02  0.17770000000E+01 0.  1.
</event>
<event>
 6    1  0.1378789E-002  0.1544254E+03  0.7546771E-02  0.1093296E+00
        -11   -1    0    0    0    0  0.00000000000E+00  0.00000000000E+00  0.18250000000E+03  0.18250000000E+03  0.00000000000E+00 0. -1.
         11   -1    0    0    0    0 -0.00000000000E+00 -0.00000000000E+00 -0.18250000000E+03  0.18250000000E+03  0.00000000000E+00 0. -1.
        -11    1    1    2    0    0 -0.11674607766E+02  0.18093971306E+01  0.15019977502E+03  0.15066367445E+03  0.00000000000E+00 0. -1.
         11    1    1    2    0    0 -0.26261148162E+02 -0.28032165544E+02 -0.15705756921E+03  0.16168651846E+03  0.00000000000E+00 0. -1.
        -15    1    1    2    0    0  0.29985729144E+02  0.30658694916E+02  0.53872828198E+01  0.43258294828E+02  0.17770000000E+01 0.  1.
         15    1    1    2    0    0  0.79500267834E+01 -0.44359265018E+01  0.14705113716E+01  0.93915122574E+01  0.17770000000E+01 0. -1.
</event>
<event>
 6    1  0.1378789E-002  0.1855695E+03  0.7546771E-02  0.1066037E+00
        -11   -1    0    0    0    0  0.00000000000E+00  0.00000000000E+00  0.18250000000E+03  0.18250000000E+03  0.00000000000E+00 0. -1.
         11   -1    0    0    0    0 -0.00000000000E+00 -0.00000000000E+00 -0.18250000000E+03  0.18250000000E+03  0.00000000000E+00 0. -1.
        -11    1    1    2    0    0  0.49030305083E+01 -0.13134057920E+01  0.17935873158E+03  0.17943054181E+03  0.00000000000E+00 0. -1.
         11    1    1    2    0    0 -0.86847529828E+01  0.21288129066E+01 -0.17142175170E+03  0.17165480982E+03  0.00000000000E+00 0. -1.
        -15    1    1    2    0    0 -0.32468897613E+01 -0.13047867844E+01 -0.14812790394E+01  0.41948394805E+01  0.17770000000E+01 0. -1.
         15    1    1    2    0    0  0.70286122358E+01  0.48937966986E+00 -0.64557008347E+01  0.97198088813E+01  0.17770000000E+01 0.  1.
</event>
<event>
 6    1  0.1378789E-002  0.1982536E+03  0.7546771E-02  0.1056564E+00
        -11   -1    0    0    0    0  0.00000000000E+00  0.00000000000E+00  0.18250000000E+03  0.18250000000E+03  0.00000000000E+00 0.  1.
         11   -1    0    0    0    0 -0.00000000000E+00 -0.00000000000E+00 -0.18250000000E+03  0.18250000000E+03  0.00000000000E+00 0. -1.
        -11    1    1    2    0    0 -0.77488356456E+01 -0.53365517399E+01  0.82645977501E+02  0.83179810263E+02  0.00000000000E+00 0.  1.
         11    1    1    2    0    0 -0.10484946131E+02  0.19489067825E+01 -0.16640504219E+03  0.16674642544E+03  0.00000000000E+00 0. -1.
        -15    1    1    2    0    0  0.48526224730E+01 -0.80445744464E+01 -0.13319889113E+02  0.16396350139E+02  0.17770000000E+01 0. -1.
         15    1    1    2    0    0  0.13381159304E+02  0.11432219404E+02  0.97078953798E+02  0.98677414155E+02  0.17770000000E+01 0.  1.
</event>
<event>
 6    1  0.1378789E-002  0.1828194E+03  0.7546771E-02  0.1068201E+00
        -11   -1    0    0    0    0  0.00000000000E+00  0.00000000000E+00  0.18250000000E+03  0.18250000000E+03  0.00000000000E+00 0.  1.
         11   -1    0    0    0    0 -0.00000000000E+00 -0.00000000000E+00 -0.18250000000E+03  0.18250000000E+03  0.00000000000E+00 0.  1.
        -11    1    1    2    0    0 -0.98869839938E+00  0.41264987100E+01  0.18213120201E+03  0.18218062537E+03  0.00000000000E+00 0.  1.
         11    1    1    2    0    0 -0.13507324690E+01 -0.20582059412E+01 -0.13512538249E+03  0.13514780680E+03  0.00000000000E+00 0.  1.
        -15    1    1    2    0    0  0.10290480420E+00  0.21651116986E+01 -0.18666963674E+02  0.18876216779E+02  0.17770000000E+01 0.  1.
         15    1    1    2    0    0  0.22365260641E+01 -0.42334044675E+01 -0.28338855846E+02  0.28795351046E+02  0.17770000000E+01 0.  1.
</event>
<event>
 6    1  0.1378789E-002  0.1839480E+03  0.7546771E-02  0.1067308E+00
        -11   -1    0    0    0    0  0.00000000000E+00  0.00000000000E+00  0.18250000000E+03  0.18250000000E+03  0.00000000000E+00 0. -1.
         11   -1    0    0    0    0 -0.00000000000E+00 -0.00000000000E+00 -0.18250000000E+03  0.18250000000E+03  0.00000000000E+00 0.  1.
        -11    1    1    2    0    0 -0.26801430511E+01 -0.38935264902E+01  0.15450981692E+03  0.15458210194E+03  0.00000000000E+00 0. -1.
         11    1    1    2    0    0 -0.94266573373E+00 -0.23086655060E+01 -0.18103482293E+03  0.18105199714E+03  0.00000000000E+00 0.  1.
        -15    1    1    2    0    0 -0.10954746635E+01  0.32841088437E+00  0.16818256321E+02  0.16950498315E+02  0.17770000000E+01 0.  1.
         15    1    1    2    0    0  0.47182834484E+01  0.58737811119E+01  0.97067496922E+01  0.12415402605E+02  0.17770000000E+01 0. -1.
</event>
<event>
 6    1  0.1378789E-002  0.1825668E+03  0.7546771E-02  0.1068402E+00
        -11   -1    0    0    0    0  0.00000000000E+00  0.00000000000E+00  0.18250000000E+03  0.18250000000E+03  0.00000000000E+00 0. -1.
         11   -1    0    0    0    0 -0.00000000000E+00 -0.00000000000E+00 -0.18250000000E+03  0.18250000000E+03  0.00000000000E+00 0.  1.
        -11    1    1    2    0    0  0.71403821179E+01 -0.12483385619E+01  0.18228910691E+03  0.18243317106E+03  0.00000000000E+00 0. -1.
         11    1    1    2    0    0 -0.30077269004E+00  0.44174290532E+00 -0.13208835704E+02  0.13219642267E+02  0.00000000000E+00 0.  1.
        -15    1    1    2    0    0 -0.69388231382E+01 -0.20754266066E+00 -0.11117457800E+03  0.11140527305E+03  0.17770000000E+01 0. -1.
         15    1    1    2    0    0  0.99213710275E-01  0.10141383172E+01 -0.57905693207E+02  0.57941913626E+02  0.17770000000E+01 0.  1.
</event>
<event>
 6    1  0.1378789E-002  0.1766972E+03  0.7546771E-02  0.1073170E+00
        -11   -1    0    0    0    0  0.00000000000E+00  0.00000000000E+00  0.18250000000E+03  0.18250000000E+03  0.00000000000E+00 0. -1.
         11   -1    0    0    0    0 -0.00000000000E+00 -0.00000000000E+00 -0.18250000000E+03  0.18250000000E+03  0.00000000000E+00 0. -1.
        -11    1    1    2    0    0 -0.42332227885E+01  0.19269511822E+01  0.17626731815E+03  0.17632867255E+03  0.00000000000E+00 0. -1.
         11    1    1    2    0    0 -0.28233250721E+01 -0.11794986452E+01 -0.17711144655E+03  0.17713787534E+03  0.00000000000E+00 0. -1.
        -15    1    1    2    0    0  0.48245939428E+01 -0.90699155832E+00  0.45005903175E+01  0.68929226461E+01  0.17770000000E+01 0. -1.
         15    1    1    2    0    0  0.22319539179E+01  0.15953902128E+00 -0.36564619187E+01  0.46405294691E+01  0.17770000000E+01 0. -1.
</event>
<event>
 6    1  0.1378789E-002  0.1894162E+03  0.7546771E-02  0.1063079E+00
        -11   -1    0    0    0    0  0.00000000000E+00  0.00000000000E+00  0.18250000000E+03  0.18250000000E+03  0.00000000000E+00 0.  1.
         11   -1    0    0    0    0 -0.00000000000E+00 -0.00000000000E+00 -0.18250000000E+03  0.18250000000E+03  0.00000000000E+00 0. -1.
        -11    1    1    2    0    0 -0.13762168773E+01  0.15218610560E+01  0.13678378587E+03  0.13679917438E+03  0.00000000000E+00 0.  1.
         11    1    1    2    0    0  0.10788490655E+02  0.14001672673E+02 -0.17469185528E+03  0.17558383374E+03  0.00000000000E+00 0. -1.
        -15    1    1    2    0    0 -0.11674709921E+02 -0.18604486527E+02  0.96671128106E+01  0.24063178713E+02  0.17770000000E+01 0.  1.
         15    1    1    2    0    0  0.22624361442E+01  0.30809527977E+01  0.28240956605E+02  0.28553813168E+02  0.17770000000E+01 0. -1.
</event>
<event>
 6    1  0.1378789E-002  0.1847669E+03  0.7546771E-02  0.1066665E+00
        -11   -1    0    0    0    0  0.00000000000E+00  0.00000000000E+00  0.18250000000E+03  0.18250000000E+03  0.00000000000E+00 0.  1.
         11   -1    0    0    0    0 -0.00000000000E+00 -0.00000000000E+00 -0.18250000000E+03  0.18250000000E+03  0.00000000000E+00 0. -1.
        -11    1    1    2    0    0 -0.31607171526E+01 -0.10002891680E+00  0.18020537873E+03  0.18023312310E+03  0.00000000000E+00 0.  1.
         11    1    1    2    0    0  0.13015692637E+01 -0.13679036914E+01 -0.86951651844E+02  0.86972150724E+02  0.00000000000E+00 0. -1.
        -15    1    1    2    0    0  0.62516927982E+01 -0.11960736076E+02 -0.29786678423E+02  0.32749760470E+02  0.17770000000E+01 0.  1.
         15    1    1    2    0    0 -0.43925449093E+01  0.13428668685E+02 -0.63467048466E+02  0.65044965704E+02  0.17770000000E+01 0. -1.
</event>
<event>
 6    1  0.1378789E-002  0.1845057E+03  0.7546771E-02  0.1066869E+00
        -11   -1    0    0    0    0  0.00000000000E+00  0.00000000000E+00  0.18250000000E+03  0.18250000000E+03  0.00000000000E+00 0.  1.
         11   -1    0    0    0    0 -0.00000000000E+00 -0.00000000000E+00 -0.18250000000E+03  0.18250000000E+03  0.00000000000E+00 0. -1.
        -11    1    1    2    0    0 -0.39182176880E+00 -0.42706721661E+01  0.18044335999E+03  0.18049431662E+03  0.00000000000E+00 0.  1.
         11    1    1    2    0    0 -0.30888813205E+01  0.29633250422E+00 -0.17323384460E+03  0.17326163429E+03  0.00000000000E+00 0. -1.
        -15    1    1    2    0    0  0.29804256039E+01  0.39981378639E+01 -0.19030755095E+01  0.56256082830E+01  0.17770000000E+01 0. -1.
         15    1    1    2    0    0  0.50027748536E+00 -0.23798202043E-01 -0.53064398835E+01  0.56184408117E+01  0.17770000000E+01 0.  1.
</event>
<event>
 6    1  0.1378789E-002  0.1829380E+03  0.7546771E-02  0.1068107E+00
        -11   -1    0    0    0    0  0.00000000000E+00  0.00000000000E+00  0.18250000000E+03  0.18250000000E+03  0.00000000000E+00 0.  1.
         11   -1    0    0    0    0 -0.00000000000E+00 -0.00000000000E+00 -0.18250000000E+03  0.18250000000E+03  0.00000000000E+00 0. -1.
        -11    1    1    2    0    0  0.20731632622E+01 -0.29146937231E+01  0.13637223580E+03  0.13641913408E+03  0.00000000000E+00 0.  1.
         11    1    1    2    0    0 -0.84621997224E-01 -0.31893024329E+01 -0.18203407991E+03  0.18206203630E+03  0.00000000000E+00 0. -1.
        -15    1    1    2    0    0  0.12491300903E+01  0.62489291915E+00  0.13056358313E+02  0.13250548613E+02  0.17770000000E+01 0. -1.
         15    1    1    2    0    0 -0.32376713553E+01  0.54791032369E+01  0.32605485803E+02  0.33268281013E+02  0.17770000000E+01 0. -1.
</event>
<event>
 6    1  0.1378789E-002  0.1620137E+03  0.7546771E-02  0.1086043E+00
        -11   -1    0    0    0    0  0.00000000000E+00  0.00000000000E+00  0.18250000000E+03  0.18250000000E+03  0.00000000000E+00 0. -1.
         11   -1    0    0    0    0 -0.00000000000E+00 -0.00000000000E+00 -0.18250000000E+03  0.18250000000E+03  0.00000000000E+00 0. -1.
        -11    1    1    2    0    0  0.28430887580E+01  0.28414802620E+00  0.16231167765E+03  0.16233682452E+03  0.00000000000E+00 0. -1.
         11    1    1    2    0    0 -0.71124139830E+01 -0.57659550786E+01 -0.16150665584E+03  0.16176598082E+03  0.00000000000E+00 0. -1.
        -15    1    1    2    0    0  0.27221197942E+01 -0.10904608154E+02  0.14445196269E+02  0.18388633429E+02  0.17770000000E+01 0.  1.
         15    1    1    2    0    0  0.15472054308E+01  0.16386415206E+02 -0.15250218078E+02  0.22508561224E+02  0.17770000000E+01 0. -1.
</event>
<event>
 6    1  0.1378789E-002  0.1828708E+03  0.7546771E-02  0.1068160E+00
        -11   -1    0    0    0    0  0.00000000000E+00  0.00000000000E+00  0.18250000000E+03  0.18250000000E+03  0.00000000000E+00 0.  1.
         11   -1    0    0    0    0 -0.00000000000E+00 -0.00000000000E+00 -0.18250000000E+03  0.18250000000E+03  0.00000000000E+00 0.  1.
        -11    1    1    2    0    0  0.16455839928E+01  0.16786883660E+01  0.13725044160E+03  0.13727057099E+03  0.00000000000E+00 0.  1.
         11    1    1    2    0    0  0.30065696275E+01  0.14620982605E+01 -0.18209848170E+03  0.18212916908E+03  0.00000000000E+00 0.  1.
        -15    1    1    2    0    0 -0.77691828315E+00 -0.50931623157E+00  0.26645608950E+02  0.26720950776E+02  0.17770000000E+01 0. -1.
         15    1    1    2    0    0 -0.38752353372E+01 -0.26314703950E+01  0.18202431149E+02  0.18879309153E+02  0.17770000000E+01 0. -1.
</event>
<event>
 6    1  0.1378789E-002  0.1869987E+03  0.7546771E-02  0.1064929E+00
        -11   -1    0    0    0    0  0.00000000000E+00  0.00000000000E+00  0.18250000000E+03  0.18250000000E+03  0.00000000000E+00 0. -1.
         11   -1    0    0    0    0 -0.00000000000E+00 -0.00000000000E+00 -0.18250000000E+03  0.18250000000E+03  0.00000000000E+00 0. -1.
        -11    1    1    2    0    0  0.39109395835E+01  0.10101427567E+02  0.17767143440E+03  0.17800132834E+03  0.00000000000E+00 0. -1.
         11    1    1    2    0    0  0.23765879097E+01  0.21642646658E+01 -0.12329770254E+03  0.12333959487E+03  0.00000000000E+00 0. -1.
        -15    1    1    2    0    0 -0.62550377577E+01  0.74255090336E+01 -0.33432805142E+02  0.34859344090E+02  0.17770000000E+01 0.  1.
         15    1    1    2    0    0 -0.32489735528E-01 -0.19691201266E+02 -0.20940926719E+02  0.28799732703E+02  0.17770000000E+01 0. -1.
</event>
<event>
 6    1  0.1378789E-002  0.1844584E+03  0.7546771E-02  0.1066907E+00
        -11   -1    0    0    0    0  0.00000000000E+00  0.00000000000E+00  0.18250000000E+03  0.18250000000E+03  0.00000000000E+00 0. -1.
         11   -1    0    0    0    0 -0.00000000000E+00 -0.00000000000E+00 -0.18250000000E+03  0.18250000000E+03  0.00000000000E+00 0. -1.
        -11    1    1    2    0    0  0.17352967716E+00  0.61326168026E+00  0.73412737025E+01  0.73688874338E+01  0.00000000000E+00 0. -1.
         11    1    1    2    0    0 -0.21747240866E+01 -0.38473617811E+01 -0.18048749651E+03  0.18054159635E+03  0.00000000000E+00 0. -1.
        -15    1    1    2    0    0 -0.44182100571E+01  0.53120329037E+00  0.11299799746E+01  0.49231433848E+01  0.17770000000E+01 0.  1.
         15    1    1    2    0    0  0.64194044665E+01  0.27028968105E+01  0.17201624283E+03  0.17216637283E+03  0.17770000000E+01 0. -1.
</event>
<event>
 6    1  0.1378789E-002  0.1827808E+03  0.7546771E-02  0.1068232E+00
        -11   -1    0    0    0    0  0.00000000000E+00  0.00000000000E+00  0.18250000000E+03  0.18250000000E+03  0.00000000000E+00 0. -1.
         11   -1    0    0    0    0 -0.00000000000E+00 -0.00000000000E+00 -0.18250000000E+03  0.18250000000E+03  0.00000000000E+00 0.  1.
        -11    1    1    2    0    0 -0.54061413271E+01 -0.44907134994E+01  0.18208363603E+03  0.18221921792E+03  0.00000000000E+00 0. -1.
         11    1    1    2    0    0  0.13181809076E+01  0.23743107488E+00 -0.91290562055E+02  0.91300387156E+02  0.00000000000E+00 0.  1.
        -15    1    1    2    0    0  0.30261053027E+01  0.52484592169E+01 -0.30651701064E+02  0.31295177657E+02  0.17770000000E+01 0. -1.
         15    1    1    2    0    0  0.10618551169E+01 -0.99517679237E+00 -0.60141372907E+02  0.60185217265E+02  0.17770000000E+01 0.  1.
</event>
<event>
 6    1  0.1378789E-002  0.1884258E+03  0.7546771E-02  0.1063833E+00
        -11   -1    0    0    0    0  0.00000000000E+00  0.00000000000E+00  0.18250000000E+03  0.18250000000E+03  0.00000000000E+00 0. -1.
         11   -1    0    0    0    0 -0.00000000000E+00 -0.00000000000E+00 -0.18250000000E+03  0.18250000000E+03  0.00000000000E+00 0. -1.
        -11    1    1    2    0    0 -0.33626996969E+01  0.34228283893E+01  0.15932557654E+03  0.15939781317E+03  0.00000000000E+00 0. -1.
         11    1    1    2    0    0 -0.32627328918E+01  0.24715633545E+00 -0.17654392553E+03  0.17657424544E+03  0.00000000000E+00 0. -1.
        -15    1    1    2    0    0  0.14180926317E+02  0.83846942119E+00  0.11719032934E+02  0.18501220611E+02  0.17770000000E+01 0. -1.
         15    1    1    2    0    0 -0.75554937284E+01 -0.45084541459E+01  0.54993160482E+01  0.10526720774E+02  0.17770000000E+01 0.  1.
</event>
<event>
 6    1  0.1378789E-002  0.1840942E+03  0.7546771E-02  0.1067193E+00
        -11   -1    0    0    0    0  0.00000000000E+00  0.00000000000E+00  0.18250000000E+03  0.18250000000E+03  0.00000000000E+00 0. -1.
         11   -1    0    0    0    0 -0.00000000000E+00 -0.00000000000E+00 -0.18250000000E+03  0.18250000000E+03  0.00000000000E+00 0. -1.
        -11    1    1    2    0    0  0.77796283928E+01  0.10724403241E+01  0.15591897292E+03  0.15611661943E+03  0.00000000000E+00 0. -1.
         11    1    1    2    0    0  0.68540179900E-01  0.43322013461E+01 -0.18085389776E+03  0.18090579040E+03  0.00000000000E+00 0. -1.
        -15    1    1    2    0    0 -0.14900665195E+01 -0.16250695697E+01  0.12397498637E+01  0.30912550952E+01  0.17770000000E+01 0.  1.
         15    1    1    2    0    0 -0.63581020532E+01 -0.37795721005E+01  0.23695174977E+02  0.24886335069E+02  0.17770000000E+01 0. -1.
</event>
<event>
 6    1  0.1378789E-002  0.1838275E+03  0.7546771E-02  0.1067403E+00
        -11   -1    0    0    0    0  0.00000000000E+00  0.00000000000E+00  0.18250000000E+03  0.18250000000E+03  0.00000000000E+00 0.  1.
         11   -1    0    0    0    0 -0.00000000000E+00 -0.00000000000E+00 -0.18250000000E+03  0.18250000000E+03  0.00000000000E+00 0.  1.
        -11    1    1    2    0    0 -0.26594123515E+00 -0.29947575332E+01  0.18114756831E+03  0.18117251669E+03  0.00000000000E+00 0.  1.
         11    1    1    2    0    0 -0.34302707304E+01  0.74099346241E+00 -0.14010668656E+03  0.14015063128E+03  0.00000000000E+00 0.  1.
        -15    1    1    2    0    0  0.23647318030E+01  0.30504187189E+01 -0.22382072630E+01  0.48025317920E+01  0.17770000000E+01 0. -1.
         15    1    1    2    0    0  0.13314801626E+01 -0.79665464807E+00 -0.38802674485E+02  0.38874320242E+02  0.17770000000E+01 0.  1.
</event>
<event>
 6    1  0.1378789E-002  0.1859027E+03  0.7546771E-02  0.1065778E+00
        -11   -1    0    0    0    0  0.00000000000E+00  0.00000000000E+00  0.18250000000E+03  0.18250000000E+03  0.00000000000E+00 0. -1.
         11   -1    0    0    0    0 -0.00000000000E+00 -0.00000000000E+00 -0.18250000000E+03  0.18250000000E+03  0.00000000000E+00 0.  1.
        -11    1    1    2    0    0  0.21746047163E+01 -0.19137881421E+01  0.17907385913E+03  0.17909728784E+03  0.00000000000E+00 0. -1.
         11    1    1    2    0    0  0.20902514551E+01 -0.63514350547E+01 -0.17036497121E+03  0.17049613865E+03  0.00000000000E+00 0.  1.
        -15    1    1    2    0    0 -0.28630027115E+01  0.30368737967E+00  0.11752367433E-01  0.33833234650E+01  0.17770000000E+01 0. -1.
         15    1    1    2    0    0 -0.14018534599E+01  0.79615358171E+01 -0.87206402845E+01  0.12023250046E+02  0.17770000000E+01 0.  1.
</event>
<event>
 6    1  0.4682081E-002  0.1916411E+03  0.7546771E-02  0.1061403E+00
        -11   -1    0    0    0    0  0.00000000000E+00  0.00000000000E+00  0.18250000000E+03  0.18250000000E+03  0.00000000000E+00 0.  1.
         11   -1    0    0    0    0 -0.00000000000E+00 -0.00000000000E+00 -0.18250000000E+03  0.18250000000E+03  0.00000000000E+00 0.  1.
        -11    1    1    2    0    0  0.17822757121E+01  0.15804430909E+01  0.17334249870E+03  0.17335886526E+03  0.00000000000E+00 0.  1.
         11    1    1    2    0    0  0.50960221206E+01  0.12124483097E+01 -0.34223048845E+02  0.34621619613E+02  0.00000000000E+00 0.  1.
        -15    1    1    2    0    0 -0.60963178487E+01  0.56604920047E+00 -0.14757696868E+03  0.14771460630E+03  0.17770000000E+01 0.  1.
         15    1    1    2    0    0 -0.78197998404E+00 -0.33589406011E+01  0.84575188212E+01  0.93049088264E+01  0.17770000000E+01 0. -1.
</event>
<event>
 6    1  0.1378789E-002  0.1849271E+03  0.7546771E-02  0.1066539E+00
        -11   -1    0    0    0    0  0.00000000000E+00  0.00000000000E+00  0.18250000000E+03  0.18250000000E+03  0.00000000000E+00 0. -1.
         11   -1    0    0    0    0 -0.00000000000E+00 -0.00000000000E+00 -0.18250000000E+03  0.18250000000E+03  0.00000000000E+00 0.  1.
        -11    1    1    2    0    0  0.32626950940E+01 -0.25420454949E+01  0.18002541382E+03  0.18007292077E+03  0.00000000000E+00 0. -1.
         11    1    1    2    0    0  0.21861298536E+01  0.14223614763E+01 -0.17211480249E+03  0.17213456222E+03  0.00000000000E+00 0.  1.
        -15    1    1    2    0    0  0.40859683143E+00  0.25407830241E+01 -0.65708027990E+00  0.31956240768E+01  0.17770000000E+01 0.  1.
         15    1    1    2    0    0 -0.58574217790E+01 -0.14210990054E+01 -0.72535310504E+01  0.95968929336E+01  0.17770000000E+01 0. -1.
</event>
<event>
 6    1  0.1378789E-002  0.1828737E+03  0.7546771E-02  0.1068158E+00
        -11   -1    0    0    0    0  0.00000000000E+00  0.00000000000E+00  0.18250000000E+03  0.18250000000E+03  0.00000000000E+00 0. -1.
         11   -1    0    0    0    0 -0.00000000000E+00 -0.00000000000E+00 -0.18250000000E+03  0.18250000000E+03  0.00000000000E+00 0. -1.
        -11    1    1    2    0    0  0.15012705829E+01  0.13324063711E+01  0.12972082554E+03  0.12973635458E+03  0.00000000000E+00 0. -1.
         11    1    1    2    0    0 -0.46186648121E+01 -0.21470961192E+00 -0.18206761323E+03  0.18212631318E+03  0.00000000000E+00 0. -1.
        -15    1    1    2    0    0  0.43847128409E+01  0.19919928051E+01  0.24453618391E+02  0.24986614886E+02  0.17770000000E+01 0.  1.
         15    1    1    2    0    0 -0.12673186117E+01 -0.31096895643E+01  0.27893169292E+02  0.28150717359E+02  0.17770000000E+01 0. -1.
</event>
<event>
 6    1  0.1378789E-002  0.1829292E+03  0.7546771E-02  0.1068114E+00
        -11   -1    0    0    0    0  0.00000000000E+00  0.00000000000E+00  0.18250000000E+03  0.18250000000E+03  0.00000000000E+00 0. -1.
         11   -1    0    0    0    0 -0.00000000000E+00 -0.00000000000E+00 -0.18250000000E+03  0.18250000000E+03  0.00000000000E+00 0.  1.
        -11    1    1    2    0    0  0.35195494208E+00  0.28273667760E+01  0.73308354782E+02  0.73363701897E+02  0.00000000000E+00 0. -1.
         11    1    1    2    0    0  0.39544247960E+01  0.58911244997E+01 -0.18193247856E+03  0.18207078178E+03  0.00000000000E+00 0.  1.
        -15    1    1    2    0    0 -0.19014827061E+01 -0.87598880037E+01  0.10039177745E+03  0.10080683500E+03  0.17770000000E+01 0. -1.
         15    1    1    2    0    0 -0.24048970319E+01  0.41396727953E-01  0.82323463326E+01  0.87586813256E+01  0.17770000000E+01 0.  1.
</event>
<event>
 6    1  0.1378789E-002  0.1833119E+03  0.7546771E-02  0.1067810E+00
        -11   -1    0    0    0    0  0.00000000000E+00  0.00000000000E+00  0.18250000000E+03  0.18250000000E+03  0.00000000000E+00 0.  1.
         11   -1    0    0    0    0 -0.00000000000E+00 -0.00000000000E+00 -0.18250000000E+03  0.18250000000E+03  0.00000000000E+00 0. -1.
        -11    1    1    2    0    0 -0.25327140077E+01 -0.72758633541E+01  0.88084092322E+02  0.88420360483E+02  0.00000000000E+00 0.  1.
         11    1    1    2    0    0 -0.21830974532E+01  0.17623779509E+01 -0.18166648045E+03  0.18168814493E+03  0.00000000000E+00 0. -1.
        -15    1    1    2    0    0  0.27687938457E+01  0.51446392787E+01  0.90926694932E+02  0.91131526449E+02  0.17770000000E+01 0.  1.
         15    1    1    2    0    0  0.19470176153E+01  0.36884612453E+00  0.26556931927E+01  0.37599681370E+01  0.17770000000E+01 0. -1.
</event>
<event>
 6    1  0.1378789E-002  0.1739760E+03  0.7546771E-02  0.1075450E+00
        -11   -1    0    0    0    0  0.00000000000E+00  0.00000000000E+00  0.18250000000E+03  0.18250000000E+03  0.00000000000E+00 0.  1.
         11   -1    0    0    0    0 -0.00000000000E+00 -0.00000000000E+00 -0.18250000000E+03  0.18250000000E+03  0.00000000000E+00 0. -1.
        -11    1    1    2    0    0  0.88778641195E+01 -0.15709343928E+01  0.17616115182E+03  0.17639171102E+03  0.00000000000E+00 0.  1.
         11    1    1    2    0    0  0.34298723856E+01  0.22611382880E+01 -0.17175724421E+03  0.17180636690E+03  0.00000000000E+00 0. -1.
        -15    1    1    2    0    0 -0.12668893076E+02  0.12539235554E+01 -0.54275751294E+01  0.13953117101E+02  0.17770000000E+01 0.  1.
         15    1    1    2    0    0  0.36115657055E+00 -0.19441274506E+01  0.10236675163E+01  0.28488049769E+01  0.17770000000E+01 0.  1.
</event>
<event>
 6    1  0.1378789E-002  0.1835889E+03  0.7546771E-02  0.1067591E+00
        -11   -1    0    0    0    0  0.00000000000E+00  0.00000000000E+00  0.18250000000E+03  0.18250000000E+03  0.00000000000E+00 0. -1.
         11   -1    0    0    0    0 -0.00000000000E+00 -0.00000000000E+00 -0.18250000000E+03  0.18250000000E+03  0.00000000000E+00 0. -1.
        -11    1    1    2    0    0 -0.51595703090E+00  0.32158141540E+01  0.16671043046E+03  0.16674224209E+03  0.00000000000E+00 0. -1.
         11    1    1    2    0    0  0.27925183796E+00 -0.34347323446E+01 -0.18137833003E+03  0.18141106353E+03  0.00000000000E+00 0. -1.
        -15    1    1    2    0    0 -0.12369373793E+01 -0.31765272753E+01  0.94857201457E+01  0.10235084528E+02  0.17770000000E+01 0.  1.
         15    1    1    2    0    0  0.14736425723E+01  0.33954454659E+01  0.51821794180E+01  0.66116098541E+01  0.17770000000E+01 0. -1.
</event>
<event>
 6    1  0.1378789E-002  0.1829061E+03  0.7546771E-02  0.1068132E+00
        -11   -1    0    0    0    0  0.00000000000E+00  0.00000000000E+00  0.18250000000E+03  0.18250000000E+03  0.00000000000E+00 0.  1.
         11   -1    0    0    0    0 -0.00000000000E+00 -0.00000000000E+00 -0.18250000000E+03  0.18250000000E+03  0.00000000000E+00 0. -1.
        -11    1    1    2    0    0 -0.19358349819E+01  0.42565857919E+01  0.18203388237E+03  0.18209393266E+03  0.00000000000E+00 0.  1.
         11    1    1    2    0    0 -0.15742697236E+01  0.38677992032E+00 -0.11645772872E+03  0.11646901091E+03  0.00000000000E+00 0. -1.
        -15    1    1    2    0    0  0.53977840718E+01 -0.10905217397E+01 -0.46599884828E+02  0.46957771514E+02  0.17770000000E+01 0.  1.
         15    1    1    2    0    0 -0.18876793664E+01 -0.35528439725E+01 -0.18976268824E+02  0.19479284924E+02  0.17770000000E+01 0. -1.
</event>
<event>
 6    1  0.1378789E-002  0.1930404E+03  0.7546771E-02  0.1060361E+00
        -11   -1    0    0    0    0  0.00000000000E+00  0.00000000000E+00  0.18250000000E+03  0.18250000000E+03  0.00000000000E+00 0. -1.
         11   -1    0    0    0    0 -0.00000000000E+00 -0.00000000000E+00 -0.18250000000E+03  0.18250000000E+03  0.00000000000E+00 0. -1.
        -11    1    1    2    0    0 -0.95548002717E+00 -0.41213168852E+01  0.17190755739E+03  0.17195960712E+03  0.00000000000E+00 0. -1.
         11    1    1    2    0    0 -0.25576489064E+01 -0.23265551378E+01 -0.15863311873E+03  0.15867079374E+03  0.00000000000E+00 0. -1.
        -15    1    1    2    0    0 -0.43835780646E+01  0.16304936033E+02 -0.15546618965E+01  0.17048208067E+02  0.17770000000E+01 0.  1.
         15    1    1    2    0    0  0.78967069982E+01 -0.98570640099E+01 -0.11719776758E+02  0.17321391069E+02  0.17770000000E+01 0. -1.
</event>
<event>
 6    1  0.1378789E-002  0.1833462E+03  0.7546771E-02  0.1067783E+00
        -11   -1    0    0    0    0  0.00000000000E+00  0.00000000000E+00  0.18250000000E+03  0.18250000000E+03  0.00000000000E+00 0. -1.
         11   -1    0    0    0    0 -0.00000000000E+00 -0.00000000000E+00 -0.18250000000E+03  0.18250000000E+03  0.00000000000E+00 0. -1.
        -11    1    1    2    0    0 -0.48247135626E+01  0.93028888492E+00  0.18158734288E+03  0.18165380918E+03  0.00000000000E+00 0. -1.
         11    1    1    2    0    0  0.70262476427E+01 -0.78831001433E+01 -0.10215451606E+03  0.10269886355E+03  0.00000000000E+00 0. -1.
        -15    1    1    2    0    0 -0.60099373163E+01  0.58642405797E+00 -0.38095196694E+02  0.38611720758E+02  0.17770000000E+01 0. -1.
         15    1    1    2    0    0  0.38084032361E+01  0.63663872004E+01 -0.41337630120E+02  0.42035606503E+02  0.17770000000E+01 0. -1.
</event>
<event>
 6    1  0.1378789E-002  0.1844861E+03  0.7546771E-02  0.1066885E+00
        -11   -1    0    0    0    0  0.00000000000E+00  0.00000000000E+00  0.18250000000E+03  0.18250000000E+03  0.00000000000E+00 0. -1.
         11   -1    0    0    0    0 -0.00000000000E+00 -0.00000000000E+00 -0.18250000000E+03  0.18250000000E+03  0.00000000000E+00 0.  1.
        -11    1    1    2    0    0 -0.20235261729E+01  0.35015427805E+01  0.45564450350E+02  0.45743574365E+02  0.00000000000E+00 0. -1.
         11    1    1    2    0    0 -0.21913814286E+01  0.13745475280E+01 -0.18049539765E+03  0.18051393327E+03  0.00000000000E+00 0.  1.
        -15    1    1    2    0    0 -0.17750883471E+01 -0.16939035937E+01 -0.55100661965E+00  0.30792182968E+01  0.17770000000E+01 0.  1.
         15    1    1    2    0    0  0.59899959485E+01 -0.31821867148E+01  0.13548195392E+03  0.13566327407E+03  0.17770000000E+01 0. -1.
</event>
<event>
 6    1  0.1378789E-002  0.1906894E+03  0.7546771E-02  0.1062117E+00
        -11   -1    0    0    0    0  0.00000000000E+00  0.00000000000E+00  0.18250000000E+03  0.18250000000E+03  0.00000000000E+00 0.  1.
         11   -1    0    0    0    0 -0.00000000000E+00 -0.00000000000E+00 -0.18250000000E+03  0.18250000000E+03  0.00000000000E+00 0. -1.
        -11    1    1    2    0    0  0.75950402312E+01 -0.10165189924E+02  0.17384816011E+03  0.17431063793E+03  0.00000000000E+00 0.  1.
         11    1    1    2    0    0  0.17992597494E+02  0.32282014788E+01 -0.13995832660E+03  0.14114704401E+03  0.00000000000E+00 0. -1.
        -15    1    1    2    0    0 -0.95957564220E+01  0.17289756322E+01 -0.30793407351E+02  0.32349027239E+02  0.17770000000E+01 0. -1.
         15    1    1    2    0    0 -0.15991881303E+02  0.52080128131E+01 -0.30964261602E+01  0.17193290815E+02  0.17770000000E+01 0.  1.
</event>
<event>
 6    1  0.1378789E-002  0.1838351E+03  0.7546771E-02  0.1067397E+00
        -11   -1    0    0    0    0  0.00000000000E+00  0.00000000000E+00  0.18250000000E+03  0.18250000000E+03  0.00000000000E+00 0.  1.
         11   -1    0    0    0    0 -0.00000000000E+00 -0.00000000000E+00 -0.18250000000E+03  0.18250000000E+03  0.00000000000E+00 0. -1.
        -11    1    1    2    0    0 -0.32055879586E+01  0.97191768727E-01  0.17271223307E+03  0.17274200616E+03  0.00000000000E+00 0.  1.
         11    1    1    2    0    0  0.25003092832E+01 -0.66907938784E+00 -0.18114645080E+03  0.18116494101E+03  0.00000000000E+00 0. -1.
        -15    1    1    2    0    0  0.16858502403E+01 -0.12533660954E+01  0.62647207974E+00  0.28219167012E+01  0.17770000000E+01 0. -1.
         15    1    1    2    0    0 -0.98057156490E+00  0.18252537146E+01  0.78077456511E+01  0.82711361292E+01  0.17770000000E+01 0.  1.
</event>
<event>
 6    1  0.1378789E-002  0.1834534E+03  0.7546771E-02  0.1067698E+00
        -11   -1    0    0    0    0  0.00000000000E+00  0.00000000000E+00  0.18250000000E+03  0.18250000000E+03  0.00000000000E+00 0.  1.
         11   -1    0    0    0    0 -0.00000000000E+00 -0.00000000000E+00 -0.18250000000E+03  0.18250000000E+03  0.00000000000E+00 0. -1.
        -11    1    1    2    0    0 -0.28613398566E+01 -0.14358259029E+01  0.18151832438E+03  0.18154655311E+03  0.00000000000E+00 0.  1.
         11    1    1    2    0    0 -0.17621605272E+01 -0.33555062812E+01 -0.14047904252E+03  0.14053016053E+03  0.00000000000E+00 0. -1.
        -15    1    1    2    0    0  0.26257739386E+01  0.57166021116E+01 -0.11337445313E+02  0.13087002090E+02  0.17770000000E+01 0.  1.
         15    1    1    2    0    0  0.19977264452E+01 -0.92526992744E+00 -0.29701836546E+02  0.29836284262E+02  0.17770000000E+01 0. -1.
</event>
<event>
 6    1  0.1378789E-002  0.1827955E+03  0.7546771E-02  0.1068220E+00
        -11   -1    0    0    0    0  0.00000000000E+00  0.00000000000E+00  0.18250000000E+03  0.18250000000E+03  0.00000000000E+00 0.  1.
         11   -1    0    0    0    0 -0.00000000000E+00 -0.00000000000E+00 -0.18250000000E+03  0.18250000000E+03  0.00000000000E+00 0.  1.
        -11    1    1    2    0    0 -0.11721544463E+01  0.11320601273E+01  0.10571928145E+02  0.10696783203E+02  0.00000000000E+00 0.  1.
         11    1    1    2    0    0  0.73196805403E+01 -0.58566266547E+01 -0.18196318899E+03  0.18220450035E+03  0.00000000000E+00 0.  1.
        -15    1    1    2    0    0 -0.30236839040E+01  0.52036150856E+00  0.14872967221E+03  0.14877192801E+03  0.17770000000E+01 0.  1.
         15    1    1    2    0    0 -0.31238421899E+01  0.42042050189E+01  0.22661588640E+02  0.23326788432E+02  0.17770000000E+01 0. -1.
</event>
<event>
 6    1  0.1378789E-002  0.1830799E+03  0.7546771E-02  0.1067994E+00
        -11   -1    0    0    0    0  0.00000000000E+00  0.00000000000E+00  0.18250000000E+03  0.18250000000E+03  0.00000000000E+00 0.  1.
         11   -1    0    0    0    0 -0.00000000000E+00 -0.00000000000E+00 -0.18250000000E+03  0.18250000000E+03  0.00000000000E+00 0. -1.
        -11    1    1    2    0    0 -0.69436805397E+00  0.15287026482E+01  0.84445915225E+02  0.84462605199E+02  0.00000000000E+00 0.  1.
         11    1    1    2    0    0  0.23650491705E+01 -0.10675216610E+01 -0.18190162733E+03  0.18192013381E+03  0.00000000000E+00 0. -1.
        -15    1    1    2    0    0  0.11394852467E+01 -0.26381106335E+01  0.90817719232E+02  0.90880547478E+02  0.17770000000E+01 0.  1.
         15    1    1    2    0    0 -0.28101663632E+01  0.21769296463E+01  0.66379928711E+01  0.77367135161E+01  0.17770000000E+01 0.  1.
</event>
<event>
 6    1  0.1378789E-002  0.1783925E+03  0.7546771E-02  0.1071772E+00
        -11   -1    0    0    0    0  0.00000000000E+00  0.00000000000E+00  0.18250000000E+03  0.18250000000E+03  0.00000000000E+00 0.  1.
         11   -1    0    0    0    0 -0.00000000000E+00 -0.00000000000E+00 -0.18250000000E+03  0.18250000000E+03  0.00000000000E+00 0.  1.
        -11    1    1    2    0    0  0.15235430455E+01 -0.25506046037E+01  0.17790674022E+03  0.17793154578E+03  0.00000000000E+00 0.  1.
         11    1    1    2    0    0 -0.29690362370E+01 -0.45917236680E+00 -0.17884515965E+03  0.17887039203E+03  0.00000000000E+00 0.  1.
        -15    1    1    2    0    0  0.23237512483E+01  0.40024967921E+01  0.24350155738E+01  0.55232988584E+01  0.17770000000E+01 0.  1.
         15    1    1    2    0    0 -0.87825805682E+00 -0.99271982159E+00 -0.14965961480E+01  0.26747633332E+01  0.17770000000E+01 0. -1.
</event>
<event>
 6    1  0.1378789E-002  0.1915513E+03  0.7546771E-02  0.1061470E+00
        -11   -1    0    0    0    0  0.00000000000E+00  0.00000000000E+00  0.18250000000E+03  0.18250000000E+03  0.00000000000E+00 0.  1.
         11   -1    0    0    0    0 -0.00000000000E+00 -0.00000000000E+00 -0.18250000000E+03  0.18250000000E+03  0.00000000000E+00 0.  1.
        -11    1    1    2    0    0  0.16548953235E+01 -0.22196572357E+01  0.16491288953E+03  0.16493612912E+03  0.00000000000E+00 0.  1.
         11    1    1    2    0    0 -0.27969028847E+01  0.62055613226E+01 -0.17331509941E+03  0.17344871098E+03  0.00000000000E+00 0.  1.
        -15    1    1    2    0    0  0.90346023330E+00 -0.17995354750E+01 -0.87904547684E+01  0.91915391722E+01  0.17770000000E+01 0.  1.
         15    1    1    2    0    0  0.23854732785E+00 -0.21863686119E+01  0.17192664646E+02  0.17423620725E+02  0.17770000000E+01 0.  1.
</event>
<event>
 6    1  0.1378789E-002  0.1843210E+03  0.7546771E-02  0.1067014E+00
        -11   -1    0    0    0    0  0.00000000000E+00  0.00000000000E+00  0.18250000000E+03  0.18250000000E+03  0.00000000000E+00 0. -1.
         11   -1    0    0    0    0 -0.00000000000E+00 -0.00000000000E+00 -0.18250000000E+03  0.18250000000E+03  0.00000000000E+00 0. -1.
        -11    1    1    2    0    0 -0.21866117001E+01  0.19101152686E+01  0.16292935700E+03  0.16295522448E+03  0.00000000000E+00 0. -1.
         11    1    1    2    0    0  0.74839952558E+00  0.40375442690E+01 -0.18063230417E+03  0.18067897269E+03  0.00000000000E+00 0. -1.
        -15    1    1    2    0    0  0.34764460650E+01 -0.14168845151E+01  0.14740912619E+02  0.15314877499E+02  0.17770000000E+01 0. -1.
         15    1    1    2    0    0 -0.20382338905E+01 -0.45307750225E+01  0.29620345443E+01  0.60509253291E+01  0.17770000000E+01 0. -1.
</event>
<event>
 6    1  0.1378789E-002  0.1787224E+03  0.7546771E-02  0.1071502E+00
        -11   -1    0    0    0    0  0.00000000000E+00  0.00000000000E+00  0.18250000000E+03  0.18250000000E+03  0.00000000000E+00 0. -1.
         11   -1    0    0    0    0 -0.00000000000E+00 -0.00000000000E+00 -0.18250000000E+03  0.18250000000E+03  0.00000000000E+00 0. -1.
        -11    1    1    2    0    0  0.86586235156E+00  0.34904234289E+01  0.17998653399E+03  0.18002245746E+03  0.00000000000E+00 0. -1.
         11    1    1    2    0    0 -0.15000466140E+01  0.19565719892E+01 -0.17745622267E+03  0.17747334808E+03  0.00000000000E+00 0. -1.
        -15    1    1    2    0    0 -0.51536367336E+00 -0.25666155103E+01 -0.23205031224E+01  0.39237199995E+01  0.17770000000E+01 0.  1.
         15    1    1    2    0    0  0.11495479358E+01 -0.28803799078E+01 -0.20980819993E+00  0.35804744589E+01  0.17770000000E+01 0. -1.
</event>
<event>
 6    1  0.1378789E-002  0.1890429E+03  0.7546771E-02  0.1063363E+00
        -11   -1    0    0    0    0  0.00000000000E+00  0.00000000000E+00  0.18250000000E+03  0.18250000000E+03  0.00000000000E+00 0.  1.
         11   -1    0    0    0    0 -0.00000000000E+00 -0.00000000000E+00 -0.18250000000E+03  0.18250000000E+03  0.00000000000E+00 0.  1.
        -11    1    1    2    0    0 -0.82461961828E+01 -0.70842826996E+01  0.14868214688E+03  0.14907906497E+03  0.00000000000E+00 0.  1.
         11    1    1    2    0    0 -0.72295909446E+01 -0.44854259321E+01 -0.17575130029E+03  0.17595711292E+03  0.00000000000E+00 0.  1.
        -15    1    1    2    0    0  0.81105112979E+01  0.31307818959E+01  0.27211564482E+02  0.28621830119E+02  0.17770000000E+01 0.  1.
         15    1    1    2    0    0  0.73652758296E+01  0.84389267359E+01 -0.14241106491E+00  0.11341991995E+02  0.17770000000E+01 0. -1.
</event>
<event>
 6    1  0.1378789E-002  0.1899776E+03  0.7546771E-02  0.1062654E+00
        -11   -1    0    0    0    0  0.00000000000E+00  0.00000000000E+00  0.18250000000E+03  0.18250000000E+03  0.00000000000E+00 0. -1.
         11   -1    0    0    0    0 -0.00000000000E+00 -0.00000000000E+00 -0.18250000000E+03  0.18250000000E+03  0.00000000000E+00 0. -1.
        -11    1    1    2    0    0  0.13088300837E+01 -0.95065535921E+01  0.16296814203E+03  0.16325043005E+03  0.00000000000E+00 0. -1.
         11    1    1    2    0    0  0.32855614322E+01  0.27250053334E+01 -0.17497035417E+03  0.17502241402E+03  0.00000000000E+00 0. -1.
        -15    1    1    2    0    0 -0.11088479031E+02 -0.18636675997E+01  0.13815131114E+01  0.11467080344E+02  0.17770000000E+01 0. -1.
         15    1    1    2    0    0  0.64940875149E+01  0.86452158584E+01  0.10620699035E+02  0.15260075586E+02  0.17770000000E+01 0.  1.
</event>
<event>
 6    1  0.1378789E-002  0.1917249E+03  0.7546771E-02  0.1061340E+00
        -11   -1    0    0    0    0  0.00000000000E+00  0.00000000000E+00  0.18250000000E+03  0.18250000000E+03  0.00000000000E+00 0.  1.
         11   -1    0    0    0    0 -0.00000000000E+00 -0.00000000000E+00 -0.18250000000E+03  0.18250000000E+03  0.00000000000E+00 0.  1.
        -11    1    1    2    0    0  0.11926066351E+02 -0.92774523185E+01  0.16054122008E+03  0.16125069155E+03  0.00000000000E+00 0.  1.
         11    1    1    2    0    0  0.49887152823E+01  0.57049825402E+01 -0.17310931926E+03  0.17327512955E+03  0.00000000000E+00 0.  1.
        -15    1    1    2    0    0 -0.26492219423E+01 -0.46493735880E+01 -0.41046642723E+01  0.69743135467E+01  0.17770000000E+01 0. -1.
         15    1    1    2    0    0 -0.14265559691E+02  0.82218433662E+01  0.16672763455E+02  0.23499865359E+02  0.17770000000E+01 0.  1.
</event>
<event>
 6    1  0.1378789E-002  0.1830059E+03  0.7546771E-02  0.1068053E+00
        -11   -1    0    0    0    0  0.00000000000E+00  0.00000000000E+00  0.18250000000E+03  0.18250000000E+03  0.00000000000E+00 0.  1.
         11   -1    0    0    0    0 -0.00000000000E+00 -0.00000000000E+00 -0.18250000000E+03  0.18250000000E+03  0.00000000000E+00 0.  1.
        -11    1    1    2    0    0 -0.25816557301E+01  0.52211828950E+00  0.12518094985E+03  0.12520865688E+03  0.00000000000E+00 0.  1.
         11    1    1    2    0    0  0.28225562019E+01  0.62894782506E+01 -0.18186351364E+03  0.18199412615E+03  0.00000000000E+00 0.  1.
        -15    1    1    2    0    0 -0.36729980522E+01 -0.24283534254E+01  0.35760701500E+02  0.36074552192E+02  0.17770000000E+01 0. -1.
         15    1    1    2    0    0  0.34320975804E+01 -0.43832431147E+01  0.20921862295E+02  0.21722664774E+02  0.17770000000E+01 0.  1.
</event>
<event>
 6    1  0.1378789E-002  0.1830613E+03  0.7546771E-02  0.1068009E+00
        -11   -1    0    0    0    0  0.00000000000E+00  0.00000000000E+00  0.18250000000E+03  0.18250000000E+03  0.00000000000E+00 0. -1.
         11   -1    0    0    0    0 -0.00000000000E+00 -0.00000000000E+00 -0.18250000000E+03  0.18250000000E+03  0.00000000000E+00 0. -1.
        -11    1    1    2    0    0  0.32231512314E+01 -0.97348627003E+00  0.16387884974E+03  0.16391343378E+03  0.00000000000E+00 0. -1.
         11    1    1    2    0    0 -0.21718937712E+01 -0.17791402710E+01 -0.18191707785E+03  0.18193874155E+03  0.00000000000E+00 0. -1.
        -15    1    1    2    0    0  0.57291765996E+00  0.43118873180E+00  0.20203870443E+01  0.27845737872E+01  0.17770000000E+01 0. -1.
         15    1    1    2    0    0 -0.16241751202E+01  0.23214378092E+01  0.16017841064E+02  0.16363250889E+02  0.17770000000E+01 0.  1.
</event>
<event>
 6    1  0.1378789E-002  0.1811904E+03  0.7546771E-02  0.1069502E+00
        -11   -1    0    0    0    0  0.00000000000E+00  0.00000000000E+00  0.18250000000E+03  0.18250000000E+03  0.00000000000E+00 0. -1.
         11   -1    0    0    0    0 -0.00000000000E+00 -0.00000000000E+00 -0.18250000000E+03  0.18250000000E+03  0.00000000000E+00 0.  1.
        -11    1    1    2    0    0  0.84620917735E+00 -0.32082238861E+00  0.82337563275E+01  0.82833411276E+01  0.00000000000E+00 0. -1.
         11    1    1    2    0    0  0.11353450094E+02 -0.83470515795E-01 -0.17913104262E+03  0.17949049620E+03  0.00000000000E+00 0.  1.
        -15    1    1    2    0    0 -0.14116715611E+02 -0.71067653033E+00  0.12946578599E+02  0.19249892134E+02  0.17770000000E+01 0. -1.
         15    1    1    2    0    0  0.19170563389E+01  0.11149694347E+01  0.15795070770E+03  0.15797627054E+03  0.17770000000E+01 0. -1.
</event>
<event>
 6    1  0.1378789E-002  0.1882115E+03  0.7546771E-02  0.1063997E+00
        -11   -1    0    0    0    0  0.00000000000E+00  0.00000000000E+00  0.18250000000E+03  0.18250000000E+03  0.00000000000E+00 0.  1.
         11   -1    0    0    0    0 -0.00000000000E+00 -0.00000000000E+00 -0.18250000000E+03  0.18250000000E+03  0.00000000000E+00 0. -1.
        -11    1    1    2    0    0  0.26297996441E+01  0.14901551568E+01  0.17315217208E+03  0.17317855267E+03  0.00000000000E+00 0.  1.
         11    1    1    2    0    0  0.27929501500E+01 -0.11857055853E+01 -0.17676248811E+03  0.17678852811E+03  0.00000000000E+00 0. -1.
        -15    1    1    2    0    0 -0.82676120440E+00 -0.16802291641E+01  0.79284518086E+01  0.83381521463E+01  0.17770000000E+01 0. -1.
         15    1    1    2    0    0 -0.45959885897E+01  0.13757795926E+01 -0.43181357741E+01  0.66947670734E+01  0.17770000000E+01 0.  1.
</event>
<event>
 6    1  0.1378789E-002  0.1775601E+03  0.7546771E-02  0.1072456E+00
        -11   -1    0    0    0    0  0.00000000000E+00  0.00000000000E+00  0.18250000000E+03  0.18250000000E+03  0.00000000000E+00 0.  1.
         11   -1    0    0    0    0 -0.00000000000E+00 -0.00000000000E+00 -0.18250000000E+03  0.18250000000E+03  0.00000000000E+00 0. -1.
        -11    1    1    2    0    0 -0.23463213899E+01 -0.22410178284E+01  0.17722265581E+03  0.17725235434E+03  0.00000000000E+00 0.  1.
         11    1    1    2    0    0  0.16715275600E+01 -0.22558774789E+01 -0.17787545363E+03  0.17789761098E+03  0.00000000000E+00 0. -1.
        -15    1    1    2    0    0 -0.17525997587E+01  0.51790277858E+01 -0.16721604684E+01  0.59873019260E+01  0.17770000000E+01 0. -1.
         15    1    1    2    0    0  0.24273935886E+01 -0.68213247855E+00  0.23249582832E+01  0.38627327594E+01  0.17770000000E+01 0. -1.
</event>
<event>
 6    1  0.1378789E-002  0.1851110E+03  0.7546771E-02  0.1066395E+00
        -11   -1    0    0    0    0  0.00000000000E+00  0.00000000000E+00  0.18250000000E+03  0.18250000000E+03  0.00000000000E+00 0.  1.
         11   -1    0    0    0    0 -0.00000000000E+00 -0.00000000000E+00 -0.18250000000E+03  0.18250000000E+03  0.00000000000E+00 0.  1.
        -11    1    1    2    0    0  0.15332598959E+01  0.50768199707E+01  0.16599387938E+03  0.16607857472E+03  0.00000000000E+00 0.  1.
         11    1    1    2    0    0 -0.38311200705E+00  0.36109626238E+01 -0.17985231892E+03  0.17988897256E+03  0.00000000000E+00 0.  1.
        -15    1    1    2    0    0 -0.16847654312E+01 -0.41619457995E+01  0.55792981867E+00  0.48609918822E+01  0.17770000000E+01 0.  1.
         15    1    1    2    0    0  0.53461754243E+00 -0.45258367949E+01  0.13300509720E+02  0.14171460843E+02  0.17770000000E+01 0.  1.
</event>
<event>
 6    1  0.1378789E-002  0.1835503E+03  0.7546771E-02  0.1067622E+00
        -11   -1    0    0    0    0  0.00000000000E+00  0.00000000000E+00  0.18250000000E+03  0.18250000000E+03  0.00000000000E+00 0. -1.
         11   -1    0    0    0    0 -0.00000000000E+00 -0.00000000000E+00 -0.18250000000E+03  0.18250000000E+03  0.00000000000E+00 0. -1.
        -11    1    1    2    0    0  0.38518771347E+01 -0.12108298600E+01  0.18140481564E+03  0.18144974567E+03  0.00000000000E+00 0. -1.
         11    1    1    2    0    0 -0.56573383877E+01  0.10662648197E+01 -0.15509093819E+03  0.15519774969E+03  0.00000000000E+00 0. -1.
        -15    1    1    2    0    0 -0.14272106261E+01  0.67112990870E+00 -0.71122117904E+00  0.24801028388E+01  0.17770000000E+01 0. -1.
         15    1    1    2    0    0  0.32326718791E+01 -0.52656486840E+00 -0.25602656270E+02  0.25872401804E+02  0.17770000000E+01 0.  1.
</event>
<event>
 6    1  0.1378789E-002  0.1859149E+03  0.7546771E-02  0.1065769E+00
        -11   -1    0    0    0    0  0.00000000000E+00  0.00000000000E+00  0.18250000000E+03  0.18250000000E+03  0.00000000000E+00 0.  1.
         11   -1    0    0    0    0 -0.00000000000E+00 -0.00000000000E+00 -0.18250000000E+03  0.18250000000E+03  0.00000000000E+00 0. -1.
        -11    1    1    2    0    0  0.12922775900E+00 -0.40328165249E+01  0.17903968727E+03  0.17908514714E+03  0.00000000000E+00 0.  1.
         11    1    1    2    0    0  0.61682090725E+00  0.27248468195E+01 -0.13000823138E+03  0.13003824624E+03  0.00000000000E+00 0. -1.
        -15    1    1    2    0    0  0.33836924722E+01 -0.42561061731E+01 -0.48354000012E+02  0.48691178468E+02  0.17770000000E+01 0.  1.
         15    1    1    2    0    0 -0.41297411384E+01  0.55640758784E+01 -0.67745587535E+00  0.71854281511E+01  0.17770000000E+01 0.  1.
</event>
<event>
 6    1  0.1378789E-002  0.1871457E+03  0.7546771E-02  0.1064816E+00
        -11   -1    0    0    0    0  0.00000000000E+00  0.00000000000E+00  0.18250000000E+03  0.18250000000E+03  0.00000000000E+00 0.  1.
         11   -1    0    0    0    0 -0.00000000000E+00 -0.00000000000E+00 -0.18250000000E+03  0.18250000000E+03  0.00000000000E+00 0.  1.
        -11    1    1    2    0    0 -0.28628932649E+00  0.15209695629E+02  0.17720257607E+03  0.17785434987E+03  0.00000000000E+00 0.  1.
         11    1    1    2    0    0  0.17841034571E+01  0.88477186860E+00 -0.14599520445E+03  0.14600878593E+03  0.00000000000E+00 0.  1.
        -15    1    1    2    0    0 -0.43524422875E+00 -0.19510546415E+02 -0.15660584191E+02  0.25085104847E+02  0.17770000000E+01 0.  1.
         15    1    1    2    0    0 -0.10625699019E+01  0.34160789179E+01 -0.15546787423E+02  0.16051759347E+02  0.17770000000E+01 0. -1.
</event>
<event>
 6    1  0.1378789E-002  0.1836044E+03  0.7546771E-02  0.1067579E+00
        -11   -1    0    0    0    0  0.00000000000E+00  0.00000000000E+00  0.18250000000E+03  0.18250000000E+03  0.00000000000E+00 0. -1.
         11   -1    0    0    0    0 -0.00000000000E+00 -0.00000000000E+00 -0.18250000000E+03  0.18250000000E+03  0.00000000000E+00 0. -1.
        -11    1    1    2    0    0 -0.27520318878E+01  0.17949732168E+01  0.18136581356E+03  0.18139557309E+03  0.00000000000E+00 0. -1.
         11    1    1    2    0    0 -0.29284026626E+01  0.31698935290E+01 -0.15775527784E+03  0.15781429420E+03  0.00000000000E+00 0. -1.
        -15    1    1    2    0    0  0.27305655751E+00 -0.26939865442E+01 -0.35090490212E+01  0.47752777319E+01  0.17770000000E+01 0. -1.
         15    1    1    2    0    0  0.54073779929E+01 -0.22708802016E+01 -0.20101486694E+02  0.21014854983E+02  0.17770000000E+01 0. -1.
</event>
<event>
 6    1  0.1378789E-002  0.1832925E+03  0.7546771E-02  0.1067826E+00
        -11   -1    0    0    0    0  0.00000000000E+00  0.00000000000E+00  0.18250000000E+03  0.18250000000E+03  0.00000000000E+00 0.  1.
         11   -1    0    0    0    0 -0.00000000000E+00 -0.00000000000E+00 -0.18250000000E+03  0.18250000000E+03  0.00000000000E+00 0. -1.
        -11    1    1    2    0    0 -0.92925419758E+00  0.38293554595E+01  0.16720627728E+03  0.16725270294E+03  0.00000000000E+00 0.  1.
         11    1    1    2    0    0 -0.63743441331E+00 -0.23700800199E+01 -0.18169088177E+03  0.18170745752E+03  0.00000000000E+00 0. -1.
        -15    1    1    2    0    0  0.23700067538E+00 -0.22396543839E+01  0.24354539645E+01  0.37631617149E+01  0.17770000000E+01 0. -1.
         15    1    1    2    0    0  0.13296879355E+01  0.78037894432E+00  0.12049150518E+02  0.12276677828E+02  0.17770000000E+01 0.  1.
</event>
<event>
 6    1  0.1378789E-002  0.1831575E+03  0.7546771E-02  0.1067933E+00
        -11   -1    0    0    0    0  0.00000000000E+00  0.00000000000E+00  0.18250000000E+03  0.18250000000E+03  0.00000000000E+00 0.  1.
         11   -1    0    0    0    0 -0.00000000000E+00 -0.00000000000E+00 -0.18250000000E+03  0.18250000000E+03  0.00000000000E+00 0. -1.
        -11    1    1    2    0    0 -0.54816761691E+01  0.56662568894E+00  0.18175902327E+03  0.18184254831E+03  0.00000000000E+00 0.  1.
         11    1    1    2    0    0 -0.49538376968E+00 -0.27128134809E+01 -0.15816769644E+03  0.15819173481E+03  0.00000000000E+00 0. -1.
        -15    1    1    2    0    0  0.22886389912E+01  0.26543408191E+01 -0.94378102861E+01  0.10223178841E+02  0.17770000000E+01 0.  1.
         15    1    1    2    0    0  0.36884209476E+01 -0.50815302714E+00 -0.14153516535E+02  0.14742538041E+02  0.17770000000E+01 0. -1.
</event>
<event>
 6    1  0.1378789E-002  0.2027164E+03  0.7546771E-02  0.1053412E+00
        -11   -1    0    0    0    0  0.00000000000E+00  0.00000000000E+00  0.18250000000E+03  0.18250000000E+03  0.00000000000E+00 0. -1.
         11   -1    0    0    0    0 -0.00000000000E+00 -0.00000000000E+00 -0.18250000000E+03  0.18250000000E+03  0.00000000000E+00 0. -1.
        -11    1    1    2    0    0  0.51499777575E+01 -0.54732443874E+01  0.16210951710E+03  0.16228362274E+03  0.00000000000E+00 0. -1.
         11    1    1    2    0    0  0.18523168304E+01  0.22625903416E+01 -0.12800684781E+03  0.12804024164E+03  0.00000000000E+00 0. -1.
        -15    1    1    2    0    0 -0.17732064413E+02 -0.11704231226E+02  0.12385588887E+02  0.24657162813E+02  0.17770000000E+01 0. -1.
         15    1    1    2    0    0  0.10729769825E+02  0.14914885272E+02 -0.46488258179E+02  0.50018972807E+02  0.17770000000E+01 0.  1.
</event>
<event>
 6    1  0.1378789E-002  0.1831373E+03  0.7546771E-02  0.1067949E+00
        -11   -1    0    0    0    0  0.00000000000E+00  0.00000000000E+00  0.18250000000E+03  0.18250000000E+03  0.00000000000E+00 0.  1.
         11   -1    0    0    0    0 -0.00000000000E+00 -0.00000000000E+00 -0.18250000000E+03  0.18250000000E+03  0.00000000000E+00 0. -1.
        -11    1    1    2    0    0  0.24921302578E+01  0.11661615311E+01  0.18184183627E+03  0.18186265164E+03  0.00000000000E+00 0.  1.
         11    1    1    2    0    0  0.93953511272E+00 -0.19708576032E+01 -0.11167667967E+03  0.11169802052E+03  0.00000000000E+00 0. -1.
        -15    1    1    2    0    0 -0.18462911317E+01 -0.18606107600E+00 -0.20809461471E+01  0.33062781998E+01  0.17770000000E+01 0.  1.
         15    1    1    2    0    0 -0.15853742387E+01  0.99075714809E+00 -0.68084210450E+02  0.68133049637E+02  0.17770000000E+01 0. -1.
</event>
<event>
 6    1  0.1378789E-002  0.1831342E+03  0.7546771E-02  0.1067951E+00
        -11   -1    0    0    0    0  0.00000000000E+00  0.00000000000E+00  0.18250000000E+03  0.18250000000E+03  0.00000000000E+00 0. -1.
         11   -1    0    0    0    0 -0.00000000000E+00 -0.00000000000E+00 -0.18250000000E+03  0.18250000000E+03  0.00000000000E+00 0. -1.
        -11    1    1    2    0    0 -0.71285660369E+00  0.23791335946E+01  0.18184879676E+03  0.18186575632E+03  0.00000000000E+00 0. -1.
         11    1    1    2    0    0 -0.32613743703E+01 -0.41603983061E+01 -0.68440545023E+02  0.68644400208E+02  0.00000000000E+00 0. -1.
        -15    1    1    2    0    0  0.89891719009E+01  0.32477092775E+01 -0.84686428236E+02  0.85242604861E+02  0.17770000000E+01 0. -1.
         15    1    1    2    0    0 -0.50149409268E+01 -0.14664445660E+01 -0.28721823497E+02  0.29247238607E+02  0.17770000000E+01 0.  1.
</event>
<event>
 6    1  0.1378789E-002  0.1828630E+03  0.7546771E-02  0.1068166E+00
        -11   -1    0    0    0    0  0.00000000000E+00  0.00000000000E+00  0.18250000000E+03  0.18250000000E+03  0.00000000000E+00 0. -1.
         11   -1    0    0    0    0 -0.00000000000E+00 -0.00000000000E+00 -0.18250000000E+03  0.18250000000E+03  0.00000000000E+00 0. -1.
        -11    1    1    2    0    0 -0.98349473323E+00 -0.11971489952E+01  0.84294236628E+02  0.84308473811E+02  0.00000000000E+00 0. -1.
         11    1    1    2    0    0 -0.63606010168E+01 -0.50174704415E+01 -0.18195669412E+03  0.18213695614E+03  0.00000000000E+00 0. -1.
        -15    1    1    2    0    0  0.55602790291E+01  0.20272626208E+01  0.79707348093E+02  0.79946516908E+02  0.17770000000E+01 0. -1.
         15    1    1    2    0    0  0.17838167209E+01  0.41873568159E+01  0.17955109401E+02  0.18608053144E+02  0.17770000000E+01 0.  1.
</event>
<event>
 6    1  0.1378789E-002  0.1837612E+03  0.7546771E-02  0.1067455E+00
        -11   -1    0    0    0    0  0.00000000000E+00  0.00000000000E+00  0.18250000000E+03  0.18250000000E+03  0.00000000000E+00 0.  1.
         11   -1    0    0    0    0 -0.00000000000E+00 -0.00000000000E+00 -0.18250000000E+03  0.18250000000E+03  0.00000000000E+00 0. -1.
        -11    1    1    2    0    0  0.27257147780E+01 -0.11757049261E+01  0.16978985728E+03  0.16981580444E+03  0.00000000000E+00 0.  1.
         11    1    1    2    0    0 -0.11120615483E+01  0.46777964201E+01 -0.18117500332E+03  0.18123879355E+03  0.00000000000E+00 0. -1.
        -15    1    1    2    0    0  0.10735210577E+01 -0.36346845849E+01  0.36073598684E+01  0.55257717753E+01  0.17770000000E+01 0. -1.
         15    1    1    2    0    0 -0.26871742874E+01  0.13259309091E+00  0.77777861721E+01  0.84196302364E+01  0.17770000000E+01 0.  1.
</event>
<event>
 6    1  0.1378789E-002  0.1931839E+03  0.7546771E-02  0.1060255E+00
        -11   -1    0    0    0    0  0.00000000000E+00  0.00000000000E+00  0.18250000000E+03  0.18250000000E+03  0.00000000000E+00 0. -1.
         11   -1    0    0    0    0 -0.00000000000E+00 -0.00000000000E+00 -0.18250000000E+03  0.18250000000E+03  0.00000000000E+00 0.  1.
        -11    1    1    2    0    0 -0.91314532236E+00  0.11145248944E+02  0.17145175992E+03  0.17181605393E+03  0.00000000000E+00 0. -1.
         11    1    1    2    0    0 -0.83149496229E+01 -0.98298343753E+01 -0.15109114538E+03  0.15163870958E+03  0.00000000000E+00 0.  1.
        -15    1    1    2    0    0  0.14919504525E+02 -0.15025413506E+02 -0.11365953577E+02  0.24097661629E+02  0.17770000000E+01 0. -1.
         15    1    1    2    0    0 -0.56914095793E+01  0.13709998937E+02 -0.89946609630E+01  0.17447574866E+02  0.17770000000E+01 0.  1.
</event>
<event>
 6    1  0.1378789E-002  0.1831578E+03  0.7546771E-02  0.1067932E+00
        -11   -1    0    0    0    0  0.00000000000E+00  0.00000000000E+00  0.18250000000E+03  0.18250000000E+03  0.00000000000E+00 0. -1.
         11   -1    0    0    0    0 -0.00000000000E+00 -0.00000000000E+00 -0.18250000000E+03  0.18250000000E+03  0.00000000000E+00 0. -1.
        -11    1    1    2    0    0  0.26013467022E+01  0.35430589028E+01  0.11759439820E+03  0.11767651745E+03  0.00000000000E+00 0. -1.
         11    1    1    2    0    0  0.10480007803E+01 -0.54678883905E+01 -0.18175690220E+03  0.18184215024E+03  0.00000000000E+00 0. -1.
        -15    1    1    2    0    0 -0.16009214585E+01 -0.17620064402E+01  0.32733922486E+01  0.44204572190E+01  0.17770000000E+01 0. -1.
         15    1    1    2    0    0 -0.20484260240E+01  0.36868359279E+01  0.60889111744E+02  0.61060875086E+02  0.17770000000E+01 0. -1.
</event>
<event>
 6    1  0.1378789E-002  0.1833986E+03  0.7546771E-02  0.1067742E+00
        -11   -1    0    0    0    0  0.00000000000E+00  0.00000000000E+00  0.18250000000E+03  0.18250000000E+03  0.00000000000E+00 0. -1.
         11   -1    0    0    0    0 -0.00000000000E+00 -0.00000000000E+00 -0.18250000000E+03  0.18250000000E+03  0.00000000000E+00 0.  1.
        -11    1    1    2    0    0 -0.16110713986E+01  0.23064813067E+01  0.18157965522E+03  0.18160144988E+03  0.00000000000E+00 0. -1.
         11    1    1    2    0    0  0.54892336678E-01  0.31935031855E+01 -0.12913525152E+03  0.12917474467E+03  0.00000000000E+00 0.  1.
        -15    1    1    2    0    0 -0.92606557387E+00  0.15922162604E+01 -0.21570899080E+01  0.33471653586E+01  0.17770000000E+01 0.  1.
         15    1    1    2    0    0  0.24822446358E+01 -0.70922007527E+01 -0.50287313793E+02  0.50876640096E+02  0.17770000000E+01 0.  1.
</event>
<event>
 6    1  0.1378789E-002  0.1837188E+03  0.7546771E-02  0.1067489E+00
        -11   -1    0    0    0    0  0.00000000000E+00  0.00000000000E+00  0.18250000000E+03  0.18250000000E+03  0.00000000000E+00 0.  1.
         11   -1    0    0    0    0 -0.00000000000E+00 -0.00000000000E+00 -0.18250000000E+03  0.18250000000E+03  0.00000000000E+00 0.  1.
        -11    1    1    2    0    0 -0.41783003711E+01  0.32932841001E+00  0.18123271456E+03  0.18128117243E+03  0.00000000000E+00 0.  1.
         11    1    1    2    0    0  0.66840868459E+00  0.26184868276E+01 -0.17056465613E+03  0.17058606381E+03  0.00000000000E+00 0.  1.
        -15    1    1    2    0    0  0.44850794191E+00 -0.14895455458E+01 -0.83039891576E+01  0.86333000780E+01  0.17770000000E+01 0.  1.
         15    1    1    2    0    0  0.30613837446E+01 -0.14582696918E+01 -0.23640692689E+01  0.44994636829E+01  0.17770000000E+01 0. -1.
</event>
<event>
 6    1  0.1378789E-002  0.1871260E+03  0.7546771E-02  0.1064831E+00
        -11   -1    0    0    0    0  0.00000000000E+00  0.00000000000E+00  0.18250000000E+03  0.18250000000E+03  0.00000000000E+00 0.  1.
         11   -1    0    0    0    0 -0.00000000000E+00 -0.00000000000E+00 -0.18250000000E+03  0.18250000000E+03  0.00000000000E+00 0. -1.
        -11    1    1    2    0    0 -0.23180088706E+01 -0.18153004093E+01  0.17784958852E+03  0.17787395711E+03  0.00000000000E+00 0.  1.
         11    1    1    2    0    0  0.86892424113E+01 -0.69787997039E+01 -0.15181718684E+03  0.15222570347E+03  0.00000000000E+00 0. -1.
        -15    1    1    2    0    0 -0.12098262675E+02  0.26930263191E+01 -0.77763070645E+01  0.14739370104E+02  0.17770000000E+01 0.  1.
         15    1    1    2    0    0  0.57270291343E+01  0.61010737941E+01 -0.18256094616E+02  0.20160969316E+02  0.17770000000E+01 0. -1.
</event>
<event>
 6    1  0.1378789E-002  0.1928229E+03  0.7546771E-02  0.1060522E+00
        -11   -1    0    0    0    0  0.00000000000E+00  0.00000000000E+00  0.18250000000E+03  0.18250000000E+03  0.00000000000E+00 0.  1.
         11   -1    0    0    0    0 -0.00000000000E+00 -0.00000000000E+00 -0.18250000000E+03  0.18250000000E+03  0.00000000000E+00 0.  1.
        -11    1    1    2    0    0 -0.15257948338E+02 -0.80183514238E+01  0.17131211663E+03  0.17217706075E+03  0.00000000000E+00 0.  1.
         11    1    1    2    0    0  0.98301904520E+01 -0.45772847433E+01 -0.13374605487E+03  0.13418491485E+03  0.00000000000E+00 0.  1.
        -15    1    1    2    0    0 -0.62771553129E+01  0.70487074588E+01 -0.43306862076E+02  0.44359091374E+02  0.17770000000E+01 0. -1.
         15    1    1    2    0    0  0.11704913199E+02  0.55469287083E+01  0.57408003157E+01  0.14278933026E+02  0.17770000000E+01 0.  1.
</event>
<event>
 6    1  0.1378789E-002  0.1833943E+03  0.7546771E-02  0.1067745E+00
        -11   -1    0    0    0    0  0.00000000000E+00  0.00000000000E+00  0.18250000000E+03  0.18250000000E+03  0.00000000000E+00 0. -1.
         11   -1    0    0    0    0 -0.00000000000E+00 -0.00000000000E+00 -0.18250000000E+03  0.18250000000E+03  0.00000000000E+00 0.  1.
        -11    1    1    2    0    0 -0.72449758248E+00 -0.52927655906E+01  0.30111719316E+02  0.30581921204E+02  0.00000000000E+00 0. -1.
         11    1    1    2    0    0  0.62951119479E+01  0.95428683096E+01 -0.18124549971E+03  0.18160568806E+03  0.00000000000E+00 0.  1.
        -15    1    1    2    0    0 -0.35638406611E+01 -0.12598539601E+01  0.14696386225E+03  0.14702320473E+03  0.17770000000E+01 0. -1.
         15    1    1    2    0    0 -0.20067737043E+01 -0.29902487589E+01  0.41699181454E+01  0.57891860118E+01  0.17770000000E+01 0.  1.
</event>
<event>
 6    1  0.1378789E-002  0.1832220E+03  0.7546771E-02  0.1067882E+00
        -11   -1    0    0    0    0  0.00000000000E+00  0.00000000000E+00  0.18250000000E+03  0.18250000000E+03  0.00000000000E+00 0.  1.
         11   -1    0    0    0    0 -0.00000000000E+00 -0.00000000000E+00 -0.18250000000E+03  0.18250000000E+03  0.00000000000E+00 0. -1.
        -11    1    1    2    0    0  0.46671241369E+01 -0.30096549243E+01  0.14393195857E+03  0.14403905293E+03  0.00000000000E+00 0.  1.
         11    1    1    2    0    0 -0.26991518571E+01 -0.17177905355E+01 -0.18174983046E+03  0.18177798848E+03  0.00000000000E+00 0. -1.
        -15    1    1    2    0    0 -0.47642600468E+01  0.25462398786E+01  0.28400955143E+02  0.28964693911E+02  0.17770000000E+01 0. -1.
         15    1    1    2    0    0  0.27962877669E+01  0.21812055812E+01  0.94169167481E+01  0.10218264682E+02  0.17770000000E+01 0.  1.
</event>
<event>
 6    1  0.1378789E-002  0.1838815E+03  0.7546771E-02  0.1067360E+00
        -11   -1    0    0    0    0  0.00000000000E+00  0.00000000000E+00  0.18250000000E+03  0.18250000000E+03  0.00000000000E+00 0.  1.
         11   -1    0    0    0    0 -0.00000000000E+00 -0.00000000000E+00 -0.18250000000E+03  0.18250000000E+03  0.00000000000E+00 0.  1.
        -11    1    1    2    0    0  0.61817435274E+01  0.13659955245E+01  0.12332527987E+03  0.12348766964E+03  0.00000000000E+00 0.  1.
         11    1    1    2    0    0 -0.20356222055E+01 -0.21985153892E+01 -0.18109373861E+03  0.18111852305E+03  0.00000000000E+00 0.  1.
        -15    1    1    2    0    0 -0.36051390948E+01 -0.38699678903E+01  0.53461863808E+02  0.53752230560E+02  0.17770000000E+01 0. -1.
         15    1    1    2    0    0 -0.54098222712E+00  0.47024877550E+01  0.43065949296E+01  0.66415767513E+01  0.17770000000E+01 0.  1.
</event>
<event>
 6    1  0.1378789E-002  0.1825643E+03  0.7546771E-02  0.1068404E+00
        -11   -1    0    0    0    0  0.00000000000E+00  0.00000000000E+00  0.18250000000E+03  0.18250000000E+03  0.00000000000E+00 0. -1.
         11   -1    0    0    0    0 -0.00000000000E+00 -0.00000000000E+00 -0.18250000000E+03  0.18250000000E+03  0.00000000000E+00 0.  1.
        -11    1    1    2    0    0 -0.54009191038E+01 -0.35809222552E+01  0.18232054433E+03  0.18243567035E+03  0.00000000000E+00 0. -1.
         11    1    1    2    0    0 -0.42180189089E+00  0.34715438449E+00 -0.20759787215E+02  0.20766973738E+02  0.00000000000E+00 0.  1.
        -15    1    1    2    0    0  0.26623986337E+01  0.39076991899E+01 -0.96707416390E+02  0.96839251305E+02  0.17770000000E+01 0.  1.
         15    1    1    2    0    0  0.31603223609E+01 -0.67393131924E+00 -0.64853340729E+02  0.64958104602E+02  0.17770000000E+01 0. -1.
</event>
<event>
 6    1  0.1378789E-002  0.1827764E+03  0.7546771E-02  0.1068235E+00
        -11   -1    0    0    0    0  0.00000000000E+00  0.00000000000E+00  0.18250000000E+03  0.18250000000E+03  0.00000000000E+00 0.  1.
         11   -1    0    0    0    0 -0.00000000000E+00 -0.00000000000E+00 -0.18250000000E+03  0.18250000000E+03  0.00000000000E+00 0.  1.
        -11    1    1    2    0    0  0.11575164652E+01  0.35107227914E+01  0.18218613798E+03  0.18222363703E+03  0.00000000000E+00 0.  1.
         11    1    1    2    0    0  0.29558046622E+01 -0.68551750104E+00 -0.10816047351E+03  0.10820302558E+03  0.00000000000E+00 0.  1.
        -15    1    1    2    0    0 -0.15531072762E+01 -0.16800451959E+01 -0.88278523351E+01  0.92910386891E+01  0.17770000000E+01 0.  1.
         15    1    1    2    0    0 -0.25602138513E+01 -0.11451600946E+01 -0.65197812138E+02  0.65282298697E+02  0.17770000000E+01 0. -1.
</event>
<event>
 6    1  0.1378789E-002  0.1836162E+03  0.7546771E-02  0.1067570E+00
        -11   -1    0    0    0    0  0.00000000000E+00  0.00000000000E+00  0.18250000000E+03  0.18250000000E+03  0.00000000000E+00 0. -1.
         11   -1    0    0    0    0 -0.00000000000E+00 -0.00000000000E+00 -0.18250000000E+03  0.18250000000E+03  0.00000000000E+00 0. -1.
        -11    1    1    2    0    0  0.17044914157E+01  0.31662013935E+01  0.11797480422E+03  0.11802959185E+03  0.00000000000E+00 0. -1.
         11    1    1    2    0    0  0.42393900331E+01 -0.59279993515E+01 -0.18123734084E+03  0.18138381217E+03  0.00000000000E+00 0. -1.
        -15    1    1    2    0    0  0.18842715888E+01  0.74816173518E+01  0.26044669187E+02  0.27221454768E+02  0.17770000000E+01 0. -1.
         15    1    1    2    0    0 -0.78281530375E+01 -0.47198193938E+01  0.37217867432E+02  0.38365141213E+02  0.17770000000E+01 0.  1.
</event>
<event>
 6    1  0.1378789E-002  0.1807150E+03  0.7546771E-02  0.1069885E+00
        -11   -1    0    0    0    0  0.00000000000E+00  0.00000000000E+00  0.18250000000E+03  0.18250000000E+03  0.00000000000E+00 0.  1.
         11   -1    0    0    0    0 -0.00000000000E+00 -0.00000000000E+00 -0.18250000000E+03  0.18250000000E+03  0.00000000000E+00 0. -1.
        -11    1    1    2    0    0  0.63575192455E+01 -0.31371103495E+01  0.84004421363E+01  0.10992130839E+02  0.00000000000E+00 0.  1.
         11    1    1    2    0    0  0.90251388971E+00 -0.10177469450E+02 -0.17683356723E+03  0.17712850113E+03  0.00000000000E+00 0. -1.
        -15    1    1    2    0    0  0.10701237924E+02 -0.14293089689E+01  0.13855698164E+03  0.13898832435E+03  0.17770000000E+01 0.  1.
         15    1    1    2    0    0 -0.17961271060E+02  0.14743888769E+02  0.29876143453E+02  0.37891043674E+02  0.17770000000E+01 0. -1.
</event>
<event>
 6    1  0.1378789E-002  0.1762177E+03  0.7546771E-02  0.1073568E+00
        -11   -1    0    0    0    0  0.00000000000E+00  0.00000000000E+00  0.18250000000E+03  0.18250000000E+03  0.00000000000E+00 0.  1.
         11   -1    0    0    0    0 -0.00000000000E+00 -0.00000000000E+00 -0.18250000000E+03  0.18250000000E+03  0.00000000000E+00 0. -1.
        -11    1    1    2    0    0 -0.16053903781E+01 -0.26008293950E+01  0.17568693785E+03  0.17571352174E+03  0.00000000000E+00 0.  1.
         11    1    1    2    0    0 -0.17455073480E+01 -0.32986010970E+01 -0.17674936623E+03  0.17678876103E+03  0.00000000000E+00 0. -1.
        -15    1    1    2    0    0  0.30799558532E+01  0.12912021010E+01  0.49332695720E+01  0.62167683400E+01  0.17770000000E+01 0.  1.
         15    1    1    2    0    0  0.27094187298E+00  0.46082283910E+01 -0.38708411918E+01  0.62809488881E+01  0.17770000000E+01 0. -1.
</event>
<event>
 6    1  0.1378789E-002  0.1900163E+03  0.7546771E-02  0.1062624E+00
        -11   -1    0    0    0    0  0.00000000000E+00  0.00000000000E+00  0.18250000000E+03  0.18250000000E+03  0.00000000000E+00 0.  1.
         11   -1    0    0    0    0 -0.00000000000E+00 -0.00000000000E+00 -0.18250000000E+03  0.18250000000E+03  0.00000000000E+00 0.  1.
        -11    1    1    2    0    0 -0.31807204820E+01 -0.12344352616E+02  0.16208225690E+03  0.16258277285E+03  0.00000000000E+00 0.  1.
         11    1    1    2    0    0 -0.39394687974E+00  0.32769865766E+01 -0.17495260283E+03  0.17498373374E+03  0.00000000000E+00 0.  1.
        -15    1    1    2    0    0 -0.65788096000E+00  0.10286242885E+01 -0.60213252846E+01  0.63956987474E+01  0.17770000000E+01 0. -1.
         15    1    1    2    0    0  0.42325483217E+01  0.80387417506E+01  0.18891671214E+02  0.21037794668E+02  0.17770000000E+01 0.  1.
</event>
<event>
 6    1  0.1378789E-002  0.1825954E+03  0.7546771E-02  0.1068379E+00
        -11   -1    0    0    0    0  0.00000000000E+00  0.00000000000E+00  0.18250000000E+03  0.18250000000E+03  0.00000000000E+00 0.  1.
         11   -1    0    0    0    0 -0.00000000000E+00 -0.00000000000E+00 -0.18250000000E+03  0.18250000000E+03  0.00000000000E+00 0.  1.
        -11    1    1    2    0    0  0.12103795610E+01 -0.16956846699E+01  0.76907552896E+02  0.76935765790E+02  0.00000000000E+00 0.  1.
         11    1    1    2    0    0  0.18701369759E+01  0.27689454538E+01 -0.18237400147E+03  0.18240460763E+03  0.00000000000E+00 0.  1.
        -15    1    1    2    0    0 -0.23037923816E+01  0.54329120861E+00  0.82821293472E+02  0.82874163682E+02  0.17770000000E+01 0. -1.
         15    1    1    2    0    0 -0.77672415528E+00 -0.16165519925E+01  0.22645155105E+02  0.22785462898E+02  0.17770000000E+01 0.  1.
</event>
<event>
 6    1  0.1378789E-002  0.1835288E+03  0.7546771E-02  0.1067639E+00
        -11   -1    0    0    0    0  0.00000000000E+00  0.00000000000E+00  0.18250000000E+03  0.18250000000E+03  0.00000000000E+00 0. -1.
         11   -1    0    0    0    0 -0.00000000000E+00 -0.00000000000E+00 -0.18250000000E+03  0.18250000000E+03  0.00000000000E+00 0. -1.
        -11    1    1    2    0    0 -0.24700655201E+01  0.27156235939E+01  0.16559404532E+03  0.16563472969E+03  0.00000000000E+00 0. -1.
         11    1    1    2    0    0 -0.29006811738E+01  0.32848291140E+00 -0.18144767426E+03  0.18147115569E+03  0.00000000000E+00 0. -1.
        -15    1    1    2    0    0  0.38029089987E+01 -0.39463758489E+01  0.10869284950E+02  0.12301832527E+02  0.17770000000E+01 0. -1.
         15    1    1    2    0    0  0.15678376952E+01  0.90226934357E+00  0.49843439916E+01  0.55922820953E+01  0.17770000000E+01 0.  1.
</event>
<event>
 6    1  0.1378789E-002  0.1838949E+03  0.7546771E-02  0.1067350E+00
        -11   -1    0    0    0    0  0.00000000000E+00  0.00000000000E+00  0.18250000000E+03  0.18250000000E+03  0.00000000000E+00 0. -1.
         11   -1    0    0    0    0 -0.00000000000E+00 -0.00000000000E+00 -0.18250000000E+03  0.18250000000E+03  0.00000000000E+00 0. -1.
        -11    1    1    2    0    0 -0.70107557350E+01  0.98021646124E+01  0.18070365035E+03  0.18110505895E+03  0.00000000000E+00 0. -1.
         11    1    1    2    0    0  0.48218985064E+00 -0.22653760007E+01 -0.14901387504E+03  0.14903187373E+03  0.00000000000E+00 0. -1.
        -15    1    1    2    0    0  0.62376529237E+01 -0.91243953878E+01 -0.19911939378E+02  0.22843072560E+02  0.17770000000E+01 0.  1.
         15    1    1    2    0    0  0.29091296067E+00  0.15876067762E+01 -0.11777835937E+02  0.12019994758E+02  0.17770000000E+01 0.  1.
</event>
<event>
 6    1  0.1596637E-002  0.1855321E+03  0.7546771E-02  0.1066067E+00
        -11   -1    0    0    0    0  0.00000000000E+00  0.00000000000E+00  0.18250000000E+03  0.18250000000E+03  0.00000000000E+00 0.  1.
         11   -1    0    0    0    0 -0.00000000000E+00 -0.00000000000E+00 -0.18250000000E+03  0.18250000000E+03  0.00000000000E+00 0. -1.
        -11    1    1    2    0    0 -0.17668391026E+01  0.42760158823E+01  0.17940825700E+03  0.17946790440E+03  0.00000000000E+00 0.  1.
         11    1    1    2    0    0  0.14550413938E+01  0.14231313371E+01 -0.14172555131E+03  0.14174016488E+03  0.00000000000E+00 0. -1.
        -15    1    1    2    0    0  0.41242475895E+00 -0.34878648718E+01  0.17139868100E+01  0.42931078871E+01  0.17770000000E+01 0.  1.
         15    1    1    2    0    0 -0.10062705010E+00 -0.22112823477E+01 -0.39396692503E+02  0.39498822825E+02  0.17770000000E+01 0.  1.
</event>
<event>
 6    1  0.1378789E-002  0.1843124E+03  0.7546771E-02  0.1067021E+00
        -11   -1    0    0    0    0  0.00000000000E+00  0.00000000000E+00  0.18250000000E+03  0.18250000000E+03  0.00000000000E+00 0.  1.
         11   -1    0    0    0    0 -0.00000000000E+00 -0.00000000000E+00 -0.18250000000E+03  0.18250000000E+03  0.00000000000E+00 0.  1.
        -11    1    1    2    0    0 -0.33572106487E+01 -0.73308906711E+01  0.18050761449E+03  0.18068760807E+03  0.00000000000E+00 0.  1.
         11    1    1    2    0    0 -0.28495532290E+01  0.20660943073E+01 -0.12568039705E+03  0.12572967391E+03  0.00000000000E+00 0.  1.
        -15    1    1    2    0    0 -0.53637208514E+01  0.66236460823E+01 -0.19907919809E+02  0.21728441935E+02  0.17770000000E+01 0. -1.
         15    1    1    2    0    0  0.11570484729E+02 -0.13588497185E+01 -0.34919297633E+02  0.36854276083E+02  0.17770000000E+01 0.  1.
</event>
<event>
 6    1  0.1378789E-002  0.1871498E+03  0.7546771E-02  0.1064813E+00
        -11   -1    0    0    0    0  0.00000000000E+00  0.00000000000E+00  0.18250000000E+03  0.18250000000E+03  0.00000000000E+00 0. -1.
         11   -1    0    0    0    0 -0.00000000000E+00 -0.00000000000E+00 -0.18250000000E+03  0.18250000000E+03  0.00000000000E+00 0.  1.
        -11    1    1    2    0    0 -0.27233262124E+01  0.17393581634E+00  0.17782927027E+03  0.17785020698E+03  0.00000000000E+00 0. -1.
         11    1    1    2    0    0 -0.50794502413E+00  0.98377156745E+01 -0.16743018501E+03  0.16771972308E+03  0.00000000000E+00 0.  1.
        -15    1    1    2    0    0  0.59880162807E+01 -0.79831731437E+01 -0.22043312186E+01  0.10373244311E+02  0.17770000000E+01 0.  1.
         15    1    1    2    0    0 -0.27567450442E+01 -0.20284783471E+01 -0.81947540450E+01  0.90568256305E+01  0.17770000000E+01 0. -1.
</event>
<event>
 6    1  0.1378789E-002  0.1863073E+03  0.7546771E-02  0.1065464E+00
        -11   -1    0    0    0    0  0.00000000000E+00  0.00000000000E+00  0.18250000000E+03  0.18250000000E+03  0.00000000000E+00 0.  1.
         11   -1    0    0    0    0 -0.00000000000E+00 -0.00000000000E+00 -0.18250000000E+03  0.18250000000E+03  0.00000000000E+00 0.  1.
        -11    1    1    2    0    0  0.52266432540E+01 -0.13828312746E+01  0.16667399639E+03  0.16676165955E+03  0.00000000000E+00 0.  1.
         11    1    1    2    0    0  0.39660565989E+01  0.26123088663E+00 -0.17864847028E+03  0.17869267970E+03  0.00000000000E+00 0.  1.
        -15    1    1    2    0    0 -0.26974574970E+01 -0.43279449354E+01  0.87893530174E+01  0.10315902276E+02  0.17770000000E+01 0.  1.
         15    1    1    2    0    0 -0.64952423560E+01  0.54495453234E+01  0.31851208688E+01  0.92297584716E+01  0.17770000000E+01 0. -1.
</event>
<event>
 6    1  0.1378789E-002  0.1834552E+03  0.7546771E-02  0.1067697E+00
        -11   -1    0    0    0    0  0.00000000000E+00  0.00000000000E+00  0.18250000000E+03  0.18250000000E+03  0.00000000000E+00 0.  1.
         11   -1    0    0    0    0 -0.00000000000E+00 -0.00000000000E+00 -0.18250000000E+03  0.18250000000E+03  0.00000000000E+00 0. -1.
        -11    1    1    2    0    0  0.73646624796E+00 -0.66475217666E+01  0.13329304737E+03  0.13346073732E+03  0.00000000000E+00 0.  1.
         11    1    1    2    0    0 -0.52276619355E+00 -0.43194941614E+01 -0.18149266876E+03  0.18154481576E+03  0.00000000000E+00 0. -1.
        -15    1    1    2    0    0  0.27667650367E+01  0.81313707929E+01  0.33272623896E+02  0.34409292490E+02  0.17770000000E+01 0.  1.
         15    1    1    2    0    0 -0.29804650912E+01  0.28356451351E+01  0.14926997494E+02  0.15585154432E+02  0.17770000000E+01 0.  1.
</event>
<event>
 6    1  0.1378789E-002  0.1670002E+03  0.7546771E-02  0.1081509E+00
        -11   -1    0    0    0    0  0.00000000000E+00  0.00000000000E+00  0.18250000000E+03  0.18250000000E+03  0.00000000000E+00 0.  1.
         11   -1    0    0    0    0 -0.00000000000E+00 -0.00000000000E+00 -0.18250000000E+03  0.18250000000E+03  0.00000000000E+00 0.  1.
        -11    1    1    2    0    0 -0.11025574637E+01 -0.55273975284E+01  0.17367657611E+03  0.17376800869E+03  0.00000000000E+00 0.  1.
         11    1    1    2    0    0 -0.25430289357E+01 -0.27485049793E+01 -0.49746283394E+01  0.62264117198E+01  0.00000000000E+00 0.  1.
        -15    1    1    2    0    0  0.24984534989E+02  0.47872368439E+01 -0.15935514941E+03  0.16138266945E+03  0.17770000000E+01 0.  1.
         15    1    1    2    0    0 -0.21338948589E+02  0.34886656638E+01 -0.93467983591E+01  0.23622910142E+02  0.17770000000E+01 0. -1.
</event>
<event>
 6    1  0.1378789E-002  0.1851091E+03  0.7546771E-02  0.1066397E+00
        -11   -1    0    0    0    0  0.00000000000E+00  0.00000000000E+00  0.18250000000E+03  0.18250000000E+03  0.00000000000E+00 0. -1.
         11   -1    0    0    0    0 -0.00000000000E+00 -0.00000000000E+00 -0.18250000000E+03  0.18250000000E+03  0.00000000000E+00 0. -1.
        -11    1    1    2    0    0 -0.21633020150E+01  0.18478337903E+01  0.17067350039E+03  0.17069721175E+03  0.00000000000E+00 0. -1.
         11    1    1    2    0    0 -0.34927077658E+01 -0.10949957010E+01 -0.17985362571E+03  0.17989086887E+03  0.00000000000E+00 0. -1.
        -15    1    1    2    0    0  0.49310200255E+01  0.35904152776E+01  0.49785345987E+01  0.80715287342E+01  0.17770000000E+01 0.  1.
         15    1    1    2    0    0  0.72498975536E+00 -0.43432533669E+01  0.42015907164E+01  0.63403906427E+01  0.17770000000E+01 0.  1.
</event>
<event>
 6    1  0.1378789E-002  0.1841457E+03  0.7546771E-02  0.1067152E+00
        -11   -1    0    0    0    0  0.00000000000E+00  0.00000000000E+00  0.18250000000E+03  0.18250000000E+03  0.00000000000E+00 0. -1.
         11   -1    0    0    0    0 -0.00000000000E+00 -0.00000000000E+00 -0.18250000000E+03  0.18250000000E+03  0.00000000000E+00 0.  1.
        -11    1    1    2    0    0  0.65201830195E+01 -0.43651656348E+01  0.18068396257E+03  0.18085425565E+03  0.00000000000E+00 0. -1.
         11    1    1    2    0    0  0.31692523490E+01  0.19182114483E+01 -0.54737198395E+02  0.54862415038E+02  0.00000000000E+00 0.  1.
        -15    1    1    2    0    0 -0.22266980141E+01 -0.12756085834E+01 -0.11656038396E+03  0.11660217065E+03  0.17770000000E+01 0.  1.
         15    1    1    2    0    0 -0.74627373544E+01  0.37225627699E+01 -0.93863802128E+01  0.12681158657E+02  0.17770000000E+01 0.  1.
</event>
<event>
 6    1  0.1378789E-002  0.1909720E+03  0.7546771E-02  0.1061904E+00
        -11   -1    0    0    0    0  0.00000000000E+00  0.00000000000E+00  0.18250000000E+03  0.18250000000E+03  0.00000000000E+00 0. -1.
         11   -1    0    0    0    0 -0.00000000000E+00 -0.00000000000E+00 -0.18250000000E+03  0.18250000000E+03  0.00000000000E+00 0.  1.
        -11    1    1    2    0    0 -0.13385394612E+01  0.17372227086E+01  0.10481193909E+03  0.10483488068E+03  0.00000000000E+00 0. -1.
         11    1    1    2    0    0  0.53112250577E+01 -0.49826399174E+01 -0.17387558660E+03  0.17402803058E+03  0.00000000000E+00 0.  1.
        -15    1    1    2    0    0 -0.37256605026E+01 -0.16820732111E+01 -0.78594753967E+01  0.90354302045E+01  0.17770000000E+01 0.  1.
         15    1    1    2    0    0 -0.24702509398E+00  0.49274904199E+01  0.76923122904E+02  0.77101658539E+02  0.17770000000E+01 0. -1.
</event>
<event>
 6    1  0.1378789E-002  0.1829792E+03  0.7546771E-02  0.1068074E+00
        -11   -1    0    0    0    0  0.00000000000E+00  0.00000000000E+00  0.18250000000E+03  0.18250000000E+03  0.00000000000E+00 0.  1.
         11   -1    0    0    0    0 -0.00000000000E+00 -0.00000000000E+00 -0.18250000000E+03  0.18250000000E+03  0.00000000000E+00 0. -1.
        -11    1    1    2    0    0  0.31614049865E+01 -0.37297700404E+01  0.18195511222E+03  0.18202079148E+03  0.00000000000E+00 0.  1.
         11    1    1    2    0    0 -0.58475117634E-01  0.10945612007E+01 -0.56963459138E+02  0.56974004252E+02  0.00000000000E+00 0. -1.
        -15    1    1    2    0    0 -0.23823290628E+01  0.43386814285E+01 -0.13561023240E+02  0.14545058564E+02  0.17770000000E+01 0. -1.
         15    1    1    2    0    0 -0.72060080604E+00 -0.17034725888E+01 -0.11143062984E+03  0.11146014571E+03  0.17770000000E+01 0. -1.
</event>
<event>
 6    1  0.1378789E-002  0.1776007E+03  0.7546771E-02  0.1072423E+00
        -11   -1    0    0    0    0  0.00000000000E+00  0.00000000000E+00  0.18250000000E+03  0.18250000000E+03  0.00000000000E+00 0.  1.
         11   -1    0    0    0    0 -0.00000000000E+00 -0.00000000000E+00 -0.18250000000E+03  0.18250000000E+03  0.00000000000E+00 0.  1.
        -11    1    1    2    0    0 -0.26630804786E+01 -0.29780190199E+00  0.17762029940E+03  0.17764051183E+03  0.00000000000E+00 0.  1.
         11    1    1    2    0    0  0.22003476723E+01 -0.21028805035E+01 -0.17754317131E+03  0.17756925780E+03  0.00000000000E+00 0.  1.
        -15    1    1    2    0    0 -0.19003251042E+01 -0.11984301445E+01 -0.31130159814E+01  0.42303744295E+01  0.17770000000E+01 0. -1.
         15    1    1    2    0    0  0.23630579105E+01  0.35991125500E+01  0.30358878886E+01  0.55598559431E+01  0.17770000000E+01 0.  1.
</event>
<event>
 6    1  0.1378789E-002  0.1857501E+03  0.7546771E-02  0.1065897E+00
        -11   -1    0    0    0    0  0.00000000000E+00  0.00000000000E+00  0.18250000000E+03  0.18250000000E+03  0.00000000000E+00 0. -1.
         11   -1    0    0    0    0 -0.00000000000E+00 -0.00000000000E+00 -0.18250000000E+03  0.18250000000E+03  0.00000000000E+00 0. -1.
        -11    1    1    2    0    0  0.11583610878E+01  0.19542123915E+00  0.82466101033E+02  0.82474467621E+02  0.00000000000E+00 0. -1.
         11    1    1    2    0    0 -0.96393148637E-02 -0.31163306302E+01 -0.17922277966E+03  0.17924987129E+03  0.00000000000E+00 0. -1.
        -15    1    1    2    0    0  0.13443589744E+01  0.30710134566E+01  0.99251174289E+02  0.99323671657E+02  0.17770000000E+01 0. -1.
         15    1    1    2    0    0 -0.24930807472E+01 -0.15010406550E+00 -0.24944956639E+01  0.39519894307E+01  0.17770000000E+01 0.  1.
</event>
<event>
 6    1  0.1378789E-002  0.1831419E+03  0.7546771E-02  0.1067945E+00
        -11   -1    0    0    0    0  0.00000000000E+00  0.00000000000E+00  0.18250000000E+03  0.18250000000E+03  0.00000000000E+00 0. -1.
         11   -1    0    0    0    0 -0.00000000000E+00 -0.00000000000E+00 -0.18250000000E+03  0.18250000000E+03  0.00000000000E+00 0. -1.
        -11    1    1    2    0    0  0.15088268839E+01  0.48932976915E+00  0.87885508426E+02  0.87899821351E+02  0.00000000000E+00 0. -1.
         11    1    1    2    0    0  0.41799029154E+01 -0.80077053101E+01 -0.18163364553E+03  0.18185812085E+03  0.00000000000E+00 0. -1.
        -15    1    1    2    0    0  0.69249082240E+00  0.66582808792E+01  0.19489053224E+02  0.20683161566E+02  0.17770000000E+01 0.  1.
         15    1    1    2    0    0 -0.63812206216E+01  0.86009466174E+00  0.74259083878E+02  0.74558896229E+02  0.17770000000E+01 0. -1.
</event>
<event>
 6    1  0.1378789E-002  0.1827585E+03  0.7546771E-02  0.1068249E+00
        -11   -1    0    0    0    0  0.00000000000E+00  0.00000000000E+00  0.18250000000E+03  0.18250000000E+03  0.00000000000E+00 0.  1.
         11   -1    0    0    0    0 -0.00000000000E+00 -0.00000000000E+00 -0.18250000000E+03  0.18250000000E+03  0.00000000000E+00 0.  1.
        -11    1    1    2    0    0  0.34910582112E+00 -0.24930579123E+01  0.18222414191E+03  0.18224152959E+03  0.00000000000E+00 0.  1.
         11    1    1    2    0    0  0.37521947139E+01 -0.14302907793E+01 -0.96729054243E+02  0.96812368175E+02  0.00000000000E+00 0.  1.
        -15    1    1    2    0    0  0.37501684958E+00  0.25552579106E+01 -0.18459172515E+02  0.18723481503E+02  0.17770000000E+01 0.  1.
         15    1    1    2    0    0 -0.44763173846E+01  0.13680907810E+01 -0.67035915148E+02  0.67222620735E+02  0.17770000000E+01 0. -1.
</event>
<event>
 6    1  0.1378789E-002  0.1890675E+03  0.7546771E-02  0.1063344E+00
        -11   -1    0    0    0    0  0.00000000000E+00  0.00000000000E+00  0.18250000000E+03  0.18250000000E+03  0.00000000000E+00 0. -1.
         11   -1    0    0    0    0 -0.00000000000E+00 -0.00000000000E+00 -0.18250000000E+03  0.18250000000E+03  0.00000000000E+00 0.  1.
        -11    1    1    2    0    0 -0.68465728381E+01 -0.54744820752E+01  0.16274298635E+03  0.16297891005E+03  0.00000000000E+00 0. -1.
         11    1    1    2    0    0 -0.55019438787E+01 -0.16516118826E+01 -0.17583869771E+03  0.17593250644E+03  0.00000000000E+00 0.  1.
        -15    1    1    2    0    0  0.85829117561E+01  0.28315590694E+01  0.16723812292E+02  0.19092609239E+02  0.17770000000E+01 0.  1.
         15    1    1    2    0    0  0.37656049608E+01  0.42945348884E+01 -0.36281009341E+01  0.69959742721E+01  0.17770000000E+01 0. -1.
</event>
<event>
 6    1  0.1378789E-002  0.1855767E+03  0.7546771E-02  0.1066032E+00
        -11   -1    0    0    0    0  0.00000000000E+00  0.00000000000E+00  0.18250000000E+03  0.18250000000E+03  0.00000000000E+00 0.  1.
         11   -1    0    0    0    0 -0.00000000000E+00 -0.00000000000E+00 -0.18250000000E+03  0.18250000000E+03  0.00000000000E+00 0.  1.
        -11    1    1    2    0    0 -0.27516205958E+01  0.66322284756E+01  0.17927958246E+03  0.17942331664E+03  0.00000000000E+00 0.  1.
         11    1    1    2    0    0  0.11421906192E+02 -0.28180831896E+01 -0.14919215984E+03  0.14965527753E+03  0.00000000000E+00 0.  1.
        -15    1    1    2    0    0  0.46793962244E+01 -0.30132545492E+01 -0.12100592482E+02  0.13437206534E+02  0.17770000000E+01 0. -1.
         15    1    1    2    0    0 -0.13349681821E+02 -0.80089073681E+00 -0.17986830131E+02  0.22484199293E+02  0.17770000000E+01 0.  1.
</event>
<event>
 6    1  0.1378789E-002  0.1843248E+03  0.7546771E-02  0.1067012E+00
        -11   -1    0    0    0    0  0.00000000000E+00  0.00000000000E+00  0.18250000000E+03  0.18250000000E+03  0.00000000000E+00 0. -1.
         11   -1    0    0    0    0 -0.00000000000E+00 -0.00000000000E+00 -0.18250000000E+03  0.18250000000E+03  0.00000000000E+00 0. -1.
        -11    1    1    2    0    0 -0.87211607076E+00  0.54904589943E+01  0.18058968509E+03  0.18067523374E+03  0.00000000000E+00 0. -1.
         11    1    1    2    0    0  0.13773799316E+01 -0.29245182872E+01 -0.12032637324E+03  0.12036978890E+03  0.00000000000E+00 0. -1.
        -15    1    1    2    0    0 -0.50356986597E+01  0.77174251867E+01 -0.35215469249E+02  0.36444532045E+02  0.17770000000E+01 0.  1.
         15    1    1    2    0    0  0.45304347989E+01 -0.10283365894E+02 -0.25047842601E+02  0.27510445317E+02  0.17770000000E+01 0.  1.
</event>
<event>
 6    1  0.1378789E-002  0.1855623E+03  0.7546771E-02  0.1066043E+00
        -11   -1    0    0    0    0  0.00000000000E+00  0.00000000000E+00  0.18250000000E+03  0.18250000000E+03  0.00000000000E+00 0.  1.
         11   -1    0    0    0    0 -0.00000000000E+00 -0.00000000000E+00 -0.18250000000E+03  0.18250000000E+03  0.00000000000E+00 0.  1.
        -11    1    1    2    0    0 -0.10784960329E+02  0.99554181873E+01  0.17883645365E+03  0.17943774095E+03  0.00000000000E+00 0.  1.
         11    1    1    2    0    0 -0.66103875490E+00 -0.70083880672E+01 -0.63452665795E+02  0.63841955422E+02  0.00000000000E+00 0.  1.
        -15    1    1    2    0    0  0.10112873021E+02  0.14521097826E+02 -0.33118637514E+02  0.37591679432E+02  0.17770000000E+01 0. -1.
         15    1    1    2    0    0  0.13331260628E+01 -0.17468127946E+02 -0.82265150346E+02  0.84128624198E+02  0.17770000000E+01 0.  1.
</event>
<event>
 6    1  0.1378789E-002  0.1825711E+03  0.7546771E-02  0.1068398E+00
        -11   -1    0    0    0    0  0.00000000000E+00  0.00000000000E+00  0.18250000000E+03  0.18250000000E+03  0.00000000000E+00 0.  1.
         11   -1    0    0    0    0 -0.00000000000E+00 -0.00000000000E+00 -0.18250000000E+03  0.18250000000E+03  0.00000000000E+00 0. -1.
        -11    1    1    2    0    0  0.42575441856E+00  0.31775335231E+00  0.90026900289E+01  0.90183513890E+01  0.00000000000E+00 0.  1.
         11    1    1    2    0    0 -0.34495461386E+01 -0.60324674418E+00 -0.18239529709E+03  0.18242891129E+03  0.00000000000E+00 0. -1.
        -15    1    1    2    0    0  0.29622801679E+01 -0.16153011131E+01  0.14239308576E+03  0.14244413959E+03  0.17770000000E+01 0.  1.
         15    1    1    2    0    0  0.61511552129E-01  0.19007945050E+01  0.30999521299E+02  0.31108597737E+02  0.17770000000E+01 0. -1.
</event>
<event>
 6    1  0.1378789E-002  0.1836334E+03  0.7546771E-02  0.1067556E+00
        -11   -1    0    0    0    0  0.00000000000E+00  0.00000000000E+00  0.18250000000E+03  0.18250000000E+03  0.00000000000E+00 0.  1.
         11   -1    0    0    0    0 -0.00000000000E+00 -0.00000000000E+00 -0.18250000000E+03  0.18250000000E+03  0.00000000000E+00 0. -1.
        -11    1    1    2    0    0  0.27409671758E+01 -0.16800545697E+02  0.18056601383E+03  0.18136663582E+03  0.00000000000E+00 0.  1.
         11    1    1    2    0    0 -0.25527539935E+01 -0.15498929901E+01 -0.10221974801E+03  0.10226336394E+03  0.00000000000E+00 0. -1.
        -15    1    1    2    0    0 -0.36934694794E+00  0.17246824727E+02 -0.76873463336E+02  0.78805307401E+02  0.17770000000E+01 0. -1.
         15    1    1    2    0    0  0.18113376563E+00  0.11036139598E+01 -0.14728024866E+01  0.25646928428E+01  0.17770000000E+01 0.  1.
</event>
<event>
 6    1  0.1378789E-002  0.1931580E+03  0.7546771E-02  0.1060274E+00
        -11   -1    0    0    0    0  0.00000000000E+00  0.00000000000E+00  0.18250000000E+03  0.18250000000E+03  0.00000000000E+00 0.  1.
         11   -1    0    0    0    0 -0.00000000000E+00 -0.00000000000E+00 -0.18250000000E+03  0.18250000000E+03  0.00000000000E+00 0.  1.
        -11    1    1    2    0    0  0.15317625497E+01 -0.84444203993E+01  0.14034189724E+03  0.14060406343E+03  0.00000000000E+00 0.  1.
         11    1    1    2    0    0 -0.52725036058E+01  0.29119578814E+01 -0.17173644864E+03  0.17184203963E+03  0.00000000000E+00 0.  1.
        -15    1    1    2    0    0 -0.18330086188E+02  0.75012475545E+01  0.15836805830E+02  0.25420915059E+02  0.17770000000E+01 0. -1.
         15    1    1    2    0    0  0.22070827244E+02 -0.19687850366E+01  0.15557745565E+02  0.27132981882E+02  0.17770000000E+01 0.  1.
</event>
<event>
 6    1  0.1378789E-002  0.1829786E+03  0.7546771E-02  0.1068074E+00
        -11   -1    0    0    0    0  0.00000000000E+00  0.00000000000E+00  0.18250000000E+03  0.18250000000E+03  0.00000000000E+00 0.  1.
         11   -1    0    0    0    0 -0.00000000000E+00 -0.00000000000E+00 -0.18250000000E+03  0.18250000000E+03  0.00000000000E+00 0. -1.
        -11    1    1    2    0    0 -0.17164617724E+01 -0.10741229208E+01  0.14173257190E+03  0.14174703496E+03  0.00000000000E+00 0.  1.
         11    1    1    2    0    0 -0.21503601457E+01  0.41832266943E+01 -0.18196063033E+03  0.18202141200E+03  0.00000000000E+00 0. -1.
        -15    1    1    2    0    0  0.42722706056E+01 -0.17659476498E+01  0.13031211998E+02  0.13940627043E+02  0.17770000000E+01 0. -1.
         15    1    1    2    0    0 -0.40544868751E+00 -0.13431561238E+01  0.27196846432E+02  0.27290925998E+02  0.17770000000E+01 0.  1.
</event>
<event>
 6    1  0.1378789E-002  0.1834277E+03  0.7546771E-02  0.1067719E+00
        -11   -1    0    0    0    0  0.00000000000E+00  0.00000000000E+00  0.18250000000E+03  0.18250000000E+03  0.00000000000E+00 0. -1.
         11   -1    0    0    0    0 -0.00000000000E+00 -0.00000000000E+00 -0.18250000000E+03  0.18250000000E+03  0.00000000000E+00 0.  1.
        -11    1    1    2    0    0 -0.84953315776E+00 -0.25892209666E+01  0.16989501972E+03  0.16991687231E+03  0.00000000000E+00 0. -1.
         11    1    1    2    0    0 -0.24275219594E+01 -0.61585188966E+00 -0.18155506715E+03  0.18157233970E+03  0.00000000000E+00 0.  1.
        -15    1    1    2    0    0  0.16131993281E+01  0.32318631895E+01  0.92364793482E+01  0.10075595838E+02  0.17770000000E+01 0.  1.
         15    1    1    2    0    0  0.16638557890E+01 -0.26790333253E-01  0.24235680847E+01  0.34351921445E+01  0.17770000000E+01 0. -1.
</event>
<event>
 6    1  0.1378789E-002  0.1854326E+03  0.7546771E-02  0.1066144E+00
        -11   -1    0    0    0    0  0.00000000000E+00  0.00000000000E+00  0.18250000000E+03  0.18250000000E+03  0.00000000000E+00 0.  1.
         11   -1    0    0    0    0 -0.00000000000E+00 -0.00000000000E+00 -0.18250000000E+03  0.18250000000E+03  0.00000000000E+00 0.  1.
        -11    1    1    2    0    0 -0.47802293376E+01 -0.24730345129E+01  0.17948668668E+03  0.17956736115E+03  0.00000000000E+00 0.  1.
         11    1    1    2    0    0 -0.44570926317E+01 -0.99190824643E+00 -0.16633398014E+03  0.16639664211E+03  0.00000000000E+00 0.  1.
        -15    1    1    2    0    0 -0.88389871493E+00  0.15586279090E+01 -0.41190061163E+00  0.25569491608E+01  0.17770000000E+01 0. -1.
         15    1    1    2    0    0  0.10121220684E+02  0.19063148504E+01 -0.12740805936E+02  0.16479047586E+02  0.17770000000E+01 0.  1.
</event>
<event>
 6    1  0.1378789E-002  0.1867580E+03  0.7546771E-02  0.1065115E+00
        -11   -1    0    0    0    0  0.00000000000E+00  0.00000000000E+00  0.18250000000E+03  0.18250000000E+03  0.00000000000E+00 0. -1.
         11   -1    0    0    0    0 -0.00000000000E+00 -0.00000000000E+00 -0.18250000000E+03  0.18250000000E+03  0.00000000000E+00 0. -1.
        -11    1    1    2    0    0 -0.14550229617E+01 -0.97477588918E+00  0.11455780608E+03  0.11457119277E+03  0.00000000000E+00 0. -1.
         11    1    1    2    0    0 -0.89546963484E+01 -0.12690712485E+02 -0.17756398967E+03  0.17824200177E+03  0.00000000000E+00 0. -1.
        -15    1    1    2    0    0  0.96106541489E+01  0.10815188692E+02  0.71718111994E+01  0.16245786669E+02  0.17770000000E+01 0.  1.
         15    1    1    2    0    0  0.79906516118E+00  0.28502996816E+01  0.55834372392E+02  0.55941018786E+02  0.17770000000E+01 0.  1.
</event>
<event>
 6    1  0.1378789E-002  0.1825806E+03  0.7546771E-02  0.1068391E+00
        -11   -1    0    0    0    0  0.00000000000E+00  0.00000000000E+00  0.18250000000E+03  0.18250000000E+03  0.00000000000E+00 0. -1.
         11   -1    0    0    0    0 -0.00000000000E+00 -0.00000000000E+00 -0.18250000000E+03  0.18250000000E+03  0.00000000000E+00 0.  1.
        -11    1    1    2    0    0 -0.24900074888E+01 -0.82696476008E+00  0.18240050485E+03  0.18241937446E+03  0.00000000000E+00 0. -1.
         11    1    1    2    0    0 -0.90666207962E-01 -0.61522027760E+00 -0.53901012329E+01  0.54258554765E+01  0.00000000000E+00 0.  1.
        -15    1    1    2    0    0  0.36511730946E+01  0.25536526891E+01 -0.11829310352E+03  0.11839032172E+03  0.17770000000E+01 0.  1.
         15    1    1    2    0    0 -0.10704993978E+01 -0.11114676514E+01 -0.58717300100E+02  0.58764448346E+02  0.17770000000E+01 0.  1.
</event>
<event>
 6    1  0.1378789E-002  0.1864887E+03  0.7546771E-02  0.1065323E+00
        -11   -1    0    0    0    0  0.00000000000E+00  0.00000000000E+00  0.18250000000E+03  0.18250000000E+03  0.00000000000E+00 0. -1.
         11   -1    0    0    0    0 -0.00000000000E+00 -0.00000000000E+00 -0.18250000000E+03  0.18250000000E+03  0.00000000000E+00 0. -1.
        -11    1    1    2    0    0 -0.51536196579E+01 -0.18683075890E+01  0.17203954110E+03  0.17212685458E+03  0.00000000000E+00 0. -1.
         11    1    1    2    0    0 -0.40454870234E+01  0.82252667396E+00 -0.17846352504E+03  0.17851126655E+03  0.00000000000E+00 0. -1.
        -15    1    1    2    0    0  0.16460813477E+01  0.30787112264E+01  0.47692481215E+01  0.61718314351E+01  0.17770000000E+01 0. -1.
         15    1    1    2    0    0  0.75530253336E+01 -0.20329303113E+01  0.16547358202E+01  0.81900474342E+01  0.17770000000E+01 0.  1.
</event>
<event>
 6    1  0.1378789E-002  0.1838953E+03  0.7546771E-02  0.1067350E+00
        -11   -1    0    0    0    0  0.00000000000E+00  0.00000000000E+00  0.18250000000E+03  0.18250000000E+03  0.00000000000E+00 0. -1.
         11   -1    0    0    0    0 -0.00000000000E+00 -0.00000000000E+00 -0.18250000000E+03  0.18250000000E+03  0.00000000000E+00 0.  1.
        -11    1    1    2    0    0 -0.39930821554E+01  0.10128166477E+01  0.12897802231E+03  0.12904379389E+03  0.00000000000E+00 0. -1.
         11    1    1    2    0    0 -0.10860885885E+01  0.24755881438E+01 -0.18108455978E+03  0.18110473742E+03  0.00000000000E+00 0.  1.
        -15    1    1    2    0    0  0.25237685065E+01 -0.28654290772E+01  0.20316038607E+01  0.46760276430E+01  0.17770000000E+01 0.  1.
         15    1    1    2    0    0  0.25554022374E+01 -0.62297571435E+00  0.50074933614E+02  0.50175441052E+02  0.17770000000E+01 0.  1.
</event>
<event>
 6    1  0.1378789E-002  0.1846972E+03  0.7546771E-02  0.1066719E+00
        -11   -1    0    0    0    0  0.00000000000E+00  0.00000000000E+00  0.18250000000E+03  0.18250000000E+03  0.00000000000E+00 0.  1.
         11   -1    0    0    0    0 -0.00000000000E+00 -0.00000000000E+00 -0.18250000000E+03  0.18250000000E+03  0.00000000000E+00 0.  1.
        -11    1    1    2    0    0 -0.34423759153E+01  0.70383492616E+01  0.12646484998E+03  0.12670732652E+03  0.00000000000E+00 0.  1.
         11    1    1    2    0    0 -0.44928120577E+01 -0.26746313724E+01 -0.18022694310E+03  0.18030277323E+03  0.00000000000E+00 0.  1.
        -15    1    1    2    0    0  0.13332378721E+02 -0.53688767020E+01  0.46565376244E+02  0.48765450404E+02  0.17770000000E+01 0.  1.
         15    1    1    2    0    0 -0.53971907483E+01  0.10051588128E+01  0.71967168778E+01  0.92244498497E+01  0.17770000000E+01 0.  1.
</event>
<event>
 6    1  0.1378789E-002  0.1826255E+03  0.7546771E-02  0.1068355E+00
        -11   -1    0    0    0    0  0.00000000000E+00  0.00000000000E+00  0.18250000000E+03  0.18250000000E+03  0.00000000000E+00 0. -1.
         11   -1    0    0    0    0 -0.00000000000E+00 -0.00000000000E+00 -0.18250000000E+03  0.18250000000E+03  0.00000000000E+00 0. -1.
        -11    1    1    2    0    0  0.29044305233E+01 -0.20078787818E+01  0.11467935771E+03  0.11473370202E+03  0.00000000000E+00 0. -1.
         11    1    1    2    0    0 -0.24880135911E+01 -0.62430093103E+00 -0.18235643847E+03  0.18237447907E+03  0.00000000000E+00 0. -1.
        -15    1    1    2    0    0 -0.29125866201E+00  0.50754626078E+00  0.46015183756E+02  0.46053200757E+02  0.17770000000E+01 0. -1.
         15    1    1    2    0    0 -0.12515827022E+00  0.21246334521E+01  0.21661897010E+02  0.21838618157E+02  0.17770000000E+01 0.  1.
</event>
<event>
 6    1  0.1378789E-002  0.1845638E+03  0.7546771E-02  0.1066824E+00
        -11   -1    0    0    0    0  0.00000000000E+00  0.00000000000E+00  0.18250000000E+03  0.18250000000E+03  0.00000000000E+00 0.  1.
         11   -1    0    0    0    0 -0.00000000000E+00 -0.00000000000E+00 -0.18250000000E+03  0.18250000000E+03  0.00000000000E+00 0.  1.
        -11    1    1    2    0    0 -0.30698055671E+01 -0.13492737946E+01  0.17231666272E+03  0.17234928632E+03  0.00000000000E+00 0.  1.
         11    1    1    2    0    0 -0.13309828607E+01  0.29183058284E+01 -0.18040768413E+03  0.18043619514E+03  0.00000000000E+00 0.  1.
        -15    1    1    2    0    0  0.54275182447E+01  0.15555168806E+00  0.75695782401E+01  0.94835855223E+01  0.17770000000E+01 0. -1.
         15    1    1    2    0    0 -0.10267298169E+01 -0.17245837218E+01  0.52144317501E+00  0.27309330119E+01  0.17770000000E+01 0.  1.
</event>
<event>
 6    1  0.1378789E-002  0.1855131E+03  0.7546771E-02  0.1066081E+00
        -11   -1    0    0    0    0  0.00000000000E+00  0.00000000000E+00  0.18250000000E+03  0.18250000000E+03  0.00000000000E+00 0.  1.
         11   -1    0    0    0    0 -0.00000000000E+00 -0.00000000000E+00 -0.18250000000E+03  0.18250000000E+03  0.00000000000E+00 0.  1.
        -11    1    1    2    0    0  0.19903445395E+01  0.34479713309E+01  0.17433655051E+03  0.17438200257E+03  0.00000000000E+00 0.  1.
         11    1    1    2    0    0  0.59012291225E+01 -0.81035994224E+00 -0.17938799471E+03  0.17948686257E+03  0.00000000000E+00 0.  1.
        -15    1    1    2    0    0 -0.17543212431E+01 -0.22738922012E+01  0.26607961365E+01  0.42995108846E+01  0.17770000000E+01 0. -1.
         15    1    1    2    0    0 -0.61372524189E+01 -0.36371918745E+00  0.23906480715E+01  0.68316239726E+01  0.17770000000E+01 0.  1.
</event>
<event>
 6    1  0.1378789E-002  0.1836295E+03  0.7546771E-02  0.1067559E+00
        -11   -1    0    0    0    0  0.00000000000E+00  0.00000000000E+00  0.18250000000E+03  0.18250000000E+03  0.00000000000E+00 0.  1.
         11   -1    0    0    0    0 -0.00000000000E+00 -0.00000000000E+00 -0.18250000000E+03  0.18250000000E+03  0.00000000000E+00 0.  1.
        -11    1    1    2    0    0 -0.32811610827E+01 -0.86030305893E+01  0.18113663395E+03  0.18137050012E+03  0.00000000000E+00 0.  1.
         11    1    1    2    0    0 -0.29863894221E+01  0.25619137413E+01 -0.11420187254E+03  0.11426963558E+03  0.00000000000E+00 0.  1.
        -15    1    1    2    0    0  0.48968760481E+01  0.86814046940E+00 -0.60793750065E+02  0.61022707567E+02  0.17770000000E+01 0.  1.
         15    1    1    2    0    0  0.13706744568E+01  0.51729763786E+01 -0.61410113458E+01  0.83371567354E+01  0.17770000000E+01 0. -1.
</event>
<event>
 6    1  0.1378789E-002  0.1827012E+03  0.7546771E-02  0.1068295E+00
        -11   -1    0    0    0    0  0.00000000000E+00  0.00000000000E+00  0.18250000000E+03  0.18250000000E+03  0.00000000000E+00 0.  1.
         11   -1    0    0    0    0 -0.00000000000E+00 -0.00000000000E+00 -0.18250000000E+03  0.18250000000E+03  0.00000000000E+00 0. -1.
        -11    1    1    2    0    0  0.15214106945E+01  0.80368485903E+00  0.10560404928E+03  0.10561806581E+03  0.00000000000E+00 0.  1.
         11    1    1    2    0    0 -0.71092248173E+01  0.58289792219E+01 -0.18206688551E+03  0.18229884497E+03  0.00000000000E+00 0. -1.
        -15    1    1    2    0    0  0.26281503014E+01 -0.16576334803E+01  0.34580294592E+02  0.34765060418E+02  0.17770000000E+01 0.  1.
         15    1    1    2    0    0  0.29596638213E+01 -0.49750306007E+01  0.41882541634E+02  0.42318028808E+02  0.17770000000E+01 0. -1.
</event>
<event>
 6    1  0.1378789E-002  0.1837637E+03  0.7546771E-02  0.1067453E+00
        -11   -1    0    0    0    0  0.00000000000E+00  0.00000000000E+00  0.18250000000E+03  0.18250000000E+03  0.00000000000E+00 0.  1.
         11   -1    0    0    0    0 -0.00000000000E+00 -0.00000000000E+00 -0.18250000000E+03  0.18250000000E+03  0.00000000000E+00 0.  1.
        -11    1    1    2    0    0 -0.13862022860E+01 -0.21333336597E+00  0.25508714423E+02  0.25547242109E+02  0.00000000000E+00 0.  1.
         11    1    1    2    0    0 -0.27419627677E+01  0.83495282221E+00 -0.18121360925E+03  0.18123627585E+03  0.00000000000E+00 0.  1.
        -15    1    1    2    0    0  0.71965486429E+01  0.20046912757E+01  0.15266545919E+03  0.15285846152E+03  0.17770000000E+01 0.  1.
         15    1    1    2    0    0 -0.30683835892E+01 -0.26263107320E+01  0.30394356415E+01  0.53580205235E+01  0.17770000000E+01 0.  1.
</event>
<event>
 6    1  0.1378789E-002  0.1925835E+03  0.7546771E-02  0.1060700E+00
        -11   -1    0    0    0    0  0.00000000000E+00  0.00000000000E+00  0.18250000000E+03  0.18250000000E+03  0.00000000000E+00 0.  1.
         11   -1    0    0    0    0 -0.00000000000E+00 -0.00000000000E+00 -0.18250000000E+03  0.18250000000E+03  0.00000000000E+00 0.  1.
        -11    1    1    2    0    0 -0.24734404741E+01  0.55002182618E+01  0.17231099961E+03  0.17241650413E+03  0.00000000000E+00 0.  1.
         11    1    1    2    0    0  0.38738741052E+01 -0.44630579639E+01 -0.13370300955E+03  0.13383355540E+03  0.00000000000E+00 0.  1.
        -15    1    1    2    0    0  0.14939939188E+02 -0.10450175073E+02 -0.32025480784E+01  0.18596289555E+02  0.17770000000E+01 0. -1.
         15    1    1    2    0    0 -0.16340372819E+02  0.94130147754E+01 -0.35405441981E+02  0.40153650917E+02  0.17770000000E+01 0.  1.
</event>
<event>
 6    1  0.1378789E-002  0.1874160E+03  0.7546771E-02  0.1064608E+00
        -11   -1    0    0    0    0  0.00000000000E+00  0.00000000000E+00  0.18250000000E+03  0.18250000000E+03  0.00000000000E+00 0. -1.
         11   -1    0    0    0    0 -0.00000000000E+00 -0.00000000000E+00 -0.18250000000E+03  0.18250000000E+03  0.00000000000E+00 0.  1.
        -11    1    1    2    0    0  0.83280690108E+00 -0.49303882086E+01  0.17303050106E+03  0.17310273422E+03  0.00000000000E+00 0. -1.
         11    1    1    2    0    0  0.21571635672E+01 -0.16985209193E+01 -0.17756281390E+03  0.17758403985E+03  0.00000000000E+00 0.  1.
        -15    1    1    2    0    0  0.17851121948E+01 -0.22211977008E+01  0.93191903828E+00  0.34851896459E+01  0.17770000000E+01 0. -1.
         15    1    1    2    0    0 -0.47750826631E+01  0.88501068286E+01  0.36003938034E+01  0.10828036288E+02  0.17770000000E+01 0. -1.
</event>
<event>
 6    1  0.1378789E-002  0.1843884E+03  0.7546771E-02  0.1066962E+00
        -11   -1    0    0    0    0  0.00000000000E+00  0.00000000000E+00  0.18250000000E+03  0.18250000000E+03  0.00000000000E+00 0.  1.
         11   -1    0    0    0    0 -0.00000000000E+00 -0.00000000000E+00 -0.18250000000E+03  0.18250000000E+03  0.00000000000E+00 0. -1.
        -11    1    1    2    0    0 -0.14317422289E+02 -0.20099868073E+01  0.18003201865E+03  0.18061161748E+03  0.00000000000E+00 0.  1.
         11    1    1    2    0    0  0.78453927808E+01  0.20963786679E+01 -0.29887351751E+02  0.30970934537E+02  0.00000000000E+00 0. -1.
        -15    1    1    2    0    0  0.43233362712E+01  0.12062731060E+02 -0.30567199561E+02  0.33192049276E+02  0.17770000000E+01 0.  1.
         15    1    1    2    0    0  0.21486932372E+01 -0.12149122921E+02 -0.11957746734E+03  0.12022539871E+03  0.17770000000E+01 0. -1.
</event>
<event>
 6    1  0.1378789E-002  0.2017749E+03  0.7546771E-02  0.1054070E+00
        -11   -1    0    0    0    0  0.00000000000E+00  0.00000000000E+00  0.18250000000E+03  0.18250000000E+03  0.00000000000E+00 0.  1.
         11   -1    0    0    0    0 -0.00000000000E+00 -0.00000000000E+00 -0.18250000000E+03  0.18250000000E+03  0.00000000000E+00 0. -1.
        -11    1    1    2    0    0 -0.17442948777E+01  0.45102994513E+01  0.15075106661E+03  0.15082860952E+03  0.00000000000E+00 0.  1.
         11    1    1    2    0    0  0.21585203076E+01  0.12325058443E+02 -0.16274481351E+03  0.16322512245E+03  0.00000000000E+00 0. -1.
        -15    1    1    2    0    0  0.12684245436E+02  0.11845815606E+02  0.88457387006E+00  0.17468647045E+02  0.17770000000E+01 0.  1.
         15    1    1    2    0    0 -0.13098470865E+02 -0.28681173500E+02  0.11109173023E+02  0.33477620982E+02  0.17770000000E+01 0. -1.
</event>
<event>
 6    1  0.1378789E-002  0.1850307E+03  0.7546771E-02  0.1066458E+00
        -11   -1    0    0    0    0  0.00000000000E+00  0.00000000000E+00  0.18250000000E+03  0.18250000000E+03  0.00000000000E+00 0.  1.
         11   -1    0    0    0    0 -0.00000000000E+00 -0.00000000000E+00 -0.18250000000E+03  0.18250000000E+03  0.00000000000E+00 0. -1.
        -11    1    1    2    0    0  0.20800884530E+01  0.20880506089E+01  0.17994516606E+03  0.17996930158E+03  0.00000000000E+00 0.  1.
         11    1    1    2    0    0  0.38237232371E+01 -0.93000337799E-01 -0.16738640212E+03  0.16743009623E+03  0.00000000000E+00 0. -1.
        -15    1    1    2    0    0  0.11666049784E+01 -0.20009309322E+00  0.79710659094E+00  0.22790595295E+01  0.17770000000E+01 0.  1.
         15    1    1    2    0    0 -0.70704166684E+01 -0.17949571779E+01 -0.13355870528E+02  0.15321542667E+02  0.17770000000E+01 0.  1.
</event>
<event>
 6    1  0.1378789E-002  0.1867007E+03  0.7546771E-02  0.1065159E+00
        -11   -1    0    0    0    0  0.00000000000E+00  0.00000000000E+00  0.18250000000E+03  0.18250000000E+03  0.00000000000E+00 0. -1.
         11   -1    0    0    0    0 -0.00000000000E+00 -0.00000000000E+00 -0.18250000000E+03  0.18250000000E+03  0.00000000000E+00 0.  1.
        -11    1    1    2    0    0  0.32471958908E+01 -0.21682895831E+00  0.15303300900E+03  0.15306760971E+03  0.00000000000E+00 0. -1.
         11    1    1    2    0    0  0.17073714763E+01 -0.23175420797E+01 -0.17827603274E+03  0.17829927080E+03  0.00000000000E+00 0.  1.
        -15    1    1    2    0    0 -0.33623865966E+01  0.20662257328E+01 -0.30124116088E+01  0.52732613348E+01  0.17770000000E+01 0.  1.
         15    1    1    2    0    0 -0.15921807705E+01  0.46814530521E+00  0.28255435341E+02  0.28359858162E+02  0.17770000000E+01 0.  1.
</event>
<event>
 6    1  0.1378789E-002  0.1840325E+03  0.7546771E-02  0.1067241E+00
        -11   -1    0    0    0    0  0.00000000000E+00  0.00000000000E+00  0.18250000000E+03  0.18250000000E+03  0.00000000000E+00 0. -1.
         11   -1    0    0    0    0 -0.00000000000E+00 -0.00000000000E+00 -0.18250000000E+03  0.18250000000E+03  0.00000000000E+00 0.  1.
        -11    1    1    2    0    0  0.58939805641E+01  0.87237511417E+00  0.18086937841E+03  0.18096748905E+03  0.00000000000E+00 0. -1.
         11    1    1    2    0    0 -0.10623050638E+02  0.49224686876E-01 -0.17230045573E+03  0.17262763009E+03  0.00000000000E+00 0.  1.
        -15    1    1    2    0    0  0.52799994215E+01 -0.52768571385E+00 -0.59464079966E+01  0.81654358834E+01  0.17770000000E+01 0. -1.
         15    1    1    2    0    0 -0.55092934719E+00 -0.39391408719E+00 -0.26225146901E+01  0.32394449761E+01  0.17770000000E+01 0.  1.
</event>
<event>
 6    1  0.1378789E-002  0.1841938E+03  0.7546771E-02  0.1067114E+00
        -11   -1    0    0    0    0  0.00000000000E+00  0.00000000000E+00  0.18250000000E+03  0.18250000000E+03  0.00000000000E+00 0.  1.
         11   -1    0    0    0    0 -0.00000000000E+00 -0.00000000000E+00 -0.18250000000E+03  0.18250000000E+03  0.00000000000E+00 0. -1.
        -11    1    1    2    0    0 -0.13633380280E+01  0.24790907644E+01  0.15130494952E+03  0.15133139902E+03  0.00000000000E+00 0.  1.
         11    1    1    2    0    0 -0.26795839248E+01  0.19177308450E+01 -0.18077618147E+03  0.18080621020E+03  0.00000000000E+00 0. -1.
        -15    1    1    2    0    0 -0.25699754870E+01  0.14499988140E+01  0.20676936326E+01  0.40175062567E+01  0.17770000000E+01 0.  1.
         15    1    1    2    0    0  0.66128974398E+01 -0.58468204234E+01  0.27403538317E+02  0.28844884518E+02  0.17770000000E+01 0.  1.
</event>
<event>
 6    1  0.1378789E-002  0.1834678E+03  0.7546771E-02  0.1067687E+00
        -11   -1    0    0    0    0  0.00000000000E+00  0.00000000000E+00  0.18250000000E+03  0.18250000000E+03  0.00000000000E+00 0. -1.
         11   -1    0    0    0    0 -0.00000000000E+00 -0.00000000000E+00 -0.18250000000E+03  0.18250000000E+03  0.00000000000E+00 0. -1.
        -11    1    1    2    0    0  0.15989700585E+01  0.31154697753E+01  0.16072063510E+03  0.16075878018E+03  0.00000000000E+00 0. -1.
         11    1    1    2    0    0 -0.43494839711E+01  0.27076402656E+00 -0.18147988710E+03  0.18153220306E+03  0.00000000000E+00 0. -1.
        -15    1    1    2    0    0 -0.16388955018E+01 -0.15570343925E+01  0.26804813734E+01  0.39310359905E+01  0.17770000000E+01 0.  1.
         15    1    1    2    0    0  0.43894094144E+01 -0.18291994093E+01  0.18078770631E+02  0.18777980776E+02  0.17770000000E+01 0.  1.
</event>
<event>
 6    1  0.1378789E-002  0.1825591E+03  0.7546771E-02  0.1068408E+00
        -11   -1    0    0    0    0  0.00000000000E+00  0.00000000000E+00  0.18250000000E+03  0.18250000000E+03  0.00000000000E+00 0. -1.
         11   -1    0    0    0    0 -0.00000000000E+00 -0.00000000000E+00 -0.18250000000E+03  0.18250000000E+03  0.00000000000E+00 0. -1.
        -11    1    1    2    0    0 -0.37570931754E+01 -0.11032111032E+01  0.18239887102E+03  0.18244089721E+03  0.00000000000E+00 0. -1.
         11    1    1    2    0    0  0.91644222138E+00  0.23852712784E+00 -0.45362362767E+02  0.45372246113E+02  0.00000000000E+00 0. -1.
        -15    1    1    2    0    0  0.75199755822E-01  0.21594663985E+01 -0.49388280234E+02  0.49467452972E+02  0.17770000000E+01 0.  1.
         15    1    1    2    0    0  0.27654511982E+01 -0.12947824231E+01 -0.87648228023E+02  0.87719403705E+02  0.17770000000E+01 0. -1.
</event>
<event>
 6    1  0.1378789E-002  0.1911795E+03  0.7546771E-02  0.1061748E+00
        -11   -1    0    0    0    0  0.00000000000E+00  0.00000000000E+00  0.18250000000E+03  0.18250000000E+03  0.00000000000E+00 0. -1.
         11   -1    0    0    0    0 -0.00000000000E+00 -0.00000000000E+00 -0.18250000000E+03  0.18250000000E+03  0.00000000000E+00 0. -1.
        -11    1    1    2    0    0  0.20404556682E+01 -0.84475270452E+01  0.17360315535E+03  0.17382053883E+03  0.00000000000E+00 0. -1.
         11    1    1    2    0    0 -0.31685971406E+01 -0.20750580897E+01 -0.15706040479E+03  0.15710606808E+03  0.00000000000E+00 0. -1.
        -15    1    1    2    0    0 -0.20787394604E+01 -0.34427701511E+01  0.59177440125E+01  0.73723298390E+01  0.17770000000E+01 0.  1.
         15    1    1    2    0    0  0.32068809328E+01  0.13965355286E+02 -0.22460494567E+02  0.26701063252E+02  0.17770000000E+01 0. -1.
</event>
<event>
 6    1  0.1378789E-002  0.1850189E+03  0.7546771E-02  0.1066467E+00
        -11   -1    0    0    0    0  0.00000000000E+00  0.00000000000E+00  0.18250000000E+03  0.18250000000E+03  0.00000000000E+00 0.  1.
         11   -1    0    0    0    0 -0.00000000000E+00 -0.00000000000E+00 -0.18250000000E+03  0.18250000000E+03  0.00000000000E+00 0. -1.
        -11    1    1    2    0    0  0.25046259247E+01 -0.43186892507E+01  0.16352402904E+03  0.16360022097E+03  0.00000000000E+00 0.  1.
         11    1    1    2    0    0 -0.20859948266E+01 -0.33022667080E+01 -0.17993870759E+03  0.17998109575E+03  0.00000000000E+00 0. -1.
        -15    1    1    2    0    0  0.40658626933E+01  0.10192974638E+01  0.22852850888E+01  0.50941597637E+01  0.17770000000E+01 0.  1.
         15    1    1    2    0    0 -0.44844937915E+01  0.66016584950E+01  0.14129393462E+02  0.16324523517E+02  0.17770000000E+01 0. -1.
</event>
<event>
 6    1  0.1378789E-002  0.1826554E+03  0.7546771E-02  0.1068331E+00
        -11   -1    0    0    0    0  0.00000000000E+00  0.00000000000E+00  0.18250000000E+03  0.18250000000E+03  0.00000000000E+00 0. -1.
         11   -1    0    0    0    0 -0.00000000000E+00 -0.00000000000E+00 -0.18250000000E+03  0.18250000000E+03  0.00000000000E+00 0. -1.
        -11    1    1    2    0    0  0.32438041873E+01  0.70258946345E+00  0.18231441799E+03  0.18234462675E+03  0.00000000000E+00 0. -1.
         11    1    1    2    0    0 -0.78652210859E+00  0.17379316357E+01 -0.95329588703E+02  0.95348673329E+02  0.00000000000E+00 0. -1.
        -15    1    1    2    0    0 -0.75551677822E+00 -0.92217154188E+00 -0.72737695168E+02  0.72769164028E+02  0.17770000000E+01 0. -1.
         15    1    1    2    0    0 -0.17017653004E+01 -0.15183495573E+01 -0.14247134114E+02  0.14537535898E+02  0.17770000000E+01 0.  1.
</event>
<event>
 6    1  0.1378789E-002  0.1848635E+03  0.7546771E-02  0.1066589E+00
        -11   -1    0    0    0    0  0.00000000000E+00  0.00000000000E+00  0.18250000000E+03  0.18250000000E+03  0.00000000000E+00 0.  1.
         11   -1    0    0    0    0 -0.00000000000E+00 -0.00000000000E+00 -0.18250000000E+03  0.18250000000E+03  0.00000000000E+00 0. -1.
        -11    1    1    2    0    0  0.71307260155E+01  0.14619701387E+02  0.17940064126E+03  0.18013653990E+03  0.00000000000E+00 0.  1.
         11    1    1    2    0    0 -0.24377639648E+01 -0.26585546077E+01 -0.12754165529E+03  0.12759265041E+03  0.00000000000E+00 0. -1.
        -15    1    1    2    0    0 -0.10817441827E+02 -0.98835400701E+01 -0.20855537732E+02  0.25550197555E+02  0.17770000000E+01 0.  1.
         15    1    1    2    0    0  0.61244797760E+01 -0.20776067088E+01 -0.31003448244E+02  0.31720612135E+02  0.17770000000E+01 0. -1.
</event>
<event>
 6    1  0.1378789E-002  0.1837891E+03  0.7546771E-02  0.1067433E+00
        -11   -1    0    0    0    0  0.00000000000E+00  0.00000000000E+00  0.18250000000E+03  0.18250000000E+03  0.00000000000E+00 0. -1.
         11   -1    0    0    0    0 -0.00000000000E+00 -0.00000000000E+00 -0.18250000000E+03  0.18250000000E+03  0.00000000000E+00 0. -1.
        -11    1    1    2    0    0  0.56654501010E+01 -0.29718674999E+00  0.18112210925E+03  0.18121093814E+03  0.00000000000E+00 0. -1.
         11    1    1    2    0    0 -0.79841883137E+00  0.41831445793E+01 -0.13644313813E+03  0.13650958250E+03  0.00000000000E+00 0. -1.
        -15    1    1    2    0    0 -0.36586851043E+01 -0.21043938630E+01 -0.29285776517E+01  0.54358758526E+01  0.17770000000E+01 0.  1.
         15    1    1    2    0    0 -0.12083461653E+01 -0.17815639663E+01 -0.41750393463E+02  0.41843603501E+02  0.17770000000E+01 0. -1.
</event>
<event>
 6    1  0.2362817E-002  0.1851496E+03  0.7546771E-02  0.1066365E+00
        -11   -1    0    0    0    0  0.00000000000E+00  0.00000000000E+00  0.18250000000E+03  0.18250000000E+03  0.00000000000E+00 0. -1.
         11   -1    0    0    0    0 -0.00000000000E+00 -0.00000000000E+00 -0.18250000000E+03  0.18250000000E+03  0.00000000000E+00 0.  1.
        -11    1    1    2    0    0 -0.27827434344E+00  0.26901450462E+01  0.15327777009E+03  0.15330162791E+03  0.00000000000E+00 0. -1.
         11    1    1    2    0    0  0.30395132447E+01  0.99758041774E+01 -0.17954782053E+03  0.17985042443E+03  0.00000000000E+00 0.  1.
        -15    1    1    2    0    0 -0.25988545801E+01 -0.11639706581E+02  0.10634672513E+02  0.16077649171E+02  0.17770000000E+01 0. -1.
         15    1    1    2    0    0 -0.16238432110E+00 -0.10262426425E+01  0.15635377929E+02  0.15770298495E+02  0.17770000000E+01 0. -1.
</event>
<event>
 6    1  0.1378789E-002  0.1852205E+03  0.7546771E-02  0.1066310E+00
        -11   -1    0    0    0    0  0.00000000000E+00  0.00000000000E+00  0.18250000000E+03  0.18250000000E+03  0.00000000000E+00 0. -1.
         11   -1    0    0    0    0 -0.00000000000E+00 -0.00000000000E+00 -0.18250000000E+03  0.18250000000E+03  0.00000000000E+00 0. -1.
        -11    1    1    2    0    0 -0.16297560789E+01 -0.25948727692E+01  0.10171145802E+03  0.10175760494E+03  0.00000000000E+00 0. -1.
         11    1    1    2    0    0  0.28458499904E+01  0.22541957027E+01 -0.17974281819E+03  0.17977947867E+03  0.00000000000E+00 0. -1.
        -15    1    1    2    0    0  0.58909511359E+01 -0.11983378593E+02  0.23588557559E+02  0.27163991689E+02  0.17770000000E+01 0.  1.
         15    1    1    2    0    0 -0.71070450474E+01  0.12324055660E+02  0.54442802613E+02  0.56298924702E+02  0.17770000000E+01 0. -1.
</event>
<event>
 6    1  0.1378789E-002  0.1830051E+03  0.7546771E-02  0.1068053E+00
        -11   -1    0    0    0    0  0.00000000000E+00  0.00000000000E+00  0.18250000000E+03  0.18250000000E+03  0.00000000000E+00 0.  1.
         11   -1    0    0    0    0 -0.00000000000E+00 -0.00000000000E+00 -0.18250000000E+03  0.18250000000E+03  0.00000000000E+00 0.  1.
        -11    1    1    2    0    0  0.33739206560E+00  0.88490417336E+00  0.86888137417E+01  0.87402730529E+01  0.00000000000E+00 0.  1.
         11    1    1    2    0    0 -0.23203641761E+01 -0.17533504588E+01 -0.18197163391E+03  0.18199487321E+03  0.00000000000E+00 0.  1.
        -15    1    1    2    0    0  0.42768967591E+01  0.43386161810E+01  0.16178207823E+03  0.16190649772E+03  0.17770000000E+01 0.  1.
         15    1    1    2    0    0 -0.22939246487E+01 -0.34701698956E+01  0.11500741934E+02  0.12358356017E+02  0.17770000000E+01 0. -1.
</event>
<event>
 6    1  0.1378789E-002  0.1892674E+03  0.7546771E-02  0.1063192E+00
        -11   -1    0    0    0    0  0.00000000000E+00  0.00000000000E+00  0.18250000000E+03  0.18250000000E+03  0.00000000000E+00 0.  1.
         11   -1    0    0    0    0 -0.00000000000E+00 -0.00000000000E+00 -0.18250000000E+03  0.18250000000E+03  0.00000000000E+00 0.  1.
        -11    1    1    2    0    0  0.30659790695E+01  0.30589241645E+00  0.17570558056E+03  0.17573259470E+03  0.00000000000E+00 0.  1.
         11    1    1    2    0    0 -0.16657072062E-01  0.31505651126E+01 -0.15771336185E+03  0.15774482826E+03  0.00000000000E+00 0.  1.
        -15    1    1    2    0    0 -0.68280672913E+01 -0.26763895481E+00 -0.23124155240E+02  0.24178056541E+02  0.17770000000E+01 0.  1.
         15    1    1    2    0    0  0.37787452939E+01 -0.31888185742E+01  0.51319365258E+01  0.73445205017E+01  0.17770000000E+01 0. -1.
</event>
<event>
 6    1  0.1378789E-002  0.1784629E+03  0.7546771E-02  0.1071715E+00
        -11   -1    0    0    0    0  0.00000000000E+00  0.00000000000E+00  0.18250000000E+03  0.18250000000E+03  0.00000000000E+00 0.  1.
         11   -1    0    0    0    0 -0.00000000000E+00 -0.00000000000E+00 -0.18250000000E+03  0.18250000000E+03  0.00000000000E+00 0.  1.
        -11    1    1    2    0    0  0.24047052688E+01 -0.14661714238E+01  0.17691311792E+03  0.17693553503E+03  0.00000000000E+00 0.  1.
         11    1    1    2    0    0  0.32725818505E+01  0.24030048380E+01 -0.18000425619E+03  0.18005003879E+03  0.00000000000E+00 0.  1.
        -15    1    1    2    0    0 -0.36459548221E+01 -0.35263110707E-01  0.32006364611E+01  0.51668203770E+01  0.17770000000E+01 0.  1.
         15    1    1    2    0    0 -0.20313322972E+01 -0.90157030354E+00 -0.10949819206E+00  0.28476057957E+01  0.17770000000E+01 0. -1.
</event>
<event>
 6    1  0.1378789E-002  0.1829341E+03  0.7546771E-02  0.1068110E+00
        -11   -1    0    0    0    0  0.00000000000E+00  0.00000000000E+00  0.18250000000E+03  0.18250000000E+03  0.00000000000E+00 0. -1.
         11   -1    0    0    0    0 -0.00000000000E+00 -0.00000000000E+00 -0.18250000000E+03  0.18250000000E+03  0.00000000000E+00 0. -1.
        -11    1    1    2    0    0 -0.34820019523E+01  0.41500118838E+00  0.51219601927E+02  0.51339499268E+02  0.00000000000E+00 0. -1.
         11    1    1    2    0    0 -0.25066999527E+01 -0.45743249801E+01 -0.18199117343E+03  0.18206590894E+03  0.00000000000E+00 0. -1.
        -15    1    1    2    0    0 -0.10914746564E+01  0.37243749598E+01  0.94330821339E+02  0.94427347041E+02  0.17770000000E+01 0. -1.
         15    1    1    2    0    0  0.70801765614E+01  0.43494883192E+00  0.36440750163E+02  0.37167244747E+02  0.17770000000E+01 0.  1.
</event>
<event>
 6    1  0.1378789E-002  0.1859799E+03  0.7546771E-02  0.1065718E+00
        -11   -1    0    0    0    0  0.00000000000E+00  0.00000000000E+00  0.18250000000E+03  0.18250000000E+03  0.00000000000E+00 0. -1.
         11   -1    0    0    0    0 -0.00000000000E+00 -0.00000000000E+00 -0.18250000000E+03  0.18250000000E+03  0.00000000000E+00 0. -1.
        -11    1    1    2    0    0 -0.24600431984E+01  0.39228019785E+00  0.15864504827E+03  0.15866460550E+03  0.00000000000E+00 0. -1.
         11    1    1    2    0    0 -0.24874279873E+01  0.67740991785E+01 -0.17887462055E+03  0.17902012622E+03  0.00000000000E+00 0. -1.
        -15    1    1    2    0    0  0.10353419591E+01  0.69423838096E+00  0.17937497961E+02  0.18068355266E+02  0.17770000000E+01 0. -1.
         15    1    1    2    0    0  0.39121292266E+01 -0.78606177573E+01  0.22920743114E+01  0.92469130125E+01  0.17770000000E+01 0.  1.
</event>
<event>
 6    1  0.1378789E-002  0.1854380E+03  0.7546771E-02  0.1066140E+00
        -11   -1    0    0    0    0  0.00000000000E+00  0.00000000000E+00  0.18250000000E+03  0.18250000000E+03  0.00000000000E+00 0.  1.
         11   -1    0    0    0    0 -0.00000000000E+00 -0.00000000000E+00 -0.18250000000E+03  0.18250000000E+03  0.00000000000E+00 0. -1.
        -11    1    1    2    0    0  0.66366834041E+01  0.14775121727E+01  0.17943325470E+03  0.17956202689E+03  0.00000000000E+00 0.  1.
         11    1    1    2    0    0 -0.97428903931E+00 -0.61598135553E+01 -0.16259793243E+03  0.16271748577E+03  0.00000000000E+00 0. -1.
        -15    1    1    2    0    0 -0.26585473150E+01  0.83647217896E+00  0.15247239449E+01  0.36400647852E+01  0.17770000000E+01 0. -1.
         15    1    1    2    0    0 -0.30038470498E+01  0.38458292037E+01 -0.18360046208E+02  0.19080422561E+02  0.17770000000E+01 0.  1.
</event>
<event>
 6    1  0.1378789E-002  0.1765655E+03  0.7546771E-02  0.1073279E+00
        -11   -1    0    0    0    0  0.00000000000E+00  0.00000000000E+00  0.18250000000E+03  0.18250000000E+03  0.00000000000E+00 0. -1.
         11   -1    0    0    0    0 -0.00000000000E+00 -0.00000000000E+00 -0.18250000000E+03  0.18250000000E+03  0.00000000000E+00 0. -1.
        -11    1    1    2    0    0 -0.54575406432E+01 -0.22104157744E+02  0.17914779919E+03  0.18058879394E+03  0.00000000000E+00 0. -1.
         11    1    1    2    0    0 -0.97904013839E+00  0.59471563551E+00 -0.15037095177E+02  0.15080664363E+02  0.00000000000E+00 0. -1.
        -15    1    1    2    0    0  0.50118482249E+01  0.20661529262E+02 -0.41204217564E+02  0.46400028967E+02  0.17770000000E+01 0. -1.
         15    1    1    2    0    0  0.14247325567E+01  0.84791284651E+00 -0.12290648645E+03  0.12293051273E+03  0.17770000000E+01 0.  1.
</event>
<event>
 6    1  0.1378789E-002  0.1841764E+03  0.7546771E-02  0.1067128E+00
        -11   -1    0    0    0    0  0.00000000000E+00  0.00000000000E+00  0.18250000000E+03  0.18250000000E+03  0.00000000000E+00 0. -1.
         11   -1    0    0    0    0 -0.00000000000E+00 -0.00000000000E+00 -0.18250000000E+03  0.18250000000E+03  0.00000000000E+00 0. -1.
        -11    1    1    2    0    0 -0.55038374188E+01  0.47954325586E+01  0.16588739897E+03  0.16604793747E+03  0.00000000000E+00 0. -1.
         11    1    1    2    0    0 -0.16865685709E+01 -0.29344458281E+01 -0.18079193702E+03  0.18082361566E+03  0.00000000000E+00 0. -1.
        -15    1    1    2    0    0  0.67162825861E+00 -0.24473578448E+01  0.73498996567E+01  0.79761769603E+01  0.17770000000E+01 0.  1.
         15    1    1    2    0    0  0.65187777311E+01  0.58637111431E+00  0.75546383968E+01  0.10152269918E+02  0.17770000000E+01 0.  1.
</event>
<event>
 6    1  0.1378789E-002  0.1826876E+03  0.7546771E-02  0.1068306E+00
        -11   -1    0    0    0    0  0.00000000000E+00  0.00000000000E+00  0.18250000000E+03  0.18250000000E+03  0.00000000000E+00 0. -1.
         11   -1    0    0    0    0 -0.00000000000E+00 -0.00000000000E+00 -0.18250000000E+03  0.18250000000E+03  0.00000000000E+00 0. -1.
        -11    1    1    2    0    0 -0.23968201982E+01 -0.10943922378E+01  0.18229331645E+03  0.18231235741E+03  0.00000000000E+00 0. -1.
         11    1    1    2    0    0  0.49104170194E+01  0.11445411534E+01 -0.70626540901E+02  0.70806288205E+02  0.00000000000E+00 0. -1.
        -15    1    1    2    0    0 -0.18033150738E+01  0.26164892853E+01 -0.57119391263E+02  0.57235308584E+02  0.17770000000E+01 0. -1.
         15    1    1    2    0    0 -0.71028174734E+00 -0.26666382009E+01 -0.54547384290E+02  0.54646045798E+02  0.17770000000E+01 0.  1.
</event>
<event>
 6    1  0.1378789E-002  0.1830261E+03  0.7546771E-02  0.1068037E+00
        -11   -1    0    0    0    0  0.00000000000E+00  0.00000000000E+00  0.18250000000E+03  0.18250000000E+03  0.00000000000E+00 0. -1.
         11   -1    0    0    0    0 -0.00000000000E+00 -0.00000000000E+00 -0.18250000000E+03  0.18250000000E+03  0.00000000000E+00 0.  1.
        -11    1    1    2    0    0  0.13586018873E+02  0.37421518217E+00  0.18146565086E+03  0.18197390579E+03  0.00000000000E+00 0. -1.
         11    1    1    2    0    0  0.13109633320E+00  0.79842007350E+00 -0.13292202274E+02  0.13316805253E+02  0.00000000000E+00 0.  1.
        -15    1    1    2    0    0 -0.15045750610E+02 -0.13965222871E+01 -0.16562721800E+03  0.16632455608E+03  0.17770000000E+01 0.  1.
         15    1    1    2    0    0  0.13286354041E+01  0.22388703144E+00 -0.25462305874E+01  0.33847328763E+01  0.17770000000E+01 0.  1.
</event>
<event>
 6    1  0.1378789E-002  0.1870197E+03  0.7546771E-02  0.1064913E+00
        -11   -1    0    0    0    0  0.00000000000E+00  0.00000000000E+00  0.18250000000E+03  0.18250000000E+03  0.00000000000E+00 0. -1.
         11   -1    0    0    0    0 -0.00000000000E+00 -0.00000000000E+00 -0.18250000000E+03  0.18250000000E+03  0.00000000000E+00 0.  1.
        -11    1    1    2    0    0 -0.47428640821E+01  0.35130310271E+01  0.14115418775E+03  0.14127753135E+03  0.00000000000E+00 0. -1.
         11    1    1    2    0    0  0.49355546896E+01  0.17347540921E+01 -0.17790343120E+03  0.17798033573E+03  0.00000000000E+00 0.  1.
        -15    1    1    2    0    0 -0.30293813353E+01  0.16236352451E+01 -0.32291190137E+01  0.50396707520E+01  0.17770000000E+01 0.  1.
         15    1    1    2    0    0  0.28366907278E+01 -0.68714203643E+01  0.39978362468E+02  0.40702462170E+02  0.17770000000E+01 0. -1.
</event>
<event>
 6    1  0.1378789E-002  0.1881627E+03  0.7546771E-02  0.1064035E+00
        -11   -1    0    0    0    0  0.00000000000E+00  0.00000000000E+00  0.18250000000E+03  0.18250000000E+03  0.00000000000E+00 0. -1.
         11   -1    0    0    0    0 -0.00000000000E+00 -0.00000000000E+00 -0.18250000000E+03  0.18250000000E+03  0.00000000000E+00 0.  1.
        -11    1    1    2    0    0  0.35820293180E+01 -0.28655748088E+01  0.61526384374E+02  0.61697150883E+02  0.00000000000E+00 0. -1.
         11    1    1    2    0    0  0.69896578493E+01 -0.24939788481E+01 -0.17668148852E+03  0.17683728010E+03  0.00000000000E+00 0.  1.
        -15    1    1    2    0    0 -0.47949458519E+01  0.45059670525E+01 -0.34943544759E+01  0.76592092936E+01  0.17770000000E+01 0.  1.
         15    1    1    2    0    0 -0.57767413154E+01  0.85358660448E+00  0.11864945862E+03  0.11880635972E+03  0.17770000000E+01 0. -1.
</event>
<event>
 6    1  0.1378789E-002  0.1856658E+03  0.7546771E-02  0.1065962E+00
        -11   -1    0    0    0    0  0.00000000000E+00  0.00000000000E+00  0.18250000000E+03  0.18250000000E+03  0.00000000000E+00 0. -1.
         11   -1    0    0    0    0 -0.00000000000E+00 -0.00000000000E+00 -0.18250000000E+03  0.18250000000E+03  0.00000000000E+00 0.  1.
        -11    1    1    2    0    0  0.26378609127E+01  0.18191299485E+01  0.12604625601E+03  0.12608697870E+03  0.00000000000E+00 0. -1.
         11    1    1    2    0    0  0.97799004045E+01 -0.27507359797E+01 -0.17904616389E+03  0.17933416240E+03  0.00000000000E+00 0.  1.
        -15    1    1    2    0    0 -0.34249924135E+01 -0.36534820613E+01  0.47784062347E+02  0.48078611123E+02  0.17770000000E+01 0. -1.
         15    1    1    2    0    0 -0.89927689037E+01  0.45850880926E+01  0.52158455338E+01  0.11500247780E+02  0.17770000000E+01 0.  1.
</event>
<event>
 6    1  0.1378789E-002  0.1939407E+03  0.7546771E-02  0.1059696E+00
        -11   -1    0    0    0    0  0.00000000000E+00  0.00000000000E+00  0.18250000000E+03  0.18250000000E+03  0.00000000000E+00 0.  1.
         11   -1    0    0    0    0 -0.00000000000E+00 -0.00000000000E+00 -0.18250000000E+03  0.18250000000E+03  0.00000000000E+00 0.  1.
        -11    1    1    2    0    0 -0.14941673959E+02 -0.20419065205E+01  0.17039321432E+03  0.17105926017E+03  0.00000000000E+00 0.  1.
         11    1    1    2    0    0  0.38054507869E+01 -0.32654669368E+02 -0.56963778627E+02  0.65769909249E+02  0.00000000000E+00 0.  1.
        -15    1    1    2    0    0  0.14126053986E+02  0.54912472853E+01 -0.53647898718E+01  0.16175224800E+02  0.17770000000E+01 0.  1.
         15    1    1    2    0    0 -0.29898308142E+01  0.29205328603E+02 -0.10806464583E+03  0.11199560578E+03  0.17770000000E+01 0. -1.
</event>
<event>
 6    1  0.1378789E-002  0.1858243E+03  0.7546771E-02  0.1065839E+00
        -11   -1    0    0    0    0  0.00000000000E+00  0.00000000000E+00  0.18250000000E+03  0.18250000000E+03  0.00000000000E+00 0. -1.
         11   -1    0    0    0    0 -0.00000000000E+00 -0.00000000000E+00 -0.18250000000E+03  0.18250000000E+03  0.00000000000E+00 0.  1.
        -11    1    1    2    0    0 -0.20099493784E+01 -0.85152377976E+01  0.17896199179E+03  0.17917573406E+03  0.00000000000E+00 0. -1.
         11    1    1    2    0    0  0.96832417468E+00  0.12435218231E+01 -0.11478642078E+03  0.11479724035E+03  0.00000000000E+00 0.  1.
        -15    1    1    2    0    0  0.89470958580E+01  0.91908130395E+00 -0.40439774353E+01  0.10020315226E+02  0.17770000000E+01 0. -1.
         15    1    1    2    0    0 -0.79054706542E+01  0.63526346706E+01 -0.60131593577E+02  0.61006710358E+02  0.17770000000E+01 0.  1.
</event>
<event>
 6    1  0.1378789E-002  0.1829685E+03  0.7546771E-02  0.1068083E+00
        -11   -1    0    0    0    0  0.00000000000E+00  0.00000000000E+00  0.18250000000E+03  0.18250000000E+03  0.00000000000E+00 0.  1.
         11   -1    0    0    0    0 -0.00000000000E+00 -0.00000000000E+00 -0.18250000000E+03  0.18250000000E+03  0.00000000000E+00 0. -1.
        -11    1    1    2    0    0 -0.46316401588E+01 -0.47676107303E+00  0.18197195196E+03  0.18203151016E+03  0.00000000000E+00 0.  1.
         11    1    1    2    0    0  0.20212804000E+01  0.30283859686E+01 -0.13351416702E+03  0.13356380308E+03  0.00000000000E+00 0. -1.
        -15    1    1    2    0    0 -0.78976863323E-01 -0.29528412470E+01 -0.68325798505E+01  0.76529331101E+01  0.17770000000E+01 0. -1.
         15    1    1    2    0    0  0.26893366222E+01  0.40121635139E+00 -0.41625205083E+02  0.41751753655E+02  0.17770000000E+01 0. -1.
</event>
<event>
 6    1  0.1378789E-002  0.1837600E+03  0.7546771E-02  0.1067456E+00
        -11   -1    0    0    0    0  0.00000000000E+00  0.00000000000E+00  0.18250000000E+03  0.18250000000E+03  0.00000000000E+00 0. -1.
         11   -1    0    0    0    0 -0.00000000000E+00 -0.00000000000E+00 -0.18250000000E+03  0.18250000000E+03  0.00000000000E+00 0. -1.
        -11    1    1    2    0    0 -0.12218394680E+01 -0.26977919755E+01  0.18121582031E+03  0.18124001905E+03  0.00000000000E+00 0. -1.
         11    1    1    2    0    0  0.11103485994E+01 -0.35918550760E+01 -0.16529416508E+03  0.16533691454E+03  0.00000000000E+00 0. -1.
        -15    1    1    2    0    0 -0.22983234035E+01  0.17291732899E+01 -0.35518657236E+01  0.49036527051E+01  0.17770000000E+01 0.  1.
         15    1    1    2    0    0  0.24098142720E+01  0.45604737615E+01 -0.12369789503E+02  0.13519413712E+02  0.17770000000E+01 0.  1.
</event>
<event>
 6    1  0.1378789E-002  0.1841994E+03  0.7546771E-02  0.1067110E+00
        -11   -1    0    0    0    0  0.00000000000E+00  0.00000000000E+00  0.18250000000E+03  0.18250000000E+03  0.00000000000E+00 0. -1.
         11   -1    0    0    0    0 -0.00000000000E+00 -0.00000000000E+00 -0.18250000000E+03  0.18250000000E+03  0.00000000000E+00 0.  1.
        -11    1    1    2    0    0 -0.44773919015E+01  0.43532231078E+01  0.18069274936E+03  0.18080062849E+03  0.00000000000E+00 0. -1.
         11    1    1    2    0    0 -0.20587009012E+00 -0.10528630332E+01 -0.53102856937E+02  0.53113692377E+02  0.00000000000E+00 0.  1.
        -15    1    1    2    0    0  0.15176297579E+01  0.16891549689E+01 -0.12382247239E+03  0.12385604080E+03  0.17770000000E+01 0.  1.
         15    1    1    2    0    0  0.31656322338E+01 -0.49895150435E+01 -0.37674200347E+01  0.72296383399E+01  0.17770000000E+01 0. -1.
</event>
<event>
 6    1  0.1378789E-002  0.1646116E+03  0.7546771E-02  0.1083659E+00
        -11   -1    0    0    0    0  0.00000000000E+00  0.00000000000E+00  0.18250000000E+03  0.18250000000E+03  0.00000000000E+00 0. -1.
         11   -1    0    0    0    0 -0.00000000000E+00 -0.00000000000E+00 -0.18250000000E+03  0.18250000000E+03  0.00000000000E+00 0.  1.
        -11    1    1    2    0    0  0.13274625601E+01  0.23458223350E+01  0.16249642514E+03  0.16251877806E+03  0.00000000000E+00 0. -1.
         11    1    1    2    0    0 -0.24862203669E+02 -0.26714942006E+00 -0.16571188423E+03  0.16756679002E+03  0.00000000000E+00 0.  1.
        -15    1    1    2    0    0  0.24779350718E+02  0.39994120700E+00 -0.56295413998E+01  0.25475981637E+02  0.17770000000E+01 0. -1.
         15    1    1    2    0    0 -0.12446096093E+01 -0.24786141219E+01  0.88450004978E+01  0.94384502886E+01  0.17770000000E+01 0.  1.
</event>
<event>
 6    1  0.1378789E-002  0.1828116E+03  0.7546771E-02  0.1068207E+00
        -11   -1    0    0    0    0  0.00000000000E+00  0.00000000000E+00  0.18250000000E+03  0.18250000000E+03  0.00000000000E+00 0.  1.
         11   -1    0    0    0    0 -0.00000000000E+00 -0.00000000000E+00 -0.18250000000E+03  0.18250000000E+03  0.00000000000E+00 0.  1.
        -11    1    1    2    0    0  0.21556043557E+01 -0.12461206232E+01  0.18217137798E+03  0.18218839261E+03  0.00000000000E+00 0.  1.
         11    1    1    2    0    0 -0.16094492040E+01  0.49762582016E+01 -0.96791715495E+02  0.96932913197E+02  0.00000000000E+00 0.  1.
        -15    1    1    2    0    0 -0.33948261942E+01  0.24804234168E+00 -0.27750013422E+02  0.28014413144E+02  0.17770000000E+01 0. -1.
         15    1    1    2    0    0  0.28486710425E+01 -0.39781799201E+01 -0.57629649059E+02  0.57864281053E+02  0.17770000000E+01 0.  1.
</event>
<event>
 6    1  0.1378789E-002  0.1842495E+03  0.7546771E-02  0.1067071E+00
        -11   -1    0    0    0    0  0.00000000000E+00  0.00000000000E+00  0.18250000000E+03  0.18250000000E+03  0.00000000000E+00 0. -1.
         11   -1    0    0    0    0 -0.00000000000E+00 -0.00000000000E+00 -0.18250000000E+03  0.18250000000E+03  0.00000000000E+00 0.  1.
        -11    1    1    2    0    0 -0.18698094680E+01  0.72921874384E+01  0.12478069667E+03  0.12500757756E+03  0.00000000000E+00 0. -1.
         11    1    1    2    0    0  0.39900757188E+01  0.32229629356E+01 -0.18067775547E+03  0.18075054500E+03  0.00000000000E+00 0.  1.
        -15    1    1    2    0    0 -0.17656450597E+01 -0.58724747726E+01  0.53187217880E+02  0.53569033380E+02  0.17770000000E+01 0.  1.
         15    1    1    2    0    0 -0.35462119104E+00 -0.46426756014E+01  0.27098409220E+01  0.56728440620E+01  0.17770000000E+01 0. -1.
</event>
<event>
 6    1  0.1378789E-002  0.1832184E+03  0.7546771E-02  0.1067884E+00
        -11   -1    0    0    0    0  0.00000000000E+00  0.00000000000E+00  0.18250000000E+03  0.18250000000E+03  0.00000000000E+00 0. -1.
         11   -1    0    0    0    0 -0.00000000000E+00 -0.00000000000E+00 -0.18250000000E+03  0.18250000000E+03  0.00000000000E+00 0.  1.
        -11    1    1    2    0    0  0.15278279320E+01 -0.74045644573E+01  0.18162426256E+03  0.18178155732E+03  0.00000000000E+00 0. -1.
         11    1    1    2    0    0 -0.46203545361E+00 -0.19571170038E+01 -0.99194765801E+02  0.99215146757E+02  0.00000000000E+00 0.  1.
        -15    1    1    2    0    0 -0.38021657159E+01  0.90849444302E+01 -0.33461871255E+02  0.34926311519E+02  0.17770000000E+01 0.  1.
         15    1    1    2    0    0  0.27363732375E+01  0.27673703087E+00 -0.48967625501E+02  0.49076984403E+02  0.17770000000E+01 0. -1.
</event>
<event>
 6    1  0.1378789E-002  0.1894018E+03  0.7546771E-02  0.1063090E+00
        -11   -1    0    0    0    0  0.00000000000E+00  0.00000000000E+00  0.18250000000E+03  0.18250000000E+03  0.00000000000E+00 0.  1.
         11   -1    0    0    0    0 -0.00000000000E+00 -0.00000000000E+00 -0.18250000000E+03  0.18250000000E+03  0.00000000000E+00 0. -1.
        -11    1    1    2    0    0 -0.12913079276E+01 -0.24963797387E+01  0.15964561729E+03  0.15967035576E+03  0.00000000000E+00 0.  1.
         11    1    1    2    0    0 -0.10089986263E+02  0.32959850679E+01 -0.17527704522E+03  0.17559816036E+03  0.00000000000E+00 0. -1.
        -15    1    1    2    0    0  0.61888923945E+01 -0.10383225515E+02  0.23212200979E+01  0.12436219398E+02  0.17770000000E+01 0. -1.
         15    1    1    2    0    0  0.51924017961E+01  0.95836201857E+01  0.13310207829E+02  0.17295264488E+02  0.17770000000E+01 0.  1.
</event>
<event>
 6    1  0.1378789E-002  0.1574658E+03  0.7546771E-02  0.1090336E+00
        -11   -1    0    0    0    0  0.00000000000E+00  0.00000000000E+00  0.18250000000E+03  0.18250000000E+03  0.00000000000E+00 0. -1.
         11   -1    0    0    0    0 -0.00000000000E+00 -0.00000000000E+00 -0.18250000000E+03  0.18250000000E+03  0.00000000000E+00 0.  1.
        -11    1    1    2    0    0 -0.12064799810E+02  0.65220381406E-02  0.15330412343E+03  0.15377813140E+03  0.00000000000E+00 0. -1.
         11    1    1    2    0    0  0.98435209727E+01  0.13838671735E+02 -0.16065611820E+03  0.16155120567E+03  0.00000000000E+00 0.  1.
        -15    1    1    2    0    0  0.56175192248E+01 -0.97807304635E+01  0.26962120220E+02  0.29280247034E+02  0.17770000000E+01 0.  1.
         15    1    1    2    0    0 -0.33962403879E+01 -0.40644633095E+01 -0.19610125455E+02  0.20390415889E+02  0.17770000000E+01 0. -1.
</event>
<event>
 6    1  0.1378789E-002  0.1838734E+03  0.7546771E-02  0.1067367E+00
        -11   -1    0    0    0    0  0.00000000000E+00  0.00000000000E+00  0.18250000000E+03  0.18250000000E+03  0.00000000000E+00 0.  1.
         11   -1    0    0    0    0 -0.00000000000E+00 -0.00000000000E+00 -0.18250000000E+03  0.18250000000E+03  0.00000000000E+00 0.  1.
        -11    1    1    2    0    0 -0.13359178016E+01  0.37910836710E+01  0.16927628191E+03  0.16932399892E+03  0.00000000000E+00 0.  1.
         11    1    1    2    0    0 -0.87090856380E-02 -0.67318101257E+01 -0.18100148623E+03  0.18112662797E+03  0.00000000000E+00 0.  1.
        -15    1    1    2    0    0 -0.72627195850E+00  0.11508516323E+01  0.10974886553E+02  0.11200794360E+02  0.17770000000E+01 0. -1.
         15    1    1    2    0    0  0.20708988458E+01  0.17898748224E+01  0.75031776482E+00  0.33485787519E+01  0.17770000000E+01 0.  1.
</event>
<event>
 6    1  0.1378789E-002  0.1828318E+03  0.7546771E-02  0.1068191E+00
        -11   -1    0    0    0    0  0.00000000000E+00  0.00000000000E+00  0.18250000000E+03  0.18250000000E+03  0.00000000000E+00 0.  1.
         11   -1    0    0    0    0 -0.00000000000E+00 -0.00000000000E+00 -0.18250000000E+03  0.18250000000E+03  0.00000000000E+00 0. -1.
        -11    1    1    2    0    0 -0.51306393280E+00  0.24734366843E+01  0.12898629284E+03  0.12901102613E+03  0.00000000000E+00 0.  1.
         11    1    1    2    0    0  0.39553143081E+01 -0.31298228790E+01 -0.18209834091E+03  0.18216818071E+03  0.00000000000E+00 0. -1.
        -15    1    1    2    0    0 -0.41434185894E+01  0.23029723894E+01  0.20672857330E+02  0.21283711110E+02  0.17770000000E+01 0.  1.
         15    1    1    2    0    0  0.70116821406E+00 -0.16465861947E+01  0.32439190741E+02  0.32537082044E+02  0.17770000000E+01 0. -1.
</event>
<event>
 6    1  0.1378789E-002  0.1834034E+03  0.7546771E-02  0.1067738E+00
        -11   -1    0    0    0    0  0.00000000000E+00  0.00000000000E+00  0.18250000000E+03  0.18250000000E+03  0.00000000000E+00 0.  1.
         11   -1    0    0    0    0 -0.00000000000E+00 -0.00000000000E+00 -0.18250000000E+03  0.18250000000E+03  0.00000000000E+00 0.  1.
        -11    1    1    2    0    0  0.37474802235E+01  0.17827509755E+01  0.18154921876E+03  0.18159664270E+03  0.00000000000E+00 0.  1.
         11    1    1    2    0    0 -0.23667491226E+01  0.36575803502E+01 -0.16622375917E+03  0.16628083927E+03  0.00000000000E+00 0.  1.
        -15    1    1    2    0    0 -0.18718202535E+01 -0.25468434699E+01 -0.45739306908E+01  0.58368393575E+01  0.17770000000E+01 0.  1.
         15    1    1    2    0    0  0.49108915261E+00 -0.28934878558E+01 -0.10751528896E+02  0.11285678674E+02  0.17770000000E+01 0. -1.
</event>
<event>
 6    1  0.1378789E-002  0.1829158E+03  0.7546771E-02  0.1068124E+00
        -11   -1    0    0    0    0  0.00000000000E+00  0.00000000000E+00  0.18250000000E+03  0.18250000000E+03  0.00000000000E+00 0.  1.
         11   -1    0    0    0    0 -0.00000000000E+00 -0.00000000000E+00 -0.18250000000E+03  0.18250000000E+03  0.00000000000E+00 0.  1.
        -11    1    1    2    0    0  0.30904021020E+01  0.77883184681E+00  0.45851818994E+02  0.45962446293E+02  0.00000000000E+00 0.  1.
         11    1    1    2    0    0  0.20364925772E+00  0.13961489137E+02 -0.18154801674E+03  0.18208417568E+03  0.00000000000E+00 0.  1.
        -15    1    1    2    0    0 -0.33712720230E+01 -0.80117847437E+01  0.38529706661E+02  0.39537958903E+02  0.17770000000E+01 0. -1.
         15    1    1    2    0    0  0.77220663279E-01 -0.67285362403E+01  0.97166491087E+02  0.97415419119E+02  0.17770000000E+01 0.  1.
</event>
<event>
 6    1  0.1378789E-002  0.1826340E+03  0.7546771E-02  0.1068348E+00
        -11   -1    0    0    0    0  0.00000000000E+00  0.00000000000E+00  0.18250000000E+03  0.18250000000E+03  0.00000000000E+00 0.  1.
         11   -1    0    0    0    0 -0.00000000000E+00 -0.00000000000E+00 -0.18250000000E+03  0.18250000000E+03  0.00000000000E+00 0. -1.
        -11    1    1    2    0    0  0.18281601571E+01 -0.39168387391E+00  0.86127422950E+02  0.86147713666E+02  0.00000000000E+00 0.  1.
         11    1    1    2    0    0 -0.27506173182E+01 -0.24714706156E+01 -0.18232854136E+03  0.18236603592E+03  0.00000000000E+00 0. -1.
        -15    1    1    2    0    0  0.41828673239E+00 -0.83403806325E+00  0.62563218214E+02  0.62595403870E+02  0.17770000000E+01 0.  1.
         15    1    1    2    0    0  0.50417042879E+00  0.36971925528E+01  0.33637900198E+02  0.33890846542E+02  0.17770000000E+01 0. -1.
</event>
<event>
 6    1  0.1378789E-002  0.1839346E+03  0.7546771E-02  0.1067319E+00
        -11   -1    0    0    0    0  0.00000000000E+00  0.00000000000E+00  0.18250000000E+03  0.18250000000E+03  0.00000000000E+00 0.  1.
         11   -1    0    0    0    0 -0.00000000000E+00 -0.00000000000E+00 -0.18250000000E+03  0.18250000000E+03  0.00000000000E+00 0. -1.
        -11    1    1    2    0    0 -0.36821148640E+01 -0.76000698673E+00  0.18102637117E+03  0.18106540984E+03  0.00000000000E+00 0.  1.
         11    1    1    2    0    0  0.31229254947E+01 -0.73197608298E+01 -0.11117548612E+03  0.11145994920E+03  0.00000000000E+00 0. -1.
        -15    1    1    2    0    0 -0.42461248309E+01 -0.97930659719E+00 -0.52900569759E+01  0.70803283327E+01  0.17770000000E+01 0. -1.
         15    1    1    2    0    0  0.48053142002E+01  0.90590744137E+01 -0.64560828072E+02  0.65394312629E+02  0.17770000000E+01 0. -1.
</event>
<event>
 6    1  0.1378789E-002  0.1829335E+03  0.7546771E-02  0.1068110E+00
        -11   -1    0    0    0    0  0.00000000000E+00  0.00000000000E+00  0.18250000000E+03  0.18250000000E+03  0.00000000000E+00 0. -1.
         11   -1    0    0    0    0 -0.00000000000E+00 -0.00000000000E+00 -0.18250000000E+03  0.18250000000E+03  0.00000000000E+00 0.  1.
        -11    1    1    2    0    0  0.24051395336E+01 -0.24925365818E+01  0.18203357930E+03  0.18206653023E+03  0.00000000000E+00 0. -1.
         11    1    1    2    0    0 -0.25904551623E+01 -0.35888468038E+01 -0.13741277072E+03  0.13748403484E+03  0.00000000000E+00 0.  1.
        -15    1    1    2    0    0 -0.13666592260E+00  0.14574238637E+01 -0.28221843064E+02  0.28315594941E+02  0.17770000000E+01 0. -1.
         15    1    1    2    0    0  0.32198155129E+00  0.46239595219E+01 -0.16398965517E+02  0.17133839990E+02  0.17770000000E+01 0.  1.
</event>
<event>
 6    1  0.1378789E-002  0.1863559E+03  0.7546771E-02  0.1065426E+00
        -11   -1    0    0    0    0  0.00000000000E+00  0.00000000000E+00  0.18250000000E+03  0.18250000000E+03  0.00000000000E+00 0. -1.
         11   -1    0    0    0    0 -0.00000000000E+00 -0.00000000000E+00 -0.18250000000E+03  0.18250000000E+03  0.00000000000E+00 0. -1.
        -11    1    1    2    0    0  0.24366036016E+01  0.10159420488E+01  0.17862464067E+03  0.17864414749E+03  0.00000000000E+00 0. -1.
         11    1    1    2    0    0 -0.44677682378E+01  0.24991584487E+01 -0.16698661249E+03  0.16706506366E+03  0.00000000000E+00 0. -1.
        -15    1    1    2    0    0  0.47105971524E+01 -0.43779509416E+01  0.51343032736E+00  0.66916006815E+01  0.17770000000E+01 0. -1.
         15    1    1    2    0    0 -0.26794325162E+01  0.86285044415E+00 -0.12151458511E+02  0.12599188166E+02  0.17770000000E+01 0.  1.
</event>
<event>
 6    1  0.1378789E-002  0.1917755E+03  0.7546771E-02  0.1061302E+00
        -11   -1    0    0    0    0  0.00000000000E+00  0.00000000000E+00  0.18250000000E+03  0.18250000000E+03  0.00000000000E+00 0.  1.
         11   -1    0    0    0    0 -0.00000000000E+00 -0.00000000000E+00 -0.18250000000E+03  0.18250000000E+03  0.00000000000E+00 0. -1.
        -11    1    1    2    0    0 -0.73589307382E+00 -0.23121757831E+01  0.16684295352E+03  0.16686059701E+03  0.00000000000E+00 0.  1.
         11    1    1    2    0    0 -0.65776817719E+01 -0.45571739222E+01 -0.17303962242E+03  0.17322454981E+03  0.00000000000E+00 0. -1.
        -15    1    1    2    0    0  0.66794841270E+00  0.15574063265E+01  0.13402087284E+02  0.13625173104E+02  0.17770000000E+01 0.  1.
         15    1    1    2    0    0  0.66456264330E+01  0.53119433788E+01 -0.72054183835E+01  0.11289680076E+02  0.17770000000E+01 0. -1.
</event>
<event>
 6    1  0.1378789E-002  0.1853731E+03  0.7546771E-02  0.1066191E+00
        -11   -1    0    0    0    0  0.00000000000E+00  0.00000000000E+00  0.18250000000E+03  0.18250000000E+03  0.00000000000E+00 0. -1.
         11   -1    0    0    0    0 -0.00000000000E+00 -0.00000000000E+00 -0.18250000000E+03  0.18250000000E+03  0.00000000000E+00 0.  1.
        -11    1    1    2    0    0  0.44275552710E+01 -0.42036530012E+01  0.17952308196E+03  0.17962686575E+03  0.00000000000E+00 0. -1.
         11    1    1    2    0    0  0.28018432761E+01 -0.70107625011E+01 -0.15756956887E+03  0.15775034121E+03  0.00000000000E+00 0.  1.
        -15    1    1    2    0    0 -0.32315352281E+01 -0.97102460892E+00 -0.52600832141E+01  0.64970695811E+01  0.17770000000E+01 0. -1.
         15    1    1    2    0    0 -0.39978633190E+01  0.12185440111E+02 -0.16693429871E+02  0.21125723459E+02  0.17770000000E+01 0.  1.
</event>
<event>
 6    1  0.1378789E-002  0.1775912E+03  0.7546771E-02  0.1072431E+00
        -11   -1    0    0    0    0  0.00000000000E+00  0.00000000000E+00  0.18250000000E+03  0.18250000000E+03  0.00000000000E+00 0.  1.
         11   -1    0    0    0    0 -0.00000000000E+00 -0.00000000000E+00 -0.18250000000E+03  0.18250000000E+03  0.00000000000E+00 0. -1.
        -11    1    1    2    0    0  0.43434679661E+01 -0.54343404614E+01  0.18202282594E+03  0.18215572166E+03  0.00000000000E+00 0.  1.
         11    1    1    2    0    0  0.83711072862E-01 -0.65601196198E+00 -0.10264356897E+02  0.10285639588E+02  0.00000000000E+00 0. -1.
        -15    1    1    2    0    0 -0.75565432410E+01  0.52066135993E+01 -0.58706175776E+02  0.59445630404E+02  0.17770000000E+01 0. -1.
         15    1    1    2    0    0  0.31293642020E+01  0.88373882401E+00 -0.11305229327E+03  0.11311300835E+03  0.17770000000E+01 0. -1.
</event>
<event>
 6    1  0.1378789E-002  0.1646861E+03  0.7546771E-02  0.1083591E+00
        -11   -1    0    0    0    0  0.00000000000E+00  0.00000000000E+00  0.18250000000E+03  0.18250000000E+03  0.00000000000E+00 0.  1.
         11   -1    0    0    0    0 -0.00000000000E+00 -0.00000000000E+00 -0.18250000000E+03  0.18250000000E+03  0.00000000000E+00 0. -1.
        -11    1    1    2    0    0  0.55445276176E+00 -0.57888734215E+01  0.16717710229E+03  0.16727821736E+03  0.00000000000E+00 0.  1.
         11    1    1    2    0    0  0.89173291631E+01  0.57593776927E+01 -0.16192441879E+03  0.16227201420E+03  0.00000000000E+00 0. -1.
        -15    1    1    2    0    0 -0.12132703821E+01  0.15130987901E+02 -0.90121055965E+01  0.17742451808E+02  0.17770000000E+01 0. -1.
         15    1    1    2    0    0 -0.82585115428E+01 -0.15101492172E+02  0.37594220961E+01  0.17707316630E+02  0.17770000000E+01 0.  1.
</event>
<event>
 6    1  0.1378789E-002  0.1837232E+03  0.7546771E-02  0.1067485E+00
        -11   -1    0    0    0    0  0.00000000000E+00  0.00000000000E+00  0.18250000000E+03  0.18250000000E+03  0.00000000000E+00 0. -1.
         11   -1    0    0    0    0 -0.00000000000E+00 -0.00000000000E+00 -0.18250000000E+03  0.18250000000E+03  0.00000000000E+00 0.  1.
        -11    1    1    2    0    0 -0.46623001604E+00 -0.28210492858E+01  0.18125424006E+03  0.18127679176E+03  0.00000000000E+00 0. -1.
         11    1    1    2    0    0 -0.38207446003E+01  0.36913682833E+01 -0.16670334688E+03  0.16678797963E+03  0.00000000000E+00 0.  1.
        -15    1    1    2    0    0  0.14448918332E+01  0.19468230451E+01 -0.19196002041E+01  0.35665706669E+01  0.17770000000E+01 0. -1.
         15    1    1    2    0    0  0.28420827831E+01 -0.28171420427E+01 -0.12631292978E+02  0.13368657941E+02  0.17770000000E+01 0.  1.
</event>
<event>
 6    1  0.1378789E-002  0.1840953E+03  0.7546771E-02  0.1067192E+00
        -11   -1    0    0    0    0  0.00000000000E+00  0.00000000000E+00  0.18250000000E+03  0.18250000000E+03  0.00000000000E+00 0.  1.
         11   -1    0    0    0    0 -0.00000000000E+00 -0.00000000000E+00 -0.18250000000E+03  0.18250000000E+03  0.00000000000E+00 0.  1.
        -11    1    1    2    0    0 -0.18012716923E+01 -0.22752845959E+01  0.18088143624E+03  0.18090471380E+03  0.00000000000E+00 0.  1.
         11    1    1    2    0    0 -0.16862066647E+01  0.73527399486E+01 -0.10460825146E+03  0.10487989488E+03  0.00000000000E+00 0.  1.
        -15    1    1    2    0    0  0.17740055877E+01 -0.50017286993E+01 -0.76528183460E+02  0.76732554880E+02  0.17770000000E+01 0. -1.
         15    1    1    2    0    0  0.17134727693E+01 -0.75726653386E-01  0.25499868059E+00  0.24828364393E+01  0.17770000000E+01 0.  1.
</event>
<event>
 6    1  0.1378789E-002  0.1830973E+03  0.7546771E-02  0.1067980E+00
        -11   -1    0    0    0    0  0.00000000000E+00  0.00000000000E+00  0.18250000000E+03  0.18250000000E+03  0.00000000000E+00 0.  1.
         11   -1    0    0    0    0 -0.00000000000E+00 -0.00000000000E+00 -0.18250000000E+03  0.18250000000E+03  0.00000000000E+00 0.  1.
        -11    1    1    2    0    0  0.18975171540E+01  0.16769777106E+01  0.18188511024E+03  0.18190273817E+03  0.00000000000E+00 0.  1.
         11    1    1    2    0    0  0.17005135347E+01 -0.19015085292E+01 -0.16713304437E+03  0.16715251121E+03  0.00000000000E+00 0.  1.
        -15    1    1    2    0    0 -0.34234431675E+01 -0.86331416023E+00 -0.92698409435E+01  0.10077348589E+02  0.17770000000E+01 0. -1.
         15    1    1    2    0    0 -0.17458752121E+00  0.10878449788E+01 -0.54822249270E+01  0.58674020359E+01  0.17770000000E+01 0.  1.
</event>
<event>
 6    1  0.1378789E-002  0.1828590E+03  0.7546771E-02  0.1068169E+00
        -11   -1    0    0    0    0  0.00000000000E+00  0.00000000000E+00  0.18250000000E+03  0.18250000000E+03  0.00000000000E+00 0. -1.
         11   -1    0    0    0    0 -0.00000000000E+00 -0.00000000000E+00 -0.18250000000E+03  0.18250000000E+03  0.00000000000E+00 0. -1.
        -11    1    1    2    0    0  0.40684255524E+01  0.23240404674E+01  0.16381852733E+03  0.16388551842E+03  0.00000000000E+00 0. -1.
         11    1    1    2    0    0 -0.27695170518E+01 -0.15380551425E+01 -0.18211341073E+03  0.18214096246E+03  0.00000000000E+00 0. -1.
        -15    1    1    2    0    0  0.59384573844E+00  0.53520355118E+00  0.50686094367E+01  0.54302510277E+01  0.17770000000E+01 0. -1.
         15    1    1    2    0    0 -0.18927542390E+01 -0.13211888761E+01  0.13226273961E+02  0.13543268090E+02  0.17770000000E+01 0.  1.
</event>
<event>
 6    1  0.1378789E-002  0.1955199E+03  0.7546771E-02  0.1058539E+00
        -11   -1    0    0    0    0  0.00000000000E+00  0.00000000000E+00  0.18250000000E+03  0.18250000000E+03  0.00000000000E+00 0.  1.
         11   -1    0    0    0    0 -0.00000000000E+00 -0.00000000000E+00 -0.18250000000E+03  0.18250000000E+03  0.00000000000E+00 0. -1.
        -11    1    1    2    0    0 -0.35331162208E+01  0.39708335847E+01  0.12047321968E+03  0.12059041044E+03  0.00000000000E+00 0.  1.
         11    1    1    2    0    0 -0.22295226671E+01  0.13944802622E+01 -0.16945966766E+03  0.16948007054E+03  0.00000000000E+00 0. -1.
        -15    1    1    2    0    0  0.82851785893E+01  0.20667970339E+00  0.60864320219E+02  0.61451689200E+02  0.17770000000E+01 0.  1.
         15    1    1    2    0    0 -0.25225397014E+01 -0.55719935503E+01 -0.11877872246E+02  0.13477829824E+02  0.17770000000E+01 0. -1.
</event>
<event>
 6    1  0.1378789E-002  0.1850660E+03  0.7546771E-02  0.1066430E+00
        -11   -1    0    0    0    0  0.00000000000E+00  0.00000000000E+00  0.18250000000E+03  0.18250000000E+03  0.00000000000E+00 0.  1.
         11   -1    0    0    0    0 -0.00000000000E+00 -0.00000000000E+00 -0.18250000000E+03  0.18250000000E+03  0.00000000000E+00 0. -1.
        -11    1    1    2    0    0  0.19081267793E+00  0.41045805030E+01  0.17988702755E+03  0.17993395086E+03  0.00000000000E+00 0.  1.
         11    1    1    2    0    0  0.22121235342E+01  0.17074627102E+01 -0.14845528482E+03  0.14848158307E+03  0.00000000000E+00 0. -1.
        -15    1    1    2    0    0 -0.53943139769E+01 -0.14263863284E+01 -0.30315701348E+02  0.30876085867E+02  0.17770000000E+01 0. -1.
         15    1    1    2    0    0  0.29913777648E+01 -0.43856568849E+01 -0.11160413812E+01  0.57083802088E+01  0.17770000000E+01 0. -1.
</event>
<event>
 6    1  0.1378789E-002  0.1834669E+03  0.7546771E-02  0.1067688E+00
        -11   -1    0    0    0    0  0.00000000000E+00  0.00000000000E+00  0.18250000000E+03  0.18250000000E+03  0.00000000000E+00 0.  1.
         11   -1    0    0    0    0 -0.00000000000E+00 -0.00000000000E+00 -0.18250000000E+03  0.18250000000E+03  0.00000000000E+00 0. -1.
        -11    1    1    2    0    0 -0.49879535157E+01  0.16850344247E+01  0.18145671900E+03  0.18153308209E+03  0.00000000000E+00 0.  1.
         11    1    1    2    0    0  0.43653811405E+01 -0.44651514795E+01 -0.14726094467E+03  0.14739328328E+03  0.00000000000E+00 0. -1.
        -15    1    1    2    0    0 -0.41658987035E+01  0.20584008166E+01 -0.83625922648E+01  0.97304883905E+01  0.17770000000E+01 0. -1.
         15    1    1    2    0    0  0.47884710788E+01  0.72171623824E+00 -0.25833182061E+02  0.26343146243E+02  0.17770000000E+01 0. -1.
</event>
<event>
 6    1  0.1378789E-002  0.1848915E+03  0.7546771E-02  0.1066567E+00
        -11   -1    0    0    0    0  0.00000000000E+00  0.00000000000E+00  0.18250000000E+03  0.18250000000E+03  0.00000000000E+00 0.  1.
         11   -1    0    0    0    0 -0.00000000000E+00 -0.00000000000E+00 -0.18250000000E+03  0.18250000000E+03  0.00000000000E+00 0.  1.
        -11    1    1    2    0    0  0.20292534197E+01 -0.31375115102E+01  0.81396841350E+02  0.81482560279E+02  0.00000000000E+00 0.  1.
         11    1    1    2    0    0  0.10964401546E+01 -0.68268597114E+01 -0.17997570936E+03  0.18010847885E+03  0.00000000000E+00 0.  1.
        -15    1    1    2    0    0  0.12658156615E+02  0.41936909632E+01  0.56136098187E+02  0.57725516207E+02  0.17770000000E+01 0. -1.
         15    1    1    2    0    0 -0.15783850189E+02  0.57706802584E+01  0.42442769821E+02  0.45683444665E+02  0.17770000000E+01 0.  1.
</event>
<event>
 6    1  0.1378789E-002  0.1830830E+03  0.7546771E-02  0.1067992E+00
        -11   -1    0    0    0    0  0.00000000000E+00  0.00000000000E+00  0.18250000000E+03  0.18250000000E+03  0.00000000000E+00 0. -1.
         11   -1    0    0    0    0 -0.00000000000E+00 -0.00000000000E+00 -0.18250000000E+03  0.18250000000E+03  0.00000000000E+00 0.  1.
        -11    1    1    2    0    0  0.20939676393E+01  0.65890085264E+01  0.95284946815E+02  0.95535442760E+02  0.00000000000E+00 0. -1.
         11    1    1    2    0    0 -0.32311010645E+01  0.48437042266E+00 -0.18188770496E+03  0.18191704660E+03  0.00000000000E+00 0.  1.
        -15    1    1    2    0    0 -0.30995474545E+00  0.15013306023E+01  0.57713953938E+01  0.62303129387E+01  0.17770000000E+01 0.  1.
         15    1    1    2    0    0  0.14470881706E+01 -0.85747095513E+01  0.80831362753E+02  0.81317197698E+02  0.17770000000E+01 0. -1.
</event>
<event>
 6    1  0.1378789E-002  0.1690776E+03  0.7546771E-02  0.1079671E+00
        -11   -1    0    0    0    0  0.00000000000E+00  0.00000000000E+00  0.18250000000E+03  0.18250000000E+03  0.00000000000E+00 0. -1.
         11   -1    0    0    0    0 -0.00000000000E+00 -0.00000000000E+00 -0.18250000000E+03  0.18250000000E+03  0.00000000000E+00 0.  1.
        -11    1    1    2    0    0 -0.62073185303E+01 -0.17491051848E+01  0.16732000090E+03  0.16744423810E+03  0.00000000000E+00 0. -1.
         11    1    1    2    0    0 -0.33660951249E+01 -0.99657747962E+00 -0.17083978727E+03  0.17087585165E+03  0.00000000000E+00 0.  1.
        -15    1    1    2    0    0 -0.64478029510E+01  0.66704390198E+01  0.35456305828E+01  0.10089506670E+02  0.17770000000E+01 0.  1.
         15    1    1    2    0    0  0.16021216606E+02 -0.39247563553E+01 -0.25844215382E-01  0.16590403579E+02  0.17770000000E+01 0. -1.
</event>
<event>
 6    1  0.1378789E-002  0.1860843E+03  0.7546771E-02  0.1065637E+00
        -11   -1    0    0    0    0  0.00000000000E+00  0.00000000000E+00  0.18250000000E+03  0.18250000000E+03  0.00000000000E+00 0.  1.
         11   -1    0    0    0    0 -0.00000000000E+00 -0.00000000000E+00 -0.18250000000E+03  0.18250000000E+03  0.00000000000E+00 0. -1.
        -11    1    1    2    0    0  0.48825278268E+01  0.55336118427E+01  0.17876345793E+03  0.17891571711E+03  0.00000000000E+00 0.  1.
         11    1    1    2    0    0  0.70687518430E+01  0.35407833613E+00 -0.16121574895E+03  0.16137103313E+03  0.00000000000E+00 0. -1.
        -15    1    1    2    0    0 -0.43981422120E+01 -0.73725778411E+01 -0.12740880313E+02  0.15465649650E+02  0.17770000000E+01 0.  1.
         15    1    1    2    0    0 -0.75531374578E+01  0.14848876623E+01 -0.48068286668E+01  0.92476001026E+01  0.17770000000E+01 0. -1.
</event>
<event>
 6    1  0.1378789E-002  0.1900047E+03  0.7546771E-02  0.1062633E+00
        -11   -1    0    0    0    0  0.00000000000E+00  0.00000000000E+00  0.18250000000E+03  0.18250000000E+03  0.00000000000E+00 0.  1.
         11   -1    0    0    0    0 -0.00000000000E+00 -0.00000000000E+00 -0.18250000000E+03  0.18250000000E+03  0.00000000000E+00 0. -1.
        -11    1    1    2    0    0 -0.28607421543E+01  0.81933696009E+00  0.16996505681E+03  0.16999110475E+03  0.00000000000E+00 0.  1.
         11    1    1    2    0    0  0.20399970356E+01 -0.19555640187E+01 -0.17497248398E+03  0.17499530271E+03  0.00000000000E+00 0. -1.
        -15    1    1    2    0    0 -0.23179015845E+00  0.63357912750E+01 -0.51888836998E+01  0.83832106503E+01  0.17770000000E+01 0.  1.
         15    1    1    2    0    0  0.10525352772E+01 -0.51995642164E+01  0.10196310874E+02  0.11630381893E+02  0.17770000000E+01 0. -1.
</event>
<event>
 6    1  0.1378789E-002  0.1881025E+03  0.7546771E-02  0.1064081E+00
        -11   -1    0    0    0    0  0.00000000000E+00  0.00000000000E+00  0.18250000000E+03  0.18250000000E+03  0.00000000000E+00 0. -1.
         11   -1    0    0    0    0 -0.00000000000E+00 -0.00000000000E+00 -0.18250000000E+03  0.18250000000E+03  0.00000000000E+00 0. -1.
        -11    1    1    2    0    0 -0.26814434390E+01 -0.10026265279E+01  0.16952919217E+03  0.16955336150E+03  0.00000000000E+00 0. -1.
         11    1    1    2    0    0 -0.14902837518E+01  0.26318101118E+01 -0.17687165743E+03  0.17689751432E+03  0.00000000000E+00 0. -1.
        -15    1    1    2    0    0  0.46979964517E+00 -0.15574599027E+01  0.12057730399E+02  0.12296055645E+02  0.17770000000E+01 0. -1.
         15    1    1    2    0    0  0.37019275456E+01 -0.71723681232E-01 -0.47152651305E+01  0.62530685340E+01  0.17770000000E+01 0.  1.
</event>
<event>
 6    1  0.1378789E-002  0.1842728E+03  0.7546771E-02  0.1067052E+00
        -11   -1    0    0    0    0  0.00000000000E+00  0.00000000000E+00  0.18250000000E+03  0.18250000000E+03  0.00000000000E+00 0. -1.
         11   -1    0    0    0    0 -0.00000000000E+00 -0.00000000000E+00 -0.18250000000E+03  0.18250000000E+03  0.00000000000E+00 0.  1.
        -11    1    1    2    0    0  0.56514582324E+01  0.67128781559E+01  0.10259642040E+03  0.10297100170E+03  0.00000000000E+00 0. -1.
         11    1    1    2    0    0  0.33233716228E+01  0.86985962770E+00 -0.18069456378E+03  0.18072721664E+03  0.00000000000E+00 0.  1.
        -15    1    1    2    0    0  0.15669984562E+01 -0.48866098555E+01  0.50161836791E+01  0.73928524769E+01  0.17770000000E+01 0. -1.
         15    1    1    2    0    0 -0.10541828311E+02 -0.26961279281E+01  0.73081959704E+02  0.73908929184E+02  0.17770000000E+01 0.  1.
</event>
<event>
 6    1  0.1378789E-002  0.1679407E+03  0.7546771E-02  0.1080673E+00
        -11   -1    0    0    0    0  0.00000000000E+00  0.00000000000E+00  0.18250000000E+03  0.18250000000E+03  0.00000000000E+00 0. -1.
         11   -1    0    0    0    0 -0.00000000000E+00 -0.00000000000E+00 -0.18250000000E+03  0.18250000000E+03  0.00000000000E+00 0.  1.
        -11    1    1    2    0    0  0.21099608474E+01 -0.78314726523E+01  0.16767239028E+03  0.16786844361E+03  0.00000000000E+00 0. -1.
         11    1    1    2    0    0  0.49522593826E+01  0.18459573935E+01 -0.16805762664E+03  0.16814070983E+03  0.00000000000E+00 0.  1.
        -15    1    1    2    0    0  0.91115460564E+01  0.32359973593E+01  0.60504180751E+01  0.11543709903E+02  0.17770000000E+01 0. -1.
         15    1    1    2    0    0 -0.16173766286E+02  0.27495178994E+01 -0.56651817162E+01  0.17447136655E+02  0.17770000000E+01 0.  1.
</event>
<event>
 6    1  0.1378789E-002  0.1835139E+03  0.7546771E-02  0.1067651E+00
        -11   -1    0    0    0    0  0.00000000000E+00  0.00000000000E+00  0.18250000000E+03  0.18250000000E+03  0.00000000000E+00 0. -1.
         11   -1    0    0    0    0 -0.00000000000E+00 -0.00000000000E+00 -0.18250000000E+03  0.18250000000E+03  0.00000000000E+00 0.  1.
        -11    1    1    2    0    0 -0.44693612034E+01  0.28486872693E+01  0.14302230176E+03  0.14312047027E+03  0.00000000000E+00 0. -1.
         11    1    1    2    0    0 -0.23009029483E+01 -0.19419397823E+01 -0.18146115752E+03  0.18148613438E+03  0.00000000000E+00 0.  1.
        -15    1    1    2    0    0 -0.22402487951E+00  0.20529470871E+01  0.22329617197E+02  0.22495206423E+02  0.17770000000E+01 0. -1.
         15    1    1    2    0    0  0.69942890312E+01 -0.29596945741E+01  0.16109238562E+02  0.17898188932E+02  0.17770000000E+01 0.  1.
</event>
<event>
 6    1  0.1378789E-002  0.1845838E+03  0.7546771E-02  0.1066808E+00
        -11   -1    0    0    0    0  0.00000000000E+00  0.00000000000E+00  0.18250000000E+03  0.18250000000E+03  0.00000000000E+00 0. -1.
         11   -1    0    0    0    0 -0.00000000000E+00 -0.00000000000E+00 -0.18250000000E+03  0.18250000000E+03  0.00000000000E+00 0. -1.
        -11    1    1    2    0    0  0.37449578887E+01  0.31403152445E+00  0.17420708944E+03  0.17424762075E+03  0.00000000000E+00 0. -1.
         11    1    1    2    0    0 -0.21326803753E+01  0.16332879419E+01 -0.18039622611E+03  0.18041622529E+03  0.00000000000E+00 0. -1.
        -15    1    1    2    0    0 -0.82710246961E+00 -0.35147464208E+01  0.41515582358E+00  0.40456920613E+01  0.17770000000E+01 0.  1.
         15    1    1    2    0    0 -0.78517504380E+00  0.15674269544E+01  0.57739808468E+01  0.62904619008E+01  0.17770000000E+01 0. -1.
</event>
<event>
 6    1  0.1378789E-002  0.1831705E+03  0.7546771E-02  0.1067922E+00
        -11   -1    0    0    0    0  0.00000000000E+00  0.00000000000E+00  0.18250000000E+03  0.18250000000E+03  0.00000000000E+00 0.  1.
         11   -1    0    0    0    0 -0.00000000000E+00 -0.00000000000E+00 -0.18250000000E+03  0.18250000000E+03  0.00000000000E+00 0. -1.
        -11    1    1    2    0    0 -0.23454429187E+01 -0.12022861925E+01  0.12000252126E+03  0.12003146130E+03  0.00000000000E+00 0.  1.
         11    1    1    2    0    0 -0.33864206955E+01  0.96510690539E+01 -0.18154163719E+03  0.18182952734E+03  0.00000000000E+00 0. -1.
        -15    1    1    2    0    0  0.36967068116E+01 -0.52467277231E+01  0.54803917827E+02  0.55207073200E+02  0.17770000000E+01 0.  1.
         15    1    1    2    0    0  0.20351568026E+01 -0.32020551383E+01  0.67351981084E+01  0.79319381540E+01  0.17770000000E+01 0. -1.
</event>
<event>
 6    1  0.1378789E-002  0.1837937E+03  0.7546771E-02  0.1067430E+00
        -11   -1    0    0    0    0  0.00000000000E+00  0.00000000000E+00  0.18250000000E+03  0.18250000000E+03  0.00000000000E+00 0.  1.
         11   -1    0    0    0    0 -0.00000000000E+00 -0.00000000000E+00 -0.18250000000E+03  0.18250000000E+03  0.00000000000E+00 0.  1.
        -11    1    1    2    0    0  0.29611021304E+00  0.39784700925E+01  0.15461544390E+03  0.15466690466E+03  0.00000000000E+00 0.  1.
         11    1    1    2    0    0 -0.69381036795E+00  0.23970922258E+01 -0.18118907541E+03  0.18120625947E+03  0.00000000000E+00 0.  1.
        -15    1    1    2    0    0  0.21738963666E+00 -0.47840519627E+01  0.26214728240E+02  0.26707753877E+02  0.17770000000E+01 0. -1.
         15    1    1    2    0    0  0.18031051825E+00 -0.15915103556E+01  0.35890327005E+00  0.24190819854E+01  0.17770000000E+01 0.  1.
</event>
<event>
 6    1  0.1378789E-002  0.1865965E+03  0.7546771E-02  0.1065240E+00
        -11   -1    0    0    0    0  0.00000000000E+00  0.00000000000E+00  0.18250000000E+03  0.18250000000E+03  0.00000000000E+00 0.  1.
         11   -1    0    0    0    0 -0.00000000000E+00 -0.00000000000E+00 -0.18250000000E+03  0.18250000000E+03  0.00000000000E+00 0.  1.
        -11    1    1    2    0    0 -0.55847774856E+01 -0.52211853585E+01  0.17823962418E+03  0.17840351494E+03  0.00000000000E+00 0.  1.
         11    1    1    2    0    0 -0.28895622497E+01 -0.88057480714E+01 -0.16118401356E+03  0.16145023071E+03  0.00000000000E+00 0.  1.
        -15    1    1    2    0    0  0.59308558253E+01  0.10915460137E+02 -0.74766952457E+01  0.14607567273E+02  0.17770000000E+01 0. -1.
         15    1    1    2    0    0  0.25434839100E+01  0.31114732929E+01 -0.95789153743E+01  0.10538687072E+02  0.17770000000E+01 0.  1.
</event>
<event>
 6    1  0.1378789E-002  0.1876008E+03  0.7546771E-02  0.1064466E+00
        -11   -1    0    0    0    0  0.00000000000E+00  0.00000000000E+00  0.18250000000E+03  0.18250000000E+03  0.00000000000E+00 0.  1.
         11   -1    0    0    0    0 -0.00000000000E+00 -0.00000000000E+00 -0.18250000000E+03  0.18250000000E+03  0.00000000000E+00 0.  1.
        -11    1    1    2    0    0 -0.57375974967E+00  0.36588780136E+01  0.17039449414E+03  0.17043473889E+03  0.00000000000E+00 0.  1.
         11    1    1    2    0    0  0.40986649576E+01  0.63678678375E+01 -0.17723744594E+03  0.17739915738E+03  0.00000000000E+00 0.  1.
        -15    1    1    2    0    0 -0.20922530932E+01  0.85951377368E+00  0.51723200739E+01  0.59183537306E+01  0.17770000000E+01 0.  1.
         15    1    1    2    0    0 -0.14326521148E+01 -0.10886259625E+02  0.16706317224E+01  0.11247750000E+02  0.17770000000E+01 0. -1.
</event>
<event>
 6    1  0.1378789E-002  0.1966913E+03  0.7546771E-02  0.1057688E+00
        -11   -1    0    0    0    0  0.00000000000E+00  0.00000000000E+00  0.18250000000E+03  0.18250000000E+03  0.00000000000E+00 0.  1.
         11   -1    0    0    0    0 -0.00000000000E+00 -0.00000000000E+00 -0.18250000000E+03  0.18250000000E+03  0.00000000000E+00 0.  1.
        -11    1    1    2    0    0  0.48839908490E+01 -0.19728608387E+02  0.13223295233E+03  0.13378574303E+03  0.00000000000E+00 0.  1.
         11    1    1    2    0    0  0.92659663846E+01 -0.13448104388E+02 -0.16751453220E+03  0.16830872866E+03  0.00000000000E+00 0.  1.
        -15    1    1    2    0    0 -0.26766033743E+02  0.26319064149E+02  0.24496120502E+02  0.44859016359E+02  0.17770000000E+01 0.  1.
         15    1    1    2    0    0  0.12616076510E+02  0.68576486256E+01  0.10785459365E+02  0.18046511959E+02  0.17770000000E+01 0. -1.
</event>
<event>
 6    1  0.1378789E-002  0.1854013E+03  0.7546771E-02  0.1066169E+00
        -11   -1    0    0    0    0  0.00000000000E+00  0.00000000000E+00  0.18250000000E+03  0.18250000000E+03  0.00000000000E+00 0. -1.
         11   -1    0    0    0    0 -0.00000000000E+00 -0.00000000000E+00 -0.18250000000E+03  0.18250000000E+03  0.00000000000E+00 0.  1.
        -11    1    1    2    0    0  0.21872169518E+01 -0.88870398482E+00  0.16995235812E+03  0.16996875520E+03  0.00000000000E+00 0. -1.
         11    1    1    2    0    0 -0.13295751682E+01  0.23704814476E+01 -0.17957815309E+03  0.17959871943E+03  0.00000000000E+00 0.  1.
        -15    1    1    2    0    0 -0.40020266596E+01  0.17737191559E+01  0.86203551107E-01  0.47251938669E+01  0.17770000000E+01 0.  1.
         15    1    1    2    0    0  0.31443848761E+01 -0.32554966187E+01  0.95395914193E+01  0.10707331504E+02  0.17770000000E+01 0. -1.
</event>
<event>
 6    1  0.1378789E-002  0.1834194E+03  0.7546771E-02  0.1067725E+00
        -11   -1    0    0    0    0  0.00000000000E+00  0.00000000000E+00  0.18250000000E+03  0.18250000000E+03  0.00000000000E+00 0.  1.
         11   -1    0    0    0    0 -0.00000000000E+00 -0.00000000000E+00 -0.18250000000E+03  0.18250000000E+03  0.00000000000E+00 0.  1.
        -11    1    1    2    0    0 -0.30111359356E+01  0.34430208372E+01  0.16248631246E+03  0.16255067847E+03  0.00000000000E+00 0.  1.
         11    1    1    2    0    0  0.43244933892E+01 -0.11189643619E+01 -0.18152568917E+03  0.18158064091E+03  0.00000000000E+00 0.  1.
        -15    1    1    2    0    0  0.10597064544E+01 -0.13055588543E+01  0.11438269561E+01  0.27006537721E+01  0.17770000000E+01 0.  1.
         15    1    1    2    0    0 -0.23730639080E+01 -0.10184976211E+01  0.17895549754E+02  0.18168026852E+02  0.17770000000E+01 0. -1.
</event>
<event>
 6    1  0.1378789E-002  0.1877936E+03  0.7546771E-02  0.1064317E+00
        -11   -1    0    0    0    0  0.00000000000E+00  0.00000000000E+00  0.18250000000E+03  0.18250000000E+03  0.00000000000E+00 0.  1.
         11   -1    0    0    0    0 -0.00000000000E+00 -0.00000000000E+00 -0.18250000000E+03  0.18250000000E+03  0.00000000000E+00 0. -1.
        -11    1    1    2    0    0 -0.60021976854E+01  0.54649395143E+01  0.17702034788E+03  0.17720636418E+03  0.00000000000E+00 0.  1.
         11    1    1    2    0    0  0.36626058637E+01  0.26541686974E+01 -0.13500745471E+03  0.13508320444E+03  0.00000000000E+00 0. -1.
        -15    1    1    2    0    0 -0.26969525300E+01 -0.64504746262E+01 -0.45532291503E+02  0.46100211218E+02  0.17770000000E+01 0.  1.
         15    1    1    2    0    0  0.50365443518E+01 -0.16686335855E+01  0.35193983283E+01  0.66102201660E+01  0.17770000000E+01 0. -1.
</event>
<event>
 6    1  0.1378789E-002  0.1858316E+03  0.7546771E-02  0.1065833E+00
        -11   -1    0    0    0    0  0.00000000000E+00  0.00000000000E+00  0.18250000000E+03  0.18250000000E+03  0.00000000000E+00 0. -1.
         11   -1    0    0    0    0 -0.00000000000E+00 -0.00000000000E+00 -0.18250000000E+03  0.18250000000E+03  0.00000000000E+00 0.  1.
        -11    1    1    2    0    0  0.25170182739E+01 -0.48227979505E+01  0.17908580264E+03  0.17916841091E+03  0.00000000000E+00 0. -1.
         11    1    1    2    0    0 -0.16493700665E+01 -0.23577825469E+01 -0.17112644394E+03  0.17115063358E+03  0.00000000000E+00 0.  1.
        -15    1    1    2    0    0  0.22075113675E+01  0.10284867101E+01 -0.68593139113E+01  0.74925835120E+01  0.17770000000E+01 0. -1.
         15    1    1    2    0    0 -0.30751595749E+01  0.61520937874E+01 -0.11000447952E+01  0.71883719945E+01  0.17770000000E+01 0. -1.
</event>
<event>
 6    1  0.1378789E-002  0.1830107E+03  0.7546771E-02  0.1068049E+00
        -11   -1    0    0    0    0  0.00000000000E+00  0.00000000000E+00  0.18250000000E+03  0.18250000000E+03  0.00000000000E+00 0. -1.
         11   -1    0    0    0    0 -0.00000000000E+00 -0.00000000000E+00 -0.18250000000E+03  0.18250000000E+03  0.00000000000E+00 0.  1.
        -11    1    1    2    0    0 -0.25561724081E+01 -0.66822026400E-01  0.18197135738E+03  0.18198932219E+03  0.00000000000E+00 0. -1.
         11    1    1    2    0    0 -0.57299139930E-01 -0.70652408864E+00 -0.24399739192E+02  0.24410033431E+02  0.00000000000E+00 0.  1.
        -15    1    1    2    0    0 -0.59188797448E+01  0.39797434458E+01 -0.10144531075E+03  0.10171125944E+03  0.17770000000E+01 0.  1.
         15    1    1    2    0    0  0.85323512929E+01 -0.32063973308E+01 -0.56126307442E+02  0.56889384936E+02  0.17770000000E+01 0. -1.
</event>
<event>
 6    1  0.1378789E-002  0.1868704E+03  0.7546771E-02  0.1065028E+00
        -11   -1    0    0    0    0  0.00000000000E+00  0.00000000000E+00  0.18250000000E+03  0.18250000000E+03  0.00000000000E+00 0.  1.
         11   -1    0    0    0    0 -0.00000000000E+00 -0.00000000000E+00 -0.18250000000E+03  0.18250000000E+03  0.00000000000E+00 0.  1.
        -11    1    1    2    0    0  0.10091731468E+02 -0.66774197486E+01  0.17771809618E+03  0.17812959520E+03  0.00000000000E+00 0.  1.
         11    1    1    2    0    0  0.18546901543E+01 -0.80060527312E+00 -0.14851453364E+03  0.14852827187E+03  0.00000000000E+00 0.  1.
        -15    1    1    2    0    0 -0.11513689502E+00  0.58265292719E+01 -0.24719346880E+02  0.25459095409E+02  0.17770000000E+01 0.  1.
         15    1    1    2    0    0 -0.11831284727E+02  0.16514957499E+01 -0.44842156594E+01  0.12883037514E+02  0.17770000000E+01 0. -1.
</event>
<event>
 6    1  0.1378789E-002  0.1669068E+03  0.7546771E-02  0.1081592E+00
        -11   -1    0    0    0    0  0.00000000000E+00  0.00000000000E+00  0.18250000000E+03  0.18250000000E+03  0.00000000000E+00 0. -1.
         11   -1    0    0    0    0 -0.00000000000E+00 -0.00000000000E+00 -0.18250000000E+03  0.18250000000E+03  0.00000000000E+00 0.  1.
        -11    1    1    2    0    0  0.15369764642E+01 -0.19419171962E+01  0.16638989242E+03  0.16640832202E+03  0.00000000000E+00 0. -1.
         11    1    1    2    0    0  0.17762687437E+01 -0.38711750441E+01 -0.16741975390E+03  0.16747392371E+03  0.00000000000E+00 0.  1.
        -15    1    1    2    0    0 -0.16639206147E+02  0.31964409129E+01  0.29426036892E+01  0.17288639657E+02  0.17770000000E+01 0.  1.
         15    1    1    2    0    0  0.13325960939E+02  0.26166513274E+01 -0.19127422050E+01  0.13829114608E+02  0.17770000000E+01 0. -1.
</event>
<event>
 6    1  0.1378789E-002  0.1842258E+03  0.7546771E-02  0.1067089E+00
        -11   -1    0    0    0    0  0.00000000000E+00  0.00000000000E+00  0.18250000000E+03  0.18250000000E+03  0.00000000000E+00 0.  1.
         11   -1    0    0    0    0 -0.00000000000E+00 -0.00000000000E+00 -0.18250000000E+03  0.18250000000E+03  0.00000000000E+00 0.  1.
        -11    1    1    2    0    0  0.22376287280E+01 -0.46990914131E+01  0.18069927805E+03  0.18077421699E+03  0.00000000000E+00 0.  1.
         11    1    1    2    0    0 -0.12112919895E+01  0.13587645248E+01 -0.11767064250E+03  0.11768472108E+03  0.00000000000E+00 0.  1.
        -15    1    1    2    0    0  0.28825267700E+01 -0.47617331799E+00 -0.59903943881E+02  0.60001466008E+02  0.17770000000E+01 0. -1.
         15    1    1    2    0    0 -0.39088635085E+01  0.38165002063E+01 -0.31246916691E+01  0.65395959187E+01  0.17770000000E+01 0.  1.
</event>
<event>
 6    1  0.1378789E-002  0.1846230E+03  0.7546771E-02  0.1066777E+00
        -11   -1    0    0    0    0  0.00000000000E+00  0.00000000000E+00  0.18250000000E+03  0.18250000000E+03  0.00000000000E+00 0.  1.
         11   -1    0    0    0    0 -0.00000000000E+00 -0.00000000000E+00 -0.18250000000E+03  0.18250000000E+03  0.00000000000E+00 0.  1.
        -11    1    1    2    0    0  0.30691985927E+00  0.39697936328E+01  0.18033304481E+03  0.18037699552E+03  0.00000000000E+00 0.  1.
         11    1    1    2    0    0 -0.16385130110E+01 -0.28379440695E+01 -0.15221546935E+03  0.15225073977E+03  0.00000000000E+00 0.  1.
        -15    1    1    2    0    0  0.76081816688E+00  0.20291162850E+01 -0.28539922873E+02  0.28677187515E+02  0.17770000000E+01 0. -1.
         15    1    1    2    0    0  0.57077498480E+00 -0.31609658484E+01  0.42234740684E+00  0.36950771995E+01  0.17770000000E+01 0.  1.
</event>
<event>
 6    1  0.1378789E-002  0.1828778E+03  0.7546771E-02  0.1068154E+00
        -11   -1    0    0    0    0  0.00000000000E+00  0.00000000000E+00  0.18250000000E+03  0.18250000000E+03  0.00000000000E+00 0.  1.
         11   -1    0    0    0    0 -0.00000000000E+00 -0.00000000000E+00 -0.18250000000E+03  0.18250000000E+03  0.00000000000E+00 0.  1.
        -11    1    1    2    0    0 -0.18478847964E+01 -0.55990754560E+00  0.45283787750E+02  0.45324933620E+02  0.00000000000E+00 0.  1.
         11    1    1    2    0    0 -0.42632530108E+01 -0.36582767601E+01 -0.18203549168E+03  0.18212215281E+03  0.00000000000E+00 0.  1.
        -15    1    1    2    0    0  0.70436046545E+00  0.58865491725E+01  0.10895006571E+03  0.10912571710E+03  0.17770000000E+01 0.  1.
         15    1    1    2    0    0  0.54067773418E+01 -0.16683648668E+01  0.27801638213E+02  0.28427196465E+02  0.17770000000E+01 0. -1.
</event>
<event>
 6    1  0.1378789E-002  0.1699003E+03  0.7546771E-02  0.1078951E+00
        -11   -1    0    0    0    0  0.00000000000E+00  0.00000000000E+00  0.18250000000E+03  0.18250000000E+03  0.00000000000E+00 0. -1.
         11   -1    0    0    0    0 -0.00000000000E+00 -0.00000000000E+00 -0.18250000000E+03  0.18250000000E+03  0.00000000000E+00 0. -1.
        -11    1    1    2    0    0  0.93595502633E+01 -0.71599368012E+01  0.17139679685E+03  0.17180141981E+03  0.00000000000E+00 0. -1.
         11    1    1    2    0    0 -0.13931804374E+01 -0.82194404543E+01 -0.16824851913E+03  0.16845493268E+03  0.00000000000E+00 0. -1.
        -15    1    1    2    0    0  0.43701784148E+01  0.61190831148E+01 -0.48509995637E+01  0.91231334151E+01  0.17770000000E+01 0. -1.
         15    1    1    2    0    0 -0.12336548241E+02  0.92602941406E+01  0.17027218426E+01  0.15620514100E+02  0.17770000000E+01 0.  1.
</event>
<event>
 6    1  0.1378789E-002  0.1842459E+03  0.7546771E-02  0.1067073E+00
        -11   -1    0    0    0    0  0.00000000000E+00  0.00000000000E+00  0.18250000000E+03  0.18250000000E+03  0.00000000000E+00 0. -1.
         11   -1    0    0    0    0 -0.00000000000E+00 -0.00000000000E+00 -0.18250000000E+03  0.18250000000E+03  0.00000000000E+00 0.  1.
        -11    1    1    2    0    0  0.25372119709E+01  0.72638027239E+01  0.14979328059E+03  0.14999075700E+03  0.00000000000E+00 0. -1.
         11    1    1    2    0    0  0.22716542463E+01  0.32787561908E+01 -0.18071005275E+03  0.18075407000E+03  0.00000000000E+00 0.  1.
        -15    1    1    2    0    0 -0.53133167570E+01 -0.11170439999E+02  0.28696632607E+02  0.31299592916E+02  0.17770000000E+01 0.  1.
         15    1    1    2    0    0  0.50445053990E+00  0.62788108458E+00  0.22201395553E+01  0.29555800866E+01  0.17770000000E+01 0.  1.
</event>
<event>
 6    1  0.1378789E-002  0.1833017E+03  0.7546771E-02  0.1067818E+00
        -11   -1    0    0    0    0  0.00000000000E+00  0.00000000000E+00  0.18250000000E+03  0.18250000000E+03  0.00000000000E+00 0.  1.
         11   -1    0    0    0    0 -0.00000000000E+00 -0.00000000000E+00 -0.18250000000E+03  0.18250000000E+03  0.00000000000E+00 0.  1.
        -11    1    1    2    0    0 -0.49177964177E+01 -0.14350155401E+01  0.14041581447E+03  0.14050923438E+03  0.00000000000E+00 0.  1.
         11    1    1    2    0    0  0.53674393202E+01  0.21962506930E+01 -0.18160575877E+03  0.18169833389E+03  0.00000000000E+00 0.  1.
        -15    1    1    2    0    0  0.43305382530E+01 -0.69445416302E+00  0.31390560050E+02  0.31745248737E+02  0.17770000000E+01 0. -1.
         15    1    1    2    0    0 -0.47801811555E+01 -0.66780989880E-01  0.97993842430E+01  0.11047182995E+02  0.17770000000E+01 0.  1.
</event>
<event>
 6    1  0.1378789E-002  0.1838298E+03  0.7546771E-02  0.1067401E+00
        -11   -1    0    0    0    0  0.00000000000E+00  0.00000000000E+00  0.18250000000E+03  0.18250000000E+03  0.00000000000E+00 0.  1.
         11   -1    0    0    0    0 -0.00000000000E+00 -0.00000000000E+00 -0.18250000000E+03  0.18250000000E+03  0.00000000000E+00 0.  1.
        -11    1    1    2    0    0 -0.19714776683E+01  0.25291425911E+01  0.18114184318E+03  0.18117022558E+03  0.00000000000E+00 0.  1.
         11    1    1    2    0    0 -0.11226225263E+01 -0.23452456925E+01 -0.10018065923E+03  0.10021439488E+03  0.00000000000E+00 0.  1.
        -15    1    1    2    0    0 -0.72064165651E+01  0.39950813364E+01 -0.21409682127E+02  0.23009244499E+02  0.17770000000E+01 0.  1.
         15    1    1    2    0    0  0.10300516760E+02 -0.41789782349E+01 -0.59551501830E+02  0.60606135034E+02  0.17770000000E+01 0. -1.
</event>
<event>
 6    1  0.1378789E-002  0.1839323E+03  0.7546771E-02  0.1067320E+00
        -11   -1    0    0    0    0  0.00000000000E+00  0.00000000000E+00  0.18250000000E+03  0.18250000000E+03  0.00000000000E+00 0.  1.
         11   -1    0    0    0    0 -0.00000000000E+00 -0.00000000000E+00 -0.18250000000E+03  0.18250000000E+03  0.00000000000E+00 0.  1.
        -11    1    1    2    0    0  0.28956067057E+01  0.26820981208E+01  0.18102466149E+03  0.18106768419E+03  0.00000000000E+00 0.  1.
         11    1    1    2    0    0  0.94903064173E+00 -0.23297852744E+01 -0.16639381162E+03  0.16641282734E+03  0.00000000000E+00 0.  1.
        -15    1    1    2    0    0 -0.58409198917E+01 -0.19525003322E+01 -0.11039065694E+02  0.12765081399E+02  0.17770000000E+01 0. -1.
         15    1    1    2    0    0  0.19962825442E+01  0.16001874858E+01 -0.35917841808E+01  0.47544070700E+01  0.17770000000E+01 0.  1.
</event>
<event>
 6    1  0.1378789E-002  0.1840373E+03  0.7546771E-02  0.1067238E+00
        -11   -1    0    0    0    0  0.00000000000E+00  0.00000000000E+00  0.18250000000E+03  0.18250000000E+03  0.00000000000E+00 0.  1.
         11   -1    0    0    0    0 -0.00000000000E+00 -0.00000000000E+00 -0.18250000000E+03  0.18250000000E+03  0.00000000000E+00 0.  1.
        -11    1    1    2    0    0  0.15374171571E+01  0.22655214479E+01  0.17075293465E+03  0.17077488378E+03  0.00000000000E+00 0.  1.
         11    1    1    2    0    0 -0.63551155896E+00 -0.26304978932E+01 -0.18094243264E+03  0.18096266831E+03  0.00000000000E+00 0.  1.
        -15    1    1    2    0    0 -0.39760883841E+01 -0.13199554594E+01  0.51769538457E+01  0.68927600693E+01  0.17770000000E+01 0. -1.
         15    1    1    2    0    0  0.30741827859E+01  0.16849319046E+01  0.50125441459E+01  0.63696878369E+01  0.17770000000E+01 0.  1.
</event>
<event>
 6    1  0.1378789E-002  0.1911256E+03  0.7546771E-02  0.1061789E+00
        -11   -1    0    0    0    0  0.00000000000E+00  0.00000000000E+00  0.18250000000E+03  0.18250000000E+03  0.00000000000E+00 0.  1.
         11   -1    0    0    0    0 -0.00000000000E+00 -0.00000000000E+00 -0.18250000000E+03  0.18250000000E+03  0.00000000000E+00 0.  1.
        -11    1    1    2    0    0  0.43954490840E+01 -0.57154462180E-01  0.92990891511E+02  0.93094732092E+02  0.00000000000E+00 0.  1.
         11    1    1    2    0    0 -0.62711614053E+01 -0.64372599016E+01 -0.17364197275E+03  0.17387438133E+03  0.00000000000E+00 0.  1.
        -15    1    1    2    0    0 -0.75316724387E+01  0.15312575869E+02  0.83043096766E+02  0.84796902767E+02  0.17770000000E+01 0.  1.
         15    1    1    2    0    0  0.94073847599E+01 -0.88181615054E+01 -0.23920155255E+01  0.13233983816E+02  0.17770000000E+01 0. -1.
</event>
<event>
 6    1  0.1378789E-002  0.1849430E+03  0.7546771E-02  0.1066527E+00
        -11   -1    0    0    0    0  0.00000000000E+00  0.00000000000E+00  0.18250000000E+03  0.18250000000E+03  0.00000000000E+00 0.  1.
         11   -1    0    0    0    0 -0.00000000000E+00 -0.00000000000E+00 -0.18250000000E+03  0.18250000000E+03  0.00000000000E+00 0.  1.
        -11    1    1    2    0    0 -0.72110402959E+01 -0.45428301241E+01  0.17985514402E+03  0.18005696110E+03  0.00000000000E+00 0.  1.
         11    1    1    2    0    0 -0.35559773320E+00 -0.15072156075E+01 -0.10758221997E+03  0.10759336505E+03  0.00000000000E+00 0.  1.
        -15    1    1    2    0    0  0.55982393889E+01  0.65871855910E+01 -0.52434486830E+01  0.10265611592E+02  0.17770000000E+01 0. -1.
         15    1    1    2    0    0  0.19683986402E+01 -0.53713985940E+00 -0.67029475371E+02  0.67084062265E+02  0.17770000000E+01 0. -1.
</event>
<event>
 6    1  0.1378789E-002  0.1839331E+03  0.7546771E-02  0.1067320E+00
        -11   -1    0    0    0    0  0.00000000000E+00  0.00000000000E+00  0.18250000000E+03  0.18250000000E+03  0.00000000000E+00 0.  1.
         11   -1    0    0    0    0 -0.00000000000E+00 -0.00000000000E+00 -0.18250000000E+03  0.18250000000E+03  0.00000000000E+00 0.  1.
        -11    1    1    2    0    0 -0.27372671144E+01  0.25866872488E+01  0.18102776585E+03  0.18106693677E+03  0.00000000000E+00 0.  1.
         11    1    1    2    0    0 -0.17338452515E+01 -0.17081005035E+01 -0.13434516422E+03  0.13436720945E+03  0.00000000000E+00 0.  1.
        -15    1    1    2    0    0  0.64745139584E+01 -0.34150581424E+01 -0.44792181209E+02  0.45421131421E+02  0.17770000000E+01 0.  1.
         15    1    1    2    0    0 -0.20034015925E+01  0.25364713971E+01 -0.18904204175E+01  0.41447223603E+01  0.17770000000E+01 0. -1.
</event>
<event>
 6    1  0.1378789E-002  0.1827640E+03  0.7546771E-02  0.1068245E+00
        -11   -1    0    0    0    0  0.00000000000E+00  0.00000000000E+00  0.18250000000E+03  0.18250000000E+03  0.00000000000E+00 0.  1.
         11   -1    0    0    0    0 -0.00000000000E+00 -0.00000000000E+00 -0.18250000000E+03  0.18250000000E+03  0.00000000000E+00 0.  1.
        -11    1    1    2    0    0 -0.22985349508E+01  0.48340958767E+00  0.14446552554E+03  0.14448461862E+03  0.00000000000E+00 0.  1.
         11    1    1    2    0    0  0.70012095110E+00 -0.41378829257E+01 -0.18218769907E+03  0.18223602809E+03  0.00000000000E+00 0.  1.
        -15    1    1    2    0    0 -0.22189036824E+00  0.16244575935E+01  0.74450007581E+01  0.78277623301E+01  0.17770000000E+01 0.  1.
         15    1    1    2    0    0  0.18203043680E+01  0.20300157446E+01  0.30277172765E+02  0.30451590953E+02  0.17770000000E+01 0. -1.
</event>
<event>
 6    1  0.1378789E-002  0.1875148E+03  0.7546771E-02  0.1064532E+00
        -11   -1    0    0    0    0  0.00000000000E+00  0.00000000000E+00  0.18250000000E+03  0.18250000000E+03  0.00000000000E+00 0.  1.
         11   -1    0    0    0    0 -0.00000000000E+00 -0.00000000000E+00 -0.18250000000E+03  0.18250000000E+03  0.00000000000E+00 0. -1.
        -11    1    1    2    0    0 -0.79797207590E+01  0.17708979623E+02  0.11882091638E+03  0.12039806507E+03  0.00000000000E+00 0.  1.
         11    1    1    2    0    0  0.39330623660E+01  0.15719691394E+01 -0.17743462046E+03  0.17748516728E+03  0.00000000000E+00 0. -1.
        -15    1    1    2    0    0  0.24260482357E+01 -0.15997915658E+02  0.60485230397E+02  0.62637367765E+02  0.17770000000E+01 0. -1.
         15    1    1    2    0    0  0.16206101573E+01 -0.32830331038E+01 -0.18715263173E+01  0.44793998927E+01  0.17770000000E+01 0.  1.
</event>
<event>
 6    1  0.1378789E-002  0.1784837E+03  0.7546771E-02  0.1071697E+00
        -11   -1    0    0    0    0  0.00000000000E+00  0.00000000000E+00  0.18250000000E+03  0.18250000000E+03  0.00000000000E+00 0. -1.
         11   -1    0    0    0    0 -0.00000000000E+00 -0.00000000000E+00 -0.18250000000E+03  0.18250000000E+03  0.00000000000E+00 0. -1.
        -11    1    1    2    0    0  0.20857108300E+01  0.20665603962E+01  0.17880332788E+03  0.17882743336E+03  0.00000000000E+00 0. -1.
         11    1    1    2    0    0  0.19454064145E+01 -0.34686222294E+01 -0.17812175032E+03  0.17816614124E+03  0.00000000000E+00 0. -1.
        -15    1    1    2    0    0 -0.11835282659E+01 -0.17536445519E+01 -0.17586412143E+01  0.32751421788E+01  0.17770000000E+01 0.  1.
         15    1    1    2    0    0 -0.28475889787E+01  0.31557063851E+01  0.10770636592E+01  0.47312832198E+01  0.17770000000E+01 0. -1.
</event>
<event>
 6    1  0.1378789E-002  0.1872403E+03  0.7546771E-02  0.1064743E+00
        -11   -1    0    0    0    0  0.00000000000E+00  0.00000000000E+00  0.18250000000E+03  0.18250000000E+03  0.00000000000E+00 0. -1.
         11   -1    0    0    0    0 -0.00000000000E+00 -0.00000000000E+00 -0.18250000000E+03  0.18250000000E+03  0.00000000000E+00 0. -1.
        -11    1    1    2    0    0 -0.34419783754E+01  0.17496921941E+01  0.17062630725E+03  0.17066998964E+03  0.00000000000E+00 0. -1.
         11    1    1    2    0    0  0.13520184852E-01 -0.85213835997E+01 -0.17755529550E+03  0.17775966112E+03  0.00000000000E+00 0. -1.
        -15    1    1    2    0    0  0.12805908624E+01 -0.36515201960E+01  0.21434299722E+01  0.47671305567E+01  0.17770000000E+01 0. -1.
         15    1    1    2    0    0  0.21478673282E+01  0.10423211602E+02  0.47855582854E+01  0.11803218682E+02  0.17770000000E+01 0.  1.
</event>
<event>
 6    1  0.1378789E-002  0.1827460E+03  0.7546771E-02  0.1068259E+00
        -11   -1    0    0    0    0  0.00000000000E+00  0.00000000000E+00  0.18250000000E+03  0.18250000000E+03  0.00000000000E+00 0.  1.
         11   -1    0    0    0    0 -0.00000000000E+00 -0.00000000000E+00 -0.18250000000E+03  0.18250000000E+03  0.00000000000E+00 0.  1.
        -11    1    1    2    0    0 -0.33789977871E+01 -0.36417724072E+00  0.18222233788E+03  0.18225402786E+03  0.00000000000E+00 0.  1.
         11    1    1    2    0    0  0.13901142495E+01  0.62919113235E+00 -0.39248232100E+02  0.39277882098E+02  0.00000000000E+00 0.  1.
        -15    1    1    2    0    0 -0.19954545499E+01 -0.30275501132E+01 -0.11150882533E+03  0.11158191499E+03  0.17770000000E+01 0.  1.
         15    1    1    2    0    0  0.39843380874E+01  0.27625362216E+01 -0.31465280448E+02  0.31886175046E+02  0.17770000000E+01 0. -1.
</event>
<event>
 6    1  0.1378789E-002  0.1851389E+03  0.7546771E-02  0.1066373E+00
        -11   -1    0    0    0    0  0.00000000000E+00  0.00000000000E+00  0.18250000000E+03  0.18250000000E+03  0.00000000000E+00 0.  1.
         11   -1    0    0    0    0 -0.00000000000E+00 -0.00000000000E+00 -0.18250000000E+03  0.18250000000E+03  0.00000000000E+00 0.  1.
        -11    1    1    2    0    0 -0.66314002171E+01  0.64200396597E+01  0.13097951239E+03  0.13130432226E+03  0.00000000000E+00 0.  1.
         11    1    1    2    0    0  0.40231216303E+01  0.30224049294E+01 -0.17979074102E+03  0.17986114365E+03  0.00000000000E+00 0.  1.
        -15    1    1    2    0    0  0.47720696063E+01 -0.13725614062E+01  0.43408044835E+02  0.43727253042E+02  0.17770000000E+01 0.  1.
         15    1    1    2    0    0 -0.21637910196E+01 -0.80698831829E+01  0.54031837863E+01  0.10107281048E+02  0.17770000000E+01 0. -1.
</event>
<event>
 6    1  0.1378789E-002  0.1830959E+03  0.7546771E-02  0.1067981E+00
        -11   -1    0    0    0    0  0.00000000000E+00  0.00000000000E+00  0.18250000000E+03  0.18250000000E+03  0.00000000000E+00 0. -1.
         11   -1    0    0    0    0 -0.00000000000E+00 -0.00000000000E+00 -0.18250000000E+03  0.18250000000E+03  0.00000000000E+00 0.  1.
        -11    1    1    2    0    0 -0.16648837891E+01  0.74933482836E+00  0.21079421474E+02  0.21158339973E+02  0.00000000000E+00 0. -1.
         11    1    1    2    0    0 -0.70922711124E+01 -0.17250809531E+01 -0.18175761852E+03  0.18190411789E+03  0.00000000000E+00 0.  1.
        -15    1    1    2    0    0 -0.12918702573E+01 -0.67107287070E+01  0.44153886852E+02  0.44714944500E+02  0.17770000000E+01 0.  1.
         15    1    1    2    0    0  0.10049025159E+02  0.76864748317E+01  0.11652431019E+03  0.11722259764E+03  0.17770000000E+01 0. -1.
</event>
<event>
 6    1  0.1378789E-002  0.1835284E+03  0.7546771E-02  0.1067639E+00
        -11   -1    0    0    0    0  0.00000000000E+00  0.00000000000E+00  0.18250000000E+03  0.18250000000E+03  0.00000000000E+00 0. -1.
         11   -1    0    0    0    0 -0.00000000000E+00 -0.00000000000E+00 -0.18250000000E+03  0.18250000000E+03  0.00000000000E+00 0.  1.
        -11    1    1    2    0    0 -0.27615845358E+01  0.32013326409E+01  0.18142233254E+03  0.18147158903E+03  0.00000000000E+00 0. -1.
         11    1    1    2    0    0 -0.23637789221E+01  0.47704090750E+00 -0.16639922958E+03  0.16641670175E+03  0.00000000000E+00 0.  1.
        -15    1    1    2    0    0  0.50103361964E+01 -0.20700149725E+01 -0.93650627283E+01  0.10965881619E+02  0.17770000000E+01 0.  1.
         15    1    1    2    0    0  0.11502726145E+00 -0.16083585759E+01 -0.56580402356E+01  0.61458275999E+01  0.17770000000E+01 0. -1.
</event>
<event>
 6    1  0.1378789E-002  0.1827588E+03  0.7546771E-02  0.1068249E+00
        -11   -1    0    0    0    0  0.00000000000E+00  0.00000000000E+00  0.18250000000E+03  0.18250000000E+03  0.00000000000E+00 0. -1.
         11   -1    0    0    0    0 -0.00000000000E+00 -0.00000000000E+00 -0.18250000000E+03  0.18250000000E+03  0.00000000000E+00 0. -1.
        -11    1    1    2    0    0 -0.28338629768E+01 -0.16337480902E+01  0.10941989623E+03  0.10946877912E+03  0.00000000000E+00 0. -1.
         11    1    1    2    0    0 -0.20628101686E+01  0.14039349702E+01 -0.18222407693E+03  0.18224116009E+03  0.00000000000E+00 0. -1.
        -15    1    1    2    0    0  0.13542108176E+01  0.27478713458E+01  0.23897702642E+02  0.24158696249E+02  0.17770000000E+01 0. -1.
         15    1    1    2    0    0  0.35424623278E+01 -0.25180582258E+01  0.48906478058E+02  0.49131364540E+02  0.17770000000E+01 0.  1.
</event>
<event>
 6    1  0.1378789E-002  0.1826424E+03  0.7546771E-02  0.1068341E+00
        -11   -1    0    0    0    0  0.00000000000E+00  0.00000000000E+00  0.18250000000E+03  0.18250000000E+03  0.00000000000E+00 0. -1.
         11   -1    0    0    0    0 -0.00000000000E+00 -0.00000000000E+00 -0.18250000000E+03  0.18250000000E+03  0.00000000000E+00 0.  1.
        -11    1    1    2    0    0  0.98994485348E+00  0.24112206253E+00  0.59159815039E+02  0.59168588340E+02  0.00000000000E+00 0. -1.
         11    1    1    2    0    0  0.14673278278E+01 -0.20086686492E+01 -0.18234061222E+03  0.18235757913E+03  0.00000000000E+00 0.  1.
        -15    1    1    2    0    0 -0.17406627257E+01  0.33759751595E+00  0.11252997948E+03  0.11255797568E+03  0.17770000000E+01 0. -1.
         15    1    1    2    0    0 -0.71660995559E+00  0.14299490707E+01  0.10650817699E+02  0.10915856853E+02  0.17770000000E+01 0.  1.
</event>
<event>
 6    1  0.1378789E-002  0.1087860E+03  0.7546771E-02  0.1149431E+00
        -11   -1    0    0    0    0  0.00000000000E+00  0.00000000000E+00  0.18250000000E+03  0.18250000000E+03  0.00000000000E+00 0.  1.
         11   -1    0    0    0    0 -0.00000000000E+00 -0.00000000000E+00 -0.18250000000E+03  0.18250000000E+03  0.00000000000E+00 0. -1.
        -11    1    1    2    0    0 -0.16770698897E+01  0.10080521436E+01  0.12546327517E+03  0.12547853263E+03  0.00000000000E+00 0.  1.
         11    1    1    2    0    0  0.58679011696E+00  0.96422508966E+00 -0.74781063927E+02  0.74789581993E+02  0.00000000000E+00 0. -1.
        -15    1    1    2    0    0 -0.31482015577E+02 -0.41285278715E+02  0.36635827269E+02  0.63568334193E+02  0.17770000000E+01 0.  1.
         15    1    1    2    0    0  0.32572295350E+02  0.39313001482E+02 -0.87318038516E+02  0.10116355119E+03  0.17770000000E+01 0. -1.
</event>
<event>
 6    1  0.1378789E-002  0.1849859E+03  0.7546771E-02  0.1066493E+00
        -11   -1    0    0    0    0  0.00000000000E+00  0.00000000000E+00  0.18250000000E+03  0.18250000000E+03  0.00000000000E+00 0. -1.
         11   -1    0    0    0    0 -0.00000000000E+00 -0.00000000000E+00 -0.18250000000E+03  0.18250000000E+03  0.00000000000E+00 0. -1.
        -11    1    1    2    0    0 -0.10551605728E+01  0.35027851890E+01  0.17357570960E+03  0.17361425584E+03  0.00000000000E+00 0. -1.
         11    1    1    2    0    0  0.26169664160E+01  0.26844022019E+00 -0.17999487690E+03  0.18001410024E+03  0.00000000000E+00 0. -1.
        -15    1    1    2    0    0  0.72006569568E+00 -0.14464853608E+01 -0.13547640471E+01  0.27575222807E+01  0.17770000000E+01 0. -1.
         15    1    1    2    0    0 -0.22818715389E+01 -0.23247400483E+01  0.77739313518E+01  0.86141216426E+01  0.17770000000E+01 0.  1.
</event>
<event>
 6    1  0.1378789E-002  0.1989156E+03  0.7546771E-02  0.1056090E+00
        -11   -1    0    0    0    0  0.00000000000E+00  0.00000000000E+00  0.18250000000E+03  0.18250000000E+03  0.00000000000E+00 0. -1.
         11   -1    0    0    0    0 -0.00000000000E+00 -0.00000000000E+00 -0.18250000000E+03  0.18250000000E+03  0.00000000000E+00 0.  1.
        -11    1    1    2    0    0  0.11573329997E+01 -0.46080600986E+00  0.78075852501E+02  0.78085789396E+02  0.00000000000E+00 0. -1.
         11    1    1    2    0    0 -0.24251198175E+01  0.21726033361E+00 -0.16606658864E+03  0.16608443717E+03  0.00000000000E+00 0.  1.
        -15    1    1    2    0    0 -0.15249456426E+02  0.76840736454E+01 -0.10861531890E+02  0.20315548554E+02  0.17770000000E+01 0.  1.
         15    1    1    2    0    0  0.16517243244E+02 -0.74405279691E+01  0.98852268025E+02  0.10051422488E+03  0.17770000000E+01 0. -1.
</event>
<event>
 6    1  0.1378789E-002  0.1867426E+03  0.7546771E-02  0.1065127E+00
        -11   -1    0    0    0    0  0.00000000000E+00  0.00000000000E+00  0.18250000000E+03  0.18250000000E+03  0.00000000000E+00 0.  1.
         11   -1    0    0    0    0 -0.00000000000E+00 -0.00000000000E+00 -0.18250000000E+03  0.18250000000E+03  0.00000000000E+00 0. -1.
        -11    1    1    2    0    0 -0.82784038414E+01  0.63498401751E+01  0.17795183790E+03  0.17825742355E+03  0.00000000000E+00 0.  1.
         11    1    1    2    0    0  0.25847030414E+01 -0.45809360281E+00 -0.16207447620E+03  0.16209573213E+03  0.00000000000E+00 0. -1.
        -15    1    1    2    0    0 -0.55112772997E+01 -0.33647173675E+01 -0.87265210423E+01  0.11000245404E+02  0.17770000000E+01 0. -1.
         15    1    1    2    0    0  0.11204978100E+02 -0.25270292048E+01 -0.71508406535E+01  0.13646598912E+02  0.17770000000E+01 0.  1.
</event>
<event>
 6    1  0.1378789E-002  0.1771603E+03  0.7546771E-02  0.1072786E+00
        -11   -1    0    0    0    0  0.00000000000E+00  0.00000000000E+00  0.18250000000E+03  0.18250000000E+03  0.00000000000E+00 0.  1.
         11   -1    0    0    0    0 -0.00000000000E+00 -0.00000000000E+00 -0.18250000000E+03  0.18250000000E+03  0.00000000000E+00 0. -1.
        -11    1    1    2    0    0  0.73013254721E+01 -0.32602214650E+00  0.17569526611E+03  0.17584721259E+03  0.00000000000E+00 0.  1.
         11    1    1    2    0    0 -0.21656183394E+01  0.10641146144E+01 -0.17850619961E+03  0.17852250710E+03  0.00000000000E+00 0. -1.
        -15    1    1    2    0    0 -0.70554840506E+01 -0.98898212859E+00  0.31319451698E+01  0.79827783625E+01  0.17770000000E+01 0. -1.
         15    1    1    2    0    0  0.19197769178E+01  0.25088966069E+00 -0.32101166739E+00  0.26475019408E+01  0.17770000000E+01 0.  1.
</event>
<event>
 6    1  0.1378789E-002  0.1879932E+03  0.7546771E-02  0.1064164E+00
        -11   -1    0    0    0    0  0.00000000000E+00  0.00000000000E+00  0.18250000000E+03  0.18250000000E+03  0.00000000000E+00 0.  1.
         11   -1    0    0    0    0 -0.00000000000E+00 -0.00000000000E+00 -0.18250000000E+03  0.18250000000E+03  0.00000000000E+00 0.  1.
        -11    1    1    2    0    0 -0.53587534410E+01  0.40280748080E+01  0.13721158137E+03  0.13737525137E+03  0.00000000000E+00 0.  1.
         11    1    1    2    0    0 -0.10971576155E+01 -0.22123092152E+01 -0.17698958758E+03  0.17700681393E+03  0.00000000000E+00 0.  1.
        -15    1    1    2    0    0 -0.57929212412E+00  0.12860612045E+02  0.26586047058E+02  0.29592339358E+02  0.17770000000E+01 0.  1.
         15    1    1    2    0    0  0.70352031806E+01 -0.14676377637E+02  0.13191959148E+02  0.21025595343E+02  0.17770000000E+01 0. -1.
</event>
<event>
 6    1  0.1378789E-002  0.1827207E+03  0.7546771E-02  0.1068279E+00
        -11   -1    0    0    0    0  0.00000000000E+00  0.00000000000E+00  0.18250000000E+03  0.18250000000E+03  0.00000000000E+00 0.  1.
         11   -1    0    0    0    0 -0.00000000000E+00 -0.00000000000E+00 -0.18250000000E+03  0.18250000000E+03  0.00000000000E+00 0.  1.
        -11    1    1    2    0    0  0.23756770450E+01 -0.42288419599E+00  0.99799756016E+02  0.99828923531E+02  0.00000000000E+00 0.  1.
         11    1    1    2    0    0  0.27842602556E+01 -0.62182592161E+00 -0.18225700380E+03  0.18227933017E+03  0.00000000000E+00 0.  1.
        -15    1    1    2    0    0 -0.59060253680E+01  0.84335005426E+00  0.51679411563E+02  0.52052969978E+02  0.17770000000E+01 0.  1.
         15    1    1    2    0    0  0.74608806732E+00  0.20136006334E+00  0.30777836223E+02  0.30838776319E+02  0.17770000000E+01 0.  1.
</event>
<event>
 6    1  0.1378789E-002  0.2081805E+03  0.7546771E-02  0.1049672E+00
        -11   -1    0    0    0    0  0.00000000000E+00  0.00000000000E+00  0.18250000000E+03  0.18250000000E+03  0.00000000000E+00 0.  1.
         11   -1    0    0    0    0 -0.00000000000E+00 -0.00000000000E+00 -0.18250000000E+03  0.18250000000E+03  0.00000000000E+00 0.  1.
        -11    1    1    2    0    0  0.26754436831E+01  0.16070107001E+01  0.13837924328E+03  0.13841443368E+03  0.00000000000E+00 0.  1.
         11    1    1    2    0    0  0.26385948774E-02 -0.39958270526E+01 -0.15676861672E+03  0.15681953268E+03  0.00000000000E+00 0.  1.
        -15    1    1    2    0    0 -0.42006444910E+01 -0.31452609327E+00 -0.25411486347E+02  0.25819483112E+02  0.17770000000E+01 0. -1.
         15    1    1    2    0    0  0.15225622130E+01  0.27033424457E+01  0.43800859789E+02  0.43946550528E+02  0.17770000000E+01 0.  1.
</event>
<event>
 6    1  0.1378789E-002  0.1829494E+03  0.7546771E-02  0.1068098E+00
        -11   -1    0    0    0    0  0.00000000000E+00  0.00000000000E+00  0.18250000000E+03  0.18250000000E+03  0.00000000000E+00 0. -1.
         11   -1    0    0    0    0 -0.00000000000E+00 -0.00000000000E+00 -0.18250000000E+03  0.18250000000E+03  0.00000000000E+00 0.  1.
        -11    1    1    2    0    0  0.50516152899E+01 -0.12856764559E+01  0.18197594962E+03  0.18205059193E+03  0.00000000000E+00 0. -1.
         11    1    1    2    0    0  0.23391885983E+01  0.50717888607E+00 -0.10978509919E+03  0.10981118813E+03  0.00000000000E+00 0.  1.
        -15    1    1    2    0    0 -0.93020082689E+00  0.12792987701E+01 -0.47197727462E+02  0.47257645789E+02  0.17770000000E+01 0. -1.
         15    1    1    2    0    0 -0.64606030613E+01 -0.50080120028E+00 -0.24993122969E+02  0.25880574153E+02  0.17770000000E+01 0.  1.
</event>
<event>
 6    1  0.1378789E-002  0.1826621E+03  0.7546771E-02  0.1068326E+00
        -11   -1    0    0    0    0  0.00000000000E+00  0.00000000000E+00  0.18250000000E+03  0.18250000000E+03  0.00000000000E+00 0.  1.
         11   -1    0    0    0    0 -0.00000000000E+00 -0.00000000000E+00 -0.18250000000E+03  0.18250000000E+03  0.00000000000E+00 0. -1.
        -11    1    1    2    0    0 -0.11394904136E+00 -0.37012864228E+01  0.18230032984E+03  0.18233793562E+03  0.00000000000E+00 0.  1.
         11    1    1    2    0    0  0.14929426702E+01  0.42809927119E+00 -0.62637765857E+02  0.62657017631E+02  0.00000000000E+00 0. -1.
        -15    1    1    2    0    0 -0.36394260490E+01  0.20343064257E+01 -0.36035888448E+02  0.36319785377E+02  0.17770000000E+01 0.  1.
         15    1    1    2    0    0  0.22604324201E+01  0.12388807260E+01 -0.83626675538E+02  0.83685261371E+02  0.17770000000E+01 0. -1.
</event>
<event>
 6    1  0.1378789E-002  0.1829454E+03  0.7546771E-02  0.1068101E+00
        -11   -1    0    0    0    0  0.00000000000E+00  0.00000000000E+00  0.18250000000E+03  0.18250000000E+03  0.00000000000E+00 0. -1.
         11   -1    0    0    0    0 -0.00000000000E+00 -0.00000000000E+00 -0.18250000000E+03  0.18250000000E+03  0.00000000000E+00 0.  1.
        -11    1    1    2    0    0 -0.12558623265E+01  0.23919027468E+01  0.11382378930E+03  0.11385584482E+03  0.00000000000E+00 0. -1.
         11    1    1    2    0    0 -0.22830983910E+01 -0.16476786033E+01 -0.18203279782E+03  0.18205457112E+03  0.00000000000E+00 0.  1.
        -15    1    1    2    0    0 -0.19320923103E+01  0.98218391202E+00  0.63665138543E+01  0.69561407109E+01  0.17770000000E+01 0.  1.
         15    1    1    2    0    0  0.54710530278E+01 -0.17264080555E+01  0.61842494667E+02  0.62133443343E+02  0.17770000000E+01 0. -1.
</event>
<event>
 6    1  0.1378789E-002  0.2021584E+03  0.7546771E-02  0.1053801E+00
        -11   -1    0    0    0    0  0.00000000000E+00  0.00000000000E+00  0.18250000000E+03  0.18250000000E+03  0.00000000000E+00 0. -1.
         11   -1    0    0    0    0 -0.00000000000E+00 -0.00000000000E+00 -0.18250000000E+03  0.18250000000E+03  0.00000000000E+00 0. -1.
        -11    1    1    2    0    0 -0.26342456548E+02 -0.18723662457E+02  0.15960224003E+03  0.16284156588E+03  0.00000000000E+00 0. -1.
         11    1    1    2    0    0  0.23354630464E+01 -0.18106200310E+01 -0.11604068271E+03  0.11607830450E+03  0.00000000000E+00 0. -1.
        -15    1    1    2    0    0 -0.79235513292E+00  0.57323812860E+01 -0.54730224027E+02  0.55063991618E+02  0.17770000000E+01 0. -1.
         15    1    1    2    0    0  0.24799348635E+02  0.14801901202E+02  0.11168666701E+02  0.31016138006E+02  0.17770000000E+01 0.  1.
</event>
<event>
 6    1  0.1378789E-002  0.1829581E+03  0.7546771E-02  0.1068091E+00
        -11   -1    0    0    0    0  0.00000000000E+00  0.00000000000E+00  0.18250000000E+03  0.18250000000E+03  0.00000000000E+00 0.  1.
         11   -1    0    0    0    0 -0.00000000000E+00 -0.00000000000E+00 -0.18250000000E+03  0.18250000000E+03  0.00000000000E+00 0. -1.
        -11    1    1    2    0    0 -0.87990129660E+00 -0.17575652089E+01  0.98532944904E+02  0.98552546863E+02  0.00000000000E+00 0.  1.
         11    1    1    2    0    0 -0.22008022432E+01  0.48014695455E+01 -0.18196526252E+03  0.18204190288E+03  0.00000000000E+00 0. -1.
        -15    1    1    2    0    0  0.18491342601E+01 -0.30699430358E+01  0.81197429613E+02  0.81295904894E+02  0.17770000000E+01 0.  1.
         15    1    1    2    0    0  0.12315692797E+01  0.26038699207E-01  0.22348880024E+01  0.31096453637E+01  0.17770000000E+01 0. -1.
</event>
<event>
 6    1  0.1378789E-002  0.1860712E+03  0.7546771E-02  0.1065647E+00
        -11   -1    0    0    0    0  0.00000000000E+00  0.00000000000E+00  0.18250000000E+03  0.18250000000E+03  0.00000000000E+00 0. -1.
         11   -1    0    0    0    0 -0.00000000000E+00 -0.00000000000E+00 -0.18250000000E+03  0.18250000000E+03  0.00000000000E+00 0.  1.
        -11    1    1    2    0    0  0.95515057968E+01  0.51529278197E+01  0.17859937508E+03  0.17892881464E+03  0.00000000000E+00 0. -1.
         11    1    1    2    0    0 -0.12009564661E+01  0.21836699711E+01 -0.16056229954E+03  0.16058163888E+03  0.00000000000E+00 0.  1.
        -15    1    1    2    0    0 -0.10254166360E+02 -0.58102005940E+01 -0.18905060758E+02  0.22348722781E+02  0.17770000000E+01 0. -1.
         15    1    1    2    0    0  0.19036170298E+01 -0.15263971968E+01  0.86798521250E+00  0.31408237021E+01  0.17770000000E+01 0.  1.
</event>
<event>
 6    1  0.1378789E-002  0.1845961E+03  0.7546771E-02  0.1066798E+00
        -11   -1    0    0    0    0  0.00000000000E+00  0.00000000000E+00  0.18250000000E+03  0.18250000000E+03  0.00000000000E+00 0. -1.
         11   -1    0    0    0    0 -0.00000000000E+00 -0.00000000000E+00 -0.18250000000E+03  0.18250000000E+03  0.00000000000E+00 0.  1.
        -11    1    1    2    0    0 -0.23025855706E+01  0.18049227175E+01  0.18038016547E+03  0.18040389059E+03  0.00000000000E+00 0. -1.
         11    1    1    2    0    0  0.19182014131E+01  0.12929520809E+01 -0.16323485252E+03  0.16325124287E+03  0.00000000000E+00 0.  1.
        -15    1    1    2    0    0  0.47038928413E+01  0.19953256224E+01 -0.10208060876E+02  0.11552928982E+02  0.17770000000E+01 0. -1.
         15    1    1    2    0    0 -0.43195086838E+01 -0.50932004209E+01 -0.69372520758E+01  0.97919375590E+01  0.17770000000E+01 0.  1.
</event>
<event>
 6    1  0.1378789E-002  0.1890666E+03  0.7546771E-02  0.1063345E+00
        -11   -1    0    0    0    0  0.00000000000E+00  0.00000000000E+00  0.18250000000E+03  0.18250000000E+03  0.00000000000E+00 0.  1.
         11   -1    0    0    0    0 -0.00000000000E+00 -0.00000000000E+00 -0.18250000000E+03  0.18250000000E+03  0.00000000000E+00 0.  1.
        -11    1    1    2    0    0  0.19464227815E+00 -0.27131188390E+01  0.17591239289E+03  0.17593342170E+03  0.00000000000E+00 0.  1.
         11    1    1    2    0    0  0.16908773621E+01 -0.99594142415E+01 -0.14702676302E+03  0.14737339665E+03  0.00000000000E+00 0.  1.
        -15    1    1    2    0    0  0.22418790950E+01 -0.19503576061E+01  0.40799472292E+01  0.53510386899E+01  0.17770000000E+01 0.  1.
         15    1    1    2    0    0 -0.41273987353E+01  0.14622890687E+02 -0.32965577098E+02  0.36342142958E+02  0.17770000000E+01 0. -1.
</event>
<event>
 6    1  0.1378789E-002  0.2058193E+03  0.7546771E-02  0.1051273E+00
        -11   -1    0    0    0    0  0.00000000000E+00  0.00000000000E+00  0.18250000000E+03  0.18250000000E+03  0.00000000000E+00 0.  1.
         11   -1    0    0    0    0 -0.00000000000E+00 -0.00000000000E+00 -0.18250000000E+03  0.18250000000E+03  0.00000000000E+00 0.  1.
        -11    1    1    2    0    0 -0.12868110199E+01 -0.81210862848E+01  0.13952637164E+03  0.13976843817E+03  0.00000000000E+00 0.  1.
         11    1    1    2    0    0 -0.16570829637E+00  0.74712771709E+01 -0.15900513189E+03  0.15918065024E+03  0.00000000000E+00 0.  1.
        -15    1    1    2    0    0 -0.29308019529E+00 -0.10841070219E+02 -0.21106860890E+02  0.23796470434E+02  0.17770000000E+01 0. -1.
         15    1    1    2    0    0  0.17455995115E+01  0.11490879333E+02  0.40585621141E+02  0.42254441162E+02  0.17770000000E+01 0.  1.
</event>
<event>
 6    1  0.1378789E-002  0.1844165E+03  0.7546771E-02  0.1066939E+00
        -11   -1    0    0    0    0  0.00000000000E+00  0.00000000000E+00  0.18250000000E+03  0.18250000000E+03  0.00000000000E+00 0.  1.
         11   -1    0    0    0    0 -0.00000000000E+00 -0.00000000000E+00 -0.18250000000E+03  0.18250000000E+03  0.00000000000E+00 0. -1.
        -11    1    1    2    0    0 -0.44138868660E+01 -0.36159231109E+00  0.18052920937E+03  0.18058352245E+03  0.00000000000E+00 0.  1.
         11    1    1    2    0    0 -0.28344261631E+00 -0.49961958289E+01 -0.16929380816E+03  0.16936775311E+03  0.00000000000E+00 0. -1.
        -15    1    1    2    0    0  0.33710356984E+01  0.33956092601E+01 -0.10941281433E+02  0.12073251937E+02  0.17770000000E+01 0. -1.
         15    1    1    2    0    0  0.13262937840E+01  0.19621788799E+01 -0.29411977722E+00  0.29754725006E+01  0.17770000000E+01 0.  1.
</event>
<event>
 6    1  0.1378789E-002  0.1725958E+03  0.7546771E-02  0.1076624E+00
        -11   -1    0    0    0    0  0.00000000000E+00  0.00000000000E+00  0.18250000000E+03  0.18250000000E+03  0.00000000000E+00 0.  1.
         11   -1    0    0    0    0 -0.00000000000E+00 -0.00000000000E+00 -0.18250000000E+03  0.18250000000E+03  0.00000000000E+00 0.  1.
        -11    1    1    2    0    0  0.92524366740E+01  0.42165987107E+01  0.17589965859E+03  0.17619329493E+03  0.00000000000E+00 0.  1.
         11    1    1    2    0    0  0.28044945896E+01 -0.61584162559E+01 -0.16914501036E+03  0.16928031726E+03  0.00000000000E+00 0.  1.
        -15    1    1    2    0    0 -0.51206854220E+01  0.16812804411E+01  0.37563662249E+01  0.68055961773E+01  0.17770000000E+01 0.  1.
         15    1    1    2    0    0 -0.69362458416E+01  0.26053710411E+00 -0.10511014446E+02  0.12720791628E+02  0.17770000000E+01 0. -1.
</event>
<event>
 6    1  0.1920856E-002  0.1945036E+03  0.7546771E-02  0.1059282E+00
        -11   -1    0    0    0    0  0.00000000000E+00  0.00000000000E+00  0.18250000000E+03  0.18250000000E+03  0.00000000000E+00 0. -1.
         11   -1    0    0    0    0 -0.00000000000E+00 -0.00000000000E+00 -0.18250000000E+03  0.18250000000E+03  0.00000000000E+00 0.  1.
        -11    1    1    2    0    0  0.14076255577E+01 -0.34804018184E+01  0.15973052599E+03  0.15977463985E+03  0.00000000000E+00 0. -1.
         11    1    1    2    0    0  0.10267812378E+01  0.31292028503E+01 -0.17046455556E+03  0.17049636621E+03  0.00000000000E+00 0.  1.
        -15    1    1    2    0    0 -0.13777808772E+01 -0.18006050937E+01 -0.11724445257E+02  0.12073143933E+02  0.17770000000E+01 0.  1.
         15    1    1    2    0    0 -0.10566259183E+01  0.21518040618E+01  0.22458474825E+02  0.22655850006E+02  0.17770000000E+01 0. -1.
</event>
<event>
 6    1  0.1378789E-002  0.1860599E+03  0.7546771E-02  0.1065656E+00
        -11   -1    0    0    0    0  0.00000000000E+00  0.00000000000E+00  0.18250000000E+03  0.18250000000E+03  0.00000000000E+00 0. -1.
         11   -1    0    0    0    0 -0.00000000000E+00 -0.00000000000E+00 -0.18250000000E+03  0.18250000000E+03  0.00000000000E+00 0. -1.
        -11    1    1    2    0    0  0.71882046016E+00 -0.29580367048E+01  0.17891417869E+03  0.17894007383E+03  0.00000000000E+00 0. -1.
         11    1    1    2    0    0  0.16899123556E+01 -0.34085533595E+00 -0.65748160808E+02  0.65770758212E+02  0.00000000000E+00 0. -1.
        -15    1    1    2    0    0  0.47128160165E+01  0.23525645012E+00  0.15675571342E+01  0.52802409767E+01  0.17770000000E+01 0.  1.
         15    1    1    2    0    0 -0.71215488323E+01  0.30636355906E+01 -0.11473357502E+03  0.11500892699E+03  0.17770000000E+01 0. -1.
</event>
<event>
 6    1  0.1378789E-002  0.2046788E+03  0.7546771E-02  0.1052055E+00
        -11   -1    0    0    0    0  0.00000000000E+00  0.00000000000E+00  0.18250000000E+03  0.18250000000E+03  0.00000000000E+00 0. -1.
         11   -1    0    0    0    0 -0.00000000000E+00 -0.00000000000E+00 -0.18250000000E+03  0.18250000000E+03  0.00000000000E+00 0. -1.
        -11    1    1    2    0    0  0.78056572536E+00  0.24021943330E+01  0.16030126867E+03  0.16032116690E+03  0.00000000000E+00 0. -1.
         11    1    1    2    0    0 -0.33949806821E+01  0.54569007548E+00 -0.15660480476E+03  0.15664255024E+03  0.00000000000E+00 0. -1.
        -15    1    1    2    0    0  0.56559702099E+00 -0.60026440824E+00 -0.25683733293E+02  0.25758340440E+02  0.17770000000E+01 0.  1.
         15    1    1    2    0    0  0.20488179357E+01 -0.23476200002E+01  0.21987269385E+02  0.22277942423E+02  0.17770000000E+01 0. -1.
</event>
<event>
 6    1  0.1378789E-002  0.1892485E+03  0.7546771E-02  0.1063206E+00
        -11   -1    0    0    0    0  0.00000000000E+00  0.00000000000E+00  0.18250000000E+03  0.18250000000E+03  0.00000000000E+00 0. -1.
         11   -1    0    0    0    0 -0.00000000000E+00 -0.00000000000E+00 -0.18250000000E+03  0.18250000000E+03  0.00000000000E+00 0. -1.
        -11    1    1    2    0    0 -0.65170983780E+01  0.15605884204E+02  0.88904464128E+02  0.90498728914E+02  0.00000000000E+00 0. -1.
         11    1    1    2    0    0 -0.11737908019E+01 -0.14290826085E+02 -0.17516556016E+03  0.17575146930E+03  0.00000000000E+00 0. -1.
        -15    1    1    2    0    0  0.94571119283E+01  0.19345642465E+02  0.20538592456E+02  0.29810775862E+02  0.17770000000E+01 0.  1.
         15    1    1    2    0    0 -0.17662227484E+01 -0.20660700584E+02  0.65722503571E+02  0.68939025929E+02  0.17770000000E+01 0. -1.
</event>
<event>
 6    1  0.1378789E-002  0.1852485E+03  0.7546771E-02  0.1066288E+00
        -11   -1    0    0    0    0  0.00000000000E+00  0.00000000000E+00  0.18250000000E+03  0.18250000000E+03  0.00000000000E+00 0. -1.
         11   -1    0    0    0    0 -0.00000000000E+00 -0.00000000000E+00 -0.18250000000E+03  0.18250000000E+03  0.00000000000E+00 0.  1.
        -11    1    1    2    0    0  0.27596952127E+01  0.24366146199E+00  0.15325549525E+03  0.15328053403E+03  0.00000000000E+00 0. -1.
         11    1    1    2    0    0 -0.27888588515E+01 -0.54581891821E+01 -0.17964692269E+03  0.17975145728E+03  0.00000000000E+00 0.  1.
        -15    1    1    2    0    0  0.81558863538E+00 -0.35172184076E+01 -0.81092322871E-01  0.40249615046E+01  0.17770000000E+01 0.  1.
         15    1    1    2    0    0 -0.78642499655E+00  0.87317461277E+01  0.26472519764E+02  0.27943047191E+02  0.17770000000E+01 0. -1.
</event>
<event>
 6    1  0.1378789E-002  0.1834958E+03  0.7546771E-02  0.1067665E+00
        -11   -1    0    0    0    0  0.00000000000E+00  0.00000000000E+00  0.18250000000E+03  0.18250000000E+03  0.00000000000E+00 0.  1.
         11   -1    0    0    0    0 -0.00000000000E+00 -0.00000000000E+00 -0.18250000000E+03  0.18250000000E+03  0.00000000000E+00 0.  1.
        -11    1    1    2    0    0  0.11229088904E+01 -0.30498446441E+01  0.18147513965E+03  0.18150423904E+03  0.00000000000E+00 0.  1.
         11    1    1    2    0    0 -0.48633507759E+01  0.13749917926E+01 -0.15384557530E+03  0.15392856727E+03  0.00000000000E+00 0.  1.
        -15    1    1    2    0    0 -0.28748435428E+01  0.13679588097E+00 -0.69695918418E+01  0.77470238124E+01  0.17770000000E+01 0. -1.
         15    1    1    2    0    0  0.66152854283E+01  0.15380569705E+01 -0.20659972507E+02  0.21820169878E+02  0.17770000000E+01 0.  1.
</event>
<event>
 6    1  0.1378789E-002  0.1851480E+03  0.7546771E-02  0.1066366E+00
        -11   -1    0    0    0    0  0.00000000000E+00  0.00000000000E+00  0.18250000000E+03  0.18250000000E+03  0.00000000000E+00 0. -1.
         11   -1    0    0    0    0 -0.00000000000E+00 -0.00000000000E+00 -0.18250000000E+03  0.18250000000E+03  0.00000000000E+00 0. -1.
        -11    1    1    2    0    0 -0.19913549779E+01 -0.22825953698E+01  0.17982648299E+03  0.17985199393E+03  0.00000000000E+00 0. -1.
         11    1    1    2    0    0  0.23863153783E+01 -0.10335874625E+01 -0.17779518225E+03  0.17781419976E+03  0.00000000000E+00 0. -1.
        -15    1    1    2    0    0 -0.11565157745E+01 -0.64058179241E+00 -0.19158058097E+01  0.29284662658E+01  0.17770000000E+01 0.  1.
         15    1    1    2    0    0  0.76155537413E+00  0.39567646248E+01 -0.11549492563E+00  0.44053400506E+01  0.17770000000E+01 0. -1.
</event>
<event>
 6    1  0.1378789E-002  0.1856585E+03  0.7546771E-02  0.1065968E+00
        -11   -1    0    0    0    0  0.00000000000E+00  0.00000000000E+00  0.18250000000E+03  0.18250000000E+03  0.00000000000E+00 0.  1.
         11   -1    0    0    0    0 -0.00000000000E+00 -0.00000000000E+00 -0.18250000000E+03  0.18250000000E+03  0.00000000000E+00 0.  1.
        -11    1    1    2    0    0  0.32701875978E+01 -0.39205568398E+01  0.17926877598E+03  0.17934145905E+03  0.00000000000E+00 0.  1.
         11    1    1    2    0    0  0.25303873106E+01  0.10404831240E+01 -0.15827431613E+03  0.15829796149E+03  0.00000000000E+00 0.  1.
        -15    1    1    2    0    0 -0.10996557053E+01  0.15466167880E+01 -0.21924912097E+02  0.22078513664E+02  0.17770000000E+01 0. -1.
         15    1    1    2    0    0 -0.47009192030E+01  0.13334569278E+01  0.93045224437E+00  0.52820657995E+01  0.17770000000E+01 0. -1.
</event>
<event>
 6    1  0.1378789E-002  0.1901855E+03  0.7546771E-02  0.1062497E+00
        -11   -1    0    0    0    0  0.00000000000E+00  0.00000000000E+00  0.18250000000E+03  0.18250000000E+03  0.00000000000E+00 0. -1.
         11   -1    0    0    0    0 -0.00000000000E+00 -0.00000000000E+00 -0.18250000000E+03  0.18250000000E+03  0.00000000000E+00 0.  1.
        -11    1    1    2    0    0 -0.26761754192E+00 -0.42033473841E+01  0.16912792073E+03  0.16918035737E+03  0.00000000000E+00 0. -1.
         11    1    1    2    0    0 -0.10007590385E+01  0.48224861963E+01 -0.17474514097E+03  0.17481453654E+03  0.00000000000E+00 0.  1.
        -15    1    1    2    0    0  0.64926724815E+01 -0.65897992390E+01 -0.22571588763E+01  0.96867303645E+01  0.17770000000E+01 0.  1.
         15    1    1    2    0    0 -0.52242959011E+01  0.59706604267E+01  0.78743791213E+01  0.11318375729E+02  0.17770000000E+01 0. -1.
</event>
<event>
 6    1  0.1378789E-002  0.1858694E+03  0.7546771E-02  0.1065804E+00
        -11   -1    0    0    0    0  0.00000000000E+00  0.00000000000E+00  0.18250000000E+03  0.18250000000E+03  0.00000000000E+00 0. -1.
         11   -1    0    0    0    0 -0.00000000000E+00 -0.00000000000E+00 -0.18250000000E+03  0.18250000000E+03  0.00000000000E+00 0. -1.
        -11    1    1    2    0    0 -0.21350958118E+01  0.79270333259E+00  0.14944402509E+03  0.14946137845E+03  0.00000000000E+00 0. -1.
         11    1    1    2    0    0 -0.88628230066E+00  0.80338339421E+01 -0.17894819330E+03  0.17913063353E+03  0.00000000000E+00 0. -1.
        -15    1    1    2    0    0 -0.13825846795E+01 -0.12704973151E+01  0.27021131982E+02  0.27144520744E+02  0.17770000000E+01 0.  1.
         15    1    1    2    0    0  0.44039627920E+01 -0.75560399597E+01  0.24830362220E+01  0.92634672788E+01  0.17770000000E+01 0. -1.
</event>
<event>
 6    1  0.1378789E-002  0.1827941E+03  0.7546771E-02  0.1068221E+00
        -11   -1    0    0    0    0  0.00000000000E+00  0.00000000000E+00  0.18250000000E+03  0.18250000000E+03  0.00000000000E+00 0. -1.
         11   -1    0    0    0    0 -0.00000000000E+00 -0.00000000000E+00 -0.18250000000E+03  0.18250000000E+03  0.00000000000E+00 0.  1.
        -11    1    1    2    0    0 -0.38396663906E+01 -0.28679330130E+01  0.14444544965E+03  0.14452493211E+03  0.00000000000E+00 0. -1.
         11    1    1    2    0    0  0.62526927250E+01  0.16425709883E+01 -0.18209118433E+03  0.18220590994E+03  0.00000000000E+00 0.  1.
        -15    1    1    2    0    0  0.14144047886E+01  0.95108861215E+00  0.98232353127E+01  0.10127131453E+02  0.17770000000E+01 0.  1.
         15    1    1    2    0    0 -0.38274311230E+01  0.27427341258E+00  0.27822499374E+02  0.28142026496E+02  0.17770000000E+01 0. -1.
</event>
<event>
 6    1  0.1378789E-002  0.1837468E+03  0.7546771E-02  0.1067467E+00
        -11   -1    0    0    0    0  0.00000000000E+00  0.00000000000E+00  0.18250000000E+03  0.18250000000E+03  0.00000000000E+00 0.  1.
         11   -1    0    0    0    0 -0.00000000000E+00 -0.00000000000E+00 -0.18250000000E+03  0.18250000000E+03  0.00000000000E+00 0.  1.
        -11    1    1    2    0    0 -0.99010722916E-02 -0.29560832206E+01  0.16948194900E+03  0.16950772715E+03  0.00000000000E+00 0.  1.
         11    1    1    2    0    0  0.38547749742E+01 -0.68876254113E+00 -0.18121087867E+03  0.18125318268E+03  0.00000000000E+00 0.  1.
        -15    1    1    2    0    0 -0.14927777346E+01  0.40998586847E+01  0.91684902655E+01  0.10308063317E+02  0.17770000000E+01 0.  1.
         15    1    1    2    0    0 -0.23520961673E+01 -0.45501292301E+00  0.25604394063E+01  0.39310268498E+01  0.17770000000E+01 0. -1.
</event>
<event>
 6    1  0.1378789E-002  0.1875799E+03  0.7546771E-02  0.1064482E+00
        -11   -1    0    0    0    0  0.00000000000E+00  0.00000000000E+00  0.18250000000E+03  0.18250000000E+03  0.00000000000E+00 0. -1.
         11   -1    0    0    0    0 -0.00000000000E+00 -0.00000000000E+00 -0.18250000000E+03  0.18250000000E+03  0.00000000000E+00 0.  1.
        -11    1    1    2    0    0  0.30654866044E+01 -0.20376431956E+01  0.17738192672E+03  0.17742011477E+03  0.00000000000E+00 0. -1.
         11    1    1    2    0    0 -0.41701453536E+01  0.94745738189E+01 -0.14593901807E+03  0.14630568908E+03  0.00000000000E+00 0.  1.
        -15    1    1    2    0    0 -0.19542774868E+01  0.76869087766E+00  0.39260511933E+01  0.47939225206E+01  0.17770000000E+01 0. -1.
         15    1    1    2    0    0  0.30589362360E+01 -0.82056215010E+01 -0.35368959843E+02  0.36480273635E+02  0.17770000000E+01 0. -1.
</event>
<event>
 6    1  0.1378789E-002  0.1832278E+03  0.7546771E-02  0.1067877E+00
        -11   -1    0    0    0    0  0.00000000000E+00  0.00000000000E+00  0.18250000000E+03  0.18250000000E+03  0.00000000000E+00 0. -1.
         11   -1    0    0    0    0 -0.00000000000E+00 -0.00000000000E+00 -0.18250000000E+03  0.18250000000E+03  0.00000000000E+00 0. -1.
        -11    1    1    2    0    0 -0.17535013414E+01  0.24830507226E+01  0.15719416884E+03  0.15722355748E+03  0.00000000000E+00 0. -1.
         11    1    1    2    0    0  0.24585312703E+01  0.42320034183E+00 -0.18175511524E+03  0.18177223493E+03  0.00000000000E+00 0. -1.
        -15    1    1    2    0    0 -0.89646164422E+00 -0.51589970954E+01  0.13825664226E+02  0.14890453814E+02  0.17770000000E+01 0.  1.
         15    1    1    2    0    0  0.19143171539E+00  0.22527460310E+01  0.10735282172E+02  0.11113753780E+02  0.17770000000E+01 0.  1.
</event>
<event>
 6    1  0.1378789E-002  0.1956013E+03  0.7546771E-02  0.1058479E+00
        -11   -1    0    0    0    0  0.00000000000E+00  0.00000000000E+00  0.18250000000E+03  0.18250000000E+03  0.00000000000E+00 0. -1.
         11   -1    0    0    0    0 -0.00000000000E+00 -0.00000000000E+00 -0.18250000000E+03  0.18250000000E+03  0.00000000000E+00 0. -1.
        -11    1    1    2    0    0 -0.10193682209E+02 -0.14865599931E+01  0.15934758126E+03  0.15968022004E+03  0.00000000000E+00 0. -1.
         11    1    1    2    0    0 -0.38021274137E+01  0.62842156266E+00 -0.16935487337E+03  0.16939871376E+03  0.00000000000E+00 0. -1.
        -15    1    1    2    0    0  0.43657943668E+00  0.13917640375E+02 -0.94462989848E+00  0.14069163794E+02  0.17770000000E+01 0.  1.
         15    1    1    2    0    0  0.13559230186E+02 -0.13059501945E+02  0.10951922010E+02  0.21851902411E+02  0.17770000000E+01 0. -1.
</event>
<event>
 6    1  0.1378789E-002  0.1850453E+03  0.7546771E-02  0.1066447E+00
        -11   -1    0    0    0    0  0.00000000000E+00  0.00000000000E+00  0.18250000000E+03  0.18250000000E+03  0.00000000000E+00 0.  1.
         11   -1    0    0    0    0 -0.00000000000E+00 -0.00000000000E+00 -0.18250000000E+03  0.18250000000E+03  0.00000000000E+00 0. -1.
        -11    1    1    2    0    0 -0.10364735183E+01 -0.24529912090E+01  0.17618782985E+03  0.17620795337E+03  0.00000000000E+00 0.  1.
         11    1    1    2    0    0  0.26651610723E+01  0.30321364584E+01 -0.17990936722E+03  0.17995465359E+03  0.00000000000E+00 0. -1.
        -15    1    1    2    0    0 -0.36493790796E+01 -0.21870071600E+01  0.33100396161E+01  0.56758311501E+01  0.17770000000E+01 0. -1.
         15    1    1    2    0    0  0.20206915255E+01  0.16078619106E+01  0.41149776033E+00  0.31615618880E+01  0.17770000000E+01 0.  1.
</event>
<event>
 6    1  0.1378789E-002  0.1843803E+03  0.7546771E-02  0.1066968E+00
        -11   -1    0    0    0    0  0.00000000000E+00  0.00000000000E+00  0.18250000000E+03  0.18250000000E+03  0.00000000000E+00 0.  1.
         11   -1    0    0    0    0 -0.00000000000E+00 -0.00000000000E+00 -0.18250000000E+03  0.18250000000E+03  0.00000000000E+00 0. -1.
        -11    1    1    2    0    0  0.77372192932E+00 -0.25832075900E+01  0.16821327730E+03  0.16823489016E+03  0.00000000000E+00 0.  1.
         11    1    1    2    0    0  0.28401756068E+01  0.53769670739E+01 -0.18051728339E+03  0.18061967771E+03  0.00000000000E+00 0. -1.
        -15    1    1    2    0    0  0.22391654517E+01 -0.13577194323E+01  0.11951760914E+01  0.33828152279E+01  0.17770000000E+01 0.  1.
         15    1    1    2    0    0 -0.58530629878E+01 -0.14360400517E+01  0.11108829999E+02  0.12762616907E+02  0.17770000000E+01 0.  1.
</event>
<event>
 6    1  0.1378789E-002  0.1834933E+03  0.7546771E-02  0.1067667E+00
        -11   -1    0    0    0    0  0.00000000000E+00  0.00000000000E+00  0.18250000000E+03  0.18250000000E+03  0.00000000000E+00 0. -1.
         11   -1    0    0    0    0 -0.00000000000E+00 -0.00000000000E+00 -0.18250000000E+03  0.18250000000E+03  0.00000000000E+00 0.  1.
        -11    1    1    2    0    0 -0.15691717954E+01  0.48938843476E+01  0.18143396500E+03  0.18150673834E+03  0.00000000000E+00 0. -1.
         11    1    1    2    0    0  0.96625105692E+00 -0.16009133916E+01 -0.11293324293E+03  0.11294872254E+03  0.00000000000E+00 0.  1.
        -15    1    1    2    0    0  0.33429402808E+01 -0.50153727947E+01 -0.92714549333E+01  0.11200304441E+02  0.17770000000E+01 0.  1.
         15    1    1    2    0    0 -0.27400195423E+01  0.17224018386E+01 -0.59229267142E+02  0.59344234686E+02  0.17770000000E+01 0. -1.
</event>
<event>
 6    1  0.1378789E-002  0.1908843E+03  0.7546771E-02  0.1061970E+00
        -11   -1    0    0    0    0  0.00000000000E+00  0.00000000000E+00  0.18250000000E+03  0.18250000000E+03  0.00000000000E+00 0.  1.
         11   -1    0    0    0    0 -0.00000000000E+00 -0.00000000000E+00 -0.18250000000E+03  0.18250000000E+03  0.00000000000E+00 0.  1.
        -11    1    1    2    0    0  0.40602377350E+01  0.74792015449E+01  0.17390755710E+03  0.17411565812E+03  0.00000000000E+00 0.  1.
         11    1    1    2    0    0 -0.21744620482E+01  0.25002892491E+01 -0.14635956792E+03  0.14639707255E+03  0.00000000000E+00 0.  1.
        -15    1    1    2    0    0 -0.95672416215E+00 -0.15685590126E+02  0.47202187538E+00  0.15821933902E+02  0.17770000000E+01 0. -1.
         15    1    1    2    0    0 -0.92905152467E+00  0.57060993324E+01 -0.28020011059E+02  0.28665335426E+02  0.17770000000E+01 0.  1.
</event>
<event>
 6    1  0.1378789E-002  0.1841221E+03  0.7546771E-02  0.1067171E+00
        -11   -1    0    0    0    0  0.00000000000E+00  0.00000000000E+00  0.18250000000E+03  0.18250000000E+03  0.00000000000E+00 0. -1.
         11   -1    0    0    0    0 -0.00000000000E+00 -0.00000000000E+00 -0.18250000000E+03  0.18250000000E+03  0.00000000000E+00 0.  1.
        -11    1    1    2    0    0  0.17943084324E+01  0.14615754494E+01  0.13758162809E+03  0.13760109060E+03  0.00000000000E+00 0. -1.
         11    1    1    2    0    0 -0.44386074738E+01  0.21661324861E+01 -0.18081046326E+03  0.18087790631E+03  0.00000000000E+00 0.  1.
        -15    1    1    2    0    0 -0.29434164676E+01 -0.41890750572E+01  0.38734873474E+02  0.39112149038E+02  0.17770000000E+01 0. -1.
         15    1    1    2    0    0  0.55877155090E+01  0.56136712172E+00  0.44939616974E+01  0.74088540540E+01  0.17770000000E+01 0.  1.
</event>
<event>
 6    1  0.1378789E-002  0.1836006E+03  0.7546771E-02  0.1067582E+00
        -11   -1    0    0    0    0  0.00000000000E+00  0.00000000000E+00  0.18250000000E+03  0.18250000000E+03  0.00000000000E+00 0.  1.
         11   -1    0    0    0    0 -0.00000000000E+00 -0.00000000000E+00 -0.18250000000E+03  0.18250000000E+03  0.00000000000E+00 0. -1.
        -11    1    1    2    0    0 -0.43701601798E+01 -0.13286413141E+01  0.13505835628E+03  0.13513557337E+03  0.00000000000E+00 0.  1.
         11    1    1    2    0    0  0.10388705096E+01  0.24399902638E+01 -0.18137998534E+03  0.18139937124E+03  0.00000000000E+00 0. -1.
        -15    1    1    2    0    0 -0.28469211342E+01 -0.49959188785E+01  0.28441778750E+02  0.29071578437E+02  0.17770000000E+01 0.  1.
         15    1    1    2    0    0  0.61782108044E+01  0.38845699287E+01  0.17879850307E+02  0.19393476951E+02  0.17770000000E+01 0.  1.
</event>
<event>
 6    1  0.1378789E-002  0.1829067E+03  0.7546771E-02  0.1068132E+00
        -11   -1    0    0    0    0  0.00000000000E+00  0.00000000000E+00  0.18250000000E+03  0.18250000000E+03  0.00000000000E+00 0.  1.
         11   -1    0    0    0    0 -0.00000000000E+00 -0.00000000000E+00 -0.18250000000E+03  0.18250000000E+03  0.00000000000E+00 0.  1.
        -11    1    1    2    0    0 -0.21219000091E+01 -0.23940755422E+01  0.18206521997E+03  0.18209332327E+03  0.00000000000E+00 0.  1.
         11    1    1    2    0    0 -0.18432713992E+01 -0.38717340232E+00 -0.86081989420E+02  0.86102592616E+02  0.00000000000E+00 0.  1.
        -15    1    1    2    0    0  0.49619116233E+00 -0.10048958686E+00 -0.81697530620E+02  0.81718422294E+02  0.17770000000E+01 0.  1.
         15    1    1    2    0    0  0.34689802459E+01  0.28817385314E+01 -0.14285699932E+02  0.15085661817E+02  0.17770000000E+01 0.  1.
</event>
<event>
 6    1  0.1378789E-002  0.1828711E+03  0.7546771E-02  0.1068160E+00
        -11   -1    0    0    0    0  0.00000000000E+00  0.00000000000E+00  0.18250000000E+03  0.18250000000E+03  0.00000000000E+00 0. -1.
         11   -1    0    0    0    0 -0.00000000000E+00 -0.00000000000E+00 -0.18250000000E+03  0.18250000000E+03  0.00000000000E+00 0.  1.
        -11    1    1    2    0    0  0.34877569095E+01 -0.12385306638E+01  0.18209129348E+03  0.18212890371E+03  0.00000000000E+00 0. -1.
         11    1    1    2    0    0 -0.11388594739E+01  0.52716251233E+00 -0.63795725208E+02  0.63808067327E+02  0.00000000000E+00 0.  1.
        -15    1    1    2    0    0 -0.20036685365E+01 -0.28222077173E+01 -0.10733577187E+03  0.10740626237E+03  0.17770000000E+01 0.  1.
         15    1    1    2    0    0 -0.34522889910E+00  0.35335758688E+01 -0.10959796393E+02  0.11656766593E+02  0.17770000000E+01 0. -1.
</event>
<event>
 6    1  0.1378789E-002  0.1826422E+03  0.7546771E-02  0.1068342E+00
        -11   -1    0    0    0    0  0.00000000000E+00  0.00000000000E+00  0.18250000000E+03  0.18250000000E+03  0.00000000000E+00 0. -1.
         11   -1    0    0    0    0 -0.00000000000E+00 -0.00000000000E+00 -0.18250000000E+03  0.18250000000E+03  0.00000000000E+00 0.  1.
        -11    1    1    2    0    0  0.44615366077E+00  0.51570710780E+00  0.38337768265E+02  0.38343832392E+02  0.00000000000E+00 0. -1.
         11    1    1    2    0    0  0.28849980258E+00  0.28732018471E+01 -0.18233498122E+03  0.18235784573E+03  0.00000000000E+00 0.  1.
        -15    1    1    2    0    0 -0.13999193289E+01 -0.10404717949E+01  0.11489589613E+02  0.11756306995E+02  0.17770000000E+01 0.  1.
         15    1    1    2    0    0  0.66526586551E+00 -0.23484371600E+01  0.13250762335E+03  0.13254201488E+03  0.17770000000E+01 0. -1.
</event>
<event>
 6    1  0.1378789E-002  0.1848801E+03  0.7546771E-02  0.1066576E+00
        -11   -1    0    0    0    0  0.00000000000E+00  0.00000000000E+00  0.18250000000E+03  0.18250000000E+03  0.00000000000E+00 0. -1.
         11   -1    0    0    0    0 -0.00000000000E+00 -0.00000000000E+00 -0.18250000000E+03  0.18250000000E+03  0.00000000000E+00 0.  1.
        -11    1    1    2    0    0  0.11750516603E+02  0.64483066573E+01  0.15069307023E+03  0.15128799263E+03  0.00000000000E+00 0. -1.
         11    1    1    2    0    0 -0.27053778963E+01 -0.41687865254E+01 -0.18005134094E+03  0.18011991346E+03  0.00000000000E+00 0.  1.
        -15    1    1    2    0    0  0.25753181523E+01  0.10996142927E+01  0.27545603657E+01  0.43112349723E+01  0.17770000000E+01 0.  1.
         15    1    1    2    0    0 -0.11620456859E+02 -0.33791344246E+01  0.26603710342E+02  0.29280858936E+02  0.17770000000E+01 0. -1.
</event>
<event>
 6    1  0.1378789E-002  0.1833975E+03  0.7546771E-02  0.1067743E+00
        -11   -1    0    0    0    0  0.00000000000E+00  0.00000000000E+00  0.18250000000E+03  0.18250000000E+03  0.00000000000E+00 0.  1.
         11   -1    0    0    0    0 -0.00000000000E+00 -0.00000000000E+00 -0.18250000000E+03  0.18250000000E+03  0.00000000000E+00 0. -1.
        -11    1    1    2    0    0 -0.42864881365E+01  0.38149157423E+01  0.18151176992E+03  0.18160245092E+03  0.00000000000E+00 0.  1.
         11    1    1    2    0    0 -0.33840441118E+00  0.32609049510E+01 -0.13936267851E+03  0.13940123450E+03  0.00000000000E+00 0. -1.
        -15    1    1    2    0    0  0.16242021271E+01 -0.84931998514E+01 -0.30719844432E+02  0.31963088825E+02  0.17770000000E+01 0. -1.
         15    1    1    2    0    0  0.30006904206E+01  0.14173791581E+01 -0.11429246976E+02  0.12033225757E+02  0.17770000000E+01 0.  1.
</event>
<event>
 6    1  0.1378789E-002  0.1879639E+03  0.7546771E-02  0.1064187E+00
        -11   -1    0    0    0    0  0.00000000000E+00  0.00000000000E+00  0.18250000000E+03  0.18250000000E+03  0.00000000000E+00 0.  1.
         11   -1    0    0    0    0 -0.00000000000E+00 -0.00000000000E+00 -0.18250000000E+03  0.18250000000E+03  0.00000000000E+00 0. -1.
        -11    1    1    2    0    0 -0.19565243611E+01 -0.94934583167E+00  0.15388409471E+03  0.15389946020E+03  0.00000000000E+00 0.  1.
         11    1    1    2    0    0  0.86022084099E+01  0.24301568581E+00 -0.17682686453E+03  0.17703614621E+03  0.00000000000E+00 0. -1.
        -15    1    1    2    0    0 -0.76772846713E+01 -0.27507973121E+01  0.27054579467E+02  0.28312816619E+02  0.17770000000E+01 0.  1.
         15    1    1    2    0    0  0.10316006225E+01  0.34571274580E+01 -0.41118096439E+01  0.57515769709E+01  0.17770000000E+01 0. -1.
</event>
<event>
 6    1  0.1378789E-002  0.1849978E+03  0.7546771E-02  0.1066484E+00
        -11   -1    0    0    0    0  0.00000000000E+00  0.00000000000E+00  0.18250000000E+03  0.18250000000E+03  0.00000000000E+00 0.  1.
         11   -1    0    0    0    0 -0.00000000000E+00 -0.00000000000E+00 -0.18250000000E+03  0.18250000000E+03  0.00000000000E+00 0. -1.
        -11    1    1    2    0    0  0.21467694102E+01  0.19781761072E+01  0.17997848408E+03  0.18000215702E+03  0.00000000000E+00 0.  1.
         11    1    1    2    0    0 -0.26783563986E+01  0.33183446218E+01 -0.17655830590E+03  0.17660979697E+03  0.00000000000E+00 0. -1.
        -15    1    1    2    0    0  0.57504630593E+00 -0.22608339903E+01 -0.38548104537E+01  0.48434844089E+01  0.17770000000E+01 0.  1.
         15    1    1    2    0    0 -0.43459317571E-01 -0.30356867387E+01  0.43463227374E+00  0.35445615950E+01  0.17770000000E+01 0. -1.
</event>
<event>
 6    1  0.1378789E-002  0.1839417E+03  0.7546771E-02  0.1067313E+00
        -11   -1    0    0    0    0  0.00000000000E+00  0.00000000000E+00  0.18250000000E+03  0.18250000000E+03  0.00000000000E+00 0.  1.
         11   -1    0    0    0    0 -0.00000000000E+00 -0.00000000000E+00 -0.18250000000E+03  0.18250000000E+03  0.00000000000E+00 0.  1.
        -11    1    1    2    0    0 -0.71816788878E+01  0.32813204099E+01  0.18088608860E+03  0.18105833486E+03  0.00000000000E+00 0.  1.
         11    1    1    2    0    0 -0.94554279770E+00 -0.17225674044E+01 -0.11097040507E+03  0.11098780155E+03  0.00000000000E+00 0.  1.
        -15    1    1    2    0    0  0.13304075409E+01 -0.52626477409E+01 -0.51116400456E+01  0.76649878295E+01  0.17770000000E+01 0. -1.
         15    1    1    2    0    0  0.67968141446E+01  0.37038947354E+01 -0.64804043475E+02  0.65288875763E+02  0.17770000000E+01 0.  1.
</event>
<event>
 6    1  0.1378789E-002  0.1827785E+03  0.7546771E-02  0.1068233E+00
        -11   -1    0    0    0    0  0.00000000000E+00  0.00000000000E+00  0.18250000000E+03  0.18250000000E+03  0.00000000000E+00 0.  1.
         11   -1    0    0    0    0 -0.00000000000E+00 -0.00000000000E+00 -0.18250000000E+03  0.18250000000E+03  0.00000000000E+00 0. -1.
        -11    1    1    2    0    0  0.23038177282E+01  0.21242658037E+01  0.18219450676E+03  0.18222145421E+03  0.00000000000E+00 0.  1.
         11    1    1    2    0    0 -0.57181044469E+00 -0.24434355726E+01 -0.14131483647E+03  0.14133711597E+03  0.00000000000E+00 0. -1.
        -15    1    1    2    0    0  0.15670796913E+01  0.15416941124E+01 -0.15123155145E+02  0.15385061262E+02  0.17770000000E+01 0. -1.
         15    1    1    2    0    0 -0.32990869748E+01 -0.12225243435E+01 -0.25756515148E+02  0.26056368554E+02  0.17770000000E+01 0.  1.
</event>
<event>
 6    1  0.1378789E-002  0.1983974E+03  0.7546771E-02  0.1056461E+00
        -11   -1    0    0    0    0  0.00000000000E+00  0.00000000000E+00  0.18250000000E+03  0.18250000000E+03  0.00000000000E+00 0.  1.
         11   -1    0    0    0    0 -0.00000000000E+00 -0.00000000000E+00 -0.18250000000E+03  0.18250000000E+03  0.00000000000E+00 0. -1.
        -11    1    1    2    0    0  0.36557292987E+00 -0.75992404586E+01  0.15232244313E+03  0.15251232337E+03  0.00000000000E+00 0.  1.
         11    1    1    2    0    0 -0.16954825751E+01  0.21402680527E+01 -0.16658023750E+03  0.16660261383E+03  0.00000000000E+00 0. -1.
        -15    1    1    2    0    0  0.15192663402E+02 -0.12424596155E+02  0.12992294399E+01  0.19749261682E+02  0.17770000000E+01 0. -1.
         15    1    1    2    0    0 -0.13862753757E+02  0.17883568561E+02  0.12958564928E+02  0.26135801120E+02  0.17770000000E+01 0.  1.
</event>
<event>
 6    1  0.1378789E-002  0.2022180E+03  0.7546771E-02  0.1053760E+00
        -11   -1    0    0    0    0  0.00000000000E+00  0.00000000000E+00  0.18250000000E+03  0.18250000000E+03  0.00000000000E+00 0. -1.
         11   -1    0    0    0    0 -0.00000000000E+00 -0.00000000000E+00 -0.18250000000E+03  0.18250000000E+03  0.00000000000E+00 0.  1.
        -11    1    1    2    0    0  0.72591399033E+01  0.28257610900E+02  0.12497415920E+03  0.12833443869E+03  0.00000000000E+00 0. -1.
         11    1    1    2    0    0  0.37797622067E+01  0.24067869596E+01 -0.16272036101E+03  0.16278204789E+03  0.00000000000E+00 0.  1.
        -15    1    1    2    0    0  0.19816569617E+02 -0.19052465302E+02  0.28410969385E+02  0.39573144630E+02  0.17770000000E+01 0.  1.
         15    1    1    2    0    0 -0.30855471727E+02 -0.11611932558E+02  0.93352324225E+01  0.34310368791E+02  0.17770000000E+01 0. -1.
</event>
<event>
 6    1  0.1378789E-002  0.1869681E+03  0.7546771E-02  0.1064953E+00
        -11   -1    0    0    0    0  0.00000000000E+00  0.00000000000E+00  0.18250000000E+03  0.18250000000E+03  0.00000000000E+00 0. -1.
         11   -1    0    0    0    0 -0.00000000000E+00 -0.00000000000E+00 -0.18250000000E+03  0.18250000000E+03  0.00000000000E+00 0. -1.
        -11    1    1    2    0    0 -0.61986077454E+01  0.45650035924E-01  0.14770331824E+03  0.14783333535E+03  0.00000000000E+00 0. -1.
         11    1    1    2    0    0 -0.35246543592E+01  0.30290418599E+01 -0.17797119682E+03  0.17803186563E+03  0.00000000000E+00 0. -1.
        -15    1    1    2    0    0  0.40282421358E+01 -0.89178778371E-01 -0.29195069119E+01  0.52835534603E+01  0.17770000000E+01 0. -1.
         15    1    1    2    0    0  0.56950199688E+01 -0.29855131174E+01  0.33187385496E+02  0.33851245562E+02  0.17770000000E+01 0.  1.
</event>
<event>
 6    1  0.1378789E-002  0.1826544E+03  0.7546771E-02  0.1068332E+00
        -11   -1    0    0    0    0  0.00000000000E+00  0.00000000000E+00  0.18250000000E+03  0.18250000000E+03  0.00000000000E+00 0.  1.
         11   -1    0    0    0    0 -0.00000000000E+00 -0.00000000000E+00 -0.18250000000E+03  0.18250000000E+03  0.00000000000E+00 0.  1.
        -11    1    1    2    0    0  0.49674692594E+01 -0.43863242872E+01  0.18222513674E+03  0.18234559510E+03  0.00000000000E+00 0.  1.
         11    1    1    2    0    0 -0.26299471167E+00 -0.10836767568E+01 -0.42082235175E+02  0.42097007481E+02  0.00000000000E+00 0.  1.
        -15    1    1    2    0    0 -0.50558185720E+01  0.46329941999E+01 -0.13135120440E+03  0.13154209426E+03  0.17770000000E+01 0. -1.
         15    1    1    2    0    0  0.35134402432E+00  0.83700684407E+00 -0.87916971672E+01  0.90153031652E+01  0.17770000000E+01 0.  1.
</event>
<event>
 6    1  0.1378789E-002  0.1832526E+03  0.7546771E-02  0.1067857E+00
        -11   -1    0    0    0    0  0.00000000000E+00  0.00000000000E+00  0.18250000000E+03  0.18250000000E+03  0.00000000000E+00 0. -1.
         11   -1    0    0    0    0 -0.00000000000E+00 -0.00000000000E+00 -0.18250000000E+03  0.18250000000E+03  0.00000000000E+00 0.  1.
        -11    1    1    2    0    0 -0.12176224389E+01  0.24963354047E+01  0.18172619800E+03  0.18174742180E+03  0.00000000000E+00 0. -1.
         11    1    1    2    0    0 -0.28405913725E+01 -0.70536261887E+00 -0.17009353304E+03  0.17011871289E+03  0.00000000000E+00 0.  1.
        -15    1    1    2    0    0  0.10637165703E+01 -0.15089233182E+01 -0.56911179797E+01  0.62413856940E+01  0.17770000000E+01 0.  1.
         15    1    1    2    0    0  0.29944972411E+01 -0.28204946765E+00 -0.59415469783E+01  0.68924796064E+01  0.17770000000E+01 0. -1.
</event>
<event>
 6    1  0.1378789E-002  0.1872332E+03  0.7546771E-02  0.1064748E+00
        -11   -1    0    0    0    0  0.00000000000E+00  0.00000000000E+00  0.18250000000E+03  0.18250000000E+03  0.00000000000E+00 0.  1.
         11   -1    0    0    0    0 -0.00000000000E+00 -0.00000000000E+00 -0.18250000000E+03  0.18250000000E+03  0.00000000000E+00 0.  1.
        -11    1    1    2    0    0  0.88994623881E+01 -0.50020581750E+01  0.17747343670E+03  0.17776681847E+03  0.00000000000E+00 0.  1.
         11    1    1    2    0    0  0.17775758895E+01 -0.21416862222E+01 -0.16888586803E+03  0.16890880088E+03  0.00000000000E+00 0.  1.
        -15    1    1    2    0    0  0.64018119782E+00 -0.24742501505E+00  0.46302544957E+00  0.19604011505E+01  0.17770000000E+01 0. -1.
         15    1    1    2    0    0 -0.11317219475E+02  0.73911694123E+01 -0.90505941165E+01  0.16363979491E+02  0.17770000000E+01 0.  1.
</event>
<event>
 6    1  0.1378789E-002  0.1836134E+03  0.7546771E-02  0.1067572E+00
        -11   -1    0    0    0    0  0.00000000000E+00  0.00000000000E+00  0.18250000000E+03  0.18250000000E+03  0.00000000000E+00 0. -1.
         11   -1    0    0    0    0 -0.00000000000E+00 -0.00000000000E+00 -0.18250000000E+03  0.18250000000E+03  0.00000000000E+00 0.  1.
        -11    1    1    2    0    0 -0.26036780409E+01  0.10617382621E+01  0.18136477066E+03  0.18138656638E+03  0.00000000000E+00 0. -1.
         11    1    1    2    0    0 -0.22341994751E+01  0.10113966676E+01 -0.13729533181E+03  0.13731723383E+03  0.00000000000E+00 0.  1.
        -15    1    1    2    0    0  0.45514994484E+01 -0.26138283918E+01 -0.59509441164E+01  0.81314027674E+01  0.17770000000E+01 0. -1.
         15    1    1    2    0    0  0.28637806762E+00  0.54069346214E+00 -0.38118494737E+02  0.38164797024E+02  0.17770000000E+01 0. -1.
</event>
<event>
 6    1  0.2876166E-002  0.1905843E+03  0.7546771E-02  0.1062196E+00
        -11   -1    0    0    0    0  0.00000000000E+00  0.00000000000E+00  0.18250000000E+03  0.18250000000E+03  0.00000000000E+00 0. -1.
         11   -1    0    0    0    0 -0.00000000000E+00 -0.00000000000E+00 -0.18250000000E+03  0.18250000000E+03  0.00000000000E+00 0. -1.
        -11    1    1    2    0    0  0.29333738207E+01 -0.15502336819E+01  0.16595499070E+03  0.16598815273E+03  0.00000000000E+00 0. -1.
         11    1    1    2    0    0 -0.74070254751E+01  0.86671462648E-01 -0.17425835406E+03  0.17441572607E+03  0.00000000000E+00 0. -1.
        -15    1    1    2    0    0  0.66884822508E+01 -0.13078077845E+01 -0.63084362323E+01  0.94551706869E+01  0.17770000000E+01 0. -1.
         15    1    1    2    0    0 -0.22148305963E+01  0.27713700038E+01  0.14611799595E+02  0.15140950521E+02  0.17770000000E+01 0.  1.
</event>
<event>
 6    1  0.1378789E-002  0.1828372E+03  0.7546771E-02  0.1068187E+00
        -11   -1    0    0    0    0  0.00000000000E+00  0.00000000000E+00  0.18250000000E+03  0.18250000000E+03  0.00000000000E+00 0.  1.
         11   -1    0    0    0    0 -0.00000000000E+00 -0.00000000000E+00 -0.18250000000E+03  0.18250000000E+03  0.00000000000E+00 0. -1.
        -11    1    1    2    0    0 -0.17486297202E+01  0.14274733789E+01  0.13353452781E+03  0.13355360536E+03  0.00000000000E+00 0.  1.
         11    1    1    2    0    0  0.24341289744E+00  0.41574593013E+01 -0.18211514243E+03  0.18216275366E+03  0.00000000000E+00 0. -1.
        -15    1    1    2    0    0 -0.14506142706E+01 -0.12611237059E+01  0.20221140503E+02  0.20389874129E+02  0.17770000000E+01 0. -1.
         15    1    1    2    0    0  0.29558310934E+01 -0.43238089743E+01  0.28359474122E+02  0.28893766853E+02  0.17770000000E+01 0.  1.
</event>
<event>
 6    1  0.1378789E-002  0.1933246E+03  0.7546771E-02  0.1060151E+00
        -11   -1    0    0    0    0  0.00000000000E+00  0.00000000000E+00  0.18250000000E+03  0.18250000000E+03  0.00000000000E+00 0.  1.
         11   -1    0    0    0    0 -0.00000000000E+00 -0.00000000000E+00 -0.18250000000E+03  0.18250000000E+03  0.00000000000E+00 0. -1.
        -11    1    1    2    0    0 -0.30511356161E+01 -0.79301417305E+00  0.77540305206E+02  0.77604363482E+02  0.00000000000E+00 0.  1.
         11    1    1    2    0    0 -0.28093190598E+01  0.55489428242E+00 -0.17165146762E+03  0.17167535209E+03  0.00000000000E+00 0. -1.
        -15    1    1    2    0    0  0.77244072187E-01  0.13406317613E+02  0.99383522203E+02  0.10029943935E+03  0.17770000000E+01 0.  1.
         15    1    1    2    0    0  0.57832106038E+01 -0.13168197722E+02 -0.52723597915E+01  0.15420845078E+02  0.17770000000E+01 0. -1.
</event>
<event>
 6    1  0.1378789E-002  0.1709993E+03  0.7546771E-02  0.1077997E+00
        -11   -1    0    0    0    0  0.00000000000E+00  0.00000000000E+00  0.18250000000E+03  0.18250000000E+03  0.00000000000E+00 0. -1.
         11   -1    0    0    0    0 -0.00000000000E+00 -0.00000000000E+00 -0.18250000000E+03  0.18250000000E+03  0.00000000000E+00 0.  1.
        -11    1    1    2    0    0 -0.50723534781E+01  0.85825873953E+01  0.16735467652E+03  0.16765135648E+03  0.00000000000E+00 0. -1.
         11    1    1    2    0    0  0.82947921814E+01  0.21338417310E+01 -0.17439243793E+03  0.17460263247E+03  0.00000000000E+00 0.  1.
        -15    1    1    2    0    0 -0.60347106492E+01 -0.95646044840E+01 -0.32271665518E+01  0.11894188686E+02  0.17770000000E+01 0.  1.
         15    1    1    2    0    0  0.28122719460E+01 -0.11518246422E+01  0.10264927962E+02  0.10851822362E+02  0.17770000000E+01 0. -1.
</event>
<event>
 6    1  0.1378789E-002  0.1839026E+03  0.7546771E-02  0.1067344E+00
        -11   -1    0    0    0    0  0.00000000000E+00  0.00000000000E+00  0.18250000000E+03  0.18250000000E+03  0.00000000000E+00 0.  1.
         11   -1    0    0    0    0 -0.00000000000E+00 -0.00000000000E+00 -0.18250000000E+03  0.18250000000E+03  0.00000000000E+00 0.  1.
        -11    1    1    2    0    0 -0.27141476048E+01 -0.61824770870E+01  0.14118628989E+03  0.14134764969E+03  0.00000000000E+00 0.  1.
         11    1    1    2    0    0  0.45215077624E+01  0.28474813670E+00 -0.18104071188E+03  0.18109738947E+03  0.00000000000E+00 0.  1.
        -15    1    1    2    0    0  0.39649665782E+00  0.42137460260E+01  0.38837105352E+02  0.39107433389E+02  0.17770000000E+01 0. -1.
         15    1    1    2    0    0 -0.22038568154E+01  0.16839829244E+01  0.10173166412E+01  0.34475274474E+01  0.17770000000E+01 0.  1.
</event>
<event>
 6    1  0.1378789E-002  0.1657350E+03  0.7546771E-02  0.1082643E+00
        -11   -1    0    0    0    0  0.00000000000E+00  0.00000000000E+00  0.18250000000E+03  0.18250000000E+03  0.00000000000E+00 0.  1.
         11   -1    0    0    0    0 -0.00000000000E+00 -0.00000000000E+00 -0.18250000000E+03  0.18250000000E+03  0.00000000000E+00 0. -1.
        -11    1    1    2    0    0  0.63288847831E+00  0.25346022419E+01  0.16510646294E+03  0.16512712939E+03  0.00000000000E+00 0.  1.
         11    1    1    2    0    0 -0.31975875409E+00  0.25900312035E+01 -0.16636454701E+03  0.16638501437E+03  0.00000000000E+00 0. -1.
        -15    1    1    2    0    0 -0.41348204498E+01 -0.29514596228E+01  0.16589075506E+02  0.17440269757E+02  0.17770000000E+01 0.  1.
         15    1    1    2    0    0  0.38216907256E+01 -0.21731738226E+01 -0.15330991438E+02  0.16047586483E+02  0.17770000000E+01 0. -1.
</event>
<event>
 6    1  0.1378789E-002  0.1992635E+03  0.7546771E-02  0.1055843E+00
        -11   -1    0    0    0    0  0.00000000000E+00  0.00000000000E+00  0.18250000000E+03  0.18250000000E+03  0.00000000000E+00 0. -1.
         11   -1    0    0    0    0 -0.00000000000E+00 -0.00000000000E+00 -0.18250000000E+03  0.18250000000E+03  0.00000000000E+00 0. -1.
        -11    1    1    2    0    0  0.35428488610E+01 -0.94071569547E+00  0.16569597137E+03  0.16573651273E+03  0.00000000000E+00 0. -1.
         11    1    1    2    0    0 -0.26058362248E+01  0.31854085993E+01 -0.13280239433E+03  0.13286614749E+03  0.00000000000E+00 0. -1.
        -15    1    1    2    0    0 -0.52403507840E+01  0.26233580332E+00  0.16147857695E+02  0.17071647066E+02  0.17770000000E+01 0.  1.
         15    1    1    2    0    0  0.43033381479E+01 -0.25070287072E+01 -0.49041434731E+02  0.49325692713E+02  0.17770000000E+01 0.  1.
</event>
<event>
 6    1  0.1378789E-002  0.1854214E+03  0.7546771E-02  0.1066153E+00
        -11   -1    0    0    0    0  0.00000000000E+00  0.00000000000E+00  0.18250000000E+03  0.18250000000E+03  0.00000000000E+00 0.  1.
         11   -1    0    0    0    0 -0.00000000000E+00 -0.00000000000E+00 -0.18250000000E+03  0.18250000000E+03  0.00000000000E+00 0. -1.
        -11    1    1    2    0    0  0.55966113802E+01  0.69290540592E+00  0.17949007303E+03  0.17957864152E+03  0.00000000000E+00 0.  1.
         11    1    1    2    0    0  0.47110516593E+01  0.35466103192E+01 -0.16490774395E+03  0.16501314029E+03  0.00000000000E+00 0. -1.
        -15    1    1    2    0    0 -0.63108532567E+01 -0.53972274067E+01 -0.13165930061E+02  0.15667047453E+02  0.17770000000E+01 0.  1.
         15    1    1    2    0    0 -0.39968097828E+01  0.11577116816E+01 -0.14163990118E+01  0.47411707349E+01  0.17770000000E+01 0. -1.
</event>
<event>
 6    1  0.1378789E-002  0.1852877E+03  0.7546771E-02  0.1066257E+00
        -11   -1    0    0    0    0  0.00000000000E+00  0.00000000000E+00  0.18250000000E+03  0.18250000000E+03  0.00000000000E+00 0. -1.
         11   -1    0    0    0    0 -0.00000000000E+00 -0.00000000000E+00 -0.18250000000E+03  0.18250000000E+03  0.00000000000E+00 0.  1.
        -11    1    1    2    0    0 -0.15687986398E+01 -0.39280054494E+01  0.17966255163E+03  0.17971233350E+03  0.00000000000E+00 0. -1.
         11    1    1    2    0    0  0.56538417025E+01 -0.23221710642E+01 -0.16053271952E+03  0.16064903498E+03  0.00000000000E+00 0.  1.
        -15    1    1    2    0    0 -0.49319107777E+01  0.96136004509E+01 -0.10505172205E+02  0.15174367519E+02  0.17770000000E+01 0.  1.
         15    1    1    2    0    0  0.84686771501E+00 -0.33634239373E+01 -0.86246599068E+01  0.94642639976E+01  0.17770000000E+01 0. -1.
</event>
<event>
 6    1  0.1378789E-002  0.1724644E+03  0.7546771E-02  0.1076736E+00
        -11   -1    0    0    0    0  0.00000000000E+00  0.00000000000E+00  0.18250000000E+03  0.18250000000E+03  0.00000000000E+00 0. -1.
         11   -1    0    0    0    0 -0.00000000000E+00 -0.00000000000E+00 -0.18250000000E+03  0.18250000000E+03  0.00000000000E+00 0. -1.
        -11    1    1    2    0    0  0.18363866522E+01  0.20425547995E+01  0.17338018997E+03  0.17340194526E+03  0.00000000000E+00 0. -1.
         11    1    1    2    0    0 -0.18861010280E+01  0.13633135079E+01 -0.17153293186E+03  0.17154871819E+03  0.00000000000E+00 0. -1.
        -15    1    1    2    0    0 -0.59449154854E+00 -0.20141977563E+01 -0.10618697140E+02  0.10969269381E+02  0.17770000000E+01 0. -1.
         15    1    1    2    0    0  0.64420592436E+00 -0.13916705511E+01  0.87714390227E+01  0.90800671652E+01  0.17770000000E+01 0.  1.
</event>
<event>
 6    1  0.1378789E-002  0.1871588E+03  0.7546771E-02  0.1064806E+00
        -11   -1    0    0    0    0  0.00000000000E+00  0.00000000000E+00  0.18250000000E+03  0.18250000000E+03  0.00000000000E+00 0. -1.
         11   -1    0    0    0    0 -0.00000000000E+00 -0.00000000000E+00 -0.18250000000E+03  0.18250000000E+03  0.00000000000E+00 0.  1.
        -11    1    1    2    0    0  0.30509176147E+01 -0.12272872184E+01  0.17781081642E+03  0.17784122348E+03  0.00000000000E+00 0. -1.
         11    1    1    2    0    0 -0.13252246032E+01 -0.28325620459E+01 -0.78443519828E+02  0.78505830554E+02  0.00000000000E+00 0.  1.
        -15    1    1    2    0    0 -0.44610130947E+01 -0.17777669203E+02 -0.24824819253E+02  0.30909149779E+02  0.17770000000E+01 0. -1.
         15    1    1    2    0    0  0.27353200832E+01  0.21837518468E+02 -0.74542477340E+02  0.77743796188E+02  0.17770000000E+01 0.  1.
</event>
<event>
 6    1  0.1378789E-002  0.1889248E+03  0.7546771E-02  0.1063453E+00
        -11   -1    0    0    0    0  0.00000000000E+00  0.00000000000E+00  0.18250000000E+03  0.18250000000E+03  0.00000000000E+00 0.  1.
         11   -1    0    0    0    0 -0.00000000000E+00 -0.00000000000E+00 -0.18250000000E+03  0.18250000000E+03  0.00000000000E+00 0.  1.
        -11    1    1    2    0    0  0.19250192209E+02  0.71300831840E+01  0.17487441955E+03  0.17607518450E+03  0.00000000000E+00 0.  1.
         11    1    1    2    0    0 -0.66826790246E+01  0.54435204152E+01 -0.14906671571E+03  0.14931569189E+03  0.00000000000E+00 0.  1.
        -15    1    1    2    0    0 -0.14397574410E+02 -0.14103907858E+02 -0.83307130888E+01  0.21880787814E+02  0.17770000000E+01 0. -1.
         15    1    1    2    0    0  0.18300612258E+01  0.15303042591E+01 -0.17476990748E+02  0.17728335788E+02  0.17770000000E+01 0.  1.
</event>
<event>
 6    1  0.1378789E-002  0.1873292E+03  0.7546771E-02  0.1064674E+00
        -11   -1    0    0    0    0  0.00000000000E+00  0.00000000000E+00  0.18250000000E+03  0.18250000000E+03  0.00000000000E+00 0. -1.
         11   -1    0    0    0    0 -0.00000000000E+00 -0.00000000000E+00 -0.18250000000E+03  0.18250000000E+03  0.00000000000E+00 0. -1.
        -11    1    1    2    0    0  0.44463070764E+00 -0.13991489050E+02  0.36509712904E+02  0.39101388704E+02  0.00000000000E+00 0. -1.
         11    1    1    2    0    0 -0.96354235606E+01 -0.40221803613E+01 -0.17736373914E+03  0.17767080594E+03  0.00000000000E+00 0. -1.
        -15    1    1    2    0    0  0.61619823845E+01 -0.13218158217E+02  0.48110325787E+02  0.50303587445E+02  0.17770000000E+01 0.  1.
         15    1    1    2    0    0  0.30288104684E+01  0.31231827628E+02  0.92743700453E+02  0.97924217906E+02  0.17770000000E+01 0. -1.
</event>
<event>
 6    1  0.1378789E-002  0.1940267E+03  0.7546771E-02  0.1059633E+00
        -11   -1    0    0    0    0  0.00000000000E+00  0.00000000000E+00  0.18250000000E+03  0.18250000000E+03  0.00000000000E+00 0.  1.
         11   -1    0    0    0    0 -0.00000000000E+00 -0.00000000000E+00 -0.18250000000E+03  0.18250000000E+03  0.00000000000E+00 0.  1.
        -11    1    1    2    0    0 -0.92332450666E+01  0.10696952797E+02  0.17038836800E+03  0.17097331243E+03  0.00000000000E+00 0.  1.
         11    1    1    2    0    0  0.49525500399E+01 -0.22867075045E+01 -0.16302315002E+03  0.16311439001E+03  0.00000000000E+00 0.  1.
        -15    1    1    2    0    0  0.41114070320E+01 -0.13843923693E+01 -0.17687853974E+02  0.18298582383E+02  0.17770000000E+01 0.  1.
         15    1    1    2    0    0  0.16928799476E+00 -0.70258529230E+01  0.10322636002E+02  0.12613715184E+02  0.17770000000E+01 0. -1.
</event>
<event>
 6    1  0.1378789E-002  0.1823955E+03  0.7546771E-02  0.1068538E+00
        -11   -1    0    0    0    0  0.00000000000E+00  0.00000000000E+00  0.18250000000E+03  0.18250000000E+03  0.00000000000E+00 0.  1.
         11   -1    0    0    0    0 -0.00000000000E+00 -0.00000000000E+00 -0.18250000000E+03  0.18250000000E+03  0.00000000000E+00 0. -1.
        -11    1    1    2    0    0 -0.41920824299E+00  0.63217595761E+00  0.28931199499E+00  0.81183953021E+00  0.00000000000E+00 0.  1.
         11    1    1    2    0    0  0.30762489412E+01 -0.19268545055E+01 -0.18190647164E+03  0.18194268466E+03  0.00000000000E+00 0. -1.
        -15    1    1    2    0    0  0.54769385295E+01  0.30170945955E+01  0.67642126039E+02  0.67953768545E+02  0.17770000000E+01 0. -1.
         15    1    1    2    0    0 -0.81339792277E+01 -0.17224160475E+01  0.11397503361E+03  0.11429170727E+03  0.17770000000E+01 0.  1.
</event>
<event>
 6    1  0.1378789E-002  0.1828342E+03  0.7546771E-02  0.1068189E+00
        -11   -1    0    0    0    0  0.00000000000E+00  0.00000000000E+00  0.18250000000E+03  0.18250000000E+03  0.00000000000E+00 0.  1.
         11   -1    0    0    0    0 -0.00000000000E+00 -0.00000000000E+00 -0.18250000000E+03  0.18250000000E+03  0.00000000000E+00 0. -1.
        -11    1    1    2    0    0 -0.40940523573E+01  0.12366442890E+01  0.18211555012E+03  0.18216576009E+03  0.00000000000E+00 0.  1.
         11    1    1    2    0    0  0.20612600601E+01 -0.15915394722E+00 -0.50199605650E+02  0.50242158895E+02  0.00000000000E+00 0. -1.
        -15    1    1    2    0    0  0.24422068698E+01  0.17428908472E+00 -0.66411700733E+01  0.72977818563E+01  0.17770000000E+01 0.  1.
         15    1    1    2    0    0 -0.40941457262E+00 -0.12517794265E+01 -0.12527477440E+03  0.12529429916E+03  0.17770000000E+01 0. -1.
</event>
<event>
 6    1  0.1378789E-002  0.1850489E+03  0.7546771E-02  0.1066444E+00
        -11   -1    0    0    0    0  0.00000000000E+00  0.00000000000E+00  0.18250000000E+03  0.18250000000E+03  0.00000000000E+00 0. -1.
         11   -1    0    0    0    0 -0.00000000000E+00 -0.00000000000E+00 -0.18250000000E+03  0.18250000000E+03  0.00000000000E+00 0.  1.
        -11    1    1    2    0    0  0.16863148042E+01 -0.31032246782E+01  0.14087081117E+03  0.14091507762E+03  0.00000000000E+00 0. -1.
         11    1    1    2    0    0 -0.26993056339E+00  0.31457020559E+01 -0.17992335498E+03  0.17995105438E+03  0.00000000000E+00 0.  1.
        -15    1    1    2    0    0 -0.97234919156E+00  0.52244184326E+00  0.41201330923E+02  0.41254403489E+02  0.17770000000E+01 0. -1.
         15    1    1    2    0    0 -0.44403504924E+00 -0.56491922099E+00 -0.21487871080E+01  0.28794645138E+01  0.17770000000E+01 0.  1.
</event>
<event>
 6    1  0.1378789E-002  0.1831028E+03  0.7546771E-02  0.1067976E+00
        -11   -1    0    0    0    0  0.00000000000E+00  0.00000000000E+00  0.18250000000E+03  0.18250000000E+03  0.00000000000E+00 0. -1.
         11   -1    0    0    0    0 -0.00000000000E+00 -0.00000000000E+00 -0.18250000000E+03  0.18250000000E+03  0.00000000000E+00 0.  1.
        -11    1    1    2    0    0  0.55472741248E+00 -0.94858341290E+01  0.18164887482E+03  0.18189723059E+03  0.00000000000E+00 0. -1.
         11    1    1    2    0    0  0.19832397740E+01  0.23068215750E+01 -0.69319810866E+02  0.69386532154E+02  0.00000000000E+00 0.  1.
        -15    1    1    2    0    0 -0.85018636880E+01  0.77867918226E+00 -0.60203161980E+02  0.60831459533E+02  0.17770000000E+01 0. -1.
         15    1    1    2    0    0  0.59638965015E+01  0.64003333718E+01 -0.52125901978E+02  0.52884777723E+02  0.17770000000E+01 0.  1.
</event>
<event>
 6    1  0.1378789E-002  0.1841554E+03  0.7546771E-02  0.1067145E+00
        -11   -1    0    0    0    0  0.00000000000E+00  0.00000000000E+00  0.18250000000E+03  0.18250000000E+03  0.00000000000E+00 0. -1.
         11   -1    0    0    0    0 -0.00000000000E+00 -0.00000000000E+00 -0.18250000000E+03  0.18250000000E+03  0.00000000000E+00 0.  1.
        -11    1    1    2    0    0  0.87086038389E+01 -0.23275100956E+01  0.18061977024E+03  0.18084456996E+03  0.00000000000E+00 0. -1.
         11    1    1    2    0    0  0.13366697460E+01 -0.32414844619E+01 -0.15585041774E+03  0.15588985412E+03  0.00000000000E+00 0.  1.
        -15    1    1    2    0    0 -0.46965030775E+01 -0.82976939482E+00 -0.93558683954E+01  0.10650617862E+02  0.17770000000E+01 0. -1.
         15    1    1    2    0    0 -0.53487705074E+01  0.63987639523E+01 -0.15413484103E+02  0.17614958054E+02  0.17770000000E+01 0.  1.
</event>
<event>
 6    1  0.1378789E-002  0.1828598E+03  0.7546771E-02  0.1068169E+00
        -11   -1    0    0    0    0  0.00000000000E+00  0.00000000000E+00  0.18250000000E+03  0.18250000000E+03  0.00000000000E+00 0.  1.
         11   -1    0    0    0    0 -0.00000000000E+00 -0.00000000000E+00 -0.18250000000E+03  0.18250000000E+03  0.00000000000E+00 0.  1.
        -11    1    1    2    0    0 -0.49875550992E+01  0.37177902215E+01  0.18203391609E+03  0.18214017754E+03  0.00000000000E+00 0.  1.
         11    1    1    2    0    0  0.89355496409E+00 -0.22799525794E+01 -0.11731672594E+03  0.11734228057E+03  0.00000000000E+00 0.  1.
        -15    1    1    2    0    0 -0.83582588334E+00 -0.15389080627E+01 -0.51739968674E+01  0.57441113774E+01  0.17770000000E+01 0. -1.
         15    1    1    2    0    0  0.49298260184E+01  0.10107042061E+00 -0.59543193277E+02  0.59773430505E+02  0.17770000000E+01 0.  1.
</event>
<event>
 6    1  0.1378789E-002  0.1839985E+03  0.7546771E-02  0.1067268E+00
        -11   -1    0    0    0    0  0.00000000000E+00  0.00000000000E+00  0.18250000000E+03  0.18250000000E+03  0.00000000000E+00 0.  1.
         11   -1    0    0    0    0 -0.00000000000E+00 -0.00000000000E+00 -0.18250000000E+03  0.18250000000E+03  0.00000000000E+00 0. -1.
        -11    1    1    2    0    0 -0.93310937653E+00  0.31234711508E+01  0.18097210629E+03  0.18100146414E+03  0.00000000000E+00 0.  1.
         11    1    1    2    0    0 -0.27095255125E+01 -0.65263081807E+00 -0.80462120417E+02  0.80510373726E+02  0.00000000000E+00 0. -1.
        -15    1    1    2    0    0  0.31916440004E+01 -0.60458889853E+01 -0.71816642388E+01  0.10073400383E+02  0.17770000000E+01 0.  1.
         15    1    1    2    0    0  0.45099088857E+00  0.35750486525E+01 -0.93328321633E+02  0.93414761754E+02  0.17770000000E+01 0. -1.
</event>
<event>
 6    1  0.1378789E-002  0.1832739E+03  0.7546771E-02  0.1067840E+00
        -11   -1    0    0    0    0  0.00000000000E+00  0.00000000000E+00  0.18250000000E+03  0.18250000000E+03  0.00000000000E+00 0.  1.
         11   -1    0    0    0    0 -0.00000000000E+00 -0.00000000000E+00 -0.18250000000E+03  0.18250000000E+03  0.00000000000E+00 0.  1.
        -11    1    1    2    0    0 -0.20361366016E+01 -0.49188477239E+01  0.12057743406E+03  0.12069489848E+03  0.00000000000E+00 0.  1.
         11    1    1    2    0    0  0.43084007841E+01 -0.10347408478E+01 -0.18167210638E+03  0.18172613252E+03  0.00000000000E+00 0.  1.
        -15    1    1    2    0    0  0.21062474106E+01  0.25112713176E+01  0.49039166007E+02  0.49180690250E+02  0.17770000000E+01 0. -1.
         15    1    1    2    0    0 -0.43785115931E+01  0.34423172541E+01  0.12055506311E+02  0.13398278742E+02  0.17770000000E+01 0.  1.
</event>
<event>
 6    1  0.1378789E-002  0.1825948E+03  0.7546771E-02  0.1068379E+00
        -11   -1    0    0    0    0  0.00000000000E+00  0.00000000000E+00  0.18250000000E+03  0.18250000000E+03  0.00000000000E+00 0. -1.
         11   -1    0    0    0    0 -0.00000000000E+00 -0.00000000000E+00 -0.18250000000E+03  0.18250000000E+03  0.00000000000E+00 0.  1.
        -11    1    1    2    0    0 -0.54923406173E+00  0.38168725981E-01  0.15403489299E+02  0.15413325323E+02  0.00000000000E+00 0. -1.
         11    1    1    2    0    0 -0.31303520383E+01  0.10416637741E+01 -0.18237531416E+03  0.18240515174E+03  0.00000000000E+00 0.  1.
        -15    1    1    2    0    0  0.72813222416E+00  0.25925244861E+01  0.78816973677E+02  0.78882979332E+02  0.17770000000E+01 0. -1.
         15    1    1    2    0    0  0.29514538759E+01 -0.36723569862E+01  0.88154851185E+02  0.88298543602E+02  0.17770000000E+01 0. -1.
</event>
<event>
 6    1  0.1378789E-002  0.1704311E+03  0.7546771E-02  0.1078489E+00
        -11   -1    0    0    0    0  0.00000000000E+00  0.00000000000E+00  0.18250000000E+03  0.18250000000E+03  0.00000000000E+00 0. -1.
         11   -1    0    0    0    0 -0.00000000000E+00 -0.00000000000E+00 -0.18250000000E+03  0.18250000000E+03  0.00000000000E+00 0. -1.
        -11    1    1    2    0    0 -0.45309028632E+00 -0.31420420151E+01  0.16771801081E+03  0.16774805176E+03  0.00000000000E+00 0. -1.
         11    1    1    2    0    0  0.29941607130E+01 -0.59041883877E+01 -0.17316055898E+03  0.17328705556E+03  0.00000000000E+00 0. -1.
        -15    1    1    2    0    0  0.62627815848E+01 -0.11613827540E+01 -0.37028732328E+01  0.75789341110E+01  0.17770000000E+01 0. -1.
         15    1    1    2    0    0 -0.88038520116E+01  0.10207613157E+02  0.91454213967E+01  0.16385958566E+02  0.17770000000E+01 0.  1.
</event>
<event>
 6    1  0.1378789E-002  0.1827319E+03  0.7546771E-02  0.1068270E+00
        -11   -1    0    0    0    0  0.00000000000E+00  0.00000000000E+00  0.18250000000E+03  0.18250000000E+03  0.00000000000E+00 0.  1.
         11   -1    0    0    0    0 -0.00000000000E+00 -0.00000000000E+00 -0.18250000000E+03  0.18250000000E+03  0.00000000000E+00 0.  1.
        -11    1    1    2    0    0 -0.26755154180E+01 -0.11532869747E+01  0.18224482991E+03  0.18226811702E+03  0.00000000000E+00 0.  1.
         11    1    1    2    0    0 -0.27052199101E+01  0.15970998482E+01 -0.12317673494E+03  0.12321678852E+03  0.00000000000E+00 0.  1.
        -15    1    1    2    0    0  0.40833374792E+01  0.65596487199E+00 -0.29083398274E+02  0.29429674124E+02  0.17770000000E+01 0.  1.
         15    1    1    2    0    0  0.12973978489E+01 -0.10997777455E+01 -0.29984696687E+02  0.30085420334E+02  0.17770000000E+01 0. -1.
</event>
<event>
 6    1  0.1378789E-002  0.1855116E+03  0.7546771E-02  0.1066082E+00
        -11   -1    0    0    0    0  0.00000000000E+00  0.00000000000E+00  0.18250000000E+03  0.18250000000E+03  0.00000000000E+00 0.  1.
         11   -1    0    0    0    0 -0.00000000000E+00 -0.00000000000E+00 -0.18250000000E+03  0.18250000000E+03  0.00000000000E+00 0.  1.
        -11    1    1    2    0    0 -0.46366159780E+01  0.20196605629E+02  0.17828815768E+03  0.17948835131E+03  0.00000000000E+00 0.  1.
         11    1    1    2    0    0  0.81631412763E+00 -0.17297750227E+01 -0.73044829585E+02  0.73069868068E+02  0.00000000000E+00 0.  1.
        -15    1    1    2    0    0  0.13666188381E+02 -0.24329335316E+02 -0.72440434104E+02  0.77649568472E+02  0.17770000000E+01 0.  1.
         15    1    1    2    0    0 -0.98458865305E+01  0.58625047091E+01 -0.32802893993E+02  0.34792212151E+02  0.17770000000E+01 0. -1.
</event>
<event>
 6    1  0.1378789E-002  0.1841303E+03  0.7546771E-02  0.1067164E+00
        -11   -1    0    0    0    0  0.00000000000E+00  0.00000000000E+00  0.18250000000E+03  0.18250000000E+03  0.00000000000E+00 0.  1.
         11   -1    0    0    0    0 -0.00000000000E+00 -0.00000000000E+00 -0.18250000000E+03  0.18250000000E+03  0.00000000000E+00 0. -1.
        -11    1    1    2    0    0 -0.39963423343E+01 -0.30934687717E+01  0.18079907866E+03  0.18086969659E+03  0.00000000000E+00 0.  1.
         11    1    1    2    0    0 -0.49141667209E+01 -0.16513177465E+01 -0.13031004959E+03  0.13041313166E+03  0.00000000000E+00 0. -1.
        -15    1    1    2    0    0 -0.38024441757E+00  0.24259669468E+01 -0.87302126082E+00  0.31543298125E+01  0.17770000000E+01 0.  1.
         15    1    1    2    0    0  0.92907534728E+01  0.23188195714E+01 -0.49616007809E+02  0.50562841931E+02  0.17770000000E+01 0. -1.
</event>
<event>
 6    1  0.1378789E-002  0.1941196E+03  0.7546771E-02  0.1059564E+00
        -11   -1    0    0    0    0  0.00000000000E+00  0.00000000000E+00  0.18250000000E+03  0.18250000000E+03  0.00000000000E+00 0. -1.
         11   -1    0    0    0    0 -0.00000000000E+00 -0.00000000000E+00 -0.18250000000E+03  0.18250000000E+03  0.00000000000E+00 0.  1.
        -11    1    1    2    0    0 -0.29348041859E+01 -0.16951276138E+01  0.13284542626E+03  0.13288865193E+03  0.00000000000E+00 0. -1.
         11    1    1    2    0    0 -0.13936331008E+00 -0.42228370308E+01 -0.17082818445E+03  0.17088042713E+03  0.00000000000E+00 0.  1.
        -15    1    1    2    0    0  0.11732743711E+02  0.15155508409E+02  0.43298863440E+02  0.47384554596E+02  0.17770000000E+01 0. -1.
         15    1    1    2    0    0 -0.86585762154E+01 -0.92375437648E+01 -0.53161052483E+01  0.13846366343E+02  0.17770000000E+01 0.  1.
</event>
<event>
 6    1  0.1378789E-002  0.1841515E+03  0.7546771E-02  0.1067148E+00
        -11   -1    0    0    0    0  0.00000000000E+00  0.00000000000E+00  0.18250000000E+03  0.18250000000E+03  0.00000000000E+00 0. -1.
         11   -1    0    0    0    0 -0.00000000000E+00 -0.00000000000E+00 -0.18250000000E+03  0.18250000000E+03  0.00000000000E+00 0.  1.
        -11    1    1    2    0    0 -0.14561726609E+02  0.43933457877E+00  0.18026072691E+03  0.18084846298E+03  0.00000000000E+00 0. -1.
         11    1    1    2    0    0 -0.27018458174E+01  0.38334701710E+00 -0.97706089878E+02  0.97744191259E+02  0.00000000000E+00 0.  1.
        -15    1    1    2    0    0  0.16473077038E+02 -0.58853121026E+01 -0.42594923047E+02  0.46081279974E+02  0.17770000000E+01 0.  1.
         15    1    1    2    0    0  0.79049538766E+00  0.50626305067E+01 -0.39959713987E+02  0.40326065783E+02  0.17770000000E+01 0. -1.
</event>
<event>
 6    1  0.1378789E-002  0.1728904E+03  0.7546771E-02  0.1076372E+00
        -11   -1    0    0    0    0  0.00000000000E+00  0.00000000000E+00  0.18250000000E+03  0.18250000000E+03  0.00000000000E+00 0.  1.
         11   -1    0    0    0    0 -0.00000000000E+00 -0.00000000000E+00 -0.18250000000E+03  0.18250000000E+03  0.00000000000E+00 0.  1.
        -11    1    1    2    0    0  0.21876208857E-01 -0.82970885858E+01  0.17555473487E+03  0.17575069585E+03  0.00000000000E+00 0.  1.
         11    1    1    2    0    0  0.30360749977E+01 -0.18850356629E+01 -0.17019738990E+03  0.17023490429E+03  0.00000000000E+00 0.  1.
        -15    1    1    2    0    0 -0.17157165190E+01  0.73425778760E+01  0.41902752925E+01  0.88075688511E+01  0.17770000000E+01 0.  1.
         15    1    1    2    0    0 -0.13422346876E+01  0.28395463726E+01 -0.95476202600E+01  0.10206831006E+02  0.17770000000E+01 0. -1.
</event>
<event>
 6    1  0.1378789E-002  0.1847946E+03  0.7546771E-02  0.1066643E+00
        -11   -1    0    0    0    0  0.00000000000E+00  0.00000000000E+00  0.18250000000E+03  0.18250000000E+03  0.00000000000E+00 0. -1.
         11   -1    0    0    0    0 -0.00000000000E+00 -0.00000000000E+00 -0.18250000000E+03  0.18250000000E+03  0.00000000000E+00 0.  1.
        -11    1    1    2    0    0 -0.11192131386E+01  0.38400224246E+01  0.15790843258E+03  0.15795908170E+03  0.00000000000E+00 0. -1.
         11    1    1    2    0    0 -0.29926684951E+01 -0.80958455102E+01 -0.17999855705E+03  0.18020538094E+03  0.00000000000E+00 0.  1.
        -15    1    1    2    0    0  0.81666950028E+01  0.61949485207E+01  0.14964642912E+02  0.18225546931E+02  0.17770000000E+01 0. -1.
         15    1    1    2    0    0 -0.40548133690E+01 -0.19391254351E+01  0.71254815546E+01  0.86099904353E+01  0.17770000000E+01 0.  1.
</event>
<event>
 6    1  0.1378789E-002  0.1757717E+03  0.7546771E-02  0.1073940E+00
        -11   -1    0    0    0    0  0.00000000000E+00  0.00000000000E+00  0.18250000000E+03  0.18250000000E+03  0.00000000000E+00 0. -1.
         11   -1    0    0    0    0 -0.00000000000E+00 -0.00000000000E+00 -0.18250000000E+03  0.18250000000E+03  0.00000000000E+00 0. -1.
        -11    1    1    2    0    0 -0.28287147411E+01  0.84224304312E-01  0.17486669978E+03  0.17488959778E+03  0.00000000000E+00 0. -1.
         11    1    1    2    0    0 -0.17158771234E+01  0.22246695350E+01 -0.17667308729E+03  0.17669542484E+03  0.00000000000E+00 0. -1.
        -15    1    1    2    0    0  0.38145142746E+01  0.99738649233E+00 -0.43716122427E+01  0.61493106579E+01  0.17770000000E+01 0. -1.
         15    1    1    2    0    0  0.73007758991E+00 -0.33062803316E+01  0.61779997524E+01  0.72656667182E+01  0.17770000000E+01 0.  1.
</event>
<event>
 6    1  0.2274276E-002  0.1826613E+03  0.7546771E-02  0.1068326E+00
        -11   -1    0    0    0    0  0.00000000000E+00  0.00000000000E+00  0.18250000000E+03  0.18250000000E+03  0.00000000000E+00 0.  1.
         11   -1    0    0    0    0 -0.00000000000E+00 -0.00000000000E+00 -0.18250000000E+03  0.18250000000E+03  0.00000000000E+00 0. -1.
        -11    1    1    2    0    0 -0.31429489231E+01  0.54210346920E+00  0.18231078224E+03  0.18233867753E+03  0.00000000000E+00 0.  1.
         11    1    1    2    0    0 -0.12537479858E+01 -0.35362103588E+00 -0.91460985813E+02  0.91470262150E+02  0.00000000000E+00 0. -1.
        -15    1    1    2    0    0  0.15932747529E+01 -0.51804978303E-01 -0.72735992738E+02  0.72775157690E+02  0.17770000000E+01 0. -1.
         15    1    1    2    0    0  0.28034221560E+01 -0.13667745502E+00 -0.18113803687E+02  0.18415902626E+02  0.17770000000E+01 0. -1.
</event>
<event>
 6    1  0.1378789E-002  0.1833766E+03  0.7546771E-02  0.1067759E+00
        -11   -1    0    0    0    0  0.00000000000E+00  0.00000000000E+00  0.18250000000E+03  0.18250000000E+03  0.00000000000E+00 0. -1.
         11   -1    0    0    0    0 -0.00000000000E+00 -0.00000000000E+00 -0.18250000000E+03  0.18250000000E+03  0.00000000000E+00 0.  1.
        -11    1    1    2    0    0 -0.29532352299E+01  0.24970702811E+01  0.18158218241E+03  0.18162336284E+03  0.00000000000E+00 0. -1.
         11    1    1    2    0    0  0.86378677683E+00  0.22850724750E+01 -0.15111266807E+03  0.15113241259E+03  0.00000000000E+00 0.  1.
        -15    1    1    2    0    0  0.14006322384E+01 -0.28920473947E+00 -0.24160122817E+02  0.24267564229E+02  0.17770000000E+01 0.  1.
         15    1    1    2    0    0  0.68881621467E+00 -0.44929380167E+01 -0.63093915267E+01  0.79766603436E+01  0.17770000000E+01 0. -1.
</event>
<event>
 6    1  0.1378789E-002  0.1879391E+03  0.7546771E-02  0.1064206E+00
        -11   -1    0    0    0    0  0.00000000000E+00  0.00000000000E+00  0.18250000000E+03  0.18250000000E+03  0.00000000000E+00 0.  1.
         11   -1    0    0    0    0 -0.00000000000E+00 -0.00000000000E+00 -0.18250000000E+03  0.18250000000E+03  0.00000000000E+00 0. -1.
        -11    1    1    2    0    0  0.52238472881E+01 -0.20997588262E+01  0.15707257507E+03  0.15717344370E+03  0.00000000000E+00 0.  1.
         11    1    1    2    0    0  0.25607750440E+01  0.44751819743E+00 -0.17704181993E+03  0.17706090434E+03  0.00000000000E+00 0. -1.
        -15    1    1    2    0    0  0.15141429010E+01 -0.15600462615E+01  0.20560178404E+02  0.20751024988E+02  0.17770000000E+01 0. -1.
         15    1    1    2    0    0 -0.92987652331E+01  0.32122868903E+01 -0.59093354179E+00  0.10014626971E+02  0.17770000000E+01 0.  1.
</event>
<event>
 6    1  0.1378789E-002  0.1957930E+03  0.7546771E-02  0.1058340E+00
        -11   -1    0    0    0    0  0.00000000000E+00  0.00000000000E+00  0.18250000000E+03  0.18250000000E+03  0.00000000000E+00 0. -1.
         11   -1    0    0    0    0 -0.00000000000E+00 -0.00000000000E+00 -0.18250000000E+03  0.18250000000E+03  0.00000000000E+00 0. -1.
        -11    1    1    2    0    0 -0.60520051380E+01 -0.16020891365E+02  0.16833808262E+03  0.16920699095E+03  0.00000000000E+00 0. -1.
         11    1    1    2    0    0  0.24528870590E+01 -0.10145446222E+01 -0.92376602011E+02  0.92414731265E+02  0.00000000000E+00 0. -1.
        -15    1    1    2    0    0 -0.90327398378E+01  0.55967802482E+01 -0.83833322664E+02  0.84522766496E+02  0.17770000000E+01 0. -1.
         15    1    1    2    0    0  0.12631857917E+02  0.11438655739E+02  0.78718420524E+01  0.18855511286E+02  0.17770000000E+01 0.  1.
</event>
<event>
 6    1  0.1378789E-002  0.1855982E+03  0.7546771E-02  0.1066015E+00
        -11   -1    0    0    0    0  0.00000000000E+00  0.00000000000E+00  0.18250000000E+03  0.18250000000E+03  0.00000000000E+00 0. -1.
         11   -1    0    0    0    0 -0.00000000000E+00 -0.00000000000E+00 -0.18250000000E+03  0.18250000000E+03  0.00000000000E+00 0. -1.
        -11    1    1    2    0    0 -0.32054130455E+01  0.47300965860E+01  0.15468689035E+03  0.15479238525E+03  0.00000000000E+00 0. -1.
         11    1    1    2    0    0 -0.74482675906E+01 -0.25041674615E+01 -0.17922958157E+03  0.17940175711E+03  0.00000000000E+00 0. -1.
        -15    1    1    2    0    0  0.11469550342E+02  0.17184959759E+00  0.82967774348E+01  0.14267948771E+02  0.17770000000E+01 0.  1.
         15    1    1    2    0    0 -0.81586970618E+00 -0.23977787221E+01  0.16245913783E+02  0.16537908871E+02  0.17770000000E+01 0. -1.
</event>
<event>
 6    1  0.1378789E-002  0.1827850E+03  0.7546771E-02  0.1068228E+00
        -11   -1    0    0    0    0  0.00000000000E+00  0.00000000000E+00  0.18250000000E+03  0.18250000000E+03  0.00000000000E+00 0. -1.
         11   -1    0    0    0    0 -0.00000000000E+00 -0.00000000000E+00 -0.18250000000E+03  0.18250000000E+03  0.00000000000E+00 0. -1.
        -11    1    1    2    0    0 -0.12095727643E+01 -0.73949083829E+00  0.87118763100E+02  0.87130297813E+02  0.00000000000E+00 0. -1.
         11    1    1    2    0    0  0.29673224712E+01 -0.20466409620E+01 -0.18217937467E+03  0.18221503313E+03  0.00000000000E+00 0. -1.
        -15    1    1    2    0    0 -0.48535096725E+01 -0.43253719371E+00  0.32665181566E+02  0.33074392819E+02  0.17770000000E+01 0. -1.
         15    1    1    2    0    0  0.30957599655E+01  0.32186689940E+01  0.62395430005E+02  0.62580276241E+02  0.17770000000E+01 0.  1.
</event>
<event>
 6    1  0.1378789E-002  0.1854993E+03  0.7546771E-02  0.1066092E+00
        -11   -1    0    0    0    0  0.00000000000E+00  0.00000000000E+00  0.18250000000E+03  0.18250000000E+03  0.00000000000E+00 0.  1.
         11   -1    0    0    0    0 -0.00000000000E+00 -0.00000000000E+00 -0.18250000000E+03  0.18250000000E+03  0.00000000000E+00 0.  1.
        -11    1    1    2    0    0  0.54036360961E+01  0.30632742576E+01  0.17550489353E+03  0.17561477895E+03  0.00000000000E+00 0.  1.
         11    1    1    2    0    0 -0.82353710617E+00 -0.32978332987E+01 -0.17946847250E+03  0.17950065888E+03  0.00000000000E+00 0.  1.
        -15    1    1    2    0    0  0.12477757018E+01  0.17214986457E+01  0.14564587042E+01  0.31304157466E+01  0.17770000000E+01 0. -1.
         15    1    1    2    0    0 -0.58278746918E+01 -0.14869396047E+01  0.25071202665E+01  0.67541464184E+01  0.17770000000E+01 0.  1.
</event>
<event>
 6    1  0.1378789E-002  0.1829377E+03  0.7546771E-02  0.1068107E+00
        -11   -1    0    0    0    0  0.00000000000E+00  0.00000000000E+00  0.18250000000E+03  0.18250000000E+03  0.00000000000E+00 0. -1.
         11   -1    0    0    0    0 -0.00000000000E+00 -0.00000000000E+00 -0.18250000000E+03  0.18250000000E+03  0.00000000000E+00 0.  1.
        -11    1    1    2    0    0  0.24044316555E+01 -0.25997297362E+01  0.18202786382E+03  0.18206230552E+03  0.00000000000E+00 0. -1.
         11    1    1    2    0    0 -0.20098161855E+01 -0.11379844017E+01 -0.11231140714E+03  0.11233515275E+03  0.00000000000E+00 0.  1.
        -15    1    1    2    0    0  0.50698538988E+00  0.11186773925E+01 -0.63766949379E+02  0.63803526826E+02  0.17770000000E+01 0. -1.
         15    1    1    2    0    0 -0.90160085986E+00  0.26190367453E+01 -0.59495072913E+01  0.67990148988E+01  0.17770000000E+01 0.  1.
</event>
<event>
 6    1  0.1378789E-002  0.1868213E+03  0.7546771E-02  0.1065066E+00
        -11   -1    0    0    0    0  0.00000000000E+00  0.00000000000E+00  0.18250000000E+03  0.18250000000E+03  0.00000000000E+00 0. -1.
         11   -1    0    0    0    0 -0.00000000000E+00 -0.00000000000E+00 -0.18250000000E+03  0.18250000000E+03  0.00000000000E+00 0.  1.
        -11    1    1    2    0    0 -0.42453645936E-01  0.38554610688E+01  0.15451180216E+03  0.15455990227E+03  0.00000000000E+00 0. -1.
         11    1    1    2    0    0 -0.27326557258E+01  0.10392817000E+01 -0.17815471261E+03  0.17817870002E+03  0.00000000000E+00 0.  1.
        -15    1    1    2    0    0 -0.53358286191E+01  0.39542409355E+01  0.17198454279E+02  0.18521653463E+02  0.17770000000E+01 0. -1.
         15    1    1    2    0    0  0.81109379908E+01 -0.88489837042E+01  0.64444561704E+01  0.13739744249E+02  0.17770000000E+01 0.  1.
</event>
<event>
 6    1  0.1378789E-002  0.1681231E+03  0.7546771E-02  0.1080512E+00
        -11   -1    0    0    0    0  0.00000000000E+00  0.00000000000E+00  0.18250000000E+03  0.18250000000E+03  0.00000000000E+00 0. -1.
         11   -1    0    0    0    0 -0.00000000000E+00 -0.00000000000E+00 -0.18250000000E+03  0.18250000000E+03  0.00000000000E+00 0.  1.
        -11    1    1    2    0    0 -0.77107335436E+00  0.10024675154E+02  0.16943484153E+03  0.16973289072E+03  0.00000000000E+00 0. -1.
         11    1    1    2    0    0 -0.17477763777E+01  0.36753516491E+01 -0.16676274237E+03  0.16681239514E+03  0.00000000000E+00 0.  1.
        -15    1    1    2    0    0 -0.42750428888E+01 -0.17115161797E+02 -0.75246998811E+01  0.19260934358E+02  0.17770000000E+01 0.  1.
         15    1    1    2    0    0  0.67938926208E+01  0.34151349937E+01  0.48526007121E+01  0.91937797799E+01  0.17770000000E+01 0. -1.
</event>
<event>
 6    1  0.1378789E-002  0.1880732E+03  0.7546771E-02  0.1064103E+00
        -11   -1    0    0    0    0  0.00000000000E+00  0.00000000000E+00  0.18250000000E+03  0.18250000000E+03  0.00000000000E+00 0.  1.
         11   -1    0    0    0    0 -0.00000000000E+00 -0.00000000000E+00 -0.18250000000E+03  0.18250000000E+03  0.00000000000E+00 0. -1.
        -11    1    1    2    0    0 -0.32857356248E+01  0.12752533702E+01  0.17689174016E+03  0.17692684948E+03  0.00000000000E+00 0.  1.
         11    1    1    2    0    0  0.33288758107E+01  0.62121746447E+01 -0.15203830417E+03  0.15220157181E+03  0.00000000000E+00 0. -1.
        -15    1    1    2    0    0  0.49606585344E+01  0.71415029363E+00  0.31720814799E+01  0.61917666019E+01  0.17770000000E+01 0. -1.
         15    1    1    2    0    0 -0.50037987204E+01 -0.82015783086E+01 -0.28025517467E+02  0.29679812107E+02  0.17770000000E+01 0. -1.
</event>
<event>
 6    1  0.1378789E-002  0.1848233E+03  0.7546771E-02  0.1066620E+00
        -11   -1    0    0    0    0  0.00000000000E+00  0.00000000000E+00  0.18250000000E+03  0.18250000000E+03  0.00000000000E+00 0.  1.
         11   -1    0    0    0    0 -0.00000000000E+00 -0.00000000000E+00 -0.18250000000E+03  0.18250000000E+03  0.00000000000E+00 0.  1.
        -11    1    1    2    0    0  0.91572620927E-01  0.34915402318E+01  0.17785062412E+03  0.17788491712E+03  0.00000000000E+00 0.  1.
         11    1    1    2    0    0  0.58817623009E+00 -0.35645460570E+01 -0.18014045681E+03  0.18017668029E+03  0.00000000000E+00 0.  1.
        -15    1    1    2    0    0  0.11958277343E+01  0.22286389547E+01  0.51334651241E+00  0.31333830283E+01  0.17770000000E+01 0.  1.
         15    1    1    2    0    0 -0.18755765854E+01 -0.21556331294E+01  0.17764861829E+01  0.38050195629E+01  0.17770000000E+01 0. -1.
</event>
<event>
 6    1  0.1378789E-002  0.1560531E+03  0.7546771E-02  0.1091702E+00
        -11   -1    0    0    0    0  0.00000000000E+00  0.00000000000E+00  0.18250000000E+03  0.18250000000E+03  0.00000000000E+00 0. -1.
         11   -1    0    0    0    0 -0.00000000000E+00 -0.00000000000E+00 -0.18250000000E+03  0.18250000000E+03  0.00000000000E+00 0. -1.
        -11    1    1    2    0    0  0.30911069354E+01 -0.22110089931E+01  0.16101239034E+03  0.16105723625E+03  0.00000000000E+00 0. -1.
         11    1    1    2    0    0  0.62540915914E+01  0.19258458344E+02 -0.15047504558E+03  0.15183129197E+03  0.00000000000E+00 0. -1.
        -15    1    1    2    0    0 -0.95310887054E+01  0.80051907231E+00  0.16800818113E+02  0.19414110872E+02  0.17770000000E+01 0. -1.
         15    1    1    2    0    0  0.18589017851E+00 -0.17847968423E+02 -0.27338162877E+02  0.32697360910E+02  0.17770000000E+01 0.  1.
</event>
<event>
 6    1  0.1378789E-002  0.1776659E+03  0.7546771E-02  0.1072369E+00
        -11   -1    0    0    0    0  0.00000000000E+00  0.00000000000E+00  0.18250000000E+03  0.18250000000E+03  0.00000000000E+00 0. -1.
         11   -1    0    0    0    0 -0.00000000000E+00 -0.00000000000E+00 -0.18250000000E+03  0.18250000000E+03  0.00000000000E+00 0.  1.
        -11    1    1    2    0    0 -0.40785828058E+01 -0.66503592478E+01  0.17584039036E+03  0.17601336596E+03  0.00000000000E+00 0. -1.
         11    1    1    2    0    0  0.45981640606E+01  0.22995584231E+00 -0.17933484051E+03  0.17939392691E+03  0.00000000000E+00 0.  1.
        -15    1    1    2    0    0 -0.16481906261E+01  0.77793409120E+00 -0.15617856381E+00  0.25502616599E+01  0.17770000000E+01 0. -1.
         15    1    1    2    0    0  0.11286093713E+01  0.56424693143E+01  0.36506287171E+01  0.70424454634E+01  0.17770000000E+01 0.  1.
</event>
<event>
 6    1  0.1378789E-002  0.1825567E+03  0.7546771E-02  0.1068410E+00
        -11   -1    0    0    0    0  0.00000000000E+00  0.00000000000E+00  0.18250000000E+03  0.18250000000E+03  0.00000000000E+00 0.  1.
         11   -1    0    0    0    0 -0.00000000000E+00 -0.00000000000E+00 -0.18250000000E+03  0.18250000000E+03  0.00000000000E+00 0. -1.
        -11    1    1    2    0    0 -0.27944743143E+01 -0.87295402339E-01  0.18242183573E+03  0.18244325928E+03  0.00000000000E+00 0.  1.
         11    1    1    2    0    0 -0.18288432871E+00 -0.61733244897E+00 -0.15060949320E+02  0.15074705319E+02  0.00000000000E+00 0. -1.
        -15    1    1    2    0    0 -0.75388545608E+00  0.10715498475E+01 -0.63181771822E+02  0.63220333611E+02  0.17770000000E+01 0.  1.
         15    1    1    2    0    0  0.37312440991E+01 -0.36692199622E+00 -0.10417911459E+03  0.10426170179E+03  0.17770000000E+01 0. -1.
</event>
<event>
 6    1  0.1378789E-002  0.1990556E+03  0.7546771E-02  0.1055991E+00
        -11   -1    0    0    0    0  0.00000000000E+00  0.00000000000E+00  0.18250000000E+03  0.18250000000E+03  0.00000000000E+00 0.  1.
         11   -1    0    0    0    0 -0.00000000000E+00 -0.00000000000E+00 -0.18250000000E+03  0.18250000000E+03  0.00000000000E+00 0. -1.
        -11    1    1    2    0    0 -0.99421879019E+01  0.19347101899E+02  0.41107698484E+02  0.46508067330E+02  0.00000000000E+00 0.  1.
         11    1    1    2    0    0 -0.26728379223E+01  0.27833026809E+01 -0.16589949853E+03  0.16594437155E+03  0.00000000000E+00 0. -1.
        -15    1    1    2    0    0  0.54197241665E+01 -0.39077139008E+01 -0.12268586020E+02  0.14082598124E+02  0.17770000000E+01 0. -1.
         15    1    1    2    0    0  0.71953016578E+01 -0.18222690679E+02  0.13706038606E+03  0.13846496300E+03  0.17770000000E+01 0. -1.
</event>
<event>
 6    1  0.1378789E-002  0.1726801E+03  0.7546771E-02  0.1076552E+00
        -11   -1    0    0    0    0  0.00000000000E+00  0.00000000000E+00  0.18250000000E+03  0.18250000000E+03  0.00000000000E+00 0. -1.
         11   -1    0    0    0    0 -0.00000000000E+00 -0.00000000000E+00 -0.18250000000E+03  0.18250000000E+03  0.00000000000E+00 0. -1.
        -11    1    1    2    0    0  0.12736011415E+00 -0.44185322529E+01  0.17227164882E+03  0.17232835122E+03  0.00000000000E+00 0. -1.
         11    1    1    2    0    0  0.53381178312E+01  0.16120301492E+01 -0.17299731786E+03  0.17308716339E+03  0.00000000000E+00 0. -1.
        -15    1    1    2    0    0 -0.74434315272E+01  0.25750361518E+01  0.82844732772E+01  0.11568306296E+02  0.17770000000E+01 0.  1.
         15    1    1    2    0    0  0.19779535818E+01  0.23146595193E+00 -0.75588042317E+01  0.80161790943E+01  0.17770000000E+01 0. -1.
</event>
<event>
 6    1  0.1378789E-002  0.1826344E+03  0.7546771E-02  0.1068348E+00
        -11   -1    0    0    0    0  0.00000000000E+00  0.00000000000E+00  0.18250000000E+03  0.18250000000E+03  0.00000000000E+00 0. -1.
         11   -1    0    0    0    0 -0.00000000000E+00 -0.00000000000E+00 -0.18250000000E+03  0.18250000000E+03  0.00000000000E+00 0. -1.
        -11    1    1    2    0    0  0.31599906832E+01 -0.51944469743E+01  0.18226417572E+03  0.18236556027E+03  0.00000000000E+00 0. -1.
         11    1    1    2    0    0 -0.24181570178E-01 -0.50764018569E+00 -0.30240638865E+02  0.30244909031E+02  0.00000000000E+00 0. -1.
        -15    1    1    2    0    0 -0.54612301997E+00 -0.16940587538E+01 -0.34325863591E+02  0.34417883806E+02  0.17770000000E+01 0.  1.
         15    1    1    2    0    0 -0.25896860930E+01  0.73961459138E+01 -0.11769767327E+03  0.11797164689E+03  0.17770000000E+01 0. -1.
</event>
<event>
 6    1  0.1378789E-002  0.1830483E+03  0.7546771E-02  0.1068019E+00
        -11   -1    0    0    0    0  0.00000000000E+00  0.00000000000E+00  0.18250000000E+03  0.18250000000E+03  0.00000000000E+00 0. -1.
         11   -1    0    0    0    0 -0.00000000000E+00 -0.00000000000E+00 -0.18250000000E+03  0.18250000000E+03  0.00000000000E+00 0.  1.
        -11    1    1    2    0    0  0.47351256082E-01 -0.20363024360E+01  0.14087420748E+03  0.14088893180E+03  0.00000000000E+00 0. -1.
         11    1    1    2    0    0  0.21993654155E+00  0.47627186190E+01 -0.18188918540E+03  0.18195166289E+03  0.00000000000E+00 0.  1.
        -15    1    1    2    0    0 -0.35573977523E+00  0.18622493837E+01  0.37002174585E+01  0.45214888914E+01  0.17770000000E+01 0.  1.
         15    1    1    2    0    0  0.88451977592E-01 -0.45886655667E+01  0.37314760464E+02  0.37637916426E+02  0.17770000000E+01 0.  1.
</event>
<event>
 6    1  0.1378789E-002  0.1827795E+03  0.7546771E-02  0.1068233E+00
        -11   -1    0    0    0    0  0.00000000000E+00  0.00000000000E+00  0.18250000000E+03  0.18250000000E+03  0.00000000000E+00 0. -1.
         11   -1    0    0    0    0 -0.00000000000E+00 -0.00000000000E+00 -0.18250000000E+03  0.18250000000E+03  0.00000000000E+00 0.  1.
        -11    1    1    2    0    0 -0.40730517684E+01  0.52344441592E+01  0.18209976863E+03  0.18222051172E+03  0.00000000000E+00 0. -1.
         11    1    1    2    0    0 -0.65263602468E-01 -0.26503537112E+01 -0.70259002518E+02  0.70309004181E+02  0.00000000000E+00 0.  1.
        -15    1    1    2    0    0 -0.22902510733E+01  0.61164352335E-01 -0.66704546566E+02  0.66767531425E+02  0.17770000000E+01 0.  1.
         15    1    1    2    0    0  0.64285664442E+01 -0.26452548003E+01 -0.45136219545E+02  0.45702952676E+02  0.17770000000E+01 0. -1.
</event>
<event>
 6    1  0.1378789E-002  0.1941041E+03  0.7546771E-02  0.1059576E+00
        -11   -1    0    0    0    0  0.00000000000E+00  0.00000000000E+00  0.18250000000E+03  0.18250000000E+03  0.00000000000E+00 0.  1.
         11   -1    0    0    0    0 -0.00000000000E+00 -0.00000000000E+00 -0.18250000000E+03  0.18250000000E+03  0.00000000000E+00 0.  1.
        -11    1    1    2    0    0  0.27991549225E+01 -0.16651630387E+01  0.15896688396E+03  0.15900024601E+03  0.00000000000E+00 0.  1.
         11    1    1    2    0    0  0.49602898697E+01  0.22306360439E+01 -0.17080929712E+03  0.17089586360E+03  0.00000000000E+00 0.  1.
        -15    1    1    2    0    0  0.85044154051E+01  0.72475619770E+01  0.12629609909E+02  0.16956326590E+02  0.17770000000E+01 0. -1.
         15    1    1    2    0    0 -0.16263860197E+02 -0.78130349822E+01 -0.78719675057E+00  0.18147563800E+02  0.17770000000E+01 0.  1.
</event>
<event>
 6    1  0.1378789E-002  0.1863509E+03  0.7546771E-02  0.1065430E+00
        -11   -1    0    0    0    0  0.00000000000E+00  0.00000000000E+00  0.18250000000E+03  0.18250000000E+03  0.00000000000E+00 0.  1.
         11   -1    0    0    0    0 -0.00000000000E+00 -0.00000000000E+00 -0.18250000000E+03  0.18250000000E+03  0.00000000000E+00 0. -1.
        -11    1    1    2    0    0 -0.20307608476E+01  0.29655947192E+01  0.17861295342E+03  0.17864911383E+03  0.00000000000E+00 0.  1.
         11    1    1    2    0    0 -0.41607556665E+01  0.11331859364E+01 -0.12682912027E+03  0.12690241032E+03  0.00000000000E+00 0. -1.
        -15    1    1    2    0    0  0.91165646697E+01 -0.94143798602E+01 -0.51444561737E+02  0.53117256715E+02  0.17770000000E+01 0. -1.
         15    1    1    2    0    0 -0.29250481557E+01  0.53155992046E+01 -0.33927142081E+00  0.63312191333E+01  0.17770000000E+01 0.  1.
</event>
<event>
 6    1  0.1378789E-002  0.1951000E+03  0.7546771E-02  0.1058845E+00
        -11   -1    0    0    0    0  0.00000000000E+00  0.00000000000E+00  0.18250000000E+03  0.18250000000E+03  0.00000000000E+00 0.  1.
         11   -1    0    0    0    0 -0.00000000000E+00 -0.00000000000E+00 -0.18250000000E+03  0.18250000000E+03  0.00000000000E+00 0.  1.
        -11    1    1    2    0    0  0.39618655392E+01 -0.58068141577E+01  0.16975454291E+03  0.16990003033E+03  0.00000000000E+00 0.  1.
         11    1    1    2    0    0 -0.26044994676E+01 -0.29756858389E+00 -0.14850382522E+03  0.14852696075E+03  0.00000000000E+00 0.  1.
        -15    1    1    2    0    0 -0.56301564093E+01  0.32413880062E+01  0.11524949463E+02  0.13348687071E+02  0.17770000000E+01 0.  1.
         15    1    1    2    0    0  0.42727903377E+01  0.28629947354E+01 -0.32775667150E+02  0.33224321848E+02  0.17770000000E+01 0. -1.
</event>
<event>
 6    1  0.1378789E-002  0.1965727E+03  0.7546771E-02  0.1057774E+00
        -11   -1    0    0    0    0  0.00000000000E+00  0.00000000000E+00  0.18250000000E+03  0.18250000000E+03  0.00000000000E+00 0.  1.
         11   -1    0    0    0    0 -0.00000000000E+00 -0.00000000000E+00 -0.18250000000E+03  0.18250000000E+03  0.00000000000E+00 0.  1.
        -11    1    1    2    0    0 -0.13791193178E+02  0.13891562647E+02  0.16728593114E+03  0.16842729969E+03  0.00000000000E+00 0.  1.
         11    1    1    2    0    0 -0.17959442234E+01 -0.88120895726E+01 -0.14012754455E+03  0.14041583629E+03  0.00000000000E+00 0.  1.
        -15    1    1    2    0    0  0.37354449155E+01 -0.80418221572E+01  0.12041430166E+02  0.15059157406E+02  0.17770000000E+01 0. -1.
         15    1    1    2    0    0  0.11851692486E+02  0.29623490831E+01 -0.39199816757E+02  0.41097706623E+02  0.17770000000E+01 0.  1.
</event>
<event>
 6    1  0.1378789E-002  0.1782178E+03  0.7546771E-02  0.1071915E+00
        -11   -1    0    0    0    0  0.00000000000E+00  0.00000000000E+00  0.18250000000E+03  0.18250000000E+03  0.00000000000E+00 0.  1.
         11   -1    0    0    0    0 -0.00000000000E+00 -0.00000000000E+00 -0.18250000000E+03  0.18250000000E+03  0.00000000000E+00 0.  1.
        -11    1    1    2    0    0 -0.54830591234E+00 -0.10175989450E+02  0.18178728209E+03  0.18207269793E+03  0.00000000000E+00 0.  1.
         11    1    1    2    0    0  0.54613930851E+00  0.58239839221E+00 -0.92269271784E+01  0.92614060049E+01  0.00000000000E+00 0.  1.
        -15    1    1    2    0    0 -0.63173194344E+00  0.11038945605E+02 -0.57468117973E+02  0.58549122262E+02  0.17770000000E+01 0.  1.
         15    1    1    2    0    0  0.63389854726E+00 -0.14453545476E+01 -0.11509223694E+03  0.11511677380E+03  0.17770000000E+01 0.  1.
</event>
<event>
 6    1  0.1378789E-002  0.1938317E+03  0.7546771E-02  0.1059776E+00
        -11   -1    0    0    0    0  0.00000000000E+00  0.00000000000E+00  0.18250000000E+03  0.18250000000E+03  0.00000000000E+00 0.  1.
         11   -1    0    0    0    0 -0.00000000000E+00 -0.00000000000E+00 -0.18250000000E+03  0.18250000000E+03  0.00000000000E+00 0.  1.
        -11    1    1    2    0    0  0.57709239972E+01  0.38152580790E+01  0.15752476045E+03  0.15767659912E+03  0.00000000000E+00 0.  1.
         11    1    1    2    0    0 -0.15909111911E+02  0.31906298468E+01 -0.17039745771E+03  0.17116826095E+03  0.00000000000E+00 0.  1.
        -15    1    1    2    0    0 -0.42922772026E+01 -0.20248356537E+01  0.18959196342E+02  0.19624791921E+02  0.17770000000E+01 0. -1.
         15    1    1    2    0    0  0.14430465116E+02 -0.49810522721E+01 -0.60864990736E+01  0.16530348006E+02  0.17770000000E+01 0.  1.
</event>
<event>
 6    1  0.1378789E-002  0.1828519E+03  0.7546771E-02  0.1068175E+00
        -11   -1    0    0    0    0  0.00000000000E+00  0.00000000000E+00  0.18250000000E+03  0.18250000000E+03  0.00000000000E+00 0. -1.
         11   -1    0    0    0    0 -0.00000000000E+00 -0.00000000000E+00 -0.18250000000E+03  0.18250000000E+03  0.00000000000E+00 0.  1.
        -11    1    1    2    0    0  0.44241168221E+00  0.86463411224E+00  0.22788510133E+02  0.22809198020E+02  0.00000000000E+00 0. -1.
         11    1    1    2    0    0  0.25454613453E+01  0.35569060474E+01 -0.18209559586E+03  0.18214811826E+03  0.00000000000E+00 0.  1.
        -15    1    1    2    0    0  0.47805822952E+01 -0.10834141122E+01  0.96921901750E+02  0.97062044699E+02  0.17770000000E+01 0. -1.
         15    1    1    2    0    0 -0.77684553228E+01 -0.33381260474E+01  0.62385183974E+02  0.62980639025E+02  0.17770000000E+01 0.  1.
</event>
<event>
 6    1  0.1378789E-002  0.1841963E+03  0.7546771E-02  0.1067113E+00
        -11   -1    0    0    0    0  0.00000000000E+00  0.00000000000E+00  0.18250000000E+03  0.18250000000E+03  0.00000000000E+00 0. -1.
         11   -1    0    0    0    0 -0.00000000000E+00 -0.00000000000E+00 -0.18250000000E+03  0.18250000000E+03  0.00000000000E+00 0. -1.
        -11    1    1    2    0    0 -0.12642944446E+01  0.32212593082E+01  0.18077061360E+03  0.18080373252E+03  0.00000000000E+00 0. -1.
         11    1    1    2    0    0 -0.11664483466E+01  0.14920824117E+01 -0.12972995151E+03  0.12974377530E+03  0.00000000000E+00 0. -1.
        -15    1    1    2    0    0  0.99792509331E+01 -0.50631205090E+00 -0.27456401972E+02  0.29272060729E+02  0.17770000000E+01 0. -1.
         15    1    1    2    0    0 -0.75485081418E+01 -0.42070296690E+01 -0.23584260116E+02  0.25180431450E+02  0.17770000000E+01 0.  1.
</event>
<event>
 6    1  0.1378789E-002  0.1831559E+03  0.7546771E-02  0.1067934E+00
        -11   -1    0    0    0    0  0.00000000000E+00  0.00000000000E+00  0.18250000000E+03  0.18250000000E+03  0.00000000000E+00 0.  1.
         11   -1    0    0    0    0 -0.00000000000E+00 -0.00000000000E+00 -0.18250000000E+03  0.18250000000E+03  0.00000000000E+00 0.  1.
        -11    1    1    2    0    0 -0.25352676447E+01  0.30607835875E+01  0.18180061338E+03  0.18184405133E+03  0.00000000000E+00 0.  1.
         11    1    1    2    0    0 -0.34294283655E+01 -0.12184751113E+00 -0.15067294905E+03  0.15071202142E+03  0.00000000000E+00 0.  1.
        -15    1    1    2    0    0  0.64740086830E+01 -0.27290158107E+01 -0.23461318653E+02  0.24555071119E+02  0.17770000000E+01 0. -1.
         15    1    1    2    0    0 -0.50931267276E+00 -0.20992026566E+00 -0.76663456835E+01  0.78888561309E+01  0.17770000000E+01 0.  1.
</event>
<event>
 6    1  0.1378789E-002  0.1907867E+03  0.7546771E-02  0.1062043E+00
        -11   -1    0    0    0    0  0.00000000000E+00  0.00000000000E+00  0.18250000000E+03  0.18250000000E+03  0.00000000000E+00 0.  1.
         11   -1    0    0    0    0 -0.00000000000E+00 -0.00000000000E+00 -0.18250000000E+03  0.18250000000E+03  0.00000000000E+00 0.  1.
        -11    1    1    2    0    0 -0.42333691711E+01 -0.97083197271E+01  0.17389101630E+03  0.17421325562E+03  0.00000000000E+00 0.  1.
         11    1    1    2    0    0  0.49247600472E+00  0.37250795815E+01 -0.16913845247E+03  0.16918018458E+03  0.00000000000E+00 0.  1.
        -15    1    1    2    0    0 -0.19854573076E+01 -0.29939347719E+01 -0.91195684021E+01  0.99614227387E+01  0.17770000000E+01 0.  1.
         15    1    1    2    0    0  0.57263504740E+01  0.89771749175E+01  0.43670045732E+01  0.11645137062E+02  0.17770000000E+01 0.  1.
</event>
<event>
 6    1  0.1378789E-002  0.1830375E+03  0.7546771E-02  0.1068028E+00
        -11   -1    0    0    0    0  0.00000000000E+00  0.00000000000E+00  0.18250000000E+03  0.18250000000E+03  0.00000000000E+00 0. -1.
         11   -1    0    0    0    0 -0.00000000000E+00 -0.00000000000E+00 -0.18250000000E+03  0.18250000000E+03  0.00000000000E+00 0. -1.
        -11    1    1    2    0    0  0.73419374536E+01  0.54566804114E+01  0.18173245357E+03  0.18196253484E+03  0.00000000000E+00 0. -1.
         11    1    1    2    0    0  0.16011034610E+01  0.69232131274E+00 -0.82758533282E+02  0.82776915091E+02  0.00000000000E+00 0. -1.
        -15    1    1    2    0    0 -0.36608332975E+01  0.77012552789E+00 -0.97202718617E+01  0.10565803700E+02  0.17770000000E+01 0. -1.
         15    1    1    2    0    0 -0.52822076171E+01 -0.69191272520E+01 -0.89253648425E+02  0.89694746365E+02  0.17770000000E+01 0. -1.
</event>
<event>
 6    1  0.1378789E-002  0.1919261E+03  0.7546771E-02  0.1061190E+00
        -11   -1    0    0    0    0  0.00000000000E+00  0.00000000000E+00  0.18250000000E+03  0.18250000000E+03  0.00000000000E+00 0.  1.
         11   -1    0    0    0    0 -0.00000000000E+00 -0.00000000000E+00 -0.18250000000E+03  0.18250000000E+03  0.00000000000E+00 0.  1.
        -11    1    1    2    0    0 -0.24944075636E+01 -0.34790015013E+01  0.10872466632E+03  0.10880890858E+03  0.00000000000E+00 0.  1.
         11    1    1    2    0    0 -0.27770779460E+00  0.59106884421E+01 -0.17297275293E+03  0.17307393395E+03  0.00000000000E+00 0.  1.
        -15    1    1    2    0    0  0.15601792784E+02 -0.19323195825E+02  0.14042925034E+02  0.28586068416E+02  0.17770000000E+01 0. -1.
         15    1    1    2    0    0 -0.12829677426E+02  0.16891508884E+02  0.50205161577E+02  0.54531089052E+02  0.17770000000E+01 0.  1.
</event>
<event>
 6    1  0.1378789E-002  0.1848915E+03  0.7546771E-02  0.1066567E+00
        -11   -1    0    0    0    0  0.00000000000E+00  0.00000000000E+00  0.18250000000E+03  0.18250000000E+03  0.00000000000E+00 0. -1.
         11   -1    0    0    0    0 -0.00000000000E+00 -0.00000000000E+00 -0.18250000000E+03  0.18250000000E+03  0.00000000000E+00 0.  1.
        -11    1    1    2    0    0  0.75718255362E+01 -0.35464523907E+01  0.17991436274E+03  0.18010854446E+03  0.00000000000E+00 0. -1.
         11    1    1    2    0    0  0.21095897863E+01  0.43561707112E+00 -0.15343808516E+03  0.15345320495E+03  0.00000000000E+00 0.  1.
        -15    1    1    2    0    0 -0.77175953028E+01  0.45546538296E+01 -0.26884444797E+02  0.28394317210E+02  0.17770000000E+01 0.  1.
         15    1    1    2    0    0 -0.19638200197E+01 -0.14438185100E+01  0.40816722107E+00  0.30439333829E+01  0.17770000000E+01 0. -1.
</event>
<event>
 6    1  0.1378789E-002  0.1846815E+03  0.7546771E-02  0.1066731E+00
        -11   -1    0    0    0    0  0.00000000000E+00  0.00000000000E+00  0.18250000000E+03  0.18250000000E+03  0.00000000000E+00 0. -1.
         11   -1    0    0    0    0 -0.00000000000E+00 -0.00000000000E+00 -0.18250000000E+03  0.18250000000E+03  0.00000000000E+00 0.  1.
        -11    1    1    2    0    0 -0.22336689894E+01 -0.47391894523E+01  0.18024238256E+03  0.18031851171E+03  0.00000000000E+00 0. -1.
         11    1    1    2    0    0  0.17291968660E+01  0.43220788557E+01 -0.13227627747E+03  0.13235816586E+03  0.00000000000E+00 0.  1.
        -15    1    1    2    0    0  0.14112582264E+01  0.52410089621E+01 -0.19841795495E+01  0.60460335930E+01  0.17770000000E+01 0.  1.
         15    1    1    2    0    0 -0.90678610304E+00 -0.48238983656E+01 -0.45981925540E+02  0.46277288834E+02  0.17770000000E+01 0. -1.
</event>
<event>
 6    1  0.1378789E-002  0.1861826E+03  0.7546771E-02  0.1065561E+00
        -11   -1    0    0    0    0  0.00000000000E+00  0.00000000000E+00  0.18250000000E+03  0.18250000000E+03  0.00000000000E+00 0. -1.
         11   -1    0    0    0    0 -0.00000000000E+00 -0.00000000000E+00 -0.18250000000E+03  0.18250000000E+03  0.00000000000E+00 0.  1.
        -11    1    1    2    0    0 -0.70733724552E+00 -0.61041631499E+01  0.17871183144E+03  0.17881744834E+03  0.00000000000E+00 0. -1.
         11    1    1    2    0    0  0.12699695940E+01  0.50410537337E+01 -0.17279398343E+03  0.17287216594E+03  0.00000000000E+00 0.  1.
        -15    1    1    2    0    0  0.27140691438E+00 -0.48566171864E+01 -0.46203196337E+01  0.69401350654E+01  0.17770000000E+01 0.  1.
         15    1    1    2    0    0 -0.83403926290E+00  0.59197266026E+01 -0.12975283755E+01  0.63702506565E+01  0.17770000000E+01 0. -1.
</event>
<event>
 6    1  0.3885731E-002  0.1873362E+03  0.7546771E-02  0.1064669E+00
        -11   -1    0    0    0    0  0.00000000000E+00  0.00000000000E+00  0.18250000000E+03  0.18250000000E+03  0.00000000000E+00 0. -1.
         11   -1    0    0    0    0 -0.00000000000E+00 -0.00000000000E+00 -0.18250000000E+03  0.18250000000E+03  0.00000000000E+00 0. -1.
        -11    1    1    2    0    0 -0.31164418119E+01 -0.96023656863E+00  0.17763383267E+03  0.17766376325E+03  0.00000000000E+00 0. -1.
         11    1    1    2    0    0  0.15357260706E+02  0.28709069428E+01 -0.13641071963E+03  0.13730248356E+03  0.00000000000E+00 0. -1.
        -15    1    1    2    0    0  0.23288055388E+01  0.45869376103E+00  0.24834269411E+01  0.38676703034E+01  0.17770000000E+01 0. -1.
         15    1    1    2    0    0 -0.14569624433E+02 -0.23693641352E+01 -0.43706539984E+02  0.46166082884E+02  0.17770000000E+01 0. -1.
</event>
<event>
 6    1  0.1378789E-002  0.1825710E+03  0.7546771E-02  0.1068398E+00
        -11   -1    0    0    0    0  0.00000000000E+00  0.00000000000E+00  0.18250000000E+03  0.18250000000E+03  0.00000000000E+00 0. -1.
         11   -1    0    0    0    0 -0.00000000000E+00 -0.00000000000E+00 -0.18250000000E+03  0.18250000000E+03  0.00000000000E+00 0.  1.
        -11    1    1    2    0    0 -0.50711572121E+01 -0.37855478768E+00  0.18235812256E+03  0.18242901305E+03  0.00000000000E+00 0. -1.
         11    1    1    2    0    0  0.11784866940E+01 -0.26406995536E+00 -0.79154469322E+02  0.79163682187E+02  0.00000000000E+00 0.  1.
        -15    1    1    2    0    0  0.44254725190E+00 -0.11377609767E+01 -0.41629406130E+02  0.41685195596E+02  0.17770000000E+01 0.  1.
         15    1    1    2    0    0  0.34501232661E+01  0.17803857197E+01 -0.61574247108E+02  0.61722109165E+02  0.17770000000E+01 0. -1.
</event>
<event>
 6    1  0.1378789E-002  0.1899279E+03  0.7546771E-02  0.1062691E+00
        -11   -1    0    0    0    0  0.00000000000E+00  0.00000000000E+00  0.18250000000E+03  0.18250000000E+03  0.00000000000E+00 0. -1.
         11   -1    0    0    0    0 -0.00000000000E+00 -0.00000000000E+00 -0.18250000000E+03  0.18250000000E+03  0.00000000000E+00 0.  1.
        -11    1    1    2    0    0  0.83955226926E+01 -0.16663305428E+01  0.13955976122E+03  0.13982198829E+03  0.00000000000E+00 0. -1.
         11    1    1    2    0    0 -0.25646795744E+02  0.26721213853E+02 -0.17110947912E+03  0.17507208586E+03  0.00000000000E+00 0.  1.
        -15    1    1    2    0    0 -0.24692084615E+01  0.32013168339E+01  0.32953301077E+01  0.55102041175E+01  0.17770000000E+01 0. -1.
         15    1    1    2    0    0  0.19720481512E+02 -0.28256200144E+02  0.28254387799E+02  0.44595721729E+02  0.17770000000E+01 0. -1.
</event>
<event>
 6    1  0.1378789E-002  0.1847315E+03  0.7546771E-02  0.1066692E+00
        -11   -1    0    0    0    0  0.00000000000E+00  0.00000000000E+00  0.18250000000E+03  0.18250000000E+03  0.00000000000E+00 0.  1.
         11   -1    0    0    0    0 -0.00000000000E+00 -0.00000000000E+00 -0.18250000000E+03  0.18250000000E+03  0.00000000000E+00 0. -1.
        -11    1    1    2    0    0 -0.88553402821E+00  0.30642808516E+01  0.18024031179E+03  0.18026853298E+03  0.00000000000E+00 0.  1.
         11    1    1    2    0    0 -0.17525503499E+01 -0.34261220930E+01 -0.17114261445E+03  0.17118587624E+03  0.00000000000E+00 0. -1.
        -15    1    1    2    0    0 -0.86188496864E+00  0.68829639590E-01  0.13418128452E+01  0.23886761877E+01  0.17770000000E+01 0. -1.
         15    1    1    2    0    0  0.34999693467E+01  0.29301160184E+00 -0.10439510187E+02  0.11156914590E+02  0.17770000000E+01 0.  1.
</event>
<event>
 6    1  0.1378789E-002  0.1850829E+03  0.7546771E-02  0.1066417E+00
        -11   -1    0    0    0    0  0.00000000000E+00  0.00000000000E+00  0.18250000000E+03  0.18250000000E+03  0.00000000000E+00 0.  1.
         11   -1    0    0    0    0 -0.00000000000E+00 -0.00000000000E+00 -0.18250000000E+03  0.18250000000E+03  0.00000000000E+00 0. -1.
        -11    1    1    2    0    0 -0.12336329949E+01 -0.37335510328E+01  0.17987416532E+03  0.17991713816E+03  0.00000000000E+00 0.  1.
         11    1    1    2    0    0  0.84704413833E+01  0.15031585223E+00 -0.16753431443E+03  0.16774837551E+03  0.00000000000E+00 0. -1.
        -15    1    1    2    0    0 -0.90232621322E+00  0.25710252656E+01 -0.96001111034E+01  0.10136282638E+02  0.17770000000E+01 0.  1.
         15    1    1    2    0    0 -0.63344821752E+01  0.10122099150E+01 -0.27397397858E+01  0.71982036949E+01  0.17770000000E+01 0. -1.
</event>
<event>
 6    1  0.1378789E-002  0.1866064E+03  0.7546771E-02  0.1065232E+00
        -11   -1    0    0    0    0  0.00000000000E+00  0.00000000000E+00  0.18250000000E+03  0.18250000000E+03  0.00000000000E+00 0. -1.
         11   -1    0    0    0    0 -0.00000000000E+00 -0.00000000000E+00 -0.18250000000E+03  0.18250000000E+03  0.00000000000E+00 0.  1.
        -11    1    1    2    0    0  0.43335303427E+01  0.42774024842E+00  0.16795716911E+03  0.16801360987E+03  0.00000000000E+00 0. -1.
         11    1    1    2    0    0 -0.30734272821E+01 -0.14540425819E+01 -0.17836115243E+03  0.17839355620E+03  0.00000000000E+00 0.  1.
        -15    1    1    2    0    0  0.76234516081E+00 -0.11769925557E+01  0.13649007913E+02  0.13835448227E+02  0.17770000000E+01 0.  1.
         15    1    1    2    0    0 -0.20224482214E+01  0.22032948892E+01 -0.32450245886E+01  0.47573857062E+01  0.17770000000E+01 0. -1.
</event>
<event>
 6    1  0.1378789E-002  0.1834393E+03  0.7546771E-02  0.1067710E+00
        -11   -1    0    0    0    0  0.00000000000E+00  0.00000000000E+00  0.18250000000E+03  0.18250000000E+03  0.00000000000E+00 0.  1.
         11   -1    0    0    0    0 -0.00000000000E+00 -0.00000000000E+00 -0.18250000000E+03  0.18250000000E+03  0.00000000000E+00 0.  1.
        -11    1    1    2    0    0  0.69019085082E+01 -0.52937160657E+00  0.73046988805E+02  0.73374240363E+02  0.00000000000E+00 0.  1.
         11    1    1    2    0    0  0.43133472649E+01 -0.47217147956E+01 -0.18144804941E+03  0.18156071764E+03  0.00000000000E+00 0.  1.
        -15    1    1    2    0    0 -0.75184966867E+01  0.42230486068E+01  0.10208616418E+03  0.10246513836E+03  0.17770000000E+01 0.  1.
         15    1    1    2    0    0 -0.36967590864E+01  0.10280377953E+01  0.63148964256E+01  0.75999036387E+01  0.17770000000E+01 0. -1.
</event>
<event>
 6    1  0.1378789E-002  0.1874668E+03  0.7546771E-02  0.1064569E+00
        -11   -1    0    0    0    0  0.00000000000E+00  0.00000000000E+00  0.18250000000E+03  0.18250000000E+03  0.00000000000E+00 0.  1.
         11   -1    0    0    0    0 -0.00000000000E+00 -0.00000000000E+00 -0.18250000000E+03  0.18250000000E+03  0.00000000000E+00 0. -1.
        -11    1    1    2    0    0  0.49109860395E+01 -0.13909119983E+02  0.16387670378E+03  0.16453922160E+03  0.00000000000E+00 0.  1.
         11    1    1    2    0    0 -0.12252773962E+01  0.27325867357E+01 -0.17750793728E+03  0.17753319727E+03  0.00000000000E+00 0. -1.
        -15    1    1    2    0    0 -0.30301611640E+01  0.11602712768E+02  0.15866007217E+02  0.19967291611E+02  0.17770000000E+01 0. -1.
         15    1    1    2    0    0 -0.65554747933E+00 -0.42617952111E+00 -0.22347737143E+01  0.29602895190E+01  0.17770000000E+01 0. -1.
</event>
<event>
 6    1  0.1378789E-002  0.1828591E+03  0.7546771E-02  0.1068169E+00
        -11   -1    0    0    0    0  0.00000000000E+00  0.00000000000E+00  0.18250000000E+03  0.18250000000E+03  0.00000000000E+00 0.  1.
         11   -1    0    0    0    0 -0.00000000000E+00 -0.00000000000E+00 -0.18250000000E+03  0.18250000000E+03  0.00000000000E+00 0.  1.
        -11    1    1    2    0    0 -0.19018541237E+00 -0.25620889984E+01  0.18212273411E+03  0.18214085415E+03  0.00000000000E+00 0.  1.
         11    1    1    2    0    0 -0.15520120352E+01  0.25228160262E-01 -0.42694501202E+02  0.42722708373E+02  0.00000000000E+00 0.  1.
        -15    1    1    2    0    0 -0.10781596403E+01 -0.23005937912E+01 -0.80426455365E+01  0.86195728564E+01  0.17770000000E+01 0.  1.
         15    1    1    2    0    0  0.28203570879E+01  0.48374546293E+01 -0.13138558737E+03  0.13151686462E+03  0.17770000000E+01 0.  1.
</event>
<event>
 6    1  0.1378789E-002  0.1838960E+03  0.7546771E-02  0.1067349E+00
        -11   -1    0    0    0    0  0.00000000000E+00  0.00000000000E+00  0.18250000000E+03  0.18250000000E+03  0.00000000000E+00 0. -1.
         11   -1    0    0    0    0 -0.00000000000E+00 -0.00000000000E+00 -0.18250000000E+03  0.18250000000E+03  0.00000000000E+00 0. -1.
        -11    1    1    2    0    0  0.48124958405E+00 -0.23154744552E+01  0.13655800993E+03  0.13657848696E+03  0.00000000000E+00 0. -1.
         11    1    1    2    0    0  0.37004990993E+01 -0.51457288380E+01 -0.18099306301E+03  0.18110400624E+03  0.00000000000E+00 0. -1.
        -15    1    1    2    0    0  0.25380712795E+00 -0.68301909353E+00  0.30043380585E+02  0.30104706927E+02  0.17770000000E+01 0. -1.
         15    1    1    2    0    0 -0.44355558113E+01  0.81442223868E+01  0.14391672489E+02  0.17212799879E+02  0.17770000000E+01 0. -1.
</event>
<event>
 6    1  0.1378789E-002  0.1857466E+03  0.7546771E-02  0.1065899E+00
        -11   -1    0    0    0    0  0.00000000000E+00  0.00000000000E+00  0.18250000000E+03  0.18250000000E+03  0.00000000000E+00 0.  1.
         11   -1    0    0    0    0 -0.00000000000E+00 -0.00000000000E+00 -0.18250000000E+03  0.18250000000E+03  0.00000000000E+00 0. -1.
        -11    1    1    2    0    0  0.73768532579E+00 -0.39663853970E+01  0.17920797798E+03  0.17925338425E+03  0.00000000000E+00 0.  1.
         11    1    1    2    0    0  0.55781684418E+01  0.34008204117E+01 -0.16972575260E+03  0.16985144285E+03  0.00000000000E+00 0. -1.
        -15    1    1    2    0    0 -0.59406923443E+01 -0.28283383777E+01 -0.99044660905E+01  0.12022790901E+02  0.17770000000E+01 0. -1.
         15    1    1    2    0    0 -0.37516142329E+00  0.33939033630E+01  0.42224070905E+00  0.38723819991E+01  0.17770000000E+01 0. -1.
</event>
<event>
 6    1  0.1378789E-002  0.1826264E+03  0.7546771E-02  0.1068354E+00
        -11   -1    0    0    0    0  0.00000000000E+00  0.00000000000E+00  0.18250000000E+03  0.18250000000E+03  0.00000000000E+00 0. -1.
         11   -1    0    0    0    0 -0.00000000000E+00 -0.00000000000E+00 -0.18250000000E+03  0.18250000000E+03  0.00000000000E+00 0. -1.
        -11    1    1    2    0    0 -0.24283609040E+01  0.13968124378E+01  0.18235203445E+03  0.18237355206E+03  0.00000000000E+00 0. -1.
         11    1    1    2    0    0  0.17897381345E+01  0.12761328873E+01 -0.10267633225E+03  0.10269985824E+03  0.00000000000E+00 0. -1.
        -15    1    1    2    0    0  0.16334683121E+01 -0.25121575660E+00 -0.17146255493E+02  0.17317134131E+02  0.17770000000E+01 0.  1.
         15    1    1    2    0    0 -0.99484554260E+00 -0.24217295685E+01 -0.62529446707E+02  0.62609455566E+02  0.17770000000E+01 0. -1.
</event>
<event>
 6    1  0.1378789E-002  0.2040265E+03  0.7546771E-02  0.1052504E+00
        -11   -1    0    0    0    0  0.00000000000E+00  0.00000000000E+00  0.18250000000E+03  0.18250000000E+03  0.00000000000E+00 0. -1.
         11   -1    0    0    0    0 -0.00000000000E+00 -0.00000000000E+00 -0.18250000000E+03  0.18250000000E+03  0.00000000000E+00 0. -1.
        -11    1    1    2    0    0  0.39083876095E+01 -0.16153723251E+02  0.13538224826E+03  0.13639857556E+03  0.00000000000E+00 0. -1.
         11    1    1    2    0    0  0.42665624235E+01  0.57894715497E+01 -0.16081280325E+03  0.16097353579E+03  0.00000000000E+00 0. -1.
        -15    1    1    2    0    0  0.20538493464E+02  0.16188919960E+02  0.27764753730E+02  0.38183113046E+02  0.17770000000E+01 0. -1.
         15    1    1    2    0    0 -0.28713443497E+02 -0.58246682588E+01 -0.23341987440E+01  0.29444775607E+02  0.17770000000E+01 0.  1.
</event>
<event>
 6    1  0.1378789E-002  0.1826852E+03  0.7546771E-02  0.1068308E+00
        -11   -1    0    0    0    0  0.00000000000E+00  0.00000000000E+00  0.18250000000E+03  0.18250000000E+03  0.00000000000E+00 0. -1.
         11   -1    0    0    0    0 -0.00000000000E+00 -0.00000000000E+00 -0.18250000000E+03  0.18250000000E+03  0.00000000000E+00 0.  1.
        -11    1    1    2    0    0  0.20768148126E+00  0.30786136435E+01  0.18228871872E+03  0.18231483200E+03  0.00000000000E+00 0. -1.
         11    1    1    2    0    0  0.69737094783E+00 -0.59892071928E+00 -0.47784991878E+02  0.47793833086E+02  0.00000000000E+00 0.  1.
        -15    1    1    2    0    0  0.32699960090E+01 -0.11896409075E+01 -0.98812271631E+02  0.98889488184E+02  0.17770000000E+01 0.  1.
         15    1    1    2    0    0 -0.41750484381E+01 -0.12900520168E+01 -0.35691455214E+02  0.36001846730E+02  0.17770000000E+01 0. -1.
</event>
<event>
 6    1  0.1378789E-002  0.1828945E+03  0.7546771E-02  0.1068141E+00
        -11   -1    0    0    0    0  0.00000000000E+00  0.00000000000E+00  0.18250000000E+03  0.18250000000E+03  0.00000000000E+00 0.  1.
         11   -1    0    0    0    0 -0.00000000000E+00 -0.00000000000E+00 -0.18250000000E+03  0.18250000000E+03  0.00000000000E+00 0. -1.
        -11    1    1    2    0    0  0.53477609604E+00  0.22403015015E+00  0.33721200092E+02  0.33726184347E+02  0.00000000000E+00 0.  1.
         11    1    1    2    0    0  0.35718375886E+01 -0.37572341654E+01 -0.18203170787E+03  0.18210551201E+03  0.00000000000E+00 0. -1.
        -15    1    1    2    0    0  0.47395271795E+00 -0.54166943609E+01  0.48060905419E+02  0.48400140162E+02  0.17770000000E+01 0. -1.
         15    1    1    2    0    0 -0.45805664026E+01  0.89498983761E+01  0.10024960236E+03  0.10076816348E+03  0.17770000000E+01 0.  1.
</event>
<event>
 6    1  0.1378789E-002  0.1701380E+03  0.7546771E-02  0.1078744E+00
        -11   -1    0    0    0    0  0.00000000000E+00  0.00000000000E+00  0.18250000000E+03  0.18250000000E+03  0.00000000000E+00 0.  1.
         11   -1    0    0    0    0 -0.00000000000E+00 -0.00000000000E+00 -0.18250000000E+03  0.18250000000E+03  0.00000000000E+00 0. -1.
        -11    1    1    2    0    0  0.35752704223E+01  0.12842095362E+02  0.17023470024E+03  0.17075583486E+03  0.00000000000E+00 0.  1.
         11    1    1    2    0    0 -0.22019188078E+01  0.93761903895E+01 -0.16997503869E+03  0.17024768771E+03  0.00000000000E+00 0. -1.
        -15    1    1    2    0    0 -0.21884615346E+01 -0.18002024219E+02 -0.31953341839E+01  0.18499462950E+02  0.17770000000E+01 0. -1.
         15    1    1    2    0    0  0.81510992019E+00 -0.42162615322E+01  0.29356726281E+01  0.54970144869E+01  0.17770000000E+01 0.  1.
</event>
<event>
 6    1  0.1378789E-002  0.1826863E+03  0.7546771E-02  0.1068307E+00
        -11   -1    0    0    0    0  0.00000000000E+00  0.00000000000E+00  0.18250000000E+03  0.18250000000E+03  0.00000000000E+00 0. -1.
         11   -1    0    0    0    0 -0.00000000000E+00 -0.00000000000E+00 -0.18250000000E+03  0.18250000000E+03  0.00000000000E+00 0.  1.
        -11    1    1    2    0    0 -0.13400340375E+01  0.66338127984E-01  0.26786115020E+02  0.26819695186E+02  0.00000000000E+00 0. -1.
         11    1    1    2    0    0 -0.16966193558E+01 -0.30863184203E+01 -0.18227969105E+03  0.18231371217E+03  0.00000000000E+00 0.  1.
        -15    1    1    2    0    0 -0.60490818710E+00 -0.29792036984E+01  0.54983208230E+02  0.55095848164E+02  0.17770000000E+01 0. -1.
         15    1    1    2    0    0  0.36415615804E+01  0.59991839907E+01  0.10051036780E+03  0.10077074448E+03  0.17770000000E+01 0.  1.
</event>
<event>
 6    1  0.1378789E-002  0.1863519E+03  0.7546771E-02  0.1065429E+00
        -11   -1    0    0    0    0  0.00000000000E+00  0.00000000000E+00  0.18250000000E+03  0.18250000000E+03  0.00000000000E+00 0.  1.
         11   -1    0    0    0    0 -0.00000000000E+00 -0.00000000000E+00 -0.18250000000E+03  0.18250000000E+03  0.00000000000E+00 0. -1.
        -11    1    1    2    0    0 -0.34702632802E+01  0.18139477060E+01  0.17860515127E+03  0.17864807078E+03  0.00000000000E+00 0.  1.
         11    1    1    2    0    0 -0.83628694537E+00  0.38136692913E+01 -0.13936974316E+03  0.13942441952E+03  0.00000000000E+00 0. -1.
        -15    1    1    2    0    0 -0.35755420117E-01  0.52429185064E+01 -0.33161821094E+02  0.33620731405E+02  0.17770000000E+01 0.  1.
         15    1    1    2    0    0  0.43423056456E+01 -0.10870535504E+02 -0.60735870168E+01  0.13306778299E+02  0.17770000000E+01 0. -1.
</event>
<event>
 6    1  0.1378789E-002  0.1833324E+03  0.7546771E-02  0.1067794E+00
        -11   -1    0    0    0    0  0.00000000000E+00  0.00000000000E+00  0.18250000000E+03  0.18250000000E+03  0.00000000000E+00 0.  1.
         11   -1    0    0    0    0 -0.00000000000E+00 -0.00000000000E+00 -0.18250000000E+03  0.18250000000E+03  0.00000000000E+00 0. -1.
        -11    1    1    2    0    0  0.30134944529E+01 -0.16105918241E+01  0.18163542539E+03  0.18166756153E+03  0.00000000000E+00 0.  1.
         11    1    1    2    0    0  0.46797087205E+01 -0.26111851191E+01 -0.27591319837E+02  0.28106918931E+02  0.00000000000E+00 0. -1.
        -15    1    1    2    0    0 -0.54328134783E+01  0.82478714931E+01 -0.13954943612E+03  0.13990977699E+03  0.17770000000E+01 0. -1.
         15    1    1    2    0    0 -0.22603896951E+01 -0.40260945499E+01 -0.14494669436E+02  0.15315742553E+02  0.17770000000E+01 0.  1.
</event>
<event>
 6    1  0.1378789E-002  0.1947928E+03  0.7546771E-02  0.1059070E+00
        -11   -1    0    0    0    0  0.00000000000E+00  0.00000000000E+00  0.18250000000E+03  0.18250000000E+03  0.00000000000E+00 0.  1.
         11   -1    0    0    0    0 -0.00000000000E+00 -0.00000000000E+00 -0.18250000000E+03  0.18250000000E+03  0.00000000000E+00 0.  1.
        -11    1    1    2    0    0  0.24087866454E+02 -0.11476332871E+02  0.16810281410E+03  0.17020719032E+03  0.00000000000E+00 0.  1.
         11    1    1    2    0    0  0.43812333969E+01  0.98356507636E-01 -0.14289259480E+03  0.14295977941E+03  0.00000000000E+00 0.  1.
        -15    1    1    2    0    0 -0.23781473610E+02  0.67373288570E+00 -0.30634048427E+02  0.38828018943E+02  0.17770000000E+01 0.  1.
         15    1    1    2    0    0 -0.46876262408E+01  0.10704243478E+02  0.54238291295E+01  0.13005011328E+02  0.17770000000E+01 0. -1.
</event>
<event>
 6    1  0.1378789E-002  0.1851408E+03  0.7546771E-02  0.1066372E+00
        -11   -1    0    0    0    0  0.00000000000E+00  0.00000000000E+00  0.18250000000E+03  0.18250000000E+03  0.00000000000E+00 0.  1.
         11   -1    0    0    0    0 -0.00000000000E+00 -0.00000000000E+00 -0.18250000000E+03  0.18250000000E+03  0.00000000000E+00 0.  1.
        -11    1    1    2    0    0 -0.74668080182E+01  0.25231029122E+01  0.80346580576E+02  0.80732225787E+02  0.00000000000E+00 0.  1.
         11    1    1    2    0    0  0.38689507860E+01 -0.16308546991E+01 -0.17981018405E+03  0.17985919703E+03  0.00000000000E+00 0.  1.
        -15    1    1    2    0    0  0.15152060835E+01  0.29898434813E+01  0.99584454932E+02  0.99656692734E+02  0.17770000000E+01 0.  1.
         15    1    1    2    0    0  0.20826511488E+01 -0.38820916944E+01 -0.12085145303E+00  0.47518844478E+01  0.17770000000E+01 0. -1.
</event>
<event>
 6    1  0.1378789E-002  0.1833689E+03  0.7546771E-02  0.1067765E+00
        -11   -1    0    0    0    0  0.00000000000E+00  0.00000000000E+00  0.18250000000E+03  0.18250000000E+03  0.00000000000E+00 0.  1.
         11   -1    0    0    0    0 -0.00000000000E+00 -0.00000000000E+00 -0.18250000000E+03  0.18250000000E+03  0.00000000000E+00 0. -1.
        -11    1    1    2    0    0  0.51639439837E+01  0.17054734676E+01  0.18154966480E+03  0.18163109796E+03  0.00000000000E+00 0.  1.
         11    1    1    2    0    0  0.59139061084E+00 -0.67318055584E-01 -0.21666756365E+02  0.21674930356E+02  0.00000000000E+00 0. -1.
        -15    1    1    2    0    0 -0.69984410002E+01 -0.83451167452E+00 -0.15907974683E+03  0.15924571632E+03  0.17770000000E+01 0. -1.
         15    1    1    2    0    0  0.12431064056E+01 -0.80364373750E+00 -0.80316160260E+00  0.24482553691E+01  0.17770000000E+01 0. -1.
</event>
<event>
 6    1  0.1378789E-002  0.1841331E+03  0.7546771E-02  0.1067162E+00
        -11   -1    0    0    0    0  0.00000000000E+00  0.00000000000E+00  0.18250000000E+03  0.18250000000E+03  0.00000000000E+00 0.  1.
         11   -1    0    0    0    0 -0.00000000000E+00 -0.00000000000E+00 -0.18250000000E+03  0.18250000000E+03  0.00000000000E+00 0.  1.
        -11    1    1    2    0    0 -0.74654767801E+01 -0.23363769429E+01  0.18069761433E+03  0.18086685662E+03  0.00000000000E+00 0.  1.
         11    1    1    2    0    0 -0.76275781235E+00 -0.33268297746E+01 -0.71744545140E+02  0.71825687280E+02  0.00000000000E+00 0.  1.
        -15    1    1    2    0    0  0.51652463770E+00  0.46713106123E+01 -0.10071793555E+03  0.10084318624E+03  0.17770000000E+01 0.  1.
         15    1    1    2    0    0  0.77117099547E+01  0.99189610522E+00 -0.82351336374E+01  0.11464269856E+02  0.17770000000E+01 0.  1.
</event>
<event>
 6    1  0.1378789E-002  0.1839681E+03  0.7546771E-02  0.1067292E+00
        -11   -1    0    0    0    0  0.00000000000E+00  0.00000000000E+00  0.18250000000E+03  0.18250000000E+03  0.00000000000E+00 0. -1.
         11   -1    0    0    0    0 -0.00000000000E+00 -0.00000000000E+00 -0.18250000000E+03  0.18250000000E+03  0.00000000000E+00 0. -1.
        -11    1    1    2    0    0  0.17914343697E+01  0.41909821266E+01  0.18097451483E+03  0.18103189936E+03  0.00000000000E+00 0. -1.
         11    1    1    2    0    0 -0.16303745670E+01 -0.44249546829E+01 -0.13917050540E+03  0.13925037853E+03  0.00000000000E+00 0. -1.
        -15    1    1    2    0    0  0.17865057204E+01  0.41051227480E+01 -0.38920900138E+02  0.39217825437E+02  0.17770000000E+01 0. -1.
         15    1    1    2    0    0 -0.19475655231E+01 -0.38711501917E+01 -0.28831092892E+01  0.54998966760E+01  0.17770000000E+01 0.  1.
</event>
<event>
 6    1  0.1378789E-002  0.1831371E+03  0.7546771E-02  0.1067949E+00
        -11   -1    0    0    0    0  0.00000000000E+00  0.00000000000E+00  0.18250000000E+03  0.18250000000E+03  0.00000000000E+00 0.  1.
         11   -1    0    0    0    0 -0.00000000000E+00 -0.00000000000E+00 -0.18250000000E+03  0.18250000000E+03  0.00000000000E+00 0.  1.
        -11    1    1    2    0    0 -0.36872714053E+01  0.14390670139E+01  0.69222504919E+02  0.69335575801E+02  0.00000000000E+00 0.  1.
         11    1    1    2    0    0  0.39636118214E+01  0.75299183027E+00 -0.18181811747E+03  0.18186287432E+03  0.00000000000E+00 0.  1.
        -15    1    1    2    0    0 -0.12078926636E+01 -0.71519572599E+00  0.11056316423E+03  0.11058635324E+03  0.17770000000E+01 0. -1.
         15    1    1    2    0    0  0.93155224750E+00 -0.14768631182E+01  0.20324483211E+01  0.32151966406E+01  0.17770000000E+01 0.  1.
</event>
<event>
 6    1  0.1378789E-002  0.1834979E+03  0.7546771E-02  0.1067663E+00
        -11   -1    0    0    0    0  0.00000000000E+00  0.00000000000E+00  0.18250000000E+03  0.18250000000E+03  0.00000000000E+00 0. -1.
         11   -1    0    0    0    0 -0.00000000000E+00 -0.00000000000E+00 -0.18250000000E+03  0.18250000000E+03  0.00000000000E+00 0.  1.
        -11    1    1    2    0    0 -0.21251657578E+01  0.12042481229E+01  0.16408070015E+03  0.16409888088E+03  0.00000000000E+00 0. -1.
         11    1    1    2    0    0 -0.81233678421E+00  0.48824287723E+01 -0.18143460097E+03  0.18150210035E+03  0.00000000000E+00 0.  1.
        -15    1    1    2    0    0  0.68514207608E+00 -0.10794633486E+00  0.54273877469E+01  0.57528548418E+01  0.17770000000E+01 0.  1.
         15    1    1    2    0    0  0.22523604659E+01 -0.59787305603E+01  0.11926513074E+02  0.13646163926E+02  0.17770000000E+01 0.  1.
</event>
<event>
 6    1  0.1378789E-002  0.1892221E+03  0.7546771E-02  0.1063226E+00
        -11   -1    0    0    0    0  0.00000000000E+00  0.00000000000E+00  0.18250000000E+03  0.18250000000E+03  0.00000000000E+00 0.  1.
         11   -1    0    0    0    0 -0.00000000000E+00 -0.00000000000E+00 -0.18250000000E+03  0.18250000000E+03  0.00000000000E+00 0.  1.
        -11    1    1    2    0    0 -0.48523566715E+01 -0.10888940385E+02  0.15946167441E+03  0.15990666026E+03  0.00000000000E+00 0.  1.
         11    1    1    2    0    0  0.31502910727E+01 -0.65148027469E+00 -0.17574843161E+03  0.17577787111E+03  0.00000000000E+00 0.  1.
        -15    1    1    2    0    0 -0.73180846797E+01  0.83477850252E+01  0.16030554794E+02  0.19579997299E+02  0.17770000000E+01 0.  1.
         15    1    1    2    0    0  0.90201502785E+01  0.31926356347E+01  0.25620240025E+00  0.97354713298E+01  0.17770000000E+01 0. -1.
</event>
<event>
 6    1  0.1378789E-002  0.1829182E+03  0.7546771E-02  0.1068122E+00
        -11   -1    0    0    0    0  0.00000000000E+00  0.00000000000E+00  0.18250000000E+03  0.18250000000E+03  0.00000000000E+00 0. -1.
         11   -1    0    0    0    0 -0.00000000000E+00 -0.00000000000E+00 -0.18250000000E+03  0.18250000000E+03  0.00000000000E+00 0.  1.
        -11    1    1    2    0    0 -0.72876636308E+00 -0.21053015880E+01  0.14487762958E+03  0.14489475818E+03  0.00000000000E+00 0. -1.
         11    1    1    2    0    0  0.24863951821E+01  0.24239566332E+00 -0.18206462567E+03  0.18208176416E+03  0.00000000000E+00 0.  1.
        -15    1    1    2    0    0 -0.10390626564E+01 -0.10824321584E+01  0.38225264009E+01  0.44744550134E+01  0.17770000000E+01 0. -1.
         15    1    1    2    0    0 -0.71856616263E+00  0.29453380831E+01  0.33364469698E+02  0.33549022653E+02  0.17770000000E+01 0.  1.
</event>
<event>
 6    1  0.1378789E-002  0.1826522E+03  0.7546771E-02  0.1068334E+00
        -11   -1    0    0    0    0  0.00000000000E+00  0.00000000000E+00  0.18250000000E+03  0.18250000000E+03  0.00000000000E+00 0.  1.
         11   -1    0    0    0    0 -0.00000000000E+00 -0.00000000000E+00 -0.18250000000E+03  0.18250000000E+03  0.00000000000E+00 0. -1.
        -11    1    1    2    0    0 -0.25177975735E+01 -0.15115699165E+01  0.18232415091E+03  0.18234779997E+03  0.00000000000E+00 0.  1.
         11    1    1    2    0    0  0.14051058338E+01  0.15982002890E+01 -0.14565655558E+03  0.14567210011E+03  0.00000000000E+00 0. -1.
        -15    1    1    2    0    0 -0.25732829649E+00 -0.48638091757E+00 -0.26263256124E+02  0.26329054967E+02  0.17770000000E+01 0.  1.
         15    1    1    2    0    0  0.13700200362E+01  0.39975054504E+00 -0.10404339207E+02  0.10651044959E+02  0.17770000000E+01 0. -1.
</event>
<event>
 6    1  0.1378789E-002  0.1832643E+03  0.7546771E-02  0.1067848E+00
        -11   -1    0    0    0    0  0.00000000000E+00  0.00000000000E+00  0.18250000000E+03  0.18250000000E+03  0.00000000000E+00 0. -1.
         11   -1    0    0    0    0 -0.00000000000E+00 -0.00000000000E+00 -0.18250000000E+03  0.18250000000E+03  0.00000000000E+00 0.  1.
        -11    1    1    2    0    0  0.59922636985E+00 -0.94210339231E+00  0.41927577000E+02  0.41942440846E+02  0.00000000000E+00 0. -1.
         11    1    1    2    0    0  0.18022390272E+01  0.49114915628E+01 -0.18166036340E+03  0.18173568292E+03  0.00000000000E+00 0.  1.
        -15    1    1    2    0    0  0.47230963178E+01 -0.19520178486E+01  0.12071496006E+03  0.12083615901E+03  0.17770000000E+01 0. -1.
         15    1    1    2    0    0 -0.71245617148E+01 -0.20173703218E+01  0.19017826340E+02  0.20485717227E+02  0.17770000000E+01 0.  1.
</event>
<event>
 6    1  0.1378789E-002  0.1828729E+03  0.7546771E-02  0.1068158E+00
        -11   -1    0    0    0    0  0.00000000000E+00  0.00000000000E+00  0.18250000000E+03  0.18250000000E+03  0.00000000000E+00 0.  1.
         11   -1    0    0    0    0 -0.00000000000E+00 -0.00000000000E+00 -0.18250000000E+03  0.18250000000E+03  0.00000000000E+00 0.  1.
        -11    1    1    2    0    0  0.73782022047E-01 -0.42818998679E+01  0.18207670933E+03  0.18212706605E+03  0.00000000000E+00 0.  1.
         11    1    1    2    0    0  0.90897243046E+00 -0.12392997908E+01 -0.96812066423E+02  0.96824265037E+02  0.00000000000E+00 0.  1.
        -15    1    1    2    0    0 -0.15737870837E+01 -0.13465257804E+01 -0.49907571963E+02  0.49982130864E+02  0.17770000000E+01 0. -1.
         15    1    1    2    0    0  0.59103263120E+00  0.68677254390E+01 -0.35357070939E+02  0.36066538046E+02  0.17770000000E+01 0. -1.
</event>
<event>
 6    1  0.1378789E-002  0.1825824E+03  0.7546771E-02  0.1068389E+00
        -11   -1    0    0    0    0  0.00000000000E+00  0.00000000000E+00  0.18250000000E+03  0.18250000000E+03  0.00000000000E+00 0. -1.
         11   -1    0    0    0    0 -0.00000000000E+00 -0.00000000000E+00 -0.18250000000E+03  0.18250000000E+03  0.00000000000E+00 0. -1.
        -11    1    1    2    0    0 -0.15951197919E+01  0.14128966681E+00  0.65027779622E+02  0.65047494130E+02  0.00000000000E+00 0. -1.
         11    1    1    2    0    0  0.26560959843E+01 -0.23867434415E+01 -0.18238263455E+03  0.18241758899E+03  0.00000000000E+00 0. -1.
        -15    1    1    2    0    0  0.56071407146E+00  0.15436231331E+01  0.96456181241E+02  0.96486526527E+02  0.17770000000E+01 0. -1.
         15    1    1    2    0    0 -0.16216902638E+01  0.70183064151E+00  0.20898673684E+02  0.21048390349E+02  0.17770000000E+01 0.  1.
</event>
<event>
 6    1  0.1378789E-002  0.1899600E+03  0.7546771E-02  0.1062667E+00
        -11   -1    0    0    0    0  0.00000000000E+00  0.00000000000E+00  0.18250000000E+03  0.18250000000E+03  0.00000000000E+00 0.  1.
         11   -1    0    0    0    0 -0.00000000000E+00 -0.00000000000E+00 -0.18250000000E+03  0.18250000000E+03  0.00000000000E+00 0. -1.
        -11    1    1    2    0    0  0.38261040697E+01  0.10233002343E+02  0.17469874325E+03  0.17504000772E+03  0.00000000000E+00 0.  1.
         11    1    1    2    0    0  0.16734945612E+01  0.29469562276E+01 -0.15236699524E+03  0.15240467963E+03  0.00000000000E+00 0. -1.
        -15    1    1    2    0    0 -0.44798826217E+01  0.27395222351E+01  0.39171406920E+01  0.67879341910E+01  0.17770000000E+01 0. -1.
         15    1    1    2    0    0 -0.10197160091E+01 -0.15919480806E+02 -0.26248888705E+02  0.30767378457E+02  0.17770000000E+01 0.  1.
</event>
<event>
 6    1  0.1378789E-002  0.1940920E+03  0.7546771E-02  0.1059585E+00
        -11   -1    0    0    0    0  0.00000000000E+00  0.00000000000E+00  0.18250000000E+03  0.18250000000E+03  0.00000000000E+00 0.  1.
         11   -1    0    0    0    0 -0.00000000000E+00 -0.00000000000E+00 -0.18250000000E+03  0.18250000000E+03  0.00000000000E+00 0. -1.
        -11    1    1    2    0    0  0.21074990296E+01  0.15915807073E+01  0.16324148053E+03  0.16326284221E+03  0.00000000000E+00 0.  1.
         11    1    1    2    0    0 -0.28398419809E+01 -0.23331145079E+01 -0.17086849425E+03  0.17090801752E+03  0.00000000000E+00 0. -1.
        -15    1    1    2    0    0  0.97021956909E+01 -0.85124777630E+01 -0.37378743375E+01  0.13554494179E+02  0.17770000000E+01 0.  1.
         15    1    1    2    0    0 -0.89698527396E+01  0.92540115636E+01  0.11364888058E+02  0.17274646097E+02  0.17770000000E+01 0. -1.
</event>
<event>
 6    1  0.1378789E-002  0.1445824E+03  0.7546771E-02  0.1103419E+00
        -11   -1    0    0    0    0  0.00000000000E+00  0.00000000000E+00  0.18250000000E+03  0.18250000000E+03  0.00000000000E+00 0. -1.
         11   -1    0    0    0    0 -0.00000000000E+00 -0.00000000000E+00 -0.18250000000E+03  0.18250000000E+03  0.00000000000E+00 0.  1.
        -11    1    1    2    0    0  0.76058314926E+01 -0.15216628731E+02  0.11135958707E+03  0.11265146290E+03  0.00000000000E+00 0. -1.
         11    1    1    2    0    0 -0.24753148816E+02 -0.20536752972E+02 -0.12173409375E+03  0.12591134254E+03  0.00000000000E+00 0.  1.
        -15    1    1    2    0    0  0.11694824836E+02 -0.38322814182E+02  0.29416172075E+02  0.49738073177E+02  0.17770000000E+01 0.  1.
         15    1    1    2    0    0  0.54524924870E+01  0.74076195886E+02 -0.19041665396E+02  0.76699121385E+02  0.17770000000E+01 0. -1.
</event>
<event>
 6    1  0.1378789E-002  0.1830004E+03  0.7546771E-02  0.1068057E+00
        -11   -1    0    0    0    0  0.00000000000E+00  0.00000000000E+00  0.18250000000E+03  0.18250000000E+03  0.00000000000E+00 0.  1.
         11   -1    0    0    0    0 -0.00000000000E+00 -0.00000000000E+00 -0.18250000000E+03  0.18250000000E+03  0.00000000000E+00 0.  1.
        -11    1    1    2    0    0  0.19320795175E+01  0.49472871475E+00  0.10466127588E+03  0.10468027683E+03  0.00000000000E+00 0.  1.
         11    1    1    2    0    0 -0.35646007488E+00  0.43352226794E+01 -0.18194763437E+03  0.18199962327E+03  0.00000000000E+00 0.  1.
        -15    1    1    2    0    0 -0.54308877973E+00  0.10609641176E+01  0.58211180221E+02  0.58250492032E+02  0.17770000000E+01 0.  1.
         15    1    1    2    0    0 -0.10325306629E+01 -0.58909155118E+01  0.19075178267E+02  0.20069607870E+02  0.17770000000E+01 0.  1.
</event>
<event>
 6    1  0.1378789E-002  0.1827156E+03  0.7546771E-02  0.1068283E+00
        -11   -1    0    0    0    0  0.00000000000E+00  0.00000000000E+00  0.18250000000E+03  0.18250000000E+03  0.00000000000E+00 0. -1.
         11   -1    0    0    0    0 -0.00000000000E+00 -0.00000000000E+00 -0.18250000000E+03  0.18250000000E+03  0.00000000000E+00 0. -1.
        -11    1    1    2    0    0  0.21415106775E+01 -0.93729600751E+00  0.13469101351E+03  0.13471129764E+03  0.00000000000E+00 0. -1.
         11    1    1    2    0    0 -0.11726515420E+01  0.23228453903E+01 -0.18226583339E+03  0.18228440620E+03  0.00000000000E+00 0. -1.
        -15    1    1    2    0    0  0.12386012518E+01 -0.16094095864E+01  0.35370427264E+02  0.35473217871E+02  0.17770000000E+01 0.  1.
         15    1    1    2    0    0 -0.22074603873E+01  0.22386020368E+00  0.12204392625E+02  0.12531078289E+02  0.17770000000E+01 0. -1.
</event>
<event>
 6    1  0.1378789E-002  0.1903793E+03  0.7546771E-02  0.1062350E+00
        -11   -1    0    0    0    0  0.00000000000E+00  0.00000000000E+00  0.18250000000E+03  0.18250000000E+03  0.00000000000E+00 0.  1.
         11   -1    0    0    0    0 -0.00000000000E+00 -0.00000000000E+00 -0.18250000000E+03  0.18250000000E+03  0.00000000000E+00 0. -1.
        -11    1    1    2    0    0  0.27288176894E+01  0.26614213148E+01  0.16917402985E+03  0.16921696719E+03  0.00000000000E+00 0.  1.
         11    1    1    2    0    0 -0.28668232462E+00  0.27784411932E+01 -0.17459832210E+03  0.17462066316E+03  0.00000000000E+00 0. -1.
        -15    1    1    2    0    0 -0.35338569581E+01 -0.68024370615E+01 -0.57294919743E+01  0.97337609515E+01  0.17770000000E+01 0. -1.
         15    1    1    2    0    0  0.10917215934E+01  0.13625745535E+01  0.11153784220E+02  0.11428608703E+02  0.17770000000E+01 0. -1.
</event>
<event>
 6    1  0.1378789E-002  0.1829836E+03  0.7546771E-02  0.1068071E+00
        -11   -1    0    0    0    0  0.00000000000E+00  0.00000000000E+00  0.18250000000E+03  0.18250000000E+03  0.00000000000E+00 0. -1.
         11   -1    0    0    0    0 -0.00000000000E+00 -0.00000000000E+00 -0.18250000000E+03  0.18250000000E+03  0.00000000000E+00 0. -1.
        -11    1    1    2    0    0  0.14603617079E+01 -0.28546328150E+01  0.18198817032E+03  0.18201641607E+03  0.00000000000E+00 0. -1.
         11    1    1    2    0    0  0.11938199130E+01  0.14939328740E+01 -0.12730856875E+03  0.12732293084E+03  0.00000000000E+00 0. -1.
        -15    1    1    2    0    0  0.18896449071E+01  0.28966449503E+01 -0.10699870712E+02  0.11384475047E+02  0.17770000000E+01 0.  1.
         15    1    1    2    0    0 -0.45438265280E+01 -0.15359450093E+01 -0.43979730854E+02  0.44276178037E+02  0.17770000000E+01 0. -1.
</event>
<event>
 6    1  0.1378789E-002  0.1865142E+03  0.7546771E-02  0.1065304E+00
        -11   -1    0    0    0    0  0.00000000000E+00  0.00000000000E+00  0.18250000000E+03  0.18250000000E+03  0.00000000000E+00 0.  1.
         11   -1    0    0    0    0 -0.00000000000E+00 -0.00000000000E+00 -0.18250000000E+03  0.18250000000E+03  0.00000000000E+00 0. -1.
        -11    1    1    2    0    0  0.12909094792E+01  0.15719005609E+01  0.14507357768E+03  0.14508783636E+03  0.00000000000E+00 0.  1.
         11    1    1    2    0    0  0.35964174478E+01 -0.87398541436E+01 -0.17823541098E+03  0.17848580055E+03  0.00000000000E+00 0. -1.
        -15    1    1    2    0    0 -0.12240736044E+01 -0.17749246812E+01  0.31301203269E+02  0.31425654630E+02  0.17770000000E+01 0. -1.
         15    1    1    2    0    0 -0.36632533226E+01  0.89428782639E+01  0.18606300328E+01  0.10000708458E+02  0.17770000000E+01 0. -1.
</event>
<event>
 6    1  0.1378789E-002  0.1846397E+03  0.7546771E-02  0.1066764E+00
        -11   -1    0    0    0    0  0.00000000000E+00  0.00000000000E+00  0.18250000000E+03  0.18250000000E+03  0.00000000000E+00 0. -1.
         11   -1    0    0    0    0 -0.00000000000E+00 -0.00000000000E+00 -0.18250000000E+03  0.18250000000E+03  0.00000000000E+00 0.  1.
        -11    1    1    2    0    0  0.71443868412E+01  0.68553480207E+01  0.14059767122E+03  0.14094588753E+03  0.00000000000E+00 0. -1.
         11    1    1    2    0    0  0.23021577012E+01  0.87295274413E+00 -0.18034353781E+03  0.18036034378E+03  0.00000000000E+00 0.  1.
        -15    1    1    2    0    0 -0.94829450827E+01 -0.36238562651E+01  0.13065165175E+02  0.16640758749E+02  0.17770000000E+01 0.  1.
         15    1    1    2    0    0  0.36400540324E-01 -0.41044444998E+01  0.26680701420E+02  0.27053009942E+02  0.17770000000E+01 0. -1.
</event>
<event>
 6    1  0.1378789E-002  0.1840018E+03  0.7546771E-02  0.1067266E+00
        -11   -1    0    0    0    0  0.00000000000E+00  0.00000000000E+00  0.18250000000E+03  0.18250000000E+03  0.00000000000E+00 0.  1.
         11   -1    0    0    0    0 -0.00000000000E+00 -0.00000000000E+00 -0.18250000000E+03  0.18250000000E+03  0.00000000000E+00 0.  1.
        -11    1    1    2    0    0 -0.84442678827E+01 -0.12611987848E+01  0.18079669464E+03  0.18099817975E+03  0.00000000000E+00 0.  1.
         11    1    1    2    0    0 -0.77924495178E+01 -0.20487367818E+01 -0.87601686857E+02  0.87971444982E+02  0.00000000000E+00 0.  1.
        -15    1    1    2    0    0  0.92654227543E+01  0.52254619559E+01 -0.22572852582E+02  0.25016892576E+02  0.17770000000E+01 0.  1.
         15    1    1    2    0    0  0.69712946462E+01 -0.19155263894E+01 -0.70622155196E+02  0.71013482691E+02  0.17770000000E+01 0. -1.
</event>
<event>
 6    1  0.1378789E-002  0.1832853E+03  0.7546771E-02  0.1067831E+00
        -11   -1    0    0    0    0  0.00000000000E+00  0.00000000000E+00  0.18250000000E+03  0.18250000000E+03  0.00000000000E+00 0. -1.
         11   -1    0    0    0    0 -0.00000000000E+00 -0.00000000000E+00 -0.18250000000E+03  0.18250000000E+03  0.00000000000E+00 0. -1.
        -11    1    1    2    0    0 -0.25152138540E+01 -0.84990522065E+00  0.16130704305E+03  0.16132889009E+03  0.00000000000E+00 0. -1.
         11    1    1    2    0    0 -0.45472851096E+01  0.13865089979E+01 -0.18165251628E+03  0.18171471288E+03  0.00000000000E+00 0. -1.
        -15    1    1    2    0    0  0.52869219401E+01 -0.16145188668E+00  0.15697219701E+02  0.16659473150E+02  0.17770000000E+01 0. -1.
         15    1    1    2    0    0  0.17755770235E+01 -0.37515189057E+00  0.46482535242E+01  0.52969238745E+01  0.17770000000E+01 0.  1.
</event>
<event>
 6    1  0.1378789E-002  0.1849852E+03  0.7546771E-02  0.1066494E+00
        -11   -1    0    0    0    0  0.00000000000E+00  0.00000000000E+00  0.18250000000E+03  0.18250000000E+03  0.00000000000E+00 0.  1.
         11   -1    0    0    0    0 -0.00000000000E+00 -0.00000000000E+00 -0.18250000000E+03  0.18250000000E+03  0.00000000000E+00 0. -1.
        -11    1    1    2    0    0  0.26447159861E+01  0.76389239422E+01  0.15108895080E+03  0.15130505191E+03  0.00000000000E+00 0.  1.
         11    1    1    2    0    0 -0.51379274044E+00 -0.23947968451E+01 -0.17999809600E+03  0.18001475939E+03  0.00000000000E+00 0. -1.
        -15    1    1    2    0    0  0.14863657322E+01 -0.89589873280E+01  0.85597507585E+01  0.12605546362E+02  0.17770000000E+01 0. -1.
         15    1    1    2    0    0 -0.36172889778E+01  0.37148602309E+01  0.20349394447E+02  0.21074642333E+02  0.17770000000E+01 0.  1.
</event>
<event>
 6    1  0.1378789E-002  0.1886392E+03  0.7546771E-02  0.1063670E+00
        -11   -1    0    0    0    0  0.00000000000E+00  0.00000000000E+00  0.18250000000E+03  0.18250000000E+03  0.00000000000E+00 0.  1.
         11   -1    0    0    0    0 -0.00000000000E+00 -0.00000000000E+00 -0.18250000000E+03  0.18250000000E+03  0.00000000000E+00 0. -1.
        -11    1    1    2    0    0  0.76001404339E+01  0.99367705866E+01  0.17591653846E+03  0.17636079510E+03  0.00000000000E+00 0.  1.
         11    1    1    2    0    0 -0.18645172894E+01  0.26784322915E+01 -0.15370480956E+03  0.15373945137E+03  0.00000000000E+00 0. -1.
        -15    1    1    2    0    0 -0.89692801016E+01 -0.47541594861E+00 -0.20032644022E+02  0.22025861194E+02  0.17770000000E+01 0. -1.
         15    1    1    2    0    0  0.32336569571E+01 -0.12139786930E+02 -0.21790848750E+01  0.12873892337E+02  0.17770000000E+01 0.  1.
</event>
<event>
 6    1  0.1378789E-002  0.1856821E+03  0.7546771E-02  0.1065950E+00
        -11   -1    0    0    0    0  0.00000000000E+00  0.00000000000E+00  0.18250000000E+03  0.18250000000E+03  0.00000000000E+00 0. -1.
         11   -1    0    0    0    0 -0.00000000000E+00 -0.00000000000E+00 -0.18250000000E+03  0.18250000000E+03  0.00000000000E+00 0.  1.
        -11    1    1    2    0    0 -0.41809887941E+01  0.73175013081E+01  0.12045489717E+03  0.12074936333E+03  0.00000000000E+00 0. -1.
         11    1    1    2    0    0  0.59359574709E+01  0.13029331533E+01 -0.17921484674E+03  0.17931785890E+03  0.00000000000E+00 0.  1.
        -15    1    1    2    0    0 -0.32730565473E+01  0.11096791630E+01 -0.12592680277E+01  0.40850669483E+01  0.17770000000E+01 0.  1.
         15    1    1    2    0    0  0.15180878706E+01 -0.97301136243E+01  0.60019217602E+02  0.60847710823E+02  0.17770000000E+01 0. -1.
</event>
<event>
 6    1  0.1378789E-002  0.1830628E+03  0.7546771E-02  0.1068008E+00
        -11   -1    0    0    0    0  0.00000000000E+00  0.00000000000E+00  0.18250000000E+03  0.18250000000E+03  0.00000000000E+00 0. -1.
         11   -1    0    0    0    0 -0.00000000000E+00 -0.00000000000E+00 -0.18250000000E+03  0.18250000000E+03  0.00000000000E+00 0.  1.
        -11    1    1    2    0    0 -0.26691534300E+00  0.21930347043E+01  0.14510721428E+03  0.14512403068E+03  0.00000000000E+00 0. -1.
         11    1    1    2    0    0 -0.25688996054E+01  0.14942591678E+01 -0.18191291973E+03  0.18193719362E+03  0.00000000000E+00 0.  1.
        -15    1    1    2    0    0 -0.13594041271E+01  0.32538527226E+00  0.18835639045E+02  0.18970842954E+02  0.17770000000E+01 0.  1.
         15    1    1    2    0    0  0.41952190756E+01 -0.40126791443E+01  0.17970066408E+02  0.18967932747E+02  0.17770000000E+01 0.  1.
</event>
<event>
 6    1  0.1378789E-002  0.1852789E+03  0.7546771E-02  0.1066264E+00
        -11   -1    0    0    0    0  0.00000000000E+00  0.00000000000E+00  0.18250000000E+03  0.18250000000E+03  0.00000000000E+00 0. -1.
         11   -1    0    0    0    0 -0.00000000000E+00 -0.00000000000E+00 -0.18250000000E+03  0.18250000000E+03  0.00000000000E+00 0. -1.
        -11    1    1    2    0    0 -0.27141989795E+01  0.22765552365E+00  0.17970049739E+03  0.17972113806E+03  0.00000000000E+00 0. -1.
         11    1    1    2    0    0 -0.12799194594E+00  0.29836491966E+01 -0.16257133864E+03  0.16259876596E+03  0.00000000000E+00 0. -1.
        -15    1    1    2    0    0  0.77813362661E+00 -0.11695574358E+01  0.21378418987E+01  0.31147156404E+01  0.17770000000E+01 0. -1.
         15    1    1    2    0    0  0.20640572988E+01 -0.20417472844E+01 -0.19267000658E+02  0.19565380340E+02  0.17770000000E+01 0.  1.
</event>
<event>
 6    1  0.1378789E-002  0.1858974E+03  0.7546771E-02  0.1065782E+00
        -11   -1    0    0    0    0  0.00000000000E+00  0.00000000000E+00  0.18250000000E+03  0.18250000000E+03  0.00000000000E+00 0.  1.
         11   -1    0    0    0    0 -0.00000000000E+00 -0.00000000000E+00 -0.18250000000E+03  0.18250000000E+03  0.00000000000E+00 0.  1.
        -11    1    1    2    0    0  0.46946621990E+01 -0.16911551574E+01  0.17903310535E+03  0.17910263167E+03  0.00000000000E+00 0.  1.
         11    1    1    2    0    0  0.17437614137E+01  0.59024587764E+00 -0.85166081145E+02  0.85185975792E+02  0.00000000000E+00 0.  1.
        -15    1    1    2    0    0 -0.64532250978E+01 -0.25631152172E+01 -0.42425307080E+00  0.71799299055E+01  0.17770000000E+01 0.  1.
         15    1    1    2    0    0  0.14801485098E-01  0.36640244969E+01 -0.93442771139E+02  0.93531462630E+02  0.17770000000E+01 0. -1.
</event>
<event>
 6    1  0.1378789E-002  0.1763631E+03  0.7546771E-02  0.1073448E+00
        -11   -1    0    0    0    0  0.00000000000E+00  0.00000000000E+00  0.18250000000E+03  0.18250000000E+03  0.00000000000E+00 0. -1.
         11   -1    0    0    0    0 -0.00000000000E+00 -0.00000000000E+00 -0.18250000000E+03  0.18250000000E+03  0.00000000000E+00 0. -1.
        -11    1    1    2    0    0 -0.51298479975E+00 -0.28751007319E+01  0.17681857747E+03  0.17684269478E+03  0.00000000000E+00 0. -1.
         11    1    1    2    0    0 -0.25514769660E+01  0.64390824628E+00 -0.17588534178E+03  0.17590502581E+03  0.00000000000E+00 0. -1.
        -15    1    1    2    0    0 -0.14600767888E+01  0.18305352563E+01  0.42290339053E+01  0.51502563359E+01  0.17770000000E+01 0. -1.
         15    1    1    2    0    0  0.45245385545E+01  0.40065722933E+00 -0.51622695992E+01  0.71020230752E+01  0.17770000000E+01 0.  1.
</event>
<event>
 6    1  0.1378789E-002  0.2132541E+03  0.7546771E-02  0.1046310E+00
        -11   -1    0    0    0    0  0.00000000000E+00  0.00000000000E+00  0.18250000000E+03  0.18250000000E+03  0.00000000000E+00 0. -1.
         11   -1    0    0    0    0 -0.00000000000E+00 -0.00000000000E+00 -0.18250000000E+03  0.18250000000E+03  0.00000000000E+00 0.  1.
        -11    1    1    2    0    0  0.24221467659E+01 -0.10161648422E+00  0.15172649574E+03  0.15174586198E+03  0.00000000000E+00 0. -1.
         11    1    1    2    0    0 -0.32075546234E+01  0.11577041274E+02 -0.13409923445E+03  0.13463625430E+03  0.00000000000E+00 0.  1.
        -15    1    1    2    0    0 -0.20268835729E+02 -0.18157041363E+01  0.23650609741E+02  0.31251104835E+02  0.17770000000E+01 0. -1.
         15    1    1    2    0    0  0.21054243586E+02 -0.96597206535E+01 -0.41277871027E+02  0.47366778881E+02  0.17770000000E+01 0.  1.
</event>
<event>
 6    1  0.1378789E-002  0.2198597E+03  0.7546771E-02  0.1042081E+00
        -11   -1    0    0    0    0  0.00000000000E+00  0.00000000000E+00  0.18250000000E+03  0.18250000000E+03  0.00000000000E+00 0. -1.
         11   -1    0    0    0    0 -0.00000000000E+00 -0.00000000000E+00 -0.18250000000E+03  0.18250000000E+03  0.00000000000E+00 0. -1.
        -11    1    1    2    0    0 -0.49983816732E+01  0.12485198127E+02  0.91852576644E+02  0.92831890144E+02  0.00000000000E+00 0. -1.
         11    1    1    2    0    0  0.75698063247E+01 -0.71857949365E+01 -0.14476453101E+03  0.14514030128E+03  0.00000000000E+00 0. -1.
        -15    1    1    2    0    0  0.79732956071E+01 -0.99809071432E+01  0.88571804389E+02  0.89505945121E+02  0.17770000000E+01 0. -1.
         15    1    1    2    0    0 -0.10544720259E+02  0.46815039525E+01 -0.35659850018E+02  0.37521863452E+02  0.17770000000E+01 0. -1.
</event>
<event>
 6    1  0.1378789E-002  0.1924108E+03  0.7546771E-02  0.1060829E+00
        -11   -1    0    0    0    0  0.00000000000E+00  0.00000000000E+00  0.18250000000E+03  0.18250000000E+03  0.00000000000E+00 0. -1.
         11   -1    0    0    0    0 -0.00000000000E+00 -0.00000000000E+00 -0.18250000000E+03  0.18250000000E+03  0.00000000000E+00 0. -1.
        -11    1    1    2    0    0  0.18233910861E+01 -0.11463985357E+01  0.12261281602E+03  0.12263173177E+03  0.00000000000E+00 0. -1.
         11    1    1    2    0    0 -0.44019182643E+01  0.87566922262E+01 -0.17231067616E+03  0.17258918177E+03  0.00000000000E+00 0. -1.
        -15    1    1    2    0    0  0.22781117666E+02  0.68425809458E+01  0.20973933990E+02  0.31762617526E+02  0.17770000000E+01 0.  1.
         15    1    1    2    0    0 -0.20202590487E+02 -0.14452874636E+02  0.28723926151E+02  0.38016468934E+02  0.17770000000E+01 0. -1.
</event>
<event>
 6    1  0.1378789E-002  0.1856512E+03  0.7546771E-02  0.1065974E+00
        -11   -1    0    0    0    0  0.00000000000E+00  0.00000000000E+00  0.18250000000E+03  0.18250000000E+03  0.00000000000E+00 0. -1.
         11   -1    0    0    0    0 -0.00000000000E+00 -0.00000000000E+00 -0.18250000000E+03  0.18250000000E+03  0.00000000000E+00 0. -1.
        -11    1    1    2    0    0 -0.72987923629E+01 -0.26298595993E+00  0.17920004217E+03  0.17934881278E+03  0.00000000000E+00 0. -1.
         11    1    1    2    0    0 -0.24398081121E+01  0.36386095783E+01 -0.15977197651E+03  0.15983202627E+03  0.00000000000E+00 0. -1.
        -15    1    1    2    0    0  0.97581061223E+01 -0.12129455737E+01 -0.50971257354E+01  0.11217410210E+02  0.17770000000E+01 0.  1.
         15    1    1    2    0    0 -0.19505647332E-01 -0.21626780447E+01 -0.14330939922E+02  0.14601750746E+02  0.17770000000E+01 0. -1.
</event>
<event>
 6    1  0.1378789E-002  0.1152450E+03  0.7546771E-02  0.1139788E+00
        -11   -1    0    0    0    0  0.00000000000E+00  0.00000000000E+00  0.18250000000E+03  0.18250000000E+03  0.00000000000E+00 0.  1.
         11   -1    0    0    0    0 -0.00000000000E+00 -0.00000000000E+00 -0.18250000000E+03  0.18250000000E+03  0.00000000000E+00 0.  1.
        -11    1    1    2    0    0  0.16750940059E+02 -0.36022425481E+01  0.12382398255E+03  0.12500379514E+03  0.00000000000E+00 0.  1.
         11    1    1    2    0    0 -0.15378619330E+01  0.13997273337E+01 -0.74340288111E+02  0.74369366626E+02  0.00000000000E+00 0.  1.
        -15    1    1    2    0    0  0.49413615398E+01 -0.23264805627E+02  0.52992693080E+02  0.58112403871E+02  0.17770000000E+01 0. -1.
         15    1    1    2    0    0 -0.20154439666E+02  0.25467320841E+02 -0.10247638752E+03  0.10751443437E+03  0.17770000000E+01 0.  1.
</event>
<event>
 6    1  0.1378789E-002  0.1840519E+03  0.7546771E-02  0.1067226E+00
        -11   -1    0    0    0    0  0.00000000000E+00  0.00000000000E+00  0.18250000000E+03  0.18250000000E+03  0.00000000000E+00 0. -1.
         11   -1    0    0    0    0 -0.00000000000E+00 -0.00000000000E+00 -0.18250000000E+03  0.18250000000E+03  0.00000000000E+00 0.  1.
        -11    1    1    2    0    0  0.12459625745E+02  0.40436459208E+00  0.18051811834E+03  0.18094805010E+03  0.00000000000E+00 0. -1.
         11    1    1    2    0    0 -0.43010097418E-01 -0.59207010429E+01 -0.10912343584E+03  0.10928394576E+03  0.00000000000E+00 0.  1.
        -15    1    1    2    0    0  0.18585856645E+01  0.34158342286E+01 -0.39327969056E+02  0.39559690889E+02  0.17770000000E+01 0.  1.
         15    1    1    2    0    0 -0.14275201312E+02  0.21005022222E+01 -0.32066713441E+02  0.35208313251E+02  0.17770000000E+01 0.  1.
</event>
<event>
 6    1  0.1378789E-002  0.1842165E+03  0.7546771E-02  0.1067097E+00
        -11   -1    0    0    0    0  0.00000000000E+00  0.00000000000E+00  0.18250000000E+03  0.18250000000E+03  0.00000000000E+00 0.  1.
         11   -1    0    0    0    0 -0.00000000000E+00 -0.00000000000E+00 -0.18250000000E+03  0.18250000000E+03  0.00000000000E+00 0.  1.
        -11    1    1    2    0    0 -0.59792704550E+01 -0.76064474187E+00  0.18068302369E+03  0.18078353162E+03  0.00000000000E+00 0.  1.
         11    1    1    2    0    0 -0.10024441288E+01  0.32171948640E+01 -0.16461608869E+03  0.16465057513E+03  0.00000000000E+00 0.  1.
        -15    1    1    2    0    0  0.33733529601E+01  0.25853963371E+01 -0.53725321544E+01  0.70771191288E+01  0.17770000000E+01 0. -1.
         15    1    1    2    0    0  0.36083616236E+01 -0.50419464592E+01 -0.10694402848E+02  0.12488774119E+02  0.17770000000E+01 0.  1.
</event>
<event>
 6    1  0.1378789E-002  0.1876900E+03  0.7546771E-02  0.1064397E+00
        -11   -1    0    0    0    0  0.00000000000E+00  0.00000000000E+00  0.18250000000E+03  0.18250000000E+03  0.00000000000E+00 0.  1.
         11   -1    0    0    0    0 -0.00000000000E+00 -0.00000000000E+00 -0.18250000000E+03  0.18250000000E+03  0.00000000000E+00 0.  1.
        -11    1    1    2    0    0  0.93695801836E+01 -0.12756725146E+02  0.17660214766E+03  0.17731001558E+03  0.00000000000E+00 0.  1.
         11    1    1    2    0    0  0.71518703510E+01  0.96774529990E+01 -0.14805885454E+03  0.14854705232E+03  0.00000000000E+00 0.  1.
        -15    1    1    2    0    0 -0.11762053171E+02  0.11540433490E+02 -0.14778024091E+02  0.22205297228E+02  0.17770000000E+01 0.  1.
         15    1    1    2    0    0 -0.47593973631E+01 -0.84611613428E+01 -0.13765269030E+02  0.16937634870E+02  0.17770000000E+01 0. -1.
</event>
<event>
 6    1  0.1378789E-002  0.1830068E+03  0.7546771E-02  0.1068052E+00
        -11   -1    0    0    0    0  0.00000000000E+00  0.00000000000E+00  0.18250000000E+03  0.18250000000E+03  0.00000000000E+00 0. -1.
         11   -1    0    0    0    0 -0.00000000000E+00 -0.00000000000E+00 -0.18250000000E+03  0.18250000000E+03  0.00000000000E+00 0. -1.
        -11    1    1    2    0    0 -0.82252835308E+00  0.26022602289E+01  0.13553319821E+03  0.13556067324E+03  0.00000000000E+00 0. -1.
         11    1    1    2    0    0 -0.33301794888E+01 -0.45010579955E+01 -0.18190707423E+03  0.18199322315E+03  0.00000000000E+00 0. -1.
        -15    1    1    2    0    0  0.18387578723E+01 -0.20531343671E+01  0.65976678642E+01  0.73677229514E+01  0.17770000000E+01 0. -1.
         15    1    1    2    0    0  0.23139499696E+01  0.39519321337E+01  0.39776208151E+02  0.40078380655E+02  0.17770000000E+01 0.  1.
</event>
<event>
 6    1  0.1378789E-002  0.1833664E+03  0.7546771E-02  0.1067767E+00
        -11   -1    0    0    0    0  0.00000000000E+00  0.00000000000E+00  0.18250000000E+03  0.18250000000E+03  0.00000000000E+00 0.  1.
         11   -1    0    0    0    0 -0.00000000000E+00 -0.00000000000E+00 -0.18250000000E+03  0.18250000000E+03  0.00000000000E+00 0. -1.
        -11    1    1    2    0    0 -0.38913680285E+01 -0.22421305214E+00  0.18159181209E+03  0.18163364015E+03  0.00000000000E+00 0.  1.
         11    1    1    2    0    0  0.20623833798E+01 -0.92433579380E+00 -0.56785587268E+02  0.56830544105E+02  0.00000000000E+00 0. -1.
        -15    1    1    2    0    0 -0.26187319245E+01  0.94582583210E+00 -0.11882347849E+03  0.11886937837E+03  0.17770000000E+01 0. -1.
         15    1    1    2    0    0  0.44477165732E+01  0.20272301385E+00 -0.59827463291E+01  0.76664373717E+01  0.17770000000E+01 0. -1.
</event>
<event>
 6    1  0.1378789E-002  0.1828829E+03  0.7546771E-02  0.1068150E+00
        -11   -1    0    0    0    0  0.00000000000E+00  0.00000000000E+00  0.18250000000E+03  0.18250000000E+03  0.00000000000E+00 0.  1.
         11   -1    0    0    0    0 -0.00000000000E+00 -0.00000000000E+00 -0.18250000000E+03  0.18250000000E+03  0.00000000000E+00 0.  1.
        -11    1    1    2    0    0 -0.81048308127E+00  0.86732161136E+00  0.80952198238E+02  0.80960901238E+02  0.00000000000E+00 0.  1.
         11    1    1    2    0    0 -0.31125554945E+01 -0.29305055161E+01 -0.18206694514E+03  0.18211712818E+03  0.00000000000E+00 0.  1.
        -15    1    1    2    0    0 -0.85747976628E+00  0.38254232734E+01  0.14154786252E+02  0.14794757099E+02  0.17770000000E+01 0. -1.
         15    1    1    2    0    0  0.47805183420E+01 -0.17622393686E+01  0.86959960652E+02  0.87127213480E+02  0.17770000000E+01 0.  1.
</event>
<event>
 6    1  0.1378789E-002  0.1903410E+03  0.7546771E-02  0.1062379E+00
        -11   -1    0    0    0    0  0.00000000000E+00  0.00000000000E+00  0.18250000000E+03  0.18250000000E+03  0.00000000000E+00 0.  1.
         11   -1    0    0    0    0 -0.00000000000E+00 -0.00000000000E+00 -0.18250000000E+03  0.18250000000E+03  0.00000000000E+00 0. -1.
        -11    1    1    2    0    0 -0.15019395656E+01  0.32743317730E+01  0.17462182809E+03  0.17465898178E+03  0.00000000000E+00 0.  1.
         11    1    1    2    0    0  0.33732180022E+01  0.48211570418E+00 -0.16033010054E+03  0.16036630624E+03  0.00000000000E+00 0. -1.
        -15    1    1    2    0    0  0.60504140260E+01 -0.11745347999E+02 -0.24687687612E+01  0.13557774806E+02  0.17770000000E+01 0. -1.
         15    1    1    2    0    0 -0.79216924626E+01  0.79889005214E+01 -0.11822958782E+02  0.16416937180E+02  0.17770000000E+01 0.  1.
</event>
<event>
 6    1  0.1378789E-002  0.1843045E+03  0.7546771E-02  0.1067027E+00
        -11   -1    0    0    0    0  0.00000000000E+00  0.00000000000E+00  0.18250000000E+03  0.18250000000E+03  0.00000000000E+00 0.  1.
         11   -1    0    0    0    0 -0.00000000000E+00 -0.00000000000E+00 -0.18250000000E+03  0.18250000000E+03  0.00000000000E+00 0.  1.
        -11    1    1    2    0    0 -0.23438896893E-01  0.25805901659E+01  0.18067710370E+03  0.18069553342E+03  0.00000000000E+00 0.  1.
         11    1    1    2    0    0 -0.78311668349E+00 -0.24752202248E+01 -0.17318887218E+03  0.17320832958E+03  0.00000000000E+00 0.  1.
        -15    1    1    2    0    0 -0.75962798237E+00 -0.15732743507E+01  0.58140087127E+00  0.25589026608E+01  0.17770000000E+01 0. -1.
         15    1    1    2    0    0  0.15661835627E+01  0.14679044096E+01 -0.80696323907E+01  0.85372343431E+01  0.17770000000E+01 0.  1.
</event>
<event>
 6    1  0.1378789E-002  0.1852255E+03  0.7546771E-02  0.1066306E+00
        -11   -1    0    0    0    0  0.00000000000E+00  0.00000000000E+00  0.18250000000E+03  0.18250000000E+03  0.00000000000E+00 0. -1.
         11   -1    0    0    0    0 -0.00000000000E+00 -0.00000000000E+00 -0.18250000000E+03  0.18250000000E+03  0.00000000000E+00 0.  1.
        -11    1    1    2    0    0  0.12644643276E+01  0.41291477577E+01  0.13978746932E+03  0.13985415729E+03  0.00000000000E+00 0. -1.
         11    1    1    2    0    0 -0.62269549941E+01 -0.11312566054E+02 -0.17931015221E+03  0.17977452490E+03  0.00000000000E+00 0.  1.
        -15    1    1    2    0    0 -0.32911971248E+01 -0.29481785890E+01  0.26184140799E+02  0.26613731303E+02  0.17770000000E+01 0. -1.
         15    1    1    2    0    0  0.82536877913E+01  0.10131596886E+02  0.13338542089E+02  0.18757586510E+02  0.17770000000E+01 0.  1.
</event>
<event>
 6    1  0.1378789E-002  0.1826458E+03  0.7546771E-02  0.1068339E+00
        -11   -1    0    0    0    0  0.00000000000E+00  0.00000000000E+00  0.18250000000E+03  0.18250000000E+03  0.00000000000E+00 0.  1.
         11   -1    0    0    0    0 -0.00000000000E+00 -0.00000000000E+00 -0.18250000000E+03  0.18250000000E+03  0.00000000000E+00 0.  1.
        -11    1    1    2    0    0 -0.27409021385E+01 -0.11204417654E+01  0.18233020126E+03  0.18235424379E+03  0.00000000000E+00 0.  1.
         11    1    1    2    0    0  0.10358386113E+01 -0.87078648052E+00 -0.80718631649E+02  0.80729974149E+02  0.00000000000E+00 0.  1.
        -15    1    1    2    0    0  0.11310533521E+01  0.70272039498E+00 -0.87785074082E+01  0.90549996662E+01  0.17770000000E+01 0. -1.
         15    1    1    2    0    0  0.57401017510E+00  0.12885078509E+01 -0.92833062206E+02  0.92860782398E+02  0.17770000000E+01 0.  1.
</event>
<event>
 6    1  0.1378789E-002  0.1947313E+03  0.7546771E-02  0.1059115E+00
        -11   -1    0    0    0    0  0.00000000000E+00  0.00000000000E+00  0.18250000000E+03  0.18250000000E+03  0.00000000000E+00 0.  1.
         11   -1    0    0    0    0 -0.00000000000E+00 -0.00000000000E+00 -0.18250000000E+03  0.18250000000E+03  0.00000000000E+00 0. -1.
        -11    1    1    2    0    0  0.46676338631E+01 -0.18188527857E+01  0.16492855182E+03  0.16500461277E+03  0.00000000000E+00 0.  1.
         11    1    1    2    0    0 -0.15071541705E+00 -0.52740521825E+01 -0.17018693745E+03  0.17026870535E+03  0.00000000000E+00 0. -1.
        -15    1    1    2    0    0 -0.99359163502E+00  0.81745301795E+01 -0.10490872369E+02  0.13454601445E+02  0.17770000000E+01 0. -1.
         15    1    1    2    0    0 -0.35233268110E+01 -0.10816252112E+01  0.15749258006E+02  0.16272080434E+02  0.17770000000E+01 0.  1.
</event>
<event>
 6    1  0.1378789E-002  0.1851465E+03  0.7546771E-02  0.1066367E+00
        -11   -1    0    0    0    0  0.00000000000E+00  0.00000000000E+00  0.18250000000E+03  0.18250000000E+03  0.00000000000E+00 0.  1.
         11   -1    0    0    0    0 -0.00000000000E+00 -0.00000000000E+00 -0.18250000000E+03  0.18250000000E+03  0.00000000000E+00 0. -1.
        -11    1    1    2    0    0 -0.56194561860E-01  0.25605310936E+01  0.13413804523E+03  0.13416249348E+03  0.00000000000E+00 0.  1.
         11    1    1    2    0    0  0.18805615511E+01 -0.17271972513E+01 -0.17983536128E+03  0.17985348729E+03  0.00000000000E+00 0. -1.
        -15    1    1    2    0    0  0.88795979788E+01 -0.42186832288E+00  0.33262017391E+02  0.34475277564E+02  0.17770000000E+01 0.  1.
         15    1    1    2    0    0 -0.10703964968E+02 -0.41146551943E+00  0.12435298659E+02  0.16508741674E+02  0.17770000000E+01 0. -1.
</event>
<event>
 6    1  0.1378789E-002  0.1938965E+03  0.7546771E-02  0.1059729E+00
        -11   -1    0    0    0    0  0.00000000000E+00  0.00000000000E+00  0.18250000000E+03  0.18250000000E+03  0.00000000000E+00 0.  1.
         11   -1    0    0    0    0 -0.00000000000E+00 -0.00000000000E+00 -0.18250000000E+03  0.18250000000E+03  0.00000000000E+00 0.  1.
        -11    1    1    2    0    0  0.18653701028E+01  0.85445172919E+01  0.75345045360E+02  0.75850934350E+02  0.00000000000E+00 0.  1.
         11    1    1    2    0    0 -0.12857963538E+02  0.49524847634E+01 -0.17054784668E+03  0.17110354275E+03  0.00000000000E+00 0.  1.
        -15    1    1    2    0    0  0.12454049210E+02 -0.10068465556E+02 -0.56749331064E+01  0.17083323305E+02  0.17770000000E+01 0. -1.
         15    1    1    2    0    0 -0.14614557755E+01 -0.34285364993E+01  0.10087773443E+03  0.10096219960E+03  0.17770000000E+01 0.  1.
</event>
<event>
 6    1  0.1378789E-002  0.1830230E+03  0.7546771E-02  0.1068039E+00
        -11   -1    0    0    0    0  0.00000000000E+00  0.00000000000E+00  0.18250000000E+03  0.18250000000E+03  0.00000000000E+00 0.  1.
         11   -1    0    0    0    0 -0.00000000000E+00 -0.00000000000E+00 -0.18250000000E+03  0.18250000000E+03  0.00000000000E+00 0.  1.
        -11    1    1    2    0    0  0.24406916451E+01  0.10668637358E+01  0.15564533468E+03  0.15566812577E+03  0.00000000000E+00 0.  1.
         11    1    1    2    0    0 -0.27643752518E+00 -0.33113894695E+01 -0.18194664825E+03  0.18197698900E+03  0.00000000000E+00 0.  1.
        -15    1    1    2    0    0 -0.24167643316E+01  0.12960561100E+01  0.51031151012E+01  0.60597049442E+01  0.17770000000E+01 0.  1.
         15    1    1    2    0    0  0.25251021173E+00  0.94846962371E+00  0.21198198468E+02  0.21295180284E+02  0.17770000000E+01 0. -1.
</event>
<event>
 6    1  0.1378789E-002  0.1842745E+03  0.7546771E-02  0.1067051E+00
        -11   -1    0    0    0    0  0.00000000000E+00  0.00000000000E+00  0.18250000000E+03  0.18250000000E+03  0.00000000000E+00 0.  1.
         11   -1    0    0    0    0 -0.00000000000E+00 -0.00000000000E+00 -0.18250000000E+03  0.18250000000E+03  0.00000000000E+00 0. -1.
        -11    1    1    2    0    0  0.30394256771E+01 -0.39046124693E+01  0.16598187399E+03  0.16605561297E+03  0.00000000000E+00 0.  1.
         11    1    1    2    0    0  0.17121360783E+01 -0.21473241355E+01 -0.18070464492E+03  0.18072551316E+03  0.00000000000E+00 0. -1.
        -15    1    1    2    0    0 -0.17074052922E+01 -0.11443993895E+01  0.38512577428E+01  0.47132576840E+01  0.17770000000E+01 0. -1.
         15    1    1    2    0    0 -0.30441564632E+01  0.71963359943E+01  0.10871513193E+02  0.13505616181E+02  0.17770000000E+01 0.  1.
</event>
<event>
 6    1  0.1378789E-002  0.1830681E+03  0.7546771E-02  0.1068004E+00
        -11   -1    0    0    0    0  0.00000000000E+00  0.00000000000E+00  0.18250000000E+03  0.18250000000E+03  0.00000000000E+00 0. -1.
         11   -1    0    0    0    0 -0.00000000000E+00 -0.00000000000E+00 -0.18250000000E+03  0.18250000000E+03  0.00000000000E+00 0. -1.
        -11    1    1    2    0    0  0.10318238382E+01  0.23184649262E+01  0.18191424481E+03  0.18193194443E+03  0.00000000000E+00 0. -1.
         11    1    1    2    0    0  0.43152648801E+01 -0.28535923185E+01 -0.52194045803E+02  0.52449813321E+02  0.00000000000E+00 0. -1.
        -15    1    1    2    0    0 -0.83588760116E-02 -0.19598061611E+01 -0.43103781097E+01  0.50574695756E+01  0.17770000000E+01 0. -1.
         15    1    1    2    0    0 -0.53387298423E+01  0.24949335534E+01 -0.12540982089E+03  0.12556077268E+03  0.17770000000E+01 0. -1.
</event>
<event>
 6    1  0.1378789E-002  0.1826669E+03  0.7546771E-02  0.1068322E+00
        -11   -1    0    0    0    0  0.00000000000E+00  0.00000000000E+00  0.18250000000E+03  0.18250000000E+03  0.00000000000E+00 0. -1.
         11   -1    0    0    0    0 -0.00000000000E+00 -0.00000000000E+00 -0.18250000000E+03  0.18250000000E+03  0.00000000000E+00 0.  1.
        -11    1    1    2    0    0 -0.25129043125E+01 -0.41367581079E+00  0.18231527646E+03  0.18233306296E+03  0.00000000000E+00 0. -1.
         11    1    1    2    0    0 -0.43905342037E+00  0.16782398297E+01 -0.97343635491E+02  0.97359091139E+02  0.00000000000E+00 0.  1.
        -15    1    1    2    0    0  0.93421629550E+00  0.11421658874E+01 -0.10600929616E+02  0.10849642424E+02  0.17770000000E+01 0.  1.
         15    1    1    2    0    0  0.20177414374E+01 -0.24067299063E+01 -0.74370711354E+02  0.74458203481E+02  0.17770000000E+01 0. -1.
</event>
<event>
 6    1  0.1378789E-002  0.1827381E+03  0.7546771E-02  0.1068265E+00
        -11   -1    0    0    0    0  0.00000000000E+00  0.00000000000E+00  0.18250000000E+03  0.18250000000E+03  0.00000000000E+00 0. -1.
         11   -1    0    0    0    0 -0.00000000000E+00 -0.00000000000E+00 -0.18250000000E+03  0.18250000000E+03  0.00000000000E+00 0.  1.
        -11    1    1    2    0    0  0.20230572887E+01 -0.18608786838E+01  0.11145892255E+03  0.11149281164E+03  0.00000000000E+00 0. -1.
         11    1    1    2    0    0  0.45800645963E+01 -0.11852481360E+01 -0.18220052407E+03  0.18226193452E+03  0.00000000000E+00 0.  1.
        -15    1    1    2    0    0 -0.47178508961E+01  0.18259901178E+01  0.53432917134E+02  0.53701272978E+02  0.17770000000E+01 0. -1.
         15    1    1    2    0    0 -0.18852709889E+01  0.12201367020E+01  0.17308684385E+02  0.17543980860E+02  0.17770000000E+01 0.  1.
</event>
<event>
 6    1  0.1378789E-002  0.1903852E+03  0.7546771E-02  0.1062346E+00
        -11   -1    0    0    0    0  0.00000000000E+00  0.00000000000E+00  0.18250000000E+03  0.18250000000E+03  0.00000000000E+00 0.  1.
         11   -1    0    0    0    0 -0.00000000000E+00 -0.00000000000E+00 -0.18250000000E+03  0.18250000000E+03  0.00000000000E+00 0.  1.
        -11    1    1    2    0    0 -0.74426667016E+01 -0.69632153999E+01  0.14596154453E+03  0.14631695780E+03  0.00000000000E+00 0.  1.
         11    1    1    2    0    0  0.18512678367E+01 -0.21998234720E+01 -0.17459110121E+03  0.17461477325E+03  0.00000000000E+00 0.  1.
        -15    1    1    2    0    0 -0.12256890180E+02  0.91880854788E+01  0.15279689118E+02  0.21708958984E+02  0.17770000000E+01 0. -1.
         15    1    1    2    0    0  0.17848289045E+02 -0.25046606882E-01  0.13349867561E+02  0.22359309964E+02  0.17770000000E+01 0.  1.
</event>
<event>
 6    1  0.1378789E-002  0.1828035E+03  0.7546771E-02  0.1068213E+00
        -11   -1    0    0    0    0  0.00000000000E+00  0.00000000000E+00  0.18250000000E+03  0.18250000000E+03  0.00000000000E+00 0.  1.
         11   -1    0    0    0    0 -0.00000000000E+00 -0.00000000000E+00 -0.18250000000E+03  0.18250000000E+03  0.00000000000E+00 0. -1.
        -11    1    1    2    0    0 -0.10306025532E+01 -0.19534971505E+00  0.77697027980E+02  0.77704108386E+02  0.00000000000E+00 0.  1.
         11    1    1    2    0    0  0.27398493241E+01  0.14839751185E+00 -0.18217585713E+03  0.18219651950E+03  0.00000000000E+00 0. -1.
        -15    1    1    2    0    0  0.19273702616E+01 -0.37634588834E+01  0.24366162982E+02  0.24794072001E+02  0.17770000000E+01 0.  1.
         15    1    1    2    0    0 -0.36366170325E+01  0.38104110866E+01  0.80112666171E+02  0.80305300112E+02  0.17770000000E+01 0. -1.
</event>
<event>
 6    1  0.1378789E-002  0.1726590E+03  0.7546771E-02  0.1076570E+00
        -11   -1    0    0    0    0  0.00000000000E+00  0.00000000000E+00  0.18250000000E+03  0.18250000000E+03  0.00000000000E+00 0.  1.
         11   -1    0    0    0    0 -0.00000000000E+00 -0.00000000000E+00 -0.18250000000E+03  0.18250000000E+03  0.00000000000E+00 0.  1.
        -11    1    1    2    0    0  0.77184898568E+01  0.15931540550E+01  0.16975509371E+03  0.16993794475E+03  0.00000000000E+00 0.  1.
         11    1    1    2    0    0 -0.12604884967E+01  0.88146247038E+01 -0.17541781151E+03  0.17564365925E+03  0.00000000000E+00 0.  1.
        -15    1    1    2    0    0 -0.19683947726E+01 -0.12779858221E+02  0.28983400102E+01  0.13370020865E+02  0.17770000000E+01 0.  1.
         15    1    1    2    0    0 -0.44896065875E+01  0.23720794618E+01  0.27643777881E+01  0.60483751404E+01  0.17770000000E+01 0. -1.
</event>
<event>
 6    1  0.1378789E-002  0.1844382E+03  0.7546771E-02  0.1066922E+00
        -11   -1    0    0    0    0  0.00000000000E+00  0.00000000000E+00  0.18250000000E+03  0.18250000000E+03  0.00000000000E+00 0.  1.
         11   -1    0    0    0    0 -0.00000000000E+00 -0.00000000000E+00 -0.18250000000E+03  0.18250000000E+03  0.00000000000E+00 0.  1.
        -11    1    1    2    0    0  0.40354817751E+01  0.16130362614E+01  0.18050950553E+03  0.18056181375E+03  0.00000000000E+00 0.  1.
         11    1    1    2    0    0  0.51945911339E+01  0.34543415568E+01 -0.12614979366E+03  0.12630394568E+03  0.00000000000E+00 0.  1.
        -15    1    1    2    0    0  0.32847296752E+01 -0.22783168121E+01 -0.32002478592E+02  0.32300101263E+02  0.17770000000E+01 0.  1.
         15    1    1    2    0    0 -0.12514802584E+02 -0.27890610061E+01 -0.22357233277E+02  0.25834139309E+02  0.17770000000E+01 0. -1.
</event>
<event>
 6    1  0.1378789E-002  0.1837018E+03  0.7546771E-02  0.1067502E+00
        -11   -1    0    0    0    0  0.00000000000E+00  0.00000000000E+00  0.18250000000E+03  0.18250000000E+03  0.00000000000E+00 0.  1.
         11   -1    0    0    0    0 -0.00000000000E+00 -0.00000000000E+00 -0.18250000000E+03  0.18250000000E+03  0.00000000000E+00 0. -1.
        -11    1    1    2    0    0 -0.40363135468E+00 -0.76074240996E+00  0.38140938822E+02  0.38150660040E+02  0.00000000000E+00 0.  1.
         11    1    1    2    0    0  0.54293070792E+01 -0.11251338179E+01 -0.18121342506E+03  0.18129823144E+03  0.00000000000E+00 0. -1.
        -15    1    1    2    0    0 -0.12572676365E+01  0.10259453419E+02  0.12254917768E+03  0.12299713731E+03  0.17770000000E+01 0.  1.
         15    1    1    2    0    0 -0.37684080880E+01 -0.83735771914E+01  0.20523308554E+02  0.22553971213E+02  0.17770000000E+01 0. -1.
</event>
<event>
 6    1  0.1378789E-002  0.1848265E+03  0.7546771E-02  0.1066618E+00
        -11   -1    0    0    0    0  0.00000000000E+00  0.00000000000E+00  0.18250000000E+03  0.18250000000E+03  0.00000000000E+00 0.  1.
         11   -1    0    0    0    0 -0.00000000000E+00 -0.00000000000E+00 -0.18250000000E+03  0.18250000000E+03  0.00000000000E+00 0. -1.
        -11    1    1    2    0    0  0.28037265762E+01 -0.28820498507E+00  0.16764986653E+03  0.16767355693E+03  0.00000000000E+00 0.  1.
         11    1    1    2    0    0  0.11792569950E+01  0.51385012258E+01 -0.18009634126E+03  0.18017349132E+03  0.00000000000E+00 0. -1.
        -15    1    1    2    0    0 -0.21505569364E+01 -0.35094263505E-01 -0.73848428888E+00  0.28860379050E+01  0.17770000000E+01 0.  1.
         15    1    1    2    0    0 -0.18324266348E+01 -0.48152019772E+01  0.13184959013E+02  0.14266913844E+02  0.17770000000E+01 0. -1.
</event>
<event>
 6    1  0.1378789E-002  0.1905441E+03  0.7546771E-02  0.1062226E+00
        -11   -1    0    0    0    0  0.00000000000E+00  0.00000000000E+00  0.18250000000E+03  0.18250000000E+03  0.00000000000E+00 0. -1.
         11   -1    0    0    0    0 -0.00000000000E+00 -0.00000000000E+00 -0.18250000000E+03  0.18250000000E+03  0.00000000000E+00 0. -1.
        -11    1    1    2    0    0 -0.27870019848E+01 -0.11307255577E+01  0.17442994863E+03  0.17445587665E+03  0.00000000000E+00 0. -1.
         11    1    1    2    0    0  0.28634678777E+01 -0.36229856909E+01 -0.13955931372E+03  0.13963569572E+03  0.00000000000E+00 0. -1.
        -15    1    1    2    0    0  0.11947363643E+01  0.28443079760E+01  0.75717371841E+01  0.83669836756E+01  0.17770000000E+01 0.  1.
         15    1    1    2    0    0 -0.12712022572E+01  0.19094032725E+01 -0.42442372088E+02  0.42541443952E+02  0.17770000000E+01 0. -1.
</event>
<event>
 6    1  0.1378789E-002  0.1827022E+03  0.7546771E-02  0.1068294E+00
        -11   -1    0    0    0    0  0.00000000000E+00  0.00000000000E+00  0.18250000000E+03  0.18250000000E+03  0.00000000000E+00 0. -1.
         11   -1    0    0    0    0 -0.00000000000E+00 -0.00000000000E+00 -0.18250000000E+03  0.18250000000E+03  0.00000000000E+00 0. -1.
        -11    1    1    2    0    0  0.36320179210E+01 -0.33049047736E+00  0.18226133756E+03  0.18229782211E+03  0.00000000000E+00 0. -1.
         11    1    1    2    0    0  0.11681024622E+01 -0.23829717288E+01 -0.37090106458E+02  0.37184929941E+02  0.00000000000E+00 0. -1.
        -15    1    1    2    0    0 -0.29437068671E+01  0.33526396368E+01 -0.13173711364E+03  0.13182462002E+03  0.17770000000E+01 0. -1.
         15    1    1    2    0    0 -0.18564135161E+01 -0.63917743065E+00 -0.13434117455E+02  0.13692627934E+02  0.17770000000E+01 0.  1.
</event>
<event>
 6    1  0.1378789E-002  0.1826325E+03  0.7546771E-02  0.1068349E+00
        -11   -1    0    0    0    0  0.00000000000E+00  0.00000000000E+00  0.18250000000E+03  0.18250000000E+03  0.00000000000E+00 0. -1.
         11   -1    0    0    0    0 -0.00000000000E+00 -0.00000000000E+00 -0.18250000000E+03  0.18250000000E+03  0.00000000000E+00 0.  1.
        -11    1    1    2    0    0 -0.20435511390E+00  0.17693976882E+01  0.11198855400E+03  0.11200271762E+03  0.00000000000E+00 0. -1.
         11    1    1    2    0    0 -0.35578283856E+01  0.98158515554E+00 -0.18233014418E+03  0.18236749472E+03  0.00000000000E+00 0.  1.
        -15    1    1    2    0    0  0.55722717106E+00 -0.74691135680E+00  0.31613890516E+02  0.31677502762E+02  0.17770000000E+01 0.  1.
         15    1    1    2    0    0  0.32049563284E+01 -0.20040714869E+01  0.38727699672E+02  0.38952284894E+02  0.17770000000E+01 0. -1.
</event>
<event>
 6    1  0.1378789E-002  0.1832267E+03  0.7546771E-02  0.1067878E+00
        -11   -1    0    0    0    0  0.00000000000E+00  0.00000000000E+00  0.18250000000E+03  0.18250000000E+03  0.00000000000E+00 0.  1.
         11   -1    0    0    0    0 -0.00000000000E+00 -0.00000000000E+00 -0.18250000000E+03  0.18250000000E+03  0.00000000000E+00 0. -1.
        -11    1    1    2    0    0  0.86465034964E-01  0.48748576259E+01  0.18170791582E+03  0.18177331593E+03  0.00000000000E+00 0.  1.
         11    1    1    2    0    0  0.35087988406E+00  0.22645449877E+01 -0.12734091079E+03  0.12736152811E+03  0.00000000000E+00 0. -1.
        -15    1    1    2    0    0 -0.26825622173E+01 -0.43381727688E+01 -0.48262162129E+02  0.48563462659E+02  0.17770000000E+01 0.  1.
         15    1    1    2    0    0  0.22452172983E+01 -0.28012298448E+01 -0.61048428953E+01  0.73016933060E+01  0.17770000000E+01 0. -1.
</event>
<event>
 6    1  0.1378789E-002  0.1829148E+03  0.7546771E-02  0.1068125E+00
        -11   -1    0    0    0    0  0.00000000000E+00  0.00000000000E+00  0.18250000000E+03  0.18250000000E+03  0.00000000000E+00 0.  1.
         11   -1    0    0    0    0 -0.00000000000E+00 -0.00000000000E+00 -0.18250000000E+03  0.18250000000E+03  0.00000000000E+00 0.  1.
        -11    1    1    2    0    0  0.12709464125E+01  0.15649101747E+00  0.69028199384E+02  0.69040076075E+02  0.00000000000E+00 0.  1.
         11    1    1    2    0    0  0.47798130432E+00  0.31733978908E+01 -0.18205688598E+03  0.18208516868E+03  0.00000000000E+00 0.  1.
        -15    1    1    2    0    0 -0.22372160946E+01 -0.81884670687E+00  0.10740505646E+03  0.10744617037E+03  0.17770000000E+01 0.  1.
         15    1    1    2    0    0  0.48828837780E+00 -0.25110422014E+01  0.56236301446E+01  0.64285848738E+01  0.17770000000E+01 0. -1.
</event>
<event>
 6    1  0.1378789E-002  0.1843039E+03  0.7546771E-02  0.1067028E+00
        -11   -1    0    0    0    0  0.00000000000E+00  0.00000000000E+00  0.18250000000E+03  0.18250000000E+03  0.00000000000E+00 0. -1.
         11   -1    0    0    0    0 -0.00000000000E+00 -0.00000000000E+00 -0.18250000000E+03  0.18250000000E+03  0.00000000000E+00 0.  1.
        -11    1    1    2    0    0  0.21673693186E+01 -0.37015753858E+01  0.18064516528E+03  0.18069608432E+03  0.00000000000E+00 0. -1.
         11    1    1    2    0    0 -0.11259921844E+01  0.23374661045E+00 -0.56372857049E+02  0.56384585728E+02  0.00000000000E+00 0.  1.
        -15    1    1    2    0    0 -0.78944370833E+00 -0.13034057728E+02 -0.43207602265E+02  0.45172607902E+02  0.17770000000E+01 0. -1.
         15    1    1    2    0    0 -0.25193342593E+00  0.16501886503E+02 -0.81064705962E+02  0.82746722052E+02  0.17770000000E+01 0.  1.
</event>
<event>
 6    1  0.1378789E-002  0.1855289E+03  0.7546771E-02  0.1066069E+00
        -11   -1    0    0    0    0  0.00000000000E+00  0.00000000000E+00  0.18250000000E+03  0.18250000000E+03  0.00000000000E+00 0.  1.
         11   -1    0    0    0    0 -0.00000000000E+00 -0.00000000000E+00 -0.18250000000E+03  0.18250000000E+03  0.00000000000E+00 0.  1.
        -11    1    1    2    0    0 -0.25700686122E+01  0.29639254132E+01  0.17942818645E+03  0.17947106786E+03  0.00000000000E+00 0.  1.
         11    1    1    2    0    0  0.47366260310E+01 -0.22236608366E+01 -0.17273987065E+03  0.17281910545E+03  0.00000000000E+00 0.  1.
        -15    1    1    2    0    0  0.10798880369E+01 -0.39599905066E+01 -0.71951565712E-01  0.44733196859E+01  0.17770000000E+01 0.  1.
         15    1    1    2    0    0 -0.32464454557E+01  0.32197259300E+01 -0.66163642268E+01  0.82365070110E+01  0.17770000000E+01 0. -1.
</event>
<event>
 6    1  0.1378789E-002  0.1881575E+03  0.7546771E-02  0.1064039E+00
        -11   -1    0    0    0    0  0.00000000000E+00  0.00000000000E+00  0.18250000000E+03  0.18250000000E+03  0.00000000000E+00 0.  1.
         11   -1    0    0    0    0 -0.00000000000E+00 -0.00000000000E+00 -0.18250000000E+03  0.18250000000E+03  0.00000000000E+00 0. -1.
        -11    1    1    2    0    0  0.58087114713E+01 -0.58292901092E+01  0.17665092788E+03  0.17684250641E+03  0.00000000000E+00 0.  1.
         11    1    1    2    0    0  0.55655690870E+01  0.50462771809E+01 -0.16559123812E+03  0.16576157158E+03  0.00000000000E+00 0. -1.
        -15    1    1    2    0    0 -0.88067636395E+00  0.24954652077E+01  0.32022564477E+01  0.45183086236E+01  0.17770000000E+01 0. -1.
         15    1    1    2    0    0 -0.10493604194E+02 -0.17124522795E+01 -0.14261946207E+02  0.17877613386E+02  0.17770000000E+01 0.  1.
</event>
<event>
 6    1  0.1378789E-002  0.1887712E+03  0.7546771E-02  0.1063570E+00
        -11   -1    0    0    0    0  0.00000000000E+00  0.00000000000E+00  0.18250000000E+03  0.18250000000E+03  0.00000000000E+00 0.  1.
         11   -1    0    0    0    0 -0.00000000000E+00 -0.00000000000E+00 -0.18250000000E+03  0.18250000000E+03  0.00000000000E+00 0.  1.
        -11    1    1    2    0    0 -0.24692976205E+01  0.20666815031E+00  0.17621132993E+03  0.17622875174E+03  0.00000000000E+00 0.  1.
         11    1    1    2    0    0 -0.19423705608E+01  0.15030749220E+01 -0.16308442555E+03  0.16310291811E+03  0.00000000000E+00 0.  1.
        -15    1    1    2    0    0 -0.64729298220E+01 -0.19861274498E+01 -0.12849678739E+02  0.14632685858E+02  0.17770000000E+01 0. -1.
         15    1    1    2    0    0  0.10884598003E+02  0.27638437749E+00 -0.27722564477E+00  0.11035644298E+02  0.17770000000E+01 0.  1.
</event>
<event>
 6    1  0.1378789E-002  0.1849885E+03  0.7546771E-02  0.1066491E+00
        -11   -1    0    0    0    0  0.00000000000E+00  0.00000000000E+00  0.18250000000E+03  0.18250000000E+03  0.00000000000E+00 0.  1.
         11   -1    0    0    0    0 -0.00000000000E+00 -0.00000000000E+00 -0.18250000000E+03  0.18250000000E+03  0.00000000000E+00 0.  1.
        -11    1    1    2    0    0 -0.12070662416E+01 -0.16772661456E+01  0.13826922225E+03  0.13828466311E+03  0.00000000000E+00 0.  1.
         11    1    1    2    0    0 -0.57058818990E+01 -0.32136342280E+01 -0.17989230082E+03  0.18001145638E+03  0.00000000000E+00 0.  1.
        -15    1    1    2    0    0 -0.63202541379E+01  0.34142693040E+01  0.19039389623E+02  0.20426916886E+02  0.17770000000E+01 0.  1.
         15    1    1    2    0    0  0.13233202279E+02  0.14766310696E+01  0.22583688945E+02  0.26276963623E+02  0.17770000000E+01 0. -1.
</event>
<event>
 6    1  0.1378789E-002  0.1919412E+03  0.7546771E-02  0.1061178E+00
        -11   -1    0    0    0    0  0.00000000000E+00  0.00000000000E+00  0.18250000000E+03  0.18250000000E+03  0.00000000000E+00 0.  1.
         11   -1    0    0    0    0 -0.00000000000E+00 -0.00000000000E+00 -0.18250000000E+03  0.18250000000E+03  0.00000000000E+00 0. -1.
        -11    1    1    2    0    0 -0.36910241152E+01  0.28562444338E+01  0.14885181648E+03  0.14892496453E+03  0.00000000000E+00 0.  1.
         11    1    1    2    0    0  0.61289099578E+00  0.41700870461E+01 -0.17300743383E+03  0.17305876869E+03  0.00000000000E+00 0. -1.
        -15    1    1    2    0    0  0.16659235291E+02 -0.12432538758E+02  0.13782984962E+02  0.25004530468E+02  0.17770000000E+01 0.  1.
         15    1    1    2    0    0 -0.13581102172E+02  0.54062072783E+01  0.10372632390E+02  0.18011736314E+02  0.17770000000E+01 0. -1.
</event>
<event>
 6    1  0.1378789E-002  0.1858784E+03  0.7546771E-02  0.1065797E+00
        -11   -1    0    0    0    0  0.00000000000E+00  0.00000000000E+00  0.18250000000E+03  0.18250000000E+03  0.00000000000E+00 0.  1.
         11   -1    0    0    0    0 -0.00000000000E+00 -0.00000000000E+00 -0.18250000000E+03  0.18250000000E+03  0.00000000000E+00 0. -1.
        -11    1    1    2    0    0 -0.15181677804E+01  0.21536020963E+01  0.10685178764E+03  0.10688427086E+03  0.00000000000E+00 0.  1.
         11    1    1    2    0    0  0.95537726751E+00 -0.35044988636E+01 -0.17908481050E+03  0.17912164473E+03  0.00000000000E+00 0. -1.
        -15    1    1    2    0    0 -0.79372242558E+01 -0.45173576073E+01  0.42863596519E+01  0.10243859463E+02  0.17770000000E+01 0. -1.
         15    1    1    2    0    0  0.85000147686E+01  0.58682543746E+01  0.67946663205E+02  0.68750224946E+02  0.17770000000E+01 0.  1.
</event>
<event>
 6    1  0.1378789E-002  0.1829022E+03  0.7546771E-02  0.1068135E+00
        -11   -1    0    0    0    0  0.00000000000E+00  0.00000000000E+00  0.18250000000E+03  0.18250000000E+03  0.00000000000E+00 0. -1.
         11   -1    0    0    0    0 -0.00000000000E+00 -0.00000000000E+00 -0.18250000000E+03  0.18250000000E+03  0.00000000000E+00 0.  1.
        -11    1    1    2    0    0  0.65930375248E+00 -0.81858148105E+00  0.23571667150E+02  0.23595089517E+02  0.00000000000E+00 0. -1.
         11    1    1    2    0    0  0.49376315431E+01  0.91229781561E+01 -0.18180207153E+03  0.18209778183E+03  0.00000000000E+00 0.  1.
        -15    1    1    2    0    0 -0.45967164323E+01 -0.65713641864E+01  0.15448874009E+03  0.15470695257E+03  0.17770000000E+01 0. -1.
         15    1    1    2    0    0 -0.10002188633E+01 -0.17330324886E+01  0.37416642892E+01  0.46001760873E+01  0.17770000000E+01 0.  1.
</event>
<event>
 6    1  0.1378789E-002  0.1825652E+03  0.7546771E-02  0.1068403E+00
        -11   -1    0    0    0    0  0.00000000000E+00  0.00000000000E+00  0.18250000000E+03  0.18250000000E+03  0.00000000000E+00 0.  1.
         11   -1    0    0    0    0 -0.00000000000E+00 -0.00000000000E+00 -0.18250000000E+03  0.18250000000E+03  0.00000000000E+00 0. -1.
        -11    1    1    2    0    0  0.78499169455E+00 -0.53498619391E+00  0.38289623771E+02  0.38301406119E+02  0.00000000000E+00 0.  1.
         11    1    1    2    0    0  0.42964274681E+01  0.17588277272E+01 -0.18237568068E+03  0.18243476003E+03  0.00000000000E+00 0. -1.
        -15    1    1    2    0    0 -0.39215652475E+01 -0.11317690670E+01  0.12053879829E+03  0.12062097329E+03  0.17770000000E+01 0.  1.
         15    1    1    2    0    0 -0.11598539152E+01 -0.92072466255E-01  0.23547258615E+02  0.23642860565E+02  0.17770000000E+01 0. -1.
</event>
<event>
 6    1  0.1378789E-002  0.2023363E+03  0.7546771E-02  0.1053677E+00
        -11   -1    0    0    0    0  0.00000000000E+00  0.00000000000E+00  0.18250000000E+03  0.18250000000E+03  0.00000000000E+00 0. -1.
         11   -1    0    0    0    0 -0.00000000000E+00 -0.00000000000E+00 -0.18250000000E+03  0.18250000000E+03  0.00000000000E+00 0. -1.
        -11    1    1    2    0    0  0.11844734970E+02  0.27987047439E+01  0.15142220975E+03  0.15191055296E+03  0.00000000000E+00 0. -1.
         11    1    1    2    0    0  0.12207477980E+01 -0.97576664188E+01 -0.16236621541E+03  0.16266373346E+03  0.00000000000E+00 0. -1.
        -15    1    1    2    0    0 -0.33177273699E+01  0.57208461961E+01 -0.18291843349E+02  0.19531632246E+02  0.17770000000E+01 0.  1.
         15    1    1    2    0    0 -0.97477553986E+01  0.12381154789E+01  0.29235849001E+02  0.30894081327E+02  0.17770000000E+01 0. -1.
</event>
<event>
 6    1  0.1378789E-002  0.1764527E+03  0.7546771E-02  0.1073373E+00
        -11   -1    0    0    0    0  0.00000000000E+00  0.00000000000E+00  0.18250000000E+03  0.18250000000E+03  0.00000000000E+00 0.  1.
         11   -1    0    0    0    0 -0.00000000000E+00 -0.00000000000E+00 -0.18250000000E+03  0.18250000000E+03  0.00000000000E+00 0.  1.
        -11    1    1    2    0    0  0.56762630759E+01  0.16150942461E+01  0.17858989964E+03  0.17868738272E+03  0.00000000000E+00 0.  1.
         11    1    1    2    0    0  0.24191423335E+01  0.29060275425E+00 -0.17432473080E+03  0.17434175767E+03  0.00000000000E+00 0.  1.
        -15    1    1    2    0    0 -0.24092018141E+01  0.39705093287E+00  0.14954008653E+01  0.33698450369E+01  0.17770000000E+01 0.  1.
         15    1    1    2    0    0 -0.56862035952E+01 -0.23027479332E+01 -0.57605697064E+01  0.86010145746E+01  0.17770000000E+01 0. -1.
</event>
<event>
 6    1  0.1378789E-002  0.1826186E+03  0.7546771E-02  0.1068360E+00
        -11   -1    0    0    0    0  0.00000000000E+00  0.00000000000E+00  0.18250000000E+03  0.18250000000E+03  0.00000000000E+00 0. -1.
         11   -1    0    0    0    0 -0.00000000000E+00 -0.00000000000E+00 -0.18250000000E+03  0.18250000000E+03  0.00000000000E+00 0.  1.
        -11    1    1    2    0    0  0.83955247582E+00 -0.11797887444E+01  0.31022631674E+02  0.31056407162E+02  0.00000000000E+00 0. -1.
         11    1    1    2    0    0 -0.23276323991E+01  0.44059994937E+01 -0.18231327437E+03  0.18238136066E+03  0.00000000000E+00 0.  1.
        -15    1    1    2    0    0  0.28710032056E+01 -0.44295532210E+01  0.66393015669E+02  0.66626225015E+02  0.17770000000E+01 0. -1.
         15    1    1    2    0    0 -0.13829232823E+01  0.12033424717E+01  0.84897627025E+02  0.84936007166E+02  0.17770000000E+01 0. -1.
</event>
<event>
 6    1  0.1378789E-002  0.1829420E+03  0.7546771E-02  0.1068104E+00
        -11   -1    0    0    0    0  0.00000000000E+00  0.00000000000E+00  0.18250000000E+03  0.18250000000E+03  0.00000000000E+00 0.  1.
         11   -1    0    0    0    0 -0.00000000000E+00 -0.00000000000E+00 -0.18250000000E+03  0.18250000000E+03  0.00000000000E+00 0.  1.
        -11    1    1    2    0    0  0.13296018509E+00  0.41535495295E+01  0.18201057835E+03  0.18205801351E+03  0.00000000000E+00 0.  1.
         11    1    1    2    0    0 -0.25205867039E+01 -0.92519258213E+00 -0.15507705293E+03  0.15510029557E+03  0.00000000000E+00 0.  1.
        -15    1    1    2    0    0  0.13683258687E+01  0.50821840716E+00 -0.14889523428E+02  0.15066062476E+02  0.17770000000E+01 0.  1.
         15    1    1    2    0    0  0.10193006501E+01 -0.37365753546E+01 -0.12044001993E+02  0.12775628446E+02  0.17770000000E+01 0. -1.
</event>
<event>
 6    1  0.1378789E-002  0.1764649E+03  0.7546771E-02  0.1073363E+00
        -11   -1    0    0    0    0  0.00000000000E+00  0.00000000000E+00  0.18250000000E+03  0.18250000000E+03  0.00000000000E+00 0.  1.
         11   -1    0    0    0    0 -0.00000000000E+00 -0.00000000000E+00 -0.18250000000E+03  0.18250000000E+03  0.00000000000E+00 0. -1.
        -11    1    1    2    0    0 -0.27053706564E+01 -0.37636036835E+01  0.17479096272E+03  0.17485240746E+03  0.00000000000E+00 0.  1.
         11    1    1    2    0    0  0.62751336247E+00 -0.23874266202E+01 -0.17813579619E+03  0.17815289912E+03  0.00000000000E+00 0. -1.
        -15    1    1    2    0    0  0.17589476715E+01  0.16818883748E+01  0.58366765153E+01  0.65686503302E+01  0.17770000000E+01 0.  1.
         15    1    1    2    0    0  0.31890962243E+00  0.44691419289E+01 -0.24918430492E+01  0.54260430988E+01  0.17770000000E+01 0.  1.
</event>
<event>
 6    1  0.1378789E-002  0.1761196E+03  0.7546771E-02  0.1073650E+00
        -11   -1    0    0    0    0  0.00000000000E+00  0.00000000000E+00  0.18250000000E+03  0.18250000000E+03  0.00000000000E+00 0. -1.
         11   -1    0    0    0    0 -0.00000000000E+00 -0.00000000000E+00 -0.18250000000E+03  0.18250000000E+03  0.00000000000E+00 0. -1.
        -11    1    1    2    0    0 -0.41194201017E+01 -0.41426510044E+01  0.17850725041E+03  0.17860282649E+03  0.00000000000E+00 0. -1.
         11    1    1    2    0    0 -0.36953402033E+01  0.12610480310E+01 -0.17372342503E+03  0.17376729895E+03  0.00000000000E+00 0. -1.
        -15    1    1    2    0    0  0.28380165411E+01 -0.12133856052E+01 -0.47593925033E+01  0.59444249945E+01  0.17770000000E+01 0.  1.
         15    1    1    2    0    0  0.49767437640E+01  0.40949885786E+01 -0.24432884237E-01  0.66854495673E+01  0.17770000000E+01 0. -1.
</event>
<event>
 6    1  0.1378789E-002  0.1831606E+03  0.7546771E-02  0.1067930E+00
        -11   -1    0    0    0    0  0.00000000000E+00  0.00000000000E+00  0.18250000000E+03  0.18250000000E+03  0.00000000000E+00 0.  1.
         11   -1    0    0    0    0 -0.00000000000E+00 -0.00000000000E+00 -0.18250000000E+03  0.18250000000E+03  0.00000000000E+00 0. -1.
        -11    1    1    2    0    0  0.34121910221E+01  0.29176165223E+01  0.12408688035E+03  0.12416806920E+03  0.00000000000E+00 0.  1.
         11    1    1    2    0    0 -0.75897696749E+01  0.44854648543E+01 -0.18162560764E+03  0.18183944938E+03  0.00000000000E+00 0. -1.
        -15    1    1    2    0    0  0.65496801083E+01 -0.47344864482E+01  0.47029953500E+02  0.47752360431E+02  0.17770000000E+01 0.  1.
         15    1    1    2    0    0 -0.23721014555E+01 -0.26685949285E+01  0.10508773792E+02  0.11240120988E+02  0.17770000000E+01 0. -1.
</event>
<event>
 6    1  0.1378789E-002  0.1831219E+03  0.7546771E-02  0.1067961E+00
        -11   -1    0    0    0    0  0.00000000000E+00  0.00000000000E+00  0.18250000000E+03  0.18250000000E+03  0.00000000000E+00 0.  1.
         11   -1    0    0    0    0 -0.00000000000E+00 -0.00000000000E+00 -0.18250000000E+03  0.18250000000E+03  0.00000000000E+00 0. -1.
        -11    1    1    2    0    0  0.28600407708E+01 -0.56352951091E+00  0.18185478052E+03  0.18187814216E+03  0.00000000000E+00 0.  1.
         11    1    1    2    0    0 -0.10563976114E+00 -0.97054237633E+00 -0.43551202417E+02  0.43562143477E+02  0.00000000000E+00 0. -1.
        -15    1    1    2    0    0 -0.58720855225E+00 -0.78040025564E+01 -0.41686009544E+02  0.42451482783E+02  0.17770000000E+01 0.  1.
         15    1    1    2    0    0 -0.21671924574E+01  0.93380744437E+01 -0.96617568557E+02  0.97108231579E+02  0.17770000000E+01 0. -1.
</event>
<event>
 6    1  0.1378789E-002  0.1826769E+03  0.7546771E-02  0.1068314E+00
        -11   -1    0    0    0    0  0.00000000000E+00  0.00000000000E+00  0.18250000000E+03  0.18250000000E+03  0.00000000000E+00 0.  1.
         11   -1    0    0    0    0 -0.00000000000E+00 -0.00000000000E+00 -0.18250000000E+03  0.18250000000E+03  0.00000000000E+00 0.  1.
        -11    1    1    2    0    0 -0.27929403334E+00  0.71612730485E+01  0.18218222847E+03  0.18232313678E+03  0.00000000000E+00 0.  1.
         11    1    1    2    0    0 -0.55112479647E-01  0.79349798061E+00 -0.19313487059E+02  0.19329859255E+02  0.00000000000E+00 0.  1.
        -15    1    1    2    0    0  0.22370627830E+01 -0.18368381733E+01 -0.11124767701E+03  0.11129951389E+03  0.17770000000E+01 0.  1.
         15    1    1    2    0    0 -0.19026562700E+01 -0.61179328558E+01 -0.51621064403E+02  0.52047490068E+02  0.17770000000E+01 0. -1.
</event>
<event>
 6    1  0.1378789E-002  0.1825742E+03  0.7546771E-02  0.1068396E+00
        -11   -1    0    0    0    0  0.00000000000E+00  0.00000000000E+00  0.18250000000E+03  0.18250000000E+03  0.00000000000E+00 0.  1.
         11   -1    0    0    0    0 -0.00000000000E+00 -0.00000000000E+00 -0.18250000000E+03  0.18250000000E+03  0.00000000000E+00 0.  1.
        -11    1    1    2    0    0 -0.94716770296E+00  0.37069680993E+01  0.18238569347E+03  0.18242582032E+03  0.00000000000E+00 0.  1.
         11    1    1    2    0    0 -0.55327230596E+00  0.72832253833E+00 -0.51891926108E+02  0.51899986119E+02  0.00000000000E+00 0.  1.
        -15    1    1    2    0    0  0.12448049166E+01 -0.35592628469E+01 -0.56539203767E+02  0.56692655458E+02  0.17770000000E+01 0. -1.
         15    1    1    2    0    0  0.25563509235E+00 -0.87602779082E+00 -0.73954563593E+02  0.73981538097E+02  0.17770000000E+01 0.  1.
</event>
<event>
 6    1  0.1378789E-002  0.1834778E+03  0.7546771E-02  0.1067679E+00
        -11   -1    0    0    0    0  0.00000000000E+00  0.00000000000E+00  0.18250000000E+03  0.18250000000E+03  0.00000000000E+00 0.  1.
         11   -1    0    0    0    0 -0.00000000000E+00 -0.00000000000E+00 -0.18250000000E+03  0.18250000000E+03  0.00000000000E+00 0. -1.
        -11    1    1    2    0    0 -0.81097179632E+01 -0.27639950676E+01  0.10279830933E+03  0.10315473618E+03  0.00000000000E+00 0.  1.
         11    1    1    2    0    0  0.49743464101E+01 -0.20683009806E+01 -0.18144226833E+03  0.18152222654E+03  0.00000000000E+00 0. -1.
        -15    1    1    2    0    0 -0.34875337593E+01  0.64354463234E+01  0.58514956793E+02  0.58997760623E+02  0.17770000000E+01 0. -1.
         15    1    1    2    0    0  0.66229053125E+01 -0.16031502751E+01  0.20129002207E+02  0.21325276655E+02  0.17770000000E+01 0.  1.
</event>
<event>
 6    1  0.1534894E-002  0.1839459E+03  0.7546771E-02  0.1067310E+00
        -11   -1    0    0    0    0  0.00000000000E+00  0.00000000000E+00  0.18250000000E+03  0.18250000000E+03  0.00000000000E+00 0. -1.
         11   -1    0    0    0    0 -0.00000000000E+00 -0.00000000000E+00 -0.18250000000E+03  0.18250000000E+03  0.00000000000E+00 0.  1.
        -11    1    1    2    0    0  0.30484459249E+01 -0.15250363503E+01  0.18102197850E+03  0.18105406777E+03  0.00000000000E+00 0. -1.
         11    1    1    2    0    0 -0.95153755475E+00  0.28833907420E+01 -0.83183560434E+02  0.83238957781E+02  0.00000000000E+00 0.  1.
        -15    1    1    2    0    0 -0.16246414153E+01  0.24817335131E+00  0.38698283584E+00  0.24512312123E+01  0.17770000000E+01 0.  1.
         15    1    1    2    0    0 -0.47226695479E+00 -0.16065277430E+01 -0.98225400899E+02  0.98255743233E+02  0.17770000000E+01 0. -1.
</event>
<event>
 6    1  0.1378789E-002  0.1857709E+03  0.7546771E-02  0.1065881E+00
        -11   -1    0    0    0    0  0.00000000000E+00  0.00000000000E+00  0.18250000000E+03  0.18250000000E+03  0.00000000000E+00 0. -1.
         11   -1    0    0    0    0 -0.00000000000E+00 -0.00000000000E+00 -0.18250000000E+03  0.18250000000E+03  0.00000000000E+00 0.  1.
        -11    1    1    2    0    0 -0.49950425737E+00  0.80219113338E-01  0.17999231239E+02  0.18006339572E+02  0.00000000000E+00 0. -1.
         11    1    1    2    0    0 -0.51711509557E+01 -0.13537163680E+02 -0.17864230345E+03  0.17922909413E+03  0.00000000000E+00 0.  1.
        -15    1    1    2    0    0 -0.43188676405E+01  0.45348762329E+01 -0.44666394239E-01  0.65097960207E+01  0.17770000000E+01 0.  1.
         15    1    1    2    0    0  0.99895228536E+01  0.89220683333E+01  0.16068773860E+03  0.16125477027E+03  0.17770000000E+01 0. -1.
</event>
<event>
 6    1  0.1378789E-002  0.1826451E+03  0.7546771E-02  0.1068339E+00
        -11   -1    0    0    0    0  0.00000000000E+00  0.00000000000E+00  0.18250000000E+03  0.18250000000E+03  0.00000000000E+00 0. -1.
         11   -1    0    0    0    0 -0.00000000000E+00 -0.00000000000E+00 -0.18250000000E+03  0.18250000000E+03  0.00000000000E+00 0. -1.
        -11    1    1    2    0    0  0.76779728137E+00  0.18072707067E+01  0.11226679971E+03  0.11228397061E+03  0.00000000000E+00 0. -1.
         11    1    1    2    0    0 -0.17376489371E+01  0.24367365222E+01 -0.18233034338E+03  0.18235490458E+03  0.00000000000E+00 0. -1.
        -15    1    1    2    0    0  0.19562714886E+01 -0.32365332254E+01  0.47820465411E+02  0.48002674785E+02  0.17770000000E+01 0. -1.
         15    1    1    2    0    0 -0.98641983285E+00 -0.10074740035E+01  0.22243078260E+02  0.22358450023E+02  0.17770000000E+01 0.  1.
</event>
<event>
 6    1  0.1378789E-002  0.1869399E+03  0.7546771E-02  0.1064975E+00
        -11   -1    0    0    0    0  0.00000000000E+00  0.00000000000E+00  0.18250000000E+03  0.18250000000E+03  0.00000000000E+00 0. -1.
         11   -1    0    0    0    0 -0.00000000000E+00 -0.00000000000E+00 -0.18250000000E+03  0.18250000000E+03  0.00000000000E+00 0. -1.
        -11    1    1    2    0    0 -0.13080396845E+02 -0.16274052266E+02  0.17683173494E+03  0.17806011355E+03  0.00000000000E+00 0. -1.
         11    1    1    2    0    0  0.23613958898E+01  0.15097927195E+01 -0.11706149470E+03  0.11709504348E+03  0.00000000000E+00 0. -1.
        -15    1    1    2    0    0 -0.17861536519E+01  0.60318039206E+01 -0.52410684682E+02  0.52816764395E+02  0.17770000000E+01 0. -1.
         15    1    1    2    0    0  0.12505154607E+02  0.87324556257E+01 -0.73595555511E+01  0.17028078574E+02  0.17770000000E+01 0.  1.
</event>
<event>
 6    1  0.1378789E-002  0.1894600E+03  0.7546771E-02  0.1063046E+00
        -11   -1    0    0    0    0  0.00000000000E+00  0.00000000000E+00  0.18250000000E+03  0.18250000000E+03  0.00000000000E+00 0. -1.
         11   -1    0    0    0    0 -0.00000000000E+00 -0.00000000000E+00 -0.18250000000E+03  0.18250000000E+03  0.00000000000E+00 0. -1.
        -11    1    1    2    0    0 -0.46562474971E+01  0.16558338019E+01  0.65849731398E+02  0.66034911611E+02  0.00000000000E+00 0. -1.
         11    1    1    2    0    0  0.98272344659E+00  0.68314758497E+01 -0.17540423945E+03  0.17553997273E+03  0.00000000000E+00 0. -1.
        -15    1    1    2    0    0 -0.49252180400E+01 -0.66815294904E+01 -0.40934623998E+01  0.94241589805E+01  0.17770000000E+01 0.  1.
         15    1    1    2    0    0  0.85987420905E+01 -0.18057801612E+01  0.11364797045E+03  0.11400095668E+03  0.17770000000E+01 0. -1.
</event>
<event>
 6    1  0.1378789E-002  0.1836386E+03  0.7546771E-02  0.1067552E+00
        -11   -1    0    0    0    0  0.00000000000E+00  0.00000000000E+00  0.18250000000E+03  0.18250000000E+03  0.00000000000E+00 0. -1.
         11   -1    0    0    0    0 -0.00000000000E+00 -0.00000000000E+00 -0.18250000000E+03  0.18250000000E+03  0.00000000000E+00 0.  1.
        -11    1    1    2    0    0 -0.17564697272E+01  0.30560367917E+01  0.17682054503E+03  0.17685567475E+03  0.00000000000E+00 0. -1.
         11    1    1    2    0    0  0.24995214066E+01 -0.72275651445E+00 -0.18134273412E+03  0.18136139942E+03  0.00000000000E+00 0.  1.
        -15    1    1    2    0    0 -0.65591377603E+00 -0.78421453511E+00  0.48444282745E+00  0.21065681028E+01  0.17770000000E+01 0. -1.
         15    1    1    2    0    0 -0.87137903326E-01 -0.15490657422E+01  0.40377462616E+01  0.46763577238E+01  0.17770000000E+01 0.  1.
</event>
<event>
 6    1  0.1378789E-002  0.1826660E+03  0.7546771E-02  0.1068323E+00
        -11   -1    0    0    0    0  0.00000000000E+00  0.00000000000E+00  0.18250000000E+03  0.18250000000E+03  0.00000000000E+00 0. -1.
         11   -1    0    0    0    0 -0.00000000000E+00 -0.00000000000E+00 -0.18250000000E+03  0.18250000000E+03  0.00000000000E+00 0. -1.
        -11    1    1    2    0    0  0.11952323667E+01  0.39996272196E+01  0.18228625336E+03  0.18233404444E+03  0.00000000000E+00 0. -1.
         11    1    1    2    0    0  0.72130651959E+00 -0.90058348691E+00 -0.49572781710E+02  0.49586207964E+02  0.00000000000E+00 0. -1.
        -15    1    1    2    0    0 -0.33925545822E+01  0.61368883208E+00 -0.10001656298E+03  0.10009174112E+03  0.17770000000E+01 0. -1.
         15    1    1    2    0    0  0.14760156959E+01 -0.37127325647E+01 -0.32696908674E+02  0.32988006476E+02  0.17770000000E+01 0.  1.
</event>
<event>
 6    1  0.1378789E-002  0.1870511E+03  0.7546771E-02  0.1064889E+00
        -11   -1    0    0    0    0  0.00000000000E+00  0.00000000000E+00  0.18250000000E+03  0.18250000000E+03  0.00000000000E+00 0. -1.
         11   -1    0    0    0    0 -0.00000000000E+00 -0.00000000000E+00 -0.18250000000E+03  0.18250000000E+03  0.00000000000E+00 0. -1.
        -11    1    1    2    0    0  0.37065862722E+01 -0.42464335662E+01  0.88276867192E+02  0.88456634918E+02  0.00000000000E+00 0. -1.
         11    1    1    2    0    0  0.85002721450E+00 -0.15375073974E+02 -0.17728138057E+03  0.17794887846E+03  0.00000000000E+00 0. -1.
        -15    1    1    2    0    0  0.18319340951E+01  0.24678662209E+01  0.75970290046E+02  0.76053198781E+02  0.17770000000E+01 0.  1.
         15    1    1    2    0    0 -0.63885475819E+01  0.17153641319E+02  0.13034223335E+02  0.22541287844E+02  0.17770000000E+01 0. -1.
</event>
<event>
 6    1  0.1378789E-002  0.1429797E+03  0.7546771E-02  0.1105151E+00
        -11   -1    0    0    0    0  0.00000000000E+00  0.00000000000E+00  0.18250000000E+03  0.18250000000E+03  0.00000000000E+00 0.  1.
         11   -1    0    0    0    0 -0.00000000000E+00 -0.00000000000E+00 -0.18250000000E+03  0.18250000000E+03  0.00000000000E+00 0. -1.
        -11    1    1    2    0    0 -0.71475279732E+01  0.18481823497E+02  0.15021046252E+03  0.15151187414E+03  0.00000000000E+00 0.  1.
         11    1    1    2    0    0  0.10466617707E+01  0.60012423639E+01 -0.13578428435E+03  0.13592086774E+03  0.00000000000E+00 0. -1.
        -15    1    1    2    0    0 -0.20097030534E+02 -0.39319188323E+02 -0.13598256606E+00  0.44193499826E+02  0.17770000000E+01 0.  1.
         15    1    1    2    0    0  0.26197896737E+02  0.14836122461E+02 -0.14290195606E+02  0.33373758293E+02  0.17770000000E+01 0. -1.
</event>
<event>
 6    1  0.1378789E-002  0.1808265E+03  0.7546771E-02  0.1069795E+00
        -11   -1    0    0    0    0  0.00000000000E+00  0.00000000000E+00  0.18250000000E+03  0.18250000000E+03  0.00000000000E+00 0. -1.
         11   -1    0    0    0    0 -0.00000000000E+00 -0.00000000000E+00 -0.18250000000E+03  0.18250000000E+03  0.00000000000E+00 0.  1.
        -11    1    1    2    0    0 -0.50267985558E+00  0.34361954516E-01  0.34190478445E+01  0.34559739502E+01  0.00000000000E+00 0. -1.
         11    1    1    2    0    0  0.22427066920E+01  0.11219070887E+01 -0.18240346274E+03  0.18242069956E+03  0.00000000000E+00 0.  1.
        -15    1    1    2    0    0 -0.22629936213E+01 -0.31413184456E+01  0.12184189420E+03  0.12191633989E+03  0.17770000000E+01 0. -1.
         15    1    1    2    0    0  0.52296678492E+00  0.19850494024E+01  0.57142520692E+02  0.57206986597E+02  0.17770000000E+01 0. -1.
</event>
<event>
 6    1  0.1378789E-002  0.1838410E+03  0.7546771E-02  0.1067392E+00
        -11   -1    0    0    0    0  0.00000000000E+00  0.00000000000E+00  0.18250000000E+03  0.18250000000E+03  0.00000000000E+00 0.  1.
         11   -1    0    0    0    0 -0.00000000000E+00 -0.00000000000E+00 -0.18250000000E+03  0.18250000000E+03  0.00000000000E+00 0.  1.
        -11    1    1    2    0    0 -0.12100664698E+02 -0.60514574224E+01  0.18065310745E+03  0.18115902256E+03  0.00000000000E+00 0.  1.
         11    1    1    2    0    0 -0.80306354565E+01 -0.12573519478E+01 -0.60559004209E+02  0.61102086957E+02  0.00000000000E+00 0.  1.
        -15    1    1    2    0    0  0.40863943236E+01  0.10690343460E+01 -0.60750258364E+02  0.60922845250E+02  0.17770000000E+01 0.  1.
         15    1    1    2    0    0  0.16044905831E+02  0.62397750242E+01 -0.59343844873E+02  0.61816045238E+02  0.17770000000E+01 0.  1.
</event>
<event>
 6    1  0.1378789E-002  0.1766884E+03  0.7546771E-02  0.1073177E+00
        -11   -1    0    0    0    0  0.00000000000E+00  0.00000000000E+00  0.18250000000E+03  0.18250000000E+03  0.00000000000E+00 0.  1.
         11   -1    0    0    0    0 -0.00000000000E+00 -0.00000000000E+00 -0.18250000000E+03  0.18250000000E+03  0.00000000000E+00 0.  1.
        -11    1    1    2    0    0  0.18513601401E+01 -0.29927285066E+01  0.17768191083E+03  0.17771675609E+03  0.00000000000E+00 0.  1.
         11    1    1    2    0    0 -0.33940959096E+01 -0.14383052605E+01 -0.17565825415E+03  0.17569692900E+03  0.00000000000E+00 0.  1.
        -15    1    1    2    0    0 -0.26510574399E+01 -0.10781089594E+01 -0.28209130422E+01  0.43938256531E+01  0.17770000000E+01 0. -1.
         15    1    1    2    0    0  0.41937932095E+01  0.55091427266E+01  0.79725636367E+00  0.71924892614E+01  0.17770000000E+01 0.  1.
</event>
<event>
 6    1  0.1378789E-002  0.1825719E+03  0.7546771E-02  0.1068398E+00
        -11   -1    0    0    0    0  0.00000000000E+00  0.00000000000E+00  0.18250000000E+03  0.18250000000E+03  0.00000000000E+00 0.  1.
         11   -1    0    0    0    0 -0.00000000000E+00 -0.00000000000E+00 -0.18250000000E+03  0.18250000000E+03  0.00000000000E+00 0.  1.
        -11    1    1    2    0    0  0.16360611217E+00  0.87687287674E+00  0.45703599668E+02  0.45712303547E+02  0.00000000000E+00 0.  1.
         11    1    1    2    0    0  0.13279254025E+01  0.28920875158E+01 -0.18240031475E+03  0.18242807453E+03  0.00000000000E+00 0.  1.
        -15    1    1    2    0    0 -0.88976144538E+00 -0.33669602901E+00  0.20927239292E+02  0.21024084119E+02  0.17770000000E+01 0. -1.
         15    1    1    2    0    0 -0.60177006924E+00 -0.34322643635E+01  0.11576947579E+03  0.11583553781E+03  0.17770000000E+01 0.  1.
</event>
<event>
 6    1  0.1378789E-002  0.1827616E+03  0.7546771E-02  0.1068247E+00
        -11   -1    0    0    0    0  0.00000000000E+00  0.00000000000E+00  0.18250000000E+03  0.18250000000E+03  0.00000000000E+00 0.  1.
         11   -1    0    0    0    0 -0.00000000000E+00 -0.00000000000E+00 -0.18250000000E+03  0.18250000000E+03  0.00000000000E+00 0.  1.
        -11    1    1    2    0    0 -0.21201005521E+01  0.10311936177E+01  0.51034626373E+02  0.51089052405E+02  0.00000000000E+00 0.  1.
         11    1    1    2    0    0  0.74297492485E+01 -0.22427588503E+01 -0.18207304790E+03  0.18223837662E+03  0.00000000000E+00 0.  1.
        -15    1    1    2    0    0  0.10623827746E-01 -0.15328283128E+01  0.99188498681E+02  0.99216257111E+02  0.17770000000E+01 0.  1.
         15    1    1    2    0    0 -0.53202725241E+01  0.27443935453E+01  0.31849922844E+02  0.32456313867E+02  0.17770000000E+01 0. -1.
</event>
<event>
 6    1  0.1378789E-002  0.1837545E+03  0.7546771E-02  0.1067461E+00
        -11   -1    0    0    0    0  0.00000000000E+00  0.00000000000E+00  0.18250000000E+03  0.18250000000E+03  0.00000000000E+00 0. -1.
         11   -1    0    0    0    0 -0.00000000000E+00 -0.00000000000E+00 -0.18250000000E+03  0.18250000000E+03  0.00000000000E+00 0.  1.
        -11    1    1    2    0    0  0.14456432008E+01 -0.62626882620E+01  0.18113150266E+03  0.18124550313E+03  0.00000000000E+00 0. -1.
         11    1    1    2    0    0 -0.30806624352E+01  0.84195504504E-02 -0.70622239049E+02  0.70689399489E+02  0.00000000000E+00 0.  1.
        -15    1    1    2    0    0 -0.64363330740E+01  0.49645750918E+01 -0.14700516436E+02  0.16891900478E+02  0.17770000000E+01 0. -1.
         15    1    1    2    0    0  0.80713523085E+01  0.12896936198E+01 -0.95808747177E+02  0.96173196902E+02  0.17770000000E+01 0.  1.
</event>
<event>
 6    1  0.1378789E-002  0.1827026E+03  0.7546771E-02  0.1068294E+00
        -11   -1    0    0    0    0  0.00000000000E+00  0.00000000000E+00  0.18250000000E+03  0.18250000000E+03  0.00000000000E+00 0.  1.
         11   -1    0    0    0    0 -0.00000000000E+00 -0.00000000000E+00 -0.18250000000E+03  0.18250000000E+03  0.00000000000E+00 0.  1.
        -11    1    1    2    0    0 -0.22586694111E+01 -0.12787587493E+01  0.18227887299E+03  0.18229735146E+03  0.00000000000E+00 0.  1.
         11    1    1    2    0    0  0.21244065464E+01 -0.13978211237E+01 -0.12951524557E+03  0.12954020937E+03  0.00000000000E+00 0.  1.
        -15    1    1    2    0    0  0.13494234249E+01  0.23954414230E+00 -0.36943189592E+02  0.37011286268E+02  0.17770000000E+01 0. -1.
         15    1    1    2    0    0 -0.12151605603E+01  0.24370357308E+01 -0.15820437820E+02  0.16151152905E+02  0.17770000000E+01 0.  1.
</event>
<event>
 6    1  0.3730251E-002  0.1956501E+03  0.7546771E-02  0.1058444E+00
        -11   -1    0    0    0    0  0.00000000000E+00  0.00000000000E+00  0.18250000000E+03  0.18250000000E+03  0.00000000000E+00 0. -1.
         11   -1    0    0    0    0 -0.00000000000E+00 -0.00000000000E+00 -0.18250000000E+03  0.18250000000E+03  0.00000000000E+00 0.  1.
        -11    1    1    2    0    0  0.16566561674E+01 -0.20136923936E+01  0.16932984353E+03  0.16934991992E+03  0.00000000000E+00 0. -1.
         11    1    1    2    0    0 -0.40119489762E+01 -0.11895810564E+01 -0.14539744406E+03  0.14545764874E+03  0.00000000000E+00 0.  1.
        -15    1    1    2    0    0  0.29705707110E+01  0.65274386301E+00 -0.36785854731E+02  0.36954122939E+02  0.17770000000E+01 0. -1.
         15    1    1    2    0    0 -0.61527790221E+00  0.25505295871E+01  0.12853455267E+02  0.13238308403E+02  0.17770000000E+01 0.  1.
</event>
<event>
 6    1  0.1378789E-002  0.1828969E+03  0.7546771E-02  0.1068139E+00
        -11   -1    0    0    0    0  0.00000000000E+00  0.00000000000E+00  0.18250000000E+03  0.18250000000E+03  0.00000000000E+00 0.  1.
         11   -1    0    0    0    0 -0.00000000000E+00 -0.00000000000E+00 -0.18250000000E+03  0.18250000000E+03  0.00000000000E+00 0.  1.
        -11    1    1    2    0    0  0.34066122054E+00 -0.42873813002E+01  0.12500089267E+03  0.12507486101E+03  0.00000000000E+00 0.  1.
         11    1    1    2    0    0  0.33074252698E+01  0.86862482704E+00 -0.18207094690E+03  0.18210305674E+03  0.00000000000E+00 0.  1.
        -15    1    1    2    0    0 -0.12392607888E+01 -0.19548802927E+01  0.12909272769E+02  0.13234967952E+02  0.17770000000E+01 0. -1.
         15    1    1    2    0    0 -0.24088257014E+01  0.53736367659E+01  0.44160781457E+02  0.44587114296E+02  0.17770000000E+01 0.  1.
</event>
<event>
 6    1  0.1378789E-002  0.1909643E+03  0.7546771E-02  0.1061910E+00
        -11   -1    0    0    0    0  0.00000000000E+00  0.00000000000E+00  0.18250000000E+03  0.18250000000E+03  0.00000000000E+00 0.  1.
         11   -1    0    0    0    0 -0.00000000000E+00 -0.00000000000E+00 -0.18250000000E+03  0.18250000000E+03  0.00000000000E+00 0. -1.
        -11    1    1    2    0    0  0.99219833605E+01  0.18360639094E+02  0.17277985178E+03  0.17403573197E+03  0.00000000000E+00 0.  1.
         11    1    1    2    0    0 -0.37657125344E+01  0.47497313075E+01 -0.12776542097E+03  0.12790912138E+03  0.00000000000E+00 0. -1.
        -15    1    1    2    0    0  0.75608077137E+01  0.67314220478E+01 -0.16926754666E+02  0.19802792950E+02  0.17770000000E+01 0.  1.
         15    1    1    2    0    0 -0.13717078540E+02 -0.29841792450E+02 -0.28087676142E+02  0.43252353697E+02  0.17770000000E+01 0. -1.
</event>
<event>
 6    1  0.1378789E-002  0.1665340E+03  0.7546771E-02  0.1081925E+00
        -11   -1    0    0    0    0  0.00000000000E+00  0.00000000000E+00  0.18250000000E+03  0.18250000000E+03  0.00000000000E+00 0.  1.
         11   -1    0    0    0    0 -0.00000000000E+00 -0.00000000000E+00 -0.18250000000E+03  0.18250000000E+03  0.00000000000E+00 0.  1.
        -11    1    1    2    0    0  0.49090560518E+01  0.53076227314E+00  0.16800523883E+03  0.16807778203E+03  0.00000000000E+00 0.  1.
         11    1    1    2    0    0  0.90981656118E+01 -0.41265105572E+01 -0.16501531682E+03  0.16531745066E+03  0.00000000000E+00 0.  1.
        -15    1    1    2    0    0  0.27711647345E+01 -0.47354322427E+01 -0.99839443840E+01  0.11529984691E+02  0.17770000000E+01 0.  1.
         15    1    1    2    0    0 -0.16778386398E+02  0.83311805267E+01  0.69940223768E+01  0.20074782616E+02  0.17770000000E+01 0. -1.
</event>
<event>
 6    1  0.1378789E-002  0.1837514E+03  0.7546771E-02  0.1067463E+00
        -11   -1    0    0    0    0  0.00000000000E+00  0.00000000000E+00  0.18250000000E+03  0.18250000000E+03  0.00000000000E+00 0.  1.
         11   -1    0    0    0    0 -0.00000000000E+00 -0.00000000000E+00 -0.18250000000E+03  0.18250000000E+03  0.00000000000E+00 0. -1.
        -11    1    1    2    0    0 -0.21416897682E+01  0.16065502257E+01  0.16332220511E+03  0.16334414749E+03  0.00000000000E+00 0.  1.
         11    1    1    2    0    0  0.36872217225E+01 -0.25862425507E+00 -0.18121087591E+03  0.18124856976E+03  0.00000000000E+00 0. -1.
        -15    1    1    2    0    0 -0.38283192386E+01  0.24526483751E+01  0.71862805710E+01  0.86874547303E+01  0.17770000000E+01 0.  1.
         15    1    1    2    0    0  0.22827872843E+01 -0.38005743458E+01  0.10702390231E+02  0.11719828019E+02  0.17770000000E+01 0. -1.
</event>
<event>
 6    1  0.1378789E-002  0.1871839E+03  0.7546771E-02  0.1064786E+00
        -11   -1    0    0    0    0  0.00000000000E+00  0.00000000000E+00  0.18250000000E+03  0.18250000000E+03  0.00000000000E+00 0.  1.
         11   -1    0    0    0    0 -0.00000000000E+00 -0.00000000000E+00 -0.18250000000E+03  0.18250000000E+03  0.00000000000E+00 0. -1.
        -11    1    1    2    0    0 -0.24869181693E+01  0.61454221977E-01  0.11534404468E+03  0.11537086799E+03  0.00000000000E+00 0.  1.
         11    1    1    2    0    0  0.39862223258E+01  0.93062708058E+01 -0.17752761887E+03  0.17781606257E+03  0.00000000000E+00 0. -1.
        -15    1    1    2    0    0  0.17872058507E+01  0.17151365373E+01  0.59799161244E+02  0.59876816988E+02  0.17770000000E+01 0. -1.
         15    1    1    2    0    0 -0.32865100073E+01 -0.11082861565E+02  0.23844129473E+01  0.11936252452E+02  0.17770000000E+01 0.  1.
</event>
<event>
 6    1  0.1378789E-002  0.1826854E+03  0.7546771E-02  0.1068307E+00
        -11   -1    0    0    0    0  0.00000000000E+00  0.00000000000E+00  0.18250000000E+03  0.18250000000E+03  0.00000000000E+00 0. -1.
         11   -1    0    0    0    0 -0.00000000000E+00 -0.00000000000E+00 -0.18250000000E+03  0.18250000000E+03  0.00000000000E+00 0.  1.
        -11    1    1    2    0    0 -0.39486448600E+01 -0.26111422078E+01  0.18225317686E+03  0.18231464652E+03  0.00000000000E+00 0. -1.
         11    1    1    2    0    0 -0.19627685045E+01  0.63934362056E+00 -0.98893112303E+02  0.98914654533E+02  0.00000000000E+00 0.  1.
        -15    1    1    2    0    0  0.70775706199E+00 -0.70246936250E+00 -0.27981053987E+02  0.28055150944E+02  0.17770000000E+01 0. -1.
         15    1    1    2    0    0  0.52036563025E+01  0.26742679498E+01 -0.55379010573E+02  0.55715548001E+02  0.17770000000E+01 0.  1.
</event>
<event>
 6    1  0.1378789E-002  0.1947960E+03  0.7546771E-02  0.1059068E+00
        -11   -1    0    0    0    0  0.00000000000E+00  0.00000000000E+00  0.18250000000E+03  0.18250000000E+03  0.00000000000E+00 0. -1.
         11   -1    0    0    0    0 -0.00000000000E+00 -0.00000000000E+00 -0.18250000000E+03  0.18250000000E+03  0.00000000000E+00 0. -1.
        -11    1    1    2    0    0 -0.27013232278E+01 -0.83864691437E+01  0.15901034662E+03  0.15925426319E+03  0.00000000000E+00 0. -1.
         11    1    1    2    0    0 -0.22368302761E+01 -0.69302424341E+00 -0.17018789894E+03  0.17020400888E+03  0.00000000000E+00 0. -1.
        -15    1    1    2    0    0  0.20361534878E+01 -0.10318100777E+01 -0.10762955641E+02  0.11144931413E+02  0.17770000000E+01 0.  1.
         15    1    1    2    0    0  0.29020000162E+01  0.10111303465E+02  0.21940507960E+02  0.24396796519E+02  0.17770000000E+01 0.  1.
</event>
<event>
 6    1  0.1378789E-002  0.1852269E+03  0.7546771E-02  0.1066305E+00
        -11   -1    0    0    0    0  0.00000000000E+00  0.00000000000E+00  0.18250000000E+03  0.18250000000E+03  0.00000000000E+00 0.  1.
         11   -1    0    0    0    0 -0.00000000000E+00 -0.00000000000E+00 -0.18250000000E+03  0.18250000000E+03  0.00000000000E+00 0. -1.
        -11    1    1    2    0    0 -0.24101290613E+01 -0.44246525067E+01  0.17970250730E+03  0.17977312758E+03  0.00000000000E+00 0.  1.
         11    1    1    2    0    0 -0.17034514383E+00  0.92161204967E+01 -0.16084039337E+03  0.16110430793E+03  0.00000000000E+00 0. -1.
        -15    1    1    2    0    0  0.43900142082E+01 -0.27603422801E+01 -0.53290095625E+00  0.55075790217E+01  0.17770000000E+01 0.  1.
         15    1    1    2    0    0 -0.18095400031E+01 -0.20311257100E+01 -0.18329212972E+02  0.18614985465E+02  0.17770000000E+01 0. -1.
</event>
<event>
 6    1  0.1378789E-002  0.1826396E+03  0.7546771E-02  0.1068344E+00
        -11   -1    0    0    0    0  0.00000000000E+00  0.00000000000E+00  0.18250000000E+03  0.18250000000E+03  0.00000000000E+00 0.  1.
         11   -1    0    0    0    0 -0.00000000000E+00 -0.00000000000E+00 -0.18250000000E+03  0.18250000000E+03  0.00000000000E+00 0.  1.
        -11    1    1    2    0    0  0.18005561086E+01  0.23902873126E+01  0.18233584026E+03  0.18236039625E+03  0.00000000000E+00 0.  1.
         11    1    1    2    0    0 -0.75936760210E+00  0.46077126579E+00 -0.58763535927E+02  0.58770248459E+02  0.00000000000E+00 0.  1.
        -15    1    1    2    0    0 -0.10353630086E+01 -0.44162799464E+01 -0.45293487983E+02  0.45554728490E+02  0.17770000000E+01 0.  1.
         15    1    1    2    0    0 -0.58254978299E-02  0.15652213681E+01 -0.78278816355E+02  0.78314626800E+02  0.17770000000E+01 0.  1.
</event>
<event>
 6    1  0.1378789E-002  0.1841779E+03  0.7546771E-02  0.1067127E+00
        -11   -1    0    0    0    0  0.00000000000E+00  0.00000000000E+00  0.18250000000E+03  0.18250000000E+03  0.00000000000E+00 0. -1.
         11   -1    0    0    0    0 -0.00000000000E+00 -0.00000000000E+00 -0.18250000000E+03  0.18250000000E+03  0.00000000000E+00 0. -1.
        -11    1    1    2    0    0  0.30393796270E+01  0.50154379679E+01  0.16076906397E+03  0.16087599068E+03  0.00000000000E+00 0. -1.
         11    1    1    2    0    0  0.52061500735E+00 -0.35802627687E+01 -0.18078589640E+03  0.18082209394E+03  0.00000000000E+00 0. -1.
        -15    1    1    2    0    0 -0.37145742482E+01 -0.33604787140E+00  0.20692183593E+02  0.21100596694E+02  0.17770000000E+01 0. -1.
         15    1    1    2    0    0  0.15457961379E+00 -0.10991273279E+01 -0.67535116781E+00  0.22013186820E+01  0.17770000000E+01 0.  1.
</event>
<event>
 6    1  0.1378789E-002  0.1827396E+03  0.7546771E-02  0.1068264E+00
        -11   -1    0    0    0    0  0.00000000000E+00  0.00000000000E+00  0.18250000000E+03  0.18250000000E+03  0.00000000000E+00 0.  1.
         11   -1    0    0    0    0 -0.00000000000E+00 -0.00000000000E+00 -0.18250000000E+03  0.18250000000E+03  0.00000000000E+00 0. -1.
        -11    1    1    2    0    0 -0.42967355782E+00  0.28036357715E+00  0.23570807840E+02  0.23576390847E+02  0.00000000000E+00 0.  1.
         11    1    1    2    0    0 -0.72997736939E+00  0.46713132968E+01 -0.18219905142E+03  0.18226038619E+03  0.00000000000E+00 0. -1.
        -15    1    1    2    0    0 -0.26020682620E+01 -0.49971279588E+01  0.13763177422E+03  0.13775850264E+03  0.17770000000E+01 0.  1.
         15    1    1    2    0    0  0.37617191892E+01  0.45451084855E-01  0.20996469366E+02  0.21404720319E+02  0.17770000000E+01 0. -1.
</event>
<event>
 6    1  0.1378789E-002  0.1851416E+03  0.7546771E-02  0.1066371E+00
        -11   -1    0    0    0    0  0.00000000000E+00  0.00000000000E+00  0.18250000000E+03  0.18250000000E+03  0.00000000000E+00 0.  1.
         11   -1    0    0    0    0 -0.00000000000E+00 -0.00000000000E+00 -0.18250000000E+03  0.18250000000E+03  0.00000000000E+00 0.  1.
        -11    1    1    2    0    0 -0.47599821687E+01  0.94707507916E+00  0.14011010767E+03  0.14019413915E+03  0.00000000000E+00 0.  1.
         11    1    1    2    0    0  0.31936587116E+01  0.20384689376E+01 -0.17981851247E+03  0.17985842277E+03  0.00000000000E+00 0.  1.
        -15    1    1    2    0    0  0.41807428116E-01 -0.50191754788E+01  0.41174343500E+02  0.41517203205E+02  0.17770000000E+01 0.  1.
         15    1    1    2    0    0  0.15245160290E+01  0.20336314620E+01 -0.14659386954E+01  0.34302348760E+01  0.17770000000E+01 0. -1.
</event>
<event>
 6    1  0.1378789E-002  0.1882613E+03  0.7546771E-02  0.1063959E+00
        -11   -1    0    0    0    0  0.00000000000E+00  0.00000000000E+00  0.18250000000E+03  0.18250000000E+03  0.00000000000E+00 0. -1.
         11   -1    0    0    0    0 -0.00000000000E+00 -0.00000000000E+00 -0.18250000000E+03  0.18250000000E+03  0.00000000000E+00 0.  1.
        -11    1    1    2    0    0  0.19740177960E+02 -0.91856911438E+01  0.17539249482E+03  0.17673873029E+03  0.00000000000E+00 0. -1.
         11    1    1    2    0    0  0.31831554892E+01 -0.24542447036E+01 -0.10899644899E+03  0.10907053538E+03  0.00000000000E+00 0.  1.
        -15    1    1    2    0    0 -0.17670546734E+02  0.22186659596E+02 -0.58079705563E+02  0.64659925868E+02  0.17770000000E+01 0.  1.
         15    1    1    2    0    0 -0.52527867154E+01 -0.10546723749E+02 -0.83163402641E+01  0.14530808460E+02  0.17770000000E+01 0. -1.
</event>
<event>
 6    1  0.1378789E-002  0.2013198E+03  0.7546771E-02  0.1054389E+00
        -11   -1    0    0    0    0  0.00000000000E+00  0.00000000000E+00  0.18250000000E+03  0.18250000000E+03  0.00000000000E+00 0. -1.
         11   -1    0    0    0    0 -0.00000000000E+00 -0.00000000000E+00 -0.18250000000E+03  0.18250000000E+03  0.00000000000E+00 0. -1.
        -11    1    1    2    0    0 -0.24282963510E+01  0.29418668602E+01  0.16363571703E+03  0.16368017318E+03  0.00000000000E+00 0. -1.
         11    1    1    2    0    0  0.18648459728E+01 -0.50595404188E+01 -0.12168177564E+03  0.12180119507E+03  0.00000000000E+00 0. -1.
        -15    1    1    2    0    0  0.51651028042E+01  0.14352755976E+02 -0.57276511762E+02  0.59299548225E+02  0.17770000000E+01 0. -1.
         15    1    1    2    0    0 -0.46016524260E+01 -0.12235082417E+02  0.15322570371E+02  0.20219083525E+02  0.17770000000E+01 0.  1.
</event>
<event>
 6    1  0.1378789E-002  0.1867111E+03  0.7546771E-02  0.1065151E+00
        -11   -1    0    0    0    0  0.00000000000E+00  0.00000000000E+00  0.18250000000E+03  0.18250000000E+03  0.00000000000E+00 0.  1.
         11   -1    0    0    0    0 -0.00000000000E+00 -0.00000000000E+00 -0.18250000000E+03  0.18250000000E+03  0.00000000000E+00 0.  1.
        -11    1    1    2    0    0  0.74171666904E+01 -0.29125750794E+00  0.17813428084E+03  0.17828887011E+03  0.00000000000E+00 0.  1.
         11    1    1    2    0    0  0.50064722885E+01  0.19199906149E+01 -0.16881683814E+03  0.16890197148E+03  0.00000000000E+00 0.  1.
        -15    1    1    2    0    0 -0.85426640141E+01 -0.62845704256E+00 -0.15421062626E+01  0.88830111695E+01  0.17770000000E+01 0.  1.
         15    1    1    2    0    0 -0.38809749647E+01 -0.10002760644E+01 -0.77753364367E+01  0.89261472420E+01  0.17770000000E+01 0. -1.
</event>
<event>
 6    1  0.1378789E-002  0.1854118E+03  0.7546771E-02  0.1066160E+00
        -11   -1    0    0    0    0  0.00000000000E+00  0.00000000000E+00  0.18250000000E+03  0.18250000000E+03  0.00000000000E+00 0.  1.
         11   -1    0    0    0    0 -0.00000000000E+00 -0.00000000000E+00 -0.18250000000E+03  0.18250000000E+03  0.00000000000E+00 0.  1.
        -11    1    1    2    0    0  0.65448116849E+01 -0.22669876560E+00  0.15666515971E+03  0.15680197135E+03  0.00000000000E+00 0.  1.
         11    1    1    2    0    0  0.18867567135E+01  0.16575998501E+01 -0.17957064881E+03  0.17958821065E+03  0.00000000000E+00 0.  1.
        -15    1    1    2    0    0 -0.21014385247E+01  0.56454463004E+01  0.14513699532E+02  0.15814307158E+02  0.17770000000E+01 0.  1.
         15    1    1    2    0    0 -0.63301298737E+01 -0.70763473848E+01  0.83917895768E+01  0.12795510847E+02  0.17770000000E+01 0. -1.
</event>
<event>
 6    1  0.1378789E-002  0.1773213E+03  0.7546771E-02  0.1072653E+00
        -11   -1    0    0    0    0  0.00000000000E+00  0.00000000000E+00  0.18250000000E+03  0.18250000000E+03  0.00000000000E+00 0. -1.
         11   -1    0    0    0    0 -0.00000000000E+00 -0.00000000000E+00 -0.18250000000E+03  0.18250000000E+03  0.00000000000E+00 0.  1.
        -11    1    1    2    0    0 -0.85067382204E+00 -0.24576426353E+01  0.17785633005E+03  0.17787534341E+03  0.00000000000E+00 0. -1.
         11    1    1    2    0    0 -0.41646876609E+01  0.63343011671E+00 -0.17675889716E+03  0.17680908795E+03  0.00000000000E+00 0.  1.
        -15    1    1    2    0    0 -0.31520830833E+00  0.17307140554E+01  0.25852567308E+01  0.35966663431E+01  0.17770000000E+01 0.  1.
         15    1    1    2    0    0  0.53305697913E+01  0.93498463212E-01 -0.36826896208E+01  0.67189022992E+01  0.17770000000E+01 0.  1.
</event>
<event>
 6    1  0.1378789E-002  0.1847781E+03  0.7546771E-02  0.1066656E+00
        -11   -1    0    0    0    0  0.00000000000E+00  0.00000000000E+00  0.18250000000E+03  0.18250000000E+03  0.00000000000E+00 0. -1.
         11   -1    0    0    0    0 -0.00000000000E+00 -0.00000000000E+00 -0.18250000000E+03  0.18250000000E+03  0.00000000000E+00 0.  1.
        -11    1    1    2    0    0 -0.65365008269E+01 -0.52767613169E+00  0.74803698781E+02  0.75090596192E+02  0.00000000000E+00 0. -1.
         11    1    1    2    0    0 -0.24347323360E+01  0.21042694866E+01 -0.18019312079E+03  0.18022185398E+03  0.00000000000E+00 0.  1.
        -15    1    1    2    0    0  0.39209223758E+01 -0.61660303012E+01  0.10121281377E+03  0.10149179752E+03  0.17770000000E+01 0. -1.
         15    1    1    2    0    0  0.50503107872E+01  0.45894369464E+01  0.41766082399E+01  0.81957523097E+01  0.17770000000E+01 0.  1.
</event>
<event>
 6    1  0.1378789E-002  0.1849058E+03  0.7546771E-02  0.1066556E+00
        -11   -1    0    0    0    0  0.00000000000E+00  0.00000000000E+00  0.18250000000E+03  0.18250000000E+03  0.00000000000E+00 0.  1.
         11   -1    0    0    0    0 -0.00000000000E+00 -0.00000000000E+00 -0.18250000000E+03  0.18250000000E+03  0.00000000000E+00 0.  1.
        -11    1    1    2    0    0 -0.61666477148E+01  0.60358812245E+01  0.17988736845E+03  0.18009421072E+03  0.00000000000E+00 0.  1.
         11    1    1    2    0    0 -0.58710908024E-01 -0.24110148229E+01 -0.14637268093E+03  0.14639254817E+03  0.00000000000E+00 0.  1.
        -15    1    1    2    0    0 -0.14665691782E+01 -0.63499929601E+01 -0.40240211406E+01  0.78628055354E+01  0.17770000000E+01 0.  1.
         15    1    1    2    0    0  0.76919278011E+01  0.27251265585E+01 -0.29490666383E+02  0.30650435572E+02  0.17770000000E+01 0. -1.
</event>
<event>
 6    1  0.1378789E-002  0.1858360E+03  0.7546771E-02  0.1065830E+00
        -11   -1    0    0    0    0  0.00000000000E+00  0.00000000000E+00  0.18250000000E+03  0.18250000000E+03  0.00000000000E+00 0. -1.
         11   -1    0    0    0    0 -0.00000000000E+00 -0.00000000000E+00 -0.18250000000E+03  0.18250000000E+03  0.00000000000E+00 0. -1.
        -11    1    1    2    0    0 -0.50902480738E+01  0.49946398661E+01  0.14587161204E+03  0.14604582929E+03  0.00000000000E+00 0. -1.
         11    1    1    2    0    0  0.42568640549E+01 -0.26021047602E-01 -0.17911344039E+03  0.17916402010E+03  0.00000000000E+00 0. -1.
        -15    1    1    2    0    0 -0.47008823675E+01  0.12872073357E-01 -0.62924097274E+00  0.50647935718E+01  0.17770000000E+01 0. -1.
         15    1    1    2    0    0  0.55342663864E+01 -0.49814908918E+01  0.33871069322E+02  0.34725357046E+02  0.17770000000E+01 0. -1.
</event>
<event>
 6    1  0.1378789E-002  0.1829958E+03  0.7546771E-02  0.1068061E+00
        -11   -1    0    0    0    0  0.00000000000E+00  0.00000000000E+00  0.18250000000E+03  0.18250000000E+03  0.00000000000E+00 0. -1.
         11   -1    0    0    0    0 -0.00000000000E+00 -0.00000000000E+00 -0.18250000000E+03  0.18250000000E+03  0.00000000000E+00 0.  1.
        -11    1    1    2    0    0  0.54500407459E+00 -0.24042859867E+01  0.14904374920E+03  0.14906413652E+03  0.00000000000E+00 0. -1.
         11    1    1    2    0    0  0.33507018354E+01 -0.14991177299E+01 -0.18196720632E+03  0.18200422724E+03  0.00000000000E+00 0.  1.
        -15    1    1    2    0    0 -0.94752608797E+00 -0.86413491614E+00  0.11957360160E+02  0.12156509608E+02  0.17770000000E+01 0. -1.
         15    1    1    2    0    0 -0.29481798220E+01  0.47675386328E+01  0.20966096963E+02  0.21775126629E+02  0.17770000000E+01 0.  1.
</event>
<event>
 6    1  0.1378789E-002  0.1898572E+03  0.7546771E-02  0.1062745E+00
        -11   -1    0    0    0    0  0.00000000000E+00  0.00000000000E+00  0.18250000000E+03  0.18250000000E+03  0.00000000000E+00 0. -1.
         11   -1    0    0    0    0 -0.00000000000E+00 -0.00000000000E+00 -0.18250000000E+03  0.18250000000E+03  0.00000000000E+00 0.  1.
        -11    1    1    2    0    0 -0.32508193332E+01  0.14626896057E+01  0.17000644803E+03  0.17004381687E+03  0.00000000000E+00 0. -1.
         11    1    1    2    0    0  0.15029297574E+01  0.28737703814E+01 -0.17511272601E+03  0.17514275368E+03  0.00000000000E+00 0.  1.
        -15    1    1    2    0    0  0.83270725752E+01 -0.59912186690E+01 -0.10732337150E+01  0.10466345992E+02  0.17770000000E+01 0.  1.
         15    1    1    2    0    0 -0.65791829995E+01  0.16547586820E+01  0.61795117030E+01  0.93470834555E+01  0.17770000000E+01 0. -1.
</event>
<event>
 6    1  0.1378789E-002  0.1835711E+03  0.7546771E-02  0.1067605E+00
        -11   -1    0    0    0    0  0.00000000000E+00  0.00000000000E+00  0.18250000000E+03  0.18250000000E+03  0.00000000000E+00 0.  1.
         11   -1    0    0    0    0 -0.00000000000E+00 -0.00000000000E+00 -0.18250000000E+03  0.18250000000E+03  0.00000000000E+00 0. -1.
        -11    1    1    2    0    0 -0.11765887348E+01  0.38596039932E+01  0.18138404654E+03  0.18142892064E+03  0.00000000000E+00 0.  1.
         11    1    1    2    0    0  0.72671504152E+00  0.21365793062E+01 -0.14551817228E+03  0.14553567105E+03  0.00000000000E+00 0. -1.
        -15    1    1    2    0    0 -0.34771761841E+01  0.94640756012E+00 -0.74081980798E+01  0.84276668939E+01  0.17770000000E+01 0.  1.
         15    1    1    2    0    0  0.39270498773E+01 -0.69425908595E+01 -0.28457676189E+02  0.29607741414E+02  0.17770000000E+01 0.  1.
</event>
<event>
 6    1  0.1378789E-002  0.1884876E+03  0.7546771E-02  0.1063786E+00
        -11   -1    0    0    0    0  0.00000000000E+00  0.00000000000E+00  0.18250000000E+03  0.18250000000E+03  0.00000000000E+00 0. -1.
         11   -1    0    0    0    0 -0.00000000000E+00 -0.00000000000E+00 -0.18250000000E+03  0.18250000000E+03  0.00000000000E+00 0. -1.
        -11    1    1    2    0    0  0.54663352754E+01 -0.13921955856E+01  0.17642228264E+03  0.17651243821E+03  0.00000000000E+00 0. -1.
         11    1    1    2    0    0 -0.26159450579E+01  0.58511394183E+00 -0.11915423490E+03  0.11918438330E+03  0.00000000000E+00 0. -1.
        -15    1    1    2    0    0 -0.19370725873E+01  0.42280893839E+01 -0.62523702201E+02  0.62721607569E+02  0.17770000000E+01 0. -1.
         15    1    1    2    0    0 -0.91331763020E+00 -0.34210077401E+01  0.52556544603E+01  0.65815709262E+01  0.17770000000E+01 0.  1.
</event>
<event>
 6    1  0.1378789E-002  0.1323808E+03  0.7546771E-02  0.1117272E+00
        -11   -1    0    0    0    0  0.00000000000E+00  0.00000000000E+00  0.18250000000E+03  0.18250000000E+03  0.00000000000E+00 0. -1.
         11   -1    0    0    0    0 -0.00000000000E+00 -0.00000000000E+00 -0.18250000000E+03  0.18250000000E+03  0.00000000000E+00 0. -1.
        -11    1    1    2    0    0 -0.21145696128E+02 -0.18751245411E+02  0.12200627024E+03  0.12523689411E+03  0.00000000000E+00 0. -1.
         11    1    1    2    0    0 -0.39003727761E+01 -0.11656145124E+02 -0.14271053807E+03  0.14323887846E+03  0.00000000000E+00 0. -1.
        -15    1    1    2    0    0 -0.97896229291E+01  0.12049158023E+02  0.46741240764E+02  0.49284076975E+02  0.17770000000E+01 0.  1.
         15    1    1    2    0    0  0.34835691834E+02  0.18358232513E+02 -0.26036972934E+02  0.47240150456E+02  0.17770000000E+01 0. -1.
</event>
<event>
 6    1  0.1378789E-002  0.1836316E+03  0.7546771E-02  0.1067558E+00
        -11   -1    0    0    0    0  0.00000000000E+00  0.00000000000E+00  0.18250000000E+03  0.18250000000E+03  0.00000000000E+00 0.  1.
         11   -1    0    0    0    0 -0.00000000000E+00 -0.00000000000E+00 -0.18250000000E+03  0.18250000000E+03  0.00000000000E+00 0. -1.
        -11    1    1    2    0    0 -0.21413423395E+01  0.10083463544E+01  0.51117390509E+02  0.51172157682E+02  0.00000000000E+00 0.  1.
         11    1    1    2    0    0 -0.22723341473E+01 -0.65239741292E+01 -0.18123679200E+03  0.18136841101E+03  0.00000000000E+00 0. -1.
        -15    1    1    2    0    0 -0.15029678091E+01 -0.73260695036E+01  0.79549603902E+02  0.79920131485E+02  0.17770000000E+01 0.  1.
         15    1    1    2    0    0  0.59166442959E+01  0.12841697278E+02  0.50569797585E+02  0.52539299820E+02  0.17770000000E+01 0. -1.
</event>
<event>
 6    1  0.1378789E-002  0.1768375E+03  0.7546771E-02  0.1073054E+00
        -11   -1    0    0    0    0  0.00000000000E+00  0.00000000000E+00  0.18250000000E+03  0.18250000000E+03  0.00000000000E+00 0. -1.
         11   -1    0    0    0    0 -0.00000000000E+00 -0.00000000000E+00 -0.18250000000E+03  0.18250000000E+03  0.00000000000E+00 0. -1.
        -11    1    1    2    0    0 -0.27931522367E+01 -0.23371163139E+01  0.17774484724E+03  0.17778215471E+03  0.00000000000E+00 0. -1.
         11    1    1    2    0    0  0.37171800076E+00 -0.34275935908E+01 -0.17591897300E+03  0.17595275398E+03  0.00000000000E+00 0. -1.
        -15    1    1    2    0    0  0.37161916555E+01  0.48139164601E+01  0.20926445225E+01  0.66723880435E+01  0.17770000000E+01 0. -1.
         15    1    1    2    0    0 -0.12947574196E+01  0.95079344463E+00 -0.39185187683E+01  0.45927032658E+01  0.17770000000E+01 0.  1.
</event>
<event>
 6    1  0.1378789E-002  0.1438902E+03  0.7546771E-02  0.1104164E+00
        -11   -1    0    0    0    0  0.00000000000E+00  0.00000000000E+00  0.18250000000E+03  0.18250000000E+03  0.00000000000E+00 0. -1.
         11   -1    0    0    0    0 -0.00000000000E+00 -0.00000000000E+00 -0.18250000000E+03  0.18250000000E+03  0.00000000000E+00 0. -1.
        -11    1    1    2    0    0 -0.39235176920E+01  0.31302420028E+01  0.13230139473E+03  0.13239656889E+03  0.00000000000E+00 0. -1.
         11    1    1    2    0    0  0.43580662485E+01  0.15012467867E+01 -0.25666069490E+02  0.26076687029E+02  0.00000000000E+00 0. -1.
        -15    1    1    2    0    0  0.42064259153E+01 -0.19659260272E+01  0.49771050848E+02  0.50018737646E+02  0.17770000000E+01 0. -1.
         15    1    1    2    0    0 -0.46409744717E+01 -0.26655627622E+01 -0.15640637609E+03  0.15650800644E+03  0.17770000000E+01 0. -1.
</event>
<event>
 6    1  0.1378789E-002  0.1541962E+03  0.7546771E-02  0.1093523E+00
        -11   -1    0    0    0    0  0.00000000000E+00  0.00000000000E+00  0.18250000000E+03  0.18250000000E+03  0.00000000000E+00 0. -1.
         11   -1    0    0    0    0 -0.00000000000E+00 -0.00000000000E+00 -0.18250000000E+03  0.18250000000E+03  0.00000000000E+00 0. -1.
        -11    1    1    2    0    0  0.23089744709E+01 -0.18164153931E+01  0.15355023300E+03  0.15357833435E+03  0.00000000000E+00 0. -1.
         11    1    1    2    0    0 -0.10333704998E+02 -0.16062324935E+02 -0.15425906765E+03  0.15543694443E+03  0.00000000000E+00 0. -1.
        -15    1    1    2    0    0 -0.11748632134E+02  0.29670334236E+02  0.54219842569E+01  0.32417815055E+02  0.17770000000E+01 0.  1.
         15    1    1    2    0    0  0.19773362661E+02 -0.11791593908E+02 -0.47131496068E+01  0.23566906161E+02  0.17770000000E+01 0. -1.
</event>
<event>
 6    1  0.1378789E-002  0.1874328E+03  0.7546771E-02  0.1064595E+00
        -11   -1    0    0    0    0  0.00000000000E+00  0.00000000000E+00  0.18250000000E+03  0.18250000000E+03  0.00000000000E+00 0.  1.
         11   -1    0    0    0    0 -0.00000000000E+00 -0.00000000000E+00 -0.18250000000E+03  0.18250000000E+03  0.00000000000E+00 0. -1.
        -11    1    1    2    0    0  0.13877059234E+02  0.91391400658E+00  0.61813883281E+02  0.63359010236E+02  0.00000000000E+00 0.  1.
         11    1    1    2    0    0 -0.21930173854E+01  0.23764185915E+01 -0.17753773030E+03  0.17756717706E+03  0.00000000000E+00 0. -1.
        -15    1    1    2    0    0  0.14296652484E+02  0.74054939767E+01  0.50479058831E+02  0.53014419951E+02  0.17770000000E+01 0. -1.
         15    1    1    2    0    0 -0.25980694333E+02 -0.10695826575E+02  0.65244788184E+02  0.71059392752E+02  0.17770000000E+01 0.  1.
</event>
<event>
 6    1  0.1378789E-002  0.1758888E+03  0.7546771E-02  0.1073843E+00
        -11   -1    0    0    0    0  0.00000000000E+00  0.00000000000E+00  0.18250000000E+03  0.18250000000E+03  0.00000000000E+00 0.  1.
         11   -1    0    0    0    0 -0.00000000000E+00 -0.00000000000E+00 -0.18250000000E+03  0.18250000000E+03  0.00000000000E+00 0. -1.
        -11    1    1    2    0    0  0.13693437613E+01 -0.26410995989E+01  0.17488462799E+03  0.17490993001E+03  0.00000000000E+00 0.  1.
         11    1    1    2    0    0 -0.35400155181E+01 -0.60270302372E-01 -0.17685491441E+03  0.17689035048E+03  0.00000000000E+00 0. -1.
        -15    1    1    2    0    0  0.12790273702E+01  0.18056082596E+01 -0.50805175747E+01  0.58194089071E+01  0.17770000000E+01 0.  1.
         15    1    1    2    0    0  0.89164438653E+00  0.89576164163E+00  0.70508039939E+01  0.73803106027E+01  0.17770000000E+01 0. -1.
</event>
<event>
 6    1  0.1378789E-002  0.1897428E+03  0.7546771E-02  0.1062831E+00
        -11   -1    0    0    0    0  0.00000000000E+00  0.00000000000E+00  0.18250000000E+03  0.18250000000E+03  0.00000000000E+00 0.  1.
         11   -1    0    0    0    0 -0.00000000000E+00 -0.00000000000E+00 -0.18250000000E+03  0.18250000000E+03  0.00000000000E+00 0. -1.
        -11    1    1    2    0    0 -0.52376996839E+01  0.70476294152E+00  0.17517746752E+03  0.17525716909E+03  0.00000000000E+00 0.  1.
         11    1    1    2    0    0  0.22304519234E+01  0.74937671156E+00 -0.16966881257E+03  0.16968512734E+03  0.00000000000E+00 0. -1.
        -15    1    1    2    0    0 -0.17432844989E+01 -0.15534321257E+01 -0.11694909874E+02  0.12057397653E+02  0.17770000000E+01 0.  1.
         15    1    1    2    0    0  0.47505322594E+01  0.99292472611E-01  0.61862549247E+01  0.80003059152E+01  0.17770000000E+01 0.  1.
</event>
<event>
 6    1  0.1378789E-002  0.1835844E+03  0.7546771E-02  0.1067595E+00
        -11   -1    0    0    0    0  0.00000000000E+00  0.00000000000E+00  0.18250000000E+03  0.18250000000E+03  0.00000000000E+00 0.  1.
         11   -1    0    0    0    0 -0.00000000000E+00 -0.00000000000E+00 -0.18250000000E+03  0.18250000000E+03  0.00000000000E+00 0. -1.
        -11    1    1    2    0    0  0.37415069882E+01 -0.15353224266E+01  0.18137051102E+03  0.18141559568E+03  0.00000000000E+00 0.  1.
         11    1    1    2    0    0  0.27166677216E+00  0.25406340023E+01 -0.11966087378E+03  0.11968815037E+03  0.00000000000E+00 0. -1.
        -15    1    1    2    0    0 -0.33312288338E+01  0.21133313787E+01 -0.34813294616E+01  0.55534348722E+01  0.17770000000E+01 0.  1.
         15    1    1    2    0    0 -0.68194492656E+00 -0.31186429544E+01 -0.58228307772E+02  0.58342819077E+02  0.17770000000E+01 0.  1.
</event>
<event>
 6    1  0.1378789E-002  0.1863343E+03  0.7546771E-02  0.1065443E+00
        -11   -1    0    0    0    0  0.00000000000E+00  0.00000000000E+00  0.18250000000E+03  0.18250000000E+03  0.00000000000E+00 0.  1.
         11   -1    0    0    0    0 -0.00000000000E+00 -0.00000000000E+00 -0.18250000000E+03  0.18250000000E+03  0.00000000000E+00 0. -1.
        -11    1    1    2    0    0 -0.28354501776E+01 -0.75305436570E+00  0.17864158214E+03  0.17866567028E+03  0.00000000000E+00 0.  1.
         11    1    1    2    0    0  0.53760489486E+00 -0.10354099186E+02 -0.14029680353E+03  0.14067938537E+03  0.00000000000E+00 0. -1.
        -15    1    1    2    0    0  0.20636685414E+01  0.15335439920E+02 -0.37978053489E+02  0.41047834549E+02  0.17770000000E+01 0. -1.
         15    1    1    2    0    0  0.23417674126E+00 -0.42282863680E+01 -0.36672512184E+00  0.46071097959E+01  0.17770000000E+01 0. -1.
</event>
<event>
 6    1  0.1378789E-002  0.1844436E+03  0.7546771E-02  0.1066918E+00
        -11   -1    0    0    0    0  0.00000000000E+00  0.00000000000E+00  0.18250000000E+03  0.18250000000E+03  0.00000000000E+00 0.  1.
         11   -1    0    0    0    0 -0.00000000000E+00 -0.00000000000E+00 -0.18250000000E+03  0.18250000000E+03  0.00000000000E+00 0. -1.
        -11    1    1    2    0    0  0.28251818689E+01  0.44161761885E+00  0.17641706779E+03  0.17644024055E+03  0.00000000000E+00 0.  1.
         11    1    1    2    0    0 -0.66981350524E+00 -0.34142101896E+01 -0.18052290727E+03  0.18055643310E+03  0.00000000000E+00 0. -1.
        -15    1    1    2    0    0 -0.23385478393E+01  0.15995329950E+01  0.28110128157E-01  0.33445225336E+01  0.17770000000E+01 0.  1.
         15    1    1    2    0    0  0.18317947564E+00  0.13730595758E+01  0.40777293566E+01  0.46588038191E+01  0.17770000000E+01 0. -1.
</event>
<event>
 6    1  0.1378789E-002  0.1825812E+03  0.7546771E-02  0.1068390E+00
        -11   -1    0    0    0    0  0.00000000000E+00  0.00000000000E+00  0.18250000000E+03  0.18250000000E+03  0.00000000000E+00 0. -1.
         11   -1    0    0    0    0 -0.00000000000E+00 -0.00000000000E+00 -0.18250000000E+03  0.18250000000E+03  0.00000000000E+00 0. -1.
        -11    1    1    2    0    0  0.73361627917E+00  0.16931352583E+00  0.22633554935E+02  0.22646074028E+02  0.00000000000E+00 0. -1.
         11    1    1    2    0    0  0.55999622511E+00 -0.26282950876E+01 -0.18239904218E+03  0.18241883707E+03  0.00000000000E+00 0. -1.
        -15    1    1    2    0    0 -0.20147734864E+01  0.27990125722E+01  0.14364320014E+03  0.14369558260E+03  0.17770000000E+01 0. -1.
         15    1    1    2    0    0  0.72116098207E+00 -0.34003101048E+00  0.16122287104E+02  0.16239506295E+02  0.17770000000E+01 0. -1.
</event>
<event>
 6    1  0.1378789E-002  0.1882071E+03  0.7546771E-02  0.1064001E+00
        -11   -1    0    0    0    0  0.00000000000E+00  0.00000000000E+00  0.18250000000E+03  0.18250000000E+03  0.00000000000E+00 0.  1.
         11   -1    0    0    0    0 -0.00000000000E+00 -0.00000000000E+00 -0.18250000000E+03  0.18250000000E+03  0.00000000000E+00 0.  1.
        -11    1    1    2    0    0  0.15844718432E+01 -0.11345798995E+02  0.17642133757E+03  0.17679289029E+03  0.00000000000E+00 0.  1.
         11    1    1    2    0    0 -0.53169383204E+01 -0.12187475075E+02 -0.12822703311E+03  0.12891460895E+03  0.00000000000E+00 0.  1.
        -15    1    1    2    0    0  0.97014236299E+01  0.11244698045E+02 -0.41222657769E+02  0.43852321457E+02  0.17770000000E+01 0.  1.
         15    1    1    2    0    0 -0.59689571527E+01  0.12288576025E+02 -0.69716466956E+01  0.15440179302E+02  0.17770000000E+01 0. -1.
</event>
<event>
 6    1  0.2229268E-002  0.1864727E+03  0.7546771E-02  0.1065336E+00
        -11   -1    0    0    0    0  0.00000000000E+00  0.00000000000E+00  0.18250000000E+03  0.18250000000E+03  0.00000000000E+00 0.  1.
         11   -1    0    0    0    0 -0.00000000000E+00 -0.00000000000E+00 -0.18250000000E+03  0.18250000000E+03  0.00000000000E+00 0. -1.
        -11    1    1    2    0    0 -0.48689880384E-01  0.39436721023E+01  0.17848374807E+03  0.17852731793E+03  0.00000000000E+00 0.  1.
         11    1    1    2    0    0 -0.90374957412E+00 -0.18821700495E+01 -0.14363785207E+03  0.14365302598E+03  0.00000000000E+00 0. -1.
        -15    1    1    2    0    0 -0.10740908835E+01  0.12461937965E+01 -0.37641033620E+02  0.37718852199E+02  0.17770000000E+01 0.  1.
         15    1    1    2    0    0  0.20265303380E+01 -0.33076958493E+01  0.27951376144E+01  0.51008038902E+01  0.17770000000E+01 0. -1.
</event>
<event>
 6    1  0.1378789E-002  0.1832093E+03  0.7546771E-02  0.1067892E+00
        -11   -1    0    0    0    0  0.00000000000E+00  0.00000000000E+00  0.18250000000E+03  0.18250000000E+03  0.00000000000E+00 0. -1.
         11   -1    0    0    0    0 -0.00000000000E+00 -0.00000000000E+00 -0.18250000000E+03  0.18250000000E+03  0.00000000000E+00 0.  1.
        -11    1    1    2    0    0 -0.27796265846E+01  0.11674463350E+01  0.16334117135E+03  0.16336899189E+03  0.00000000000E+00 0. -1.
         11    1    1    2    0    0 -0.39555997382E+00 -0.43737607666E+01 -0.18173762387E+03  0.18179067682E+03  0.00000000000E+00 0.  1.
        -15    1    1    2    0    0  0.24730170605E+01  0.35366525956E+01  0.16424631447E+02  0.17074834469E+02  0.17770000000E+01 0. -1.
         15    1    1    2    0    0  0.70216949793E+00 -0.33033816397E+00  0.19718210718E+01  0.27654968172E+01  0.17770000000E+01 0. -1.
</event>
<event>
 6    1  0.1378789E-002  0.1827900E+03  0.7546771E-02  0.1068224E+00
        -11   -1    0    0    0    0  0.00000000000E+00  0.00000000000E+00  0.18250000000E+03  0.18250000000E+03  0.00000000000E+00 0.  1.
         11   -1    0    0    0    0 -0.00000000000E+00 -0.00000000000E+00 -0.18250000000E+03  0.18250000000E+03  0.00000000000E+00 0. -1.
        -11    1    1    2    0    0 -0.66850842664E+00 -0.86121943840E+00  0.55251553679E+02  0.55262308913E+02  0.00000000000E+00 0.  1.
         11    1    1    2    0    0 -0.33368555690E+01  0.15454510706E+00 -0.18217935816E+03  0.18220998060E+03  0.00000000000E+00 0. -1.
        -15    1    1    2    0    0  0.76038556620E+00  0.33264367818E+01  0.14293165888E+02  0.14801881231E+02  0.17770000000E+01 0. -1.
         15    1    1    2    0    0  0.32449784294E+01 -0.26197624505E+01  0.11263463860E+03  0.11272582926E+03  0.17770000000E+01 0.  1.
</event>
<event>
 6    1  0.1378789E-002  0.1836197E+03  0.7546771E-02  0.1067567E+00
        -11   -1    0    0    0    0  0.00000000000E+00  0.00000000000E+00  0.18250000000E+03  0.18250000000E+03  0.00000000000E+00 0.  1.
         11   -1    0    0    0    0 -0.00000000000E+00 -0.00000000000E+00 -0.18250000000E+03  0.18250000000E+03  0.00000000000E+00 0. -1.
        -11    1    1    2    0    0 -0.15826775577E+01 -0.34925901525E+01  0.16020205533E+03  0.16024793785E+03  0.00000000000E+00 0.  1.
         11    1    1    2    0    0 -0.33486174884E+00  0.35983443163E+01 -0.18134427238E+03  0.18138027826E+03  0.00000000000E+00 0. -1.
        -15    1    1    2    0    0 -0.50917921643E+00  0.25091644723E+01  0.18077454641E+02  0.18344134352E+02  0.17770000000E+01 0. -1.
         15    1    1    2    0    0  0.24267185230E+01 -0.26149186361E+01  0.30647624135E+01  0.50276495417E+01  0.17770000000E+01 0.  1.
</event>
<event>
 6    1  0.1378789E-002  0.1920028E+03  0.7546771E-02  0.1061133E+00
        -11   -1    0    0    0    0  0.00000000000E+00  0.00000000000E+00  0.18250000000E+03  0.18250000000E+03  0.00000000000E+00 0. -1.
         11   -1    0    0    0    0 -0.00000000000E+00 -0.00000000000E+00 -0.18250000000E+03  0.18250000000E+03  0.00000000000E+00 0. -1.
        -11    1    1    2    0    0 -0.33812743306E+01 -0.22661022665E+00  0.17296397344E+03  0.17299716899E+03  0.00000000000E+00 0. -1.
         11    1    1    2    0    0  0.17571719575E+01 -0.26687471900E+01 -0.17032189305E+03  0.17035186268E+03  0.00000000000E+00 0. -1.
        -15    1    1    2    0    0 -0.50812101860E+01 -0.69675848788E+00 -0.97049816998E+01  0.11119737773E+02  0.17770000000E+01 0. -1.
         15    1    1    2    0    0  0.67053125592E+01  0.35921159045E+01  0.70629013090E+01  0.10531230559E+02  0.17770000000E+01 0.  1.
</event>
<event>
 6    1  0.1378789E-002  0.1747605E+03  0.7546771E-02  0.1074788E+00
        -11   -1    0    0    0    0  0.00000000000E+00  0.00000000000E+00  0.18250000000E+03  0.18250000000E+03  0.00000000000E+00 0. -1.
         11   -1    0    0    0    0 -0.00000000000E+00 -0.00000000000E+00 -0.18250000000E+03  0.18250000000E+03  0.00000000000E+00 0. -1.
        -11    1    1    2    0    0  0.58458921362E+01 -0.84448385619E+00  0.17455090459E+03  0.17465081134E+03  0.00000000000E+00 0. -1.
         11    1    1    2    0    0  0.21796081780E+01 -0.51719424502E+01 -0.17492434544E+03  0.17501436029E+03  0.00000000000E+00 0. -1.
        -15    1    1    2    0    0 -0.96910640739E+01  0.13239914455E+01  0.10853218163E+01  0.10000266430E+02  0.17770000000E+01 0. -1.
         15    1    1    2    0    0  0.16655637597E+01  0.46924348609E+01 -0.71188096969E+00  0.53345619386E+01  0.17770000000E+01 0.  1.
</event>
<event>
 6    1  0.1378789E-002  0.1837748E+03  0.7546771E-02  0.1067445E+00
        -11   -1    0    0    0    0  0.00000000000E+00  0.00000000000E+00  0.18250000000E+03  0.18250000000E+03  0.00000000000E+00 0. -1.
         11   -1    0    0    0    0 -0.00000000000E+00 -0.00000000000E+00 -0.18250000000E+03  0.18250000000E+03  0.00000000000E+00 0. -1.
        -11    1    1    2    0    0 -0.20972260937E+01  0.31967812753E+01  0.11473315940E+03  0.11479684505E+03  0.00000000000E+00 0. -1.
         11    1    1    2    0    0  0.37963820759E+01  0.78628584337E+01 -0.18101476618E+03  0.18122522627E+03  0.00000000000E+00 0. -1.
        -15    1    1    2    0    0  0.44837332845E+01 -0.10972599703E+02  0.51146286841E+02  0.52531915966E+02  0.17770000000E+01 0.  1.
         15    1    1    2    0    0 -0.61828892667E+01 -0.87040005942E-01  0.15135319939E+02  0.16446012717E+02  0.17770000000E+01 0. -1.
</event>
<event>
 6    1  0.1378789E-002  0.1833166E+03  0.7546771E-02  0.1067807E+00
        -11   -1    0    0    0    0  0.00000000000E+00  0.00000000000E+00  0.18250000000E+03  0.18250000000E+03  0.00000000000E+00 0.  1.
         11   -1    0    0    0    0 -0.00000000000E+00 -0.00000000000E+00 -0.18250000000E+03  0.18250000000E+03  0.00000000000E+00 0. -1.
        -11    1    1    2    0    0  0.83364525170E+00  0.25130168572E+01  0.13422352567E+03  0.13424963710E+03  0.00000000000E+00 0.  1.
         11    1    1    2    0    0 -0.50621417980E+01 -0.10295328866E+01 -0.18160995588E+03  0.18168340951E+03  0.00000000000E+00 0. -1.
        -15    1    1    2    0    0  0.64490585731E+01  0.30633019982E+01  0.28412794010E+02  0.29349936423E+02  0.17770000000E+01 0.  1.
         15    1    1    2    0    0 -0.22205620268E+01 -0.45467859689E+01  0.18973636201E+02  0.19717016966E+02  0.17770000000E+01 0. -1.
</event>
<event>
 6    1  0.1378789E-002  0.1853344E+03  0.7546771E-02  0.1066221E+00
        -11   -1    0    0    0    0  0.00000000000E+00  0.00000000000E+00  0.18250000000E+03  0.18250000000E+03  0.00000000000E+00 0.  1.
         11   -1    0    0    0    0 -0.00000000000E+00 -0.00000000000E+00 -0.18250000000E+03  0.18250000000E+03  0.00000000000E+00 0.  1.
        -11    1    1    2    0    0  0.36084879047E+01  0.41051439785E+00  0.17962893923E+03  0.17966564923E+03  0.00000000000E+00 0.  1.
         11    1    1    2    0    0 -0.16276039734E+01  0.12804740004E+01 -0.51422256269E+02  0.51463940271E+02  0.00000000000E+00 0.  1.
        -15    1    1    2    0    0  0.60094394338E+00 -0.42216578945E+01 -0.12954362597E+03  0.12962597073E+03  0.17770000000E+01 0.  1.
         15    1    1    2    0    0 -0.25818278747E+01  0.25306694963E+01  0.13369430145E+01  0.42444397626E+01  0.17770000000E+01 0. -1.
</event>
<event>
 6    1  0.2003992E-002  0.1830676E+03  0.7546771E-02  0.1068004E+00
        -11   -1    0    0    0    0  0.00000000000E+00  0.00000000000E+00  0.18250000000E+03  0.18250000000E+03  0.00000000000E+00 0. -1.
         11   -1    0    0    0    0 -0.00000000000E+00 -0.00000000000E+00 -0.18250000000E+03  0.18250000000E+03  0.00000000000E+00 0.  1.
        -11    1    1    2    0    0 -0.28636014468E+01 -0.22629275953E+01  0.18189580074E+03  0.18193241432E+03  0.00000000000E+00 0. -1.
         11    1    1    2    0    0 -0.69317052830E+00 -0.32852957803E+00 -0.46922550571E+02  0.46928820240E+02  0.00000000000E+00 0.  1.
        -15    1    1    2    0    0  0.22399396748E+01  0.17016576506E+01 -0.42676540052E+01  0.54114294059E+01  0.17770000000E+01 0. -1.
         15    1    1    2    0    0  0.13168323003E+01  0.88979952267E+00 -0.13070559616E+03  0.13072733604E+03  0.17770000000E+01 0.  1.
</event>
<event>
 6    1  0.1378789E-002  0.1839720E+03  0.7546771E-02  0.1067289E+00
        -11   -1    0    0    0    0  0.00000000000E+00  0.00000000000E+00  0.18250000000E+03  0.18250000000E+03  0.00000000000E+00 0. -1.
         11   -1    0    0    0    0 -0.00000000000E+00 -0.00000000000E+00 -0.18250000000E+03  0.18250000000E+03  0.00000000000E+00 0.  1.
        -11    1    1    2    0    0 -0.30438195201E+01 -0.77690404085E+01  0.18083563677E+03  0.18102803748E+03  0.00000000000E+00 0. -1.
         11    1    1    2    0    0 -0.45961083573E+01  0.10082502642E-01 -0.13084026894E+03  0.13092096964E+03  0.00000000000E+00 0.  1.
        -15    1    1    2    0    0  0.14752487274E+00 -0.30558256666E+01 -0.19085137547E+02  0.19410307527E+02  0.17770000000E+01 0. -1.
         15    1    1    2    0    0  0.74924030047E+01  0.10814783572E+02 -0.30910230281E+02  0.33640685360E+02  0.17770000000E+01 0.  1.
</event>
<event>
 6    1  0.1378789E-002  0.1830763E+03  0.7546771E-02  0.1067997E+00
        -11   -1    0    0    0    0  0.00000000000E+00  0.00000000000E+00  0.18250000000E+03  0.18250000000E+03  0.00000000000E+00 0. -1.
         11   -1    0    0    0    0 -0.00000000000E+00 -0.00000000000E+00 -0.18250000000E+03  0.18250000000E+03  0.00000000000E+00 0. -1.
        -11    1    1    2    0    0  0.14222810477E+01  0.54255733807E+01  0.18183721437E+03  0.18192369901E+03  0.00000000000E+00 0. -1.
         11    1    1    2    0    0  0.57174103371E+00 -0.51063126993E+01 -0.45656493636E+02  0.45944713823E+02  0.00000000000E+00 0. -1.
        -15    1    1    2    0    0 -0.39685360730E+01  0.48314767611E+01 -0.11466302962E+03  0.11484711811E+03  0.17770000000E+01 0. -1.
         15    1    1    2    0    0  0.19745139916E+01 -0.51507374425E+01 -0.21517691112E+02  0.22284469065E+02  0.17770000000E+01 0.  1.
</event>
<event>
 6    1  0.1378789E-002  0.1860785E+03  0.7546771E-02  0.1065641E+00
        -11   -1    0    0    0    0  0.00000000000E+00  0.00000000000E+00  0.18250000000E+03  0.18250000000E+03  0.00000000000E+00 0. -1.
         11   -1    0    0    0    0 -0.00000000000E+00 -0.00000000000E+00 -0.18250000000E+03  0.18250000000E+03  0.00000000000E+00 0. -1.
        -11    1    1    2    0    0  0.68899094742E+01 -0.52778682101E+01  0.13651520625E+03  0.13679081944E+03  0.00000000000E+00 0. -1.
         11    1    1    2    0    0  0.98208749780E+01  0.17151225443E+01 -0.17864353282E+03  0.17892149968E+03  0.00000000000E+00 0. -1.
        -15    1    1    2    0    0 -0.12555771597E+02  0.24860357113E+01  0.42694976841E+02  0.44607696089E+02  0.17770000000E+01 0. -1.
         15    1    1    2    0    0 -0.41550128556E+01  0.10767099545E+01 -0.56665027008E+00  0.46799847954E+01  0.17770000000E+01 0.  1.
</event>
<event>
 6    1  0.1378789E-002  0.1826034E+03  0.7546771E-02  0.1068373E+00
        -11   -1    0    0    0    0  0.00000000000E+00  0.00000000000E+00  0.18250000000E+03  0.18250000000E+03  0.00000000000E+00 0. -1.
         11   -1    0    0    0    0 -0.00000000000E+00 -0.00000000000E+00 -0.18250000000E+03  0.18250000000E+03  0.00000000000E+00 0. -1.
        -11    1    1    2    0    0  0.17000214393E+01  0.24025660673E+01  0.18237290114E+03  0.18239664873E+03  0.00000000000E+00 0. -1.
         11    1    1    2    0    0  0.14028393464E+01 -0.19388741712E+01 -0.12587955547E+03  0.12590230211E+03  0.00000000000E+00 0. -1.
        -15    1    1    2    0    0 -0.15097439035E+01 -0.45529903236E+00 -0.22856002765E+02  0.22979147401E+02  0.17770000000E+01 0.  1.
         15    1    1    2    0    0 -0.15931168822E+01 -0.83928637472E-02 -0.33637342905E+02  0.33721901763E+02  0.17770000000E+01 0. -1.
</event>
<event>
 6    1  0.1378789E-002  0.2057698E+03  0.7546771E-02  0.1051307E+00
        -11   -1    0    0    0    0  0.00000000000E+00  0.00000000000E+00  0.18250000000E+03  0.18250000000E+03  0.00000000000E+00 0.  1.
         11   -1    0    0    0    0 -0.00000000000E+00 -0.00000000000E+00 -0.18250000000E+03  0.18250000000E+03  0.00000000000E+00 0.  1.
        -11    1    1    2    0    0  0.73956157362E+01 -0.23145493263E+01  0.15904153364E+03  0.15923021602E+03  0.00000000000E+00 0.  1.
         11    1    1    2    0    0  0.21981247029E+01 -0.55722881885E+01 -0.10315398113E+03  0.10332775993E+03  0.00000000000E+00 0.  1.
        -15    1    1    2    0    0 -0.19220458177E+01  0.39262116506E+01 -0.78256664654E+02  0.78398805411E+02  0.17770000000E+01 0.  1.
         15    1    1    2    0    0 -0.76716946214E+01  0.39606258642E+01  0.22369112146E+02  0.24043218645E+02  0.17770000000E+01 0.  1.
</event>
<event>
 6    1  0.1378789E-002  0.1900670E+03  0.7546771E-02  0.1062586E+00
        -11   -1    0    0    0    0  0.00000000000E+00  0.00000000000E+00  0.18250000000E+03  0.18250000000E+03  0.00000000000E+00 0.  1.
         11   -1    0    0    0    0 -0.00000000000E+00 -0.00000000000E+00 -0.18250000000E+03  0.18250000000E+03  0.00000000000E+00 0.  1.
        -11    1    1    2    0    0  0.38917483251E+01 -0.21734515029E+02  0.76960034732E+02  0.80064859923E+02  0.00000000000E+00 0.  1.
         11    1    1    2    0    0 -0.96453470534E+01 -0.53191411344E+01 -0.17458583181E+03  0.17493295473E+03  0.00000000000E+00 0.  1.
        -15    1    1    2    0    0 -0.15037425334E+01  0.24971734838E+01  0.76995356771E+02  0.77071004991E+02  0.17770000000E+01 0.  1.
         15    1    1    2    0    0  0.72573412617E+01  0.24556482679E+02  0.20630440303E+02  0.32931180359E+02  0.17770000000E+01 0. -1.
</event>
<event>
 6    1  0.1378789E-002  0.1849145E+03  0.7546771E-02  0.1066549E+00
        -11   -1    0    0    0    0  0.00000000000E+00  0.00000000000E+00  0.18250000000E+03  0.18250000000E+03  0.00000000000E+00 0. -1.
         11   -1    0    0    0    0 -0.00000000000E+00 -0.00000000000E+00 -0.18250000000E+03  0.18250000000E+03  0.00000000000E+00 0.  1.
        -11    1    1    2    0    0 -0.37085186629E+01  0.70652282035E+01  0.25127002171E+02  0.26363550564E+02  0.00000000000E+00 0. -1.
         11    1    1    2    0    0 -0.55723935589E+01 -0.14969390180E+01 -0.17999305659E+03  0.18008551529E+03  0.00000000000E+00 0.  1.
        -15    1    1    2    0    0  0.69137428688E+01 -0.51266952280E+01  0.15528108431E+03  0.15552959756E+03  0.17770000000E+01 0. -1.
         15    1    1    2    0    0  0.23671693531E+01 -0.44159395753E+00 -0.41502989229E+00  0.30213365885E+01  0.17770000000E+01 0.  1.
</event>
<event>
 6    1  0.1378789E-002  0.1930634E+03  0.7546771E-02  0.1060344E+00
        -11   -1    0    0    0    0  0.00000000000E+00  0.00000000000E+00  0.18250000000E+03  0.18250000000E+03  0.00000000000E+00 0. -1.
         11   -1    0    0    0    0 -0.00000000000E+00 -0.00000000000E+00 -0.18250000000E+03  0.18250000000E+03  0.00000000000E+00 0. -1.
        -11    1    1    2    0    0 -0.15279103827E+00 -0.39398239822E+01  0.17189141896E+03  0.17193663213E+03  0.00000000000E+00 0. -1.
         11    1    1    2    0    0 -0.21337455193E+01 -0.28174387163E+00 -0.15080175948E+03  0.15081711743E+03  0.00000000000E+00 0. -1.
        -15    1    1    2    0    0  0.62118117303E+01  0.70760006282E+01  0.81341272224E+01  0.12568935696E+02  0.17770000000E+01 0.  1.
         15    1    1    2    0    0 -0.39252751727E+01 -0.28544327744E+01 -0.29223786704E+02  0.29677314736E+02  0.17770000000E+01 0. -1.
</event>
<event>
 6    1  0.1378789E-002  0.1841365E+03  0.7546771E-02  0.1067160E+00
        -11   -1    0    0    0    0  0.00000000000E+00  0.00000000000E+00  0.18250000000E+03  0.18250000000E+03  0.00000000000E+00 0. -1.
         11   -1    0    0    0    0 -0.00000000000E+00 -0.00000000000E+00 -0.18250000000E+03  0.18250000000E+03  0.00000000000E+00 0.  1.
        -11    1    1    2    0    0 -0.33718570201E+00  0.48127972043E+01  0.18079910499E+03  0.18086346529E+03  0.00000000000E+00 0. -1.
         11    1    1    2    0    0  0.19172070319E+01  0.12559976812E+01 -0.16184839161E+03  0.16186461960E+03  0.00000000000E+00 0.  1.
        -15    1    1    2    0    0 -0.19295069580E+01 -0.71769988545E+01 -0.18615005088E+02  0.20122337167E+02  0.17770000000E+01 0. -1.
         15    1    1    2    0    0  0.34948562819E+00  0.11082039691E+01 -0.33570829824E+00  0.21495779360E+01  0.17770000000E+01 0.  1.
</event>
<event>
 6    1  0.1378789E-002  0.1844795E+03  0.7546771E-02  0.1066890E+00
        -11   -1    0    0    0    0  0.00000000000E+00  0.00000000000E+00  0.18250000000E+03  0.18250000000E+03  0.00000000000E+00 0.  1.
         11   -1    0    0    0    0 -0.00000000000E+00 -0.00000000000E+00 -0.18250000000E+03  0.18250000000E+03  0.00000000000E+00 0. -1.
        -11    1    1    2    0    0  0.58687756168E+01  0.30758433821E+01  0.18039889764E+03  0.18052054068E+03  0.00000000000E+00 0.  1.
         11    1    1    2    0    0  0.59573372901E+01 -0.40276460338E+01 -0.13532109113E+03  0.13551202716E+03  0.00000000000E+00 0. -1.
        -15    1    1    2    0    0 -0.45454446267E+01 -0.21322709074E+01 -0.29927144858E+01  0.61091501103E+01  0.17770000000E+01 0. -1.
         15    1    1    2    0    0 -0.72806682802E+01  0.30840735591E+01 -0.42085092022E+02  0.42858282045E+02  0.17770000000E+01 0.  1.
</event>
<event>
 6    1  0.1378789E-002  0.1855648E+03  0.7546771E-02  0.1066041E+00
        -11   -1    0    0    0    0  0.00000000000E+00  0.00000000000E+00  0.18250000000E+03  0.18250000000E+03  0.00000000000E+00 0. -1.
         11   -1    0    0    0    0 -0.00000000000E+00 -0.00000000000E+00 -0.18250000000E+03  0.18250000000E+03  0.00000000000E+00 0.  1.
        -11    1    1    2    0    0 -0.45322148014E+01  0.53800241894E+01  0.17929727613E+03  0.17943522190E+03  0.00000000000E+00 0. -1.
         11    1    1    2    0    0 -0.22939025816E+01  0.56057779861E+00 -0.11032698869E+03  0.11035225721E+03  0.00000000000E+00 0.  1.
        -15    1    1    2    0    0  0.41153427427E+01 -0.67814001186E+00 -0.68882284440E+02  0.69031317229E+02  0.17770000000E+01 0.  1.
         15    1    1    2    0    0  0.27107746403E+01 -0.52624619761E+01 -0.88002998670E-01  0.61812036634E+01  0.17770000000E+01 0.  1.
</event>
<event>
 6    1  0.1378789E-002  0.1836562E+03  0.7546771E-02  0.1067538E+00
        -11   -1    0    0    0    0  0.00000000000E+00  0.00000000000E+00  0.18250000000E+03  0.18250000000E+03  0.00000000000E+00 0. -1.
         11   -1    0    0    0    0 -0.00000000000E+00 -0.00000000000E+00 -0.18250000000E+03  0.18250000000E+03  0.00000000000E+00 0. -1.
        -11    1    1    2    0    0  0.28616233999E+01 -0.16344863459E+01  0.18131384033E+03  0.18134378712E+03  0.00000000000E+00 0. -1.
         11    1    1    2    0    0 -0.14980552562E+01 -0.22717031431E+01 -0.13331850630E+03  0.13334627451E+03  0.00000000000E+00 0. -1.
        -15    1    1    2    0    0  0.49153588973E+01 -0.15022218070E+01 -0.10023884572E+02  0.11404096385E+02  0.17770000000E+01 0.  1.
         15    1    1    2    0    0 -0.62789270409E+01  0.54084112960E+01 -0.37971449456E+02  0.38905841982E+02  0.17770000000E+01 0.  1.
</event>
<event>
 6    1  0.1378789E-002  0.1848170E+03  0.7546771E-02  0.1066625E+00
        -11   -1    0    0    0    0  0.00000000000E+00  0.00000000000E+00  0.18250000000E+03  0.18250000000E+03  0.00000000000E+00 0.  1.
         11   -1    0    0    0    0 -0.00000000000E+00 -0.00000000000E+00 -0.18250000000E+03  0.18250000000E+03  0.00000000000E+00 0. -1.
        -11    1    1    2    0    0 -0.27162405074E+01 -0.11649962126E+00  0.17753284599E+03  0.17755366214E+03  0.00000000000E+00 0.  1.
         11    1    1    2    0    0  0.83660364136E+00 -0.26614187769E+01 -0.18016143204E+03  0.18018303097E+03  0.00000000000E+00 0. -1.
        -15    1    1    2    0    0  0.99467856222E+00  0.38245636346E+01  0.25288313282E+01  0.50169103364E+01  0.17770000000E+01 0. -1.
         15    1    1    2    0    0  0.88495830384E+00 -0.10466452364E+01  0.99754718345E-01  0.22463965488E+01  0.17770000000E+01 0. -1.
</event>
<event>
 6    1  0.1378789E-002  0.1845966E+03  0.7546771E-02  0.1066798E+00
        -11   -1    0    0    0    0  0.00000000000E+00  0.00000000000E+00  0.18250000000E+03  0.18250000000E+03  0.00000000000E+00 0.  1.
         11   -1    0    0    0    0 -0.00000000000E+00 -0.00000000000E+00 -0.18250000000E+03  0.18250000000E+03  0.00000000000E+00 0. -1.
        -11    1    1    2    0    0 -0.40689156538E+01 -0.41239159093E+01  0.18031039047E+03  0.18040343585E+03  0.00000000000E+00 0.  1.
         11    1    1    2    0    0 -0.44778084309E+01  0.35098307525E+01 -0.16673398812E+03  0.16683102971E+03  0.00000000000E+00 0. -1.
        -15    1    1    2    0    0  0.72254772167E+01  0.27465520414E+01 -0.11791098364E+02  0.14210517188E+02  0.17770000000E+01 0.  1.
         15    1    1    2    0    0  0.13212468679E+01 -0.21324668845E+01 -0.17853039862E+01  0.35550172465E+01  0.17770000000E+01 0. -1.
</event>
<event>
 6    1  0.1378789E-002  0.1829483E+03  0.7546771E-02  0.1068098E+00
        -11   -1    0    0    0    0  0.00000000000E+00  0.00000000000E+00  0.18250000000E+03  0.18250000000E+03  0.00000000000E+00 0.  1.
         11   -1    0    0    0    0 -0.00000000000E+00 -0.00000000000E+00 -0.18250000000E+03  0.18250000000E+03  0.00000000000E+00 0. -1.
        -11    1    1    2    0    0  0.35147428235E+01  0.12407214568E+01  0.15102184023E+03  0.15106782924E+03  0.00000000000E+00 0.  1.
         11    1    1    2    0    0 -0.39309691000E+01  0.37940231330E-02 -0.18200921471E+03  0.18205165962E+03  0.00000000000E+00 0. -1.
        -15    1    1    2    0    0 -0.24207490059E+01 -0.23230600228E+01  0.12590756940E+02  0.13150723286E+02  0.17770000000E+01 0. -1.
         15    1    1    2    0    0  0.28369752823E+01  0.10785445429E+01  0.18396617539E+02  0.18729787852E+02  0.17770000000E+01 0.  1.
</event>
<event>
 6    1  0.1378789E-002  0.1831005E+03  0.7546771E-02  0.1067978E+00
        -11   -1    0    0    0    0  0.00000000000E+00  0.00000000000E+00  0.18250000000E+03  0.18250000000E+03  0.00000000000E+00 0.  1.
         11   -1    0    0    0    0 -0.00000000000E+00 -0.00000000000E+00 -0.18250000000E+03  0.18250000000E+03  0.00000000000E+00 0.  1.
        -11    1    1    2    0    0 -0.31699031852E+01 -0.32062705015E+01  0.18184357554E+03  0.18189946240E+03  0.00000000000E+00 0.  1.
         11    1    1    2    0    0 -0.49830707279E+01  0.13276253502E+01 -0.13622435126E+03  0.13632192582E+03  0.00000000000E+00 0.  1.
        -15    1    1    2    0    0  0.14833352508E+01  0.24819705235E+01 -0.16646175967E+02  0.16988624561E+02  0.17770000000E+01 0. -1.
         15    1    1    2    0    0  0.66696386622E+01 -0.60332537227E+00 -0.28973048307E+02  0.29789987220E+02  0.17770000000E+01 0.  1.
</event>
<event>
 6    1  0.1378789E-002  0.1926492E+03  0.7546771E-02  0.1060651E+00
        -11   -1    0    0    0    0  0.00000000000E+00  0.00000000000E+00  0.18250000000E+03  0.18250000000E+03  0.00000000000E+00 0.  1.
         11   -1    0    0    0    0 -0.00000000000E+00 -0.00000000000E+00 -0.18250000000E+03  0.18250000000E+03  0.00000000000E+00 0.  1.
        -11    1    1    2    0    0  0.27770682605E+01  0.82276262322E+00  0.17232644817E+03  0.17235078702E+03  0.00000000000E+00 0.  1.
         11    1    1    2    0    0 -0.43108877564E+01  0.58253718068E+01 -0.16308005943E+03  0.16324100126E+03  0.00000000000E+00 0.  1.
        -15    1    1    2    0    0  0.25540116896E+01 -0.12394622790E+02 -0.15888133442E+02  0.20389707283E+02  0.17770000000E+01 0. -1.
         15    1    1    2    0    0 -0.10201921937E+01  0.57464883598E+01  0.66417446990E+01  0.90185044341E+01  0.17770000000E+01 0.  1.
</event>
<event>
 6    1  0.1378789E-002  0.2049950E+03  0.7546771E-02  0.1051837E+00
        -11   -1    0    0    0    0  0.00000000000E+00  0.00000000000E+00  0.18250000000E+03  0.18250000000E+03  0.00000000000E+00 0. -1.
         11   -1    0    0    0    0 -0.00000000000E+00 -0.00000000000E+00 -0.18250000000E+03  0.18250000000E+03  0.00000000000E+00 0. -1.
        -11    1    1    2    0    0  0.17351463202E+02 -0.89532953502E-01  0.86989529347E+02  0.88703210243E+02  0.00000000000E+00 0. -1.
         11    1    1    2    0    0  0.11246385912E+01 -0.18446931780E+01 -0.15999042031E+03  0.16000500709E+03  0.00000000000E+00 0. -1.
        -15    1    1    2    0    0 -0.46692498295E+02 -0.14213578993E+02  0.17376912304E+02  0.51839464070E+02  0.17770000000E+01 0. -1.
         15    1    1    2    0    0  0.28216396501E+02  0.16147805125E+02  0.55623978655E+02  0.64452318595E+02  0.17770000000E+01 0.  1.
</event>
<event>
 6    1  0.1378789E-002  0.1843562E+03  0.7546771E-02  0.1066987E+00
        -11   -1    0    0    0    0  0.00000000000E+00  0.00000000000E+00  0.18250000000E+03  0.18250000000E+03  0.00000000000E+00 0.  1.
         11   -1    0    0    0    0 -0.00000000000E+00 -0.00000000000E+00 -0.18250000000E+03  0.18250000000E+03  0.00000000000E+00 0. -1.
        -11    1    1    2    0    0 -0.40849890142E+00 -0.41726330475E+01  0.18059512731E+03  0.18064378690E+03  0.00000000000E+00 0.  1.
         11    1    1    2    0    0 -0.26932085492E+01  0.23273980160E+01 -0.17612069836E+03  0.17615666478E+03  0.00000000000E+00 0. -1.
        -15    1    1    2    0    0  0.18037755448E+01  0.21909380571E+01 -0.48969984977E+01  0.59322962732E+01  0.17770000000E+01 0. -1.
         15    1    1    2    0    0  0.12979319059E+01 -0.34570302557E+00  0.42256954637E+00  0.22672520450E+01  0.17770000000E+01 0.  1.
</event>
<event>
 6    1  0.1378789E-002  0.1833727E+03  0.7546771E-02  0.1067762E+00
        -11   -1    0    0    0    0  0.00000000000E+00  0.00000000000E+00  0.18250000000E+03  0.18250000000E+03  0.00000000000E+00 0.  1.
         11   -1    0    0    0    0 -0.00000000000E+00 -0.00000000000E+00 -0.18250000000E+03  0.18250000000E+03  0.00000000000E+00 0. -1.
        -11    1    1    2    0    0  0.27686363313E+01  0.12095264870E+01  0.13500268210E+03  0.13503648572E+03  0.00000000000E+00 0.  1.
         11    1    1    2    0    0  0.50654756973E+00  0.37611259667E+01 -0.18158765406E+03  0.18162730733E+03  0.00000000000E+00 0. -1.
        -15    1    1    2    0    0 -0.53939061405E+01 -0.24277970576E+01  0.41794531702E+02  0.42248420458E+02  0.17770000000E+01 0. -1.
         15    1    1    2    0    0  0.21187222394E+01 -0.25428553961E+01  0.47904402617E+01  0.60877864938E+01  0.17770000000E+01 0.  1.
</event>
<event>
 6    1  0.1378789E-002  0.1866966E+03  0.7546771E-02  0.1065163E+00
        -11   -1    0    0    0    0  0.00000000000E+00  0.00000000000E+00  0.18250000000E+03  0.18250000000E+03  0.00000000000E+00 0. -1.
         11   -1    0    0    0    0 -0.00000000000E+00 -0.00000000000E+00 -0.18250000000E+03  0.18250000000E+03  0.00000000000E+00 0.  1.
        -11    1    1    2    0    0  0.43308092113E+00 -0.26511485506E+01  0.94400502086E+02  0.94438715270E+02  0.00000000000E+00 0. -1.
         11    1    1    2    0    0 -0.16607490442E+01 -0.18228635212E+01 -0.17828637492E+03  0.17830342790E+03  0.00000000000E+00 0.  1.
        -15    1    1    2    0    0  0.10979045030E+02 -0.11535245241E+02  0.19846534284E+02  0.25507723628E+02  0.17770000000E+01 0.  1.
         15    1    1    2    0    0 -0.97513769074E+01  0.16009257313E+02  0.64039338551E+02  0.66750133201E+02  0.17770000000E+01 0. -1.
</event>
<event>
 6    1  0.1378789E-002  0.1860384E+03  0.7546771E-02  0.1065673E+00
        -11   -1    0    0    0    0  0.00000000000E+00  0.00000000000E+00  0.18250000000E+03  0.18250000000E+03  0.00000000000E+00 0.  1.
         11   -1    0    0    0    0 -0.00000000000E+00 -0.00000000000E+00 -0.18250000000E+03  0.18250000000E+03  0.00000000000E+00 0.  1.
        -11    1    1    2    0    0  0.61873748325E+01  0.19180224709E+01  0.17884434132E+03  0.17896161835E+03  0.00000000000E+00 0.  1.
         11    1    1    2    0    0 -0.14267150502E+01  0.17996984205E+01 -0.15314774156E+03  0.15316496066E+03  0.00000000000E+00 0.  1.
        -15    1    1    2    0    0 -0.76974083864E+01 -0.16717514377E+01 -0.27373623985E+02  0.28539759421E+02  0.17770000000E+01 0.  1.
         15    1    1    2    0    0  0.29367486041E+01 -0.20459694538E+01  0.16770242194E+01  0.43336615698E+01  0.17770000000E+01 0. -1.
</event>
<event>
 6    1  0.1378789E-002  0.1839627E+03  0.7546771E-02  0.1067296E+00
        -11   -1    0    0    0    0  0.00000000000E+00  0.00000000000E+00  0.18250000000E+03  0.18250000000E+03  0.00000000000E+00 0. -1.
         11   -1    0    0    0    0 -0.00000000000E+00 -0.00000000000E+00 -0.18250000000E+03  0.18250000000E+03  0.00000000000E+00 0. -1.
        -11    1    1    2    0    0  0.51577646352E+01  0.77371098742E+00  0.15330122463E+03  0.15338991700E+03  0.00000000000E+00 0. -1.
         11    1    1    2    0    0  0.60920884414E+00  0.52268606575E+01 -0.18096084920E+03  0.18103734463E+03  0.00000000000E+00 0. -1.
        -15    1    1    2    0    0 -0.28330889796E+01 -0.22763608983E+01  0.21810616876E+01  0.45959733671E+01  0.17770000000E+01 0.  1.
         15    1    1    2    0    0 -0.29338844997E+01 -0.37242107467E+01  0.25478562883E+02  0.25976764994E+02  0.17770000000E+01 0. -1.
</event>
<event>
 6    1  0.1378789E-002  0.1831007E+03  0.7546771E-02  0.1067978E+00
        -11   -1    0    0    0    0  0.00000000000E+00  0.00000000000E+00  0.18250000000E+03  0.18250000000E+03  0.00000000000E+00 0. -1.
         11   -1    0    0    0    0 -0.00000000000E+00 -0.00000000000E+00 -0.18250000000E+03  0.18250000000E+03  0.00000000000E+00 0. -1.
        -11    1    1    2    0    0 -0.18225776733E+01  0.12169760519E+01  0.13187653361E+03  0.13189474189E+03  0.00000000000E+00 0. -1.
         11    1    1    2    0    0  0.40018555887E-01 -0.30794045006E+01 -0.18187327524E+03  0.18189934738E+03  0.00000000000E+00 0. -1.
        -15    1    1    2    0    0 -0.15534017593E+01  0.15983748976E+01  0.33208483277E+01  0.43764851142E+01  0.17770000000E+01 0. -1.
         15    1    1    2    0    0  0.33359608768E+01  0.26405355113E+00  0.46675893295E+02  0.46829425612E+02  0.17770000000E+01 0.  1.
</event>
<event>
 6    1  0.1378789E-002  0.1844363E+03  0.7546771E-02  0.1066924E+00
        -11   -1    0    0    0    0  0.00000000000E+00  0.00000000000E+00  0.18250000000E+03  0.18250000000E+03  0.00000000000E+00 0.  1.
         11   -1    0    0    0    0 -0.00000000000E+00 -0.00000000000E+00 -0.18250000000E+03  0.18250000000E+03  0.00000000000E+00 0.  1.
        -11    1    1    2    0    0  0.20679895020E+01  0.32909461367E+01  0.17351972177E+03  0.17356324712E+03  0.00000000000E+00 0.  1.
         11    1    1    2    0    0  0.34419662964E+01 -0.10070716534E+01 -0.18052804860E+03  0.18056366649E+03  0.00000000000E+00 0.  1.
        -15    1    1    2    0    0 -0.25388225285E+01  0.66150934259E+00  0.96745856736E+00  0.33131434501E+01  0.17770000000E+01 0. -1.
         15    1    1    2    0    0 -0.29711332699E+01 -0.29453838259E+01  0.60408682637E+01  0.75599429342E+01  0.17770000000E+01 0.  1.
</event>
<event>
 6    1  0.1378789E-002  0.1876409E+03  0.7546771E-02  0.1064435E+00
        -11   -1    0    0    0    0  0.00000000000E+00  0.00000000000E+00  0.18250000000E+03  0.18250000000E+03  0.00000000000E+00 0.  1.
         11   -1    0    0    0    0 -0.00000000000E+00 -0.00000000000E+00 -0.18250000000E+03  0.18250000000E+03  0.00000000000E+00 0.  1.
        -11    1    1    2    0    0  0.18089905397E+00 -0.43103639429E+01  0.17365953664E+03  0.17371311588E+03  0.00000000000E+00 0.  1.
         11    1    1    2    0    0 -0.18717484003E+01  0.33024479767E+01 -0.17731846540E+03  0.17735909273E+03  0.00000000000E+00 0.  1.
        -15    1    1    2    0    0 -0.17088814919E+01 -0.30852239763E+01 -0.31885736032E+01  0.50757869892E+01  0.17770000000E+01 0.  1.
         15    1    1    2    0    0  0.33997308381E+01  0.40931399425E+01  0.68475023548E+01  0.88520043979E+01  0.17770000000E+01 0. -1.
</event>
<event>
 6    1  0.1378789E-002  0.1828707E+03  0.7546771E-02  0.1068160E+00
        -11   -1    0    0    0    0  0.00000000000E+00  0.00000000000E+00  0.18250000000E+03  0.18250000000E+03  0.00000000000E+00 0.  1.
         11   -1    0    0    0    0 -0.00000000000E+00 -0.00000000000E+00 -0.18250000000E+03  0.18250000000E+03  0.00000000000E+00 0. -1.
        -11    1    1    2    0    0  0.40612962676E+00  0.51700555304E+01  0.12429682593E+03  0.12440496514E+03  0.00000000000E+00 0.  1.
         11    1    1    2    0    0 -0.34739456678E+01 -0.44431572778E+01 -0.18204197510E+03  0.18212932395E+03  0.00000000000E+00 0. -1.
        -15    1    1    2    0    0  0.41454060411E+01  0.20760641395E+01  0.22135582194E+02  0.22685593702E+02  0.17770000000E+01 0. -1.
         15    1    1    2    0    0 -0.10775900001E+01 -0.28029623921E+01  0.35609566972E+02  0.35780117206E+02  0.17770000000E+01 0.  1.
</event>
<event>
 6    1  0.1378789E-002  0.1881887E+03  0.7546771E-02  0.1064015E+00
        -11   -1    0    0    0    0  0.00000000000E+00  0.00000000000E+00  0.18250000000E+03  0.18250000000E+03  0.00000000000E+00 0.  1.
         11   -1    0    0    0    0 -0.00000000000E+00 -0.00000000000E+00 -0.18250000000E+03  0.18250000000E+03  0.00000000000E+00 0. -1.
        -11    1    1    2    0    0  0.28990094305E+01 -0.14241744441E+01  0.17678181095E+03  0.17681131528E+03  0.00000000000E+00 0.  1.
         11    1    1    2    0    0  0.18683045957E+02 -0.11523725578E+02 -0.14613952287E+03  0.14777893153E+03  0.00000000000E+00 0. -1.
        -15    1    1    2    0    0 -0.23058760067E+01  0.41695525721E+01 -0.61693620394E+01  0.79950603364E+01  0.17770000000E+01 0.  1.
         15    1    1    2    0    0 -0.19276179381E+02  0.87783474501E+01 -0.24472926033E+02  0.32414692859E+02  0.17770000000E+01 0. -1.
</event>
<event>
 6    1  0.1378789E-002  0.1858715E+03  0.7546771E-02  0.1065802E+00
        -11   -1    0    0    0    0  0.00000000000E+00  0.00000000000E+00  0.18250000000E+03  0.18250000000E+03  0.00000000000E+00 0. -1.
         11   -1    0    0    0    0 -0.00000000000E+00 -0.00000000000E+00 -0.18250000000E+03  0.18250000000E+03  0.00000000000E+00 0. -1.
        -11    1    1    2    0    0  0.21933344346E+01  0.13577178688E+01  0.17910989253E+03  0.17912846707E+03  0.00000000000E+00 0. -1.
         11    1    1    2    0    0 -0.62247260800E+01  0.96050828229E+01 -0.12153134453E+03  0.12206913015E+03  0.00000000000E+00 0. -1.
        -15    1    1    2    0    0 -0.52545826020E+01  0.57703054849E+01 -0.13140954050E+02  0.15386665203E+02  0.17770000000E+01 0.  1.
         15    1    1    2    0    0  0.92859742474E+01 -0.16733106177E+02 -0.44437593948E+02  0.48415737575E+02  0.17770000000E+01 0. -1.
</event>
<event>
 6    1  0.1378789E-002  0.1863407E+03  0.7546771E-02  0.1065438E+00
        -11   -1    0    0    0    0  0.00000000000E+00  0.00000000000E+00  0.18250000000E+03  0.18250000000E+03  0.00000000000E+00 0. -1.
         11   -1    0    0    0    0 -0.00000000000E+00 -0.00000000000E+00 -0.18250000000E+03  0.18250000000E+03  0.00000000000E+00 0.  1.
        -11    1    1    2    0    0 -0.15194664768E+01  0.24976273554E+01  0.17126156750E+03  0.17128651851E+03  0.00000000000E+00 0. -1.
         11    1    1    2    0    0 -0.97499709152E+00  0.42051041533E+01 -0.17860712737E+03  0.17865928318E+03  0.00000000000E+00 0.  1.
        -15    1    1    2    0    0  0.46960145059E+00 -0.44012215203E+01 -0.19144254549E+01  0.51394581636E+01  0.17770000000E+01 0. -1.
         15    1    1    2    0    0  0.20248621177E+01 -0.23015099884E+01  0.92599853260E+01  0.99147401408E+01  0.17770000000E+01 0. -1.
</event>
<event>
 6    1  0.1378789E-002  0.1837386E+03  0.7546771E-02  0.1067473E+00
        -11   -1    0    0    0    0  0.00000000000E+00  0.00000000000E+00  0.18250000000E+03  0.18250000000E+03  0.00000000000E+00 0. -1.
         11   -1    0    0    0    0 -0.00000000000E+00 -0.00000000000E+00 -0.18250000000E+03  0.18250000000E+03  0.00000000000E+00 0. -1.
        -11    1    1    2    0    0 -0.27914355499E+01 -0.56553937220E+00  0.18123907149E+03  0.18126144925E+03  0.00000000000E+00 0. -1.
         11    1    1    2    0    0 -0.75672427985E-01  0.90273154454E+00 -0.43614043724E+02  0.43623450810E+02  0.00000000000E+00 0. -1.
        -15    1    1    2    0    0 -0.74973150255E+00  0.21030310047E+00 -0.13552350700E+03  0.13553739337E+03  0.17770000000E+01 0. -1.
         15    1    1    2    0    0  0.36168394804E+01 -0.54749527281E+00 -0.21015207694E+01  0.45777065704E+01  0.17770000000E+01 0. -1.
</event>
<event>
 6    1  0.1378789E-002  0.1826816E+03  0.7546771E-02  0.1068310E+00
        -11   -1    0    0    0    0  0.00000000000E+00  0.00000000000E+00  0.18250000000E+03  0.18250000000E+03  0.00000000000E+00 0. -1.
         11   -1    0    0    0    0 -0.00000000000E+00 -0.00000000000E+00 -0.18250000000E+03  0.18250000000E+03  0.00000000000E+00 0. -1.
        -11    1    1    2    0    0  0.35461086129E+01 -0.92208068013E+00  0.18228161033E+03  0.18231843182E+03  0.00000000000E+00 0. -1.
         11    1    1    2    0    0  0.11158643983E+01  0.31825623994E+00 -0.47024703927E+02  0.47039018057E+02  0.00000000000E+00 0. -1.
        -15    1    1    2    0    0  0.18761473364E+00  0.32327473740E+01 -0.79381648581E+02  0.79467538752E+02  0.17770000000E+01 0. -1.
         15    1    1    2    0    0 -0.48495877448E+01 -0.26289229338E+01 -0.55875257818E+02  0.56175011369E+02  0.17770000000E+01 0.  1.
</event>
<event>
 6    1  0.1378789E-002  0.1900666E+03  0.7546771E-02  0.1062586E+00
        -11   -1    0    0    0    0  0.00000000000E+00  0.00000000000E+00  0.18250000000E+03  0.18250000000E+03  0.00000000000E+00 0.  1.
         11   -1    0    0    0    0 -0.00000000000E+00 -0.00000000000E+00 -0.18250000000E+03  0.18250000000E+03  0.00000000000E+00 0. -1.
        -11    1    1    2    0    0  0.28157427834E+00 -0.39378959981E+01  0.17488880673E+03  0.17493336168E+03  0.00000000000E+00 0.  1.
         11    1    1    2    0    0  0.21977748459E+01  0.22560880650E+01 -0.15326822733E+03  0.15330058596E+03  0.00000000000E+00 0. -1.
        -15    1    1    2    0    0 -0.31091941246E+01 -0.13109039004E+01 -0.28646926435E+02  0.28899648446E+02  0.17770000000E+01 0. -1.
         15    1    1    2    0    0  0.62984500040E+00  0.29927118334E+01  0.70263470301E+01  0.78664039071E+01  0.17770000000E+01 0. -1.
</event>
<event>
 6    1  0.1378789E-002  0.1870583E+03  0.7546771E-02  0.1064883E+00
        -11   -1    0    0    0    0  0.00000000000E+00  0.00000000000E+00  0.18250000000E+03  0.18250000000E+03  0.00000000000E+00 0.  1.
         11   -1    0    0    0    0 -0.00000000000E+00 -0.00000000000E+00 -0.18250000000E+03  0.18250000000E+03  0.00000000000E+00 0. -1.
        -11    1    1    2    0    0 -0.39403388077E+01 -0.33803354706E+01  0.17786598574E+03  0.17794173715E+03  0.00000000000E+00 0.  1.
         11    1    1    2    0    0 -0.52701546221E+00 -0.48797891534E+01 -0.15856323986E+03  0.15863918533E+03  0.00000000000E+00 0. -1.
        -15    1    1    2    0    0  0.16375345150E+00  0.36187603570E+01  0.30894117677E+01  0.50817748656E+01  0.17770000000E+01 0.  1.
         15    1    1    2    0    0  0.43036008184E+01  0.46413642670E+01 -0.22392157646E+02  0.23337302657E+02  0.17770000000E+01 0. -1.
</event>
<event>
 6    1  0.1378789E-002  0.1834045E+03  0.7546771E-02  0.1067737E+00
        -11   -1    0    0    0    0  0.00000000000E+00  0.00000000000E+00  0.18250000000E+03  0.18250000000E+03  0.00000000000E+00 0. -1.
         11   -1    0    0    0    0 -0.00000000000E+00 -0.00000000000E+00 -0.18250000000E+03  0.18250000000E+03  0.00000000000E+00 0. -1.
        -11    1    1    2    0    0  0.47205285028E+01 -0.49059393589E+01  0.11562730471E+03  0.11582756677E+03  0.00000000000E+00 0. -1.
         11    1    1    2    0    0 -0.50645754499E+01 -0.31924029156E+01 -0.18149682160E+03  0.18159553302E+03  0.00000000000E+00 0. -1.
        -15    1    1    2    0    0 -0.31444870465E+00 -0.52857214121E+00  0.10407947339E+01  0.21492438611E+01  0.17770000000E+01 0. -1.
         15    1    1    2    0    0  0.65849565179E+00  0.86269144158E+01  0.64828722163E+02  0.65427656348E+02  0.17770000000E+01 0. -1.
</event>
<event>
 6    1  0.1378789E-002  0.1847772E+03  0.7546771E-02  0.1066656E+00
        -11   -1    0    0    0    0  0.00000000000E+00  0.00000000000E+00  0.18250000000E+03  0.18250000000E+03  0.00000000000E+00 0. -1.
         11   -1    0    0    0    0 -0.00000000000E+00 -0.00000000000E+00 -0.18250000000E+03  0.18250000000E+03  0.00000000000E+00 0.  1.
        -11    1    1    2    0    0  0.30111313427E+01 -0.14311283106E+01  0.16368350720E+03  0.16371745652E+03  0.00000000000E+00 0. -1.
         11    1    1    2    0    0  0.38268257178E+01  0.48301600454E+00 -0.18018154483E+03  0.18022282596E+03  0.00000000000E+00 0.  1.
        -15    1    1    2    0    0  0.98663935291E+00  0.35558967220E+01  0.27639145161E+01  0.49411346028E+01  0.17770000000E+01 0. -1.
         15    1    1    2    0    0 -0.78245964135E+01 -0.26077844160E+01  0.13734123114E+02  0.16118582919E+02  0.17770000000E+01 0.  1.
</event>
<event>
 6    1  0.1378789E-002  0.1893275E+03  0.7546771E-02  0.1063146E+00
        -11   -1    0    0    0    0  0.00000000000E+00  0.00000000000E+00  0.18250000000E+03  0.18250000000E+03  0.00000000000E+00 0. -1.
         11   -1    0    0    0    0 -0.00000000000E+00 -0.00000000000E+00 -0.18250000000E+03  0.18250000000E+03  0.00000000000E+00 0.  1.
        -11    1    1    2    0    0 -0.51993258176E+01  0.97772432393E+00  0.10852362700E+03  0.10865250366E+03  0.00000000000E+00 0. -1.
         11    1    1    2    0    0  0.90690347969E+01 -0.12871672803E+02 -0.17496538457E+03  0.17567245985E+03  0.00000000000E+00 0.  1.
        -15    1    1    2    0    0  0.13442088467E+02  0.10085683287E+02  0.59497653544E+02  0.61850943857E+02  0.17770000000E+01 0. -1.
         15    1    1    2    0    0 -0.17311797446E+02  0.18082651921E+01  0.69441040251E+01  0.18824092635E+02  0.17770000000E+01 0.  1.
</event>
<event>
 6    1  0.1378789E-002  0.1840531E+03  0.7546771E-02  0.1067225E+00
        -11   -1    0    0    0    0  0.00000000000E+00  0.00000000000E+00  0.18250000000E+03  0.18250000000E+03  0.00000000000E+00 0. -1.
         11   -1    0    0    0    0 -0.00000000000E+00 -0.00000000000E+00 -0.18250000000E+03  0.18250000000E+03  0.00000000000E+00 0. -1.
        -11    1    1    2    0    0 -0.44311443871E+01  0.14720407667E+01  0.18088664934E+03  0.18094690341E+03  0.00000000000E+00 0. -1.
         11    1    1    2    0    0  0.31752085561E+01 -0.18760779189E+00 -0.13840964403E+03  0.13844618705E+03  0.00000000000E+00 0. -1.
        -15    1    1    2    0    0  0.27040070567E+01 -0.24985519991E+01 -0.12168718208E+01  0.42653161997E+01  0.17770000000E+01 0. -1.
         15    1    1    2    0    0 -0.14480712257E+01  0.12141190242E+01 -0.41260133489E+02  0.41341593339E+02  0.17770000000E+01 0.  1.
</event>
<event>
 6    1  0.1378789E-002  0.1848449E+03  0.7546771E-02  0.1066603E+00
        -11   -1    0    0    0    0  0.00000000000E+00  0.00000000000E+00  0.18250000000E+03  0.18250000000E+03  0.00000000000E+00 0. -1.
         11   -1    0    0    0    0 -0.00000000000E+00 -0.00000000000E+00 -0.18250000000E+03  0.18250000000E+03  0.00000000000E+00 0. -1.
        -11    1    1    2    0    0  0.24661709630E+01  0.77375178333E+00  0.18013654405E+03  0.18015508650E+03  0.00000000000E+00 0. -1.
         11    1    1    2    0    0 -0.21957359889E+00 -0.47913898971E+01 -0.16740682689E+03  0.16747552454E+03  0.00000000000E+00 0. -1.
        -15    1    1    2    0    0 -0.29679937864E+01 -0.98120257641E+00 -0.11255663819E+02  0.11816067138E+02  0.17770000000E+01 0. -1.
         15    1    1    2    0    0  0.72139642232E+00  0.49988406902E+01 -0.14740533406E+01  0.55533218253E+01  0.17770000000E+01 0.  1.
</event>
<event>
 6    1  0.1378789E-002  0.1828379E+03  0.7546771E-02  0.1068186E+00
        -11   -1    0    0    0    0  0.00000000000E+00  0.00000000000E+00  0.18250000000E+03  0.18250000000E+03  0.00000000000E+00 0.  1.
         11   -1    0    0    0    0 -0.00000000000E+00 -0.00000000000E+00 -0.18250000000E+03  0.18250000000E+03  0.00000000000E+00 0.  1.
        -11    1    1    2    0    0  0.28704294629E+01  0.11894616798E+01  0.18213562076E+03  0.18216212157E+03  0.00000000000E+00 0.  1.
         11    1    1    2    0    0  0.20748105583E+01 -0.36334828297E+01 -0.13760947699E+03  0.13767307359E+03  0.00000000000E+00 0.  1.
        -15    1    1    2    0    0 -0.36027879569E+01  0.16703604241E+01 -0.37546597772E+02  0.37797816316E+02  0.17770000000E+01 0.  1.
         15    1    1    2    0    0 -0.13424520642E+01  0.77366072569E+00 -0.69795460037E+01  0.73669885219E+01  0.17770000000E+01 0. -1.
</event>
<event>
 6    1  0.1378789E-002  0.1904810E+03  0.7546771E-02  0.1062274E+00
        -11   -1    0    0    0    0  0.00000000000E+00  0.00000000000E+00  0.18250000000E+03  0.18250000000E+03  0.00000000000E+00 0. -1.
         11   -1    0    0    0    0 -0.00000000000E+00 -0.00000000000E+00 -0.18250000000E+03  0.18250000000E+03  0.00000000000E+00 0. -1.
        -11    1    1    2    0    0  0.14165389029E+01 -0.24046970928E+02  0.17284853148E+03  0.17451899102E+03  0.00000000000E+00 0. -1.
         11    1    1    2    0    0 -0.36700291364E+01 -0.80916094014E+01 -0.12247632051E+03  0.12279817727E+03  0.00000000000E+00 0. -1.
        -15    1    1    2    0    0 -0.13090007292E+02  0.59826023126E+01 -0.12593714692E+02  0.19206748816E+02  0.17770000000E+01 0.  1.
         15    1    1    2    0    0  0.15343497526E+02  0.26155978017E+02 -0.37778496276E+02  0.48476082889E+02  0.17770000000E+01 0. -1.
</event>
<event>
 6    1  0.1378789E-002  0.1830033E+03  0.7546771E-02  0.1068055E+00
        -11   -1    0    0    0    0  0.00000000000E+00  0.00000000000E+00  0.18250000000E+03  0.18250000000E+03  0.00000000000E+00 0.  1.
         11   -1    0    0    0    0 -0.00000000000E+00 -0.00000000000E+00 -0.18250000000E+03  0.18250000000E+03  0.00000000000E+00 0.  1.
        -11    1    1    2    0    0  0.72231482738E+01 -0.51100461378E+00  0.18185259961E+03  0.18199671146E+03  0.00000000000E+00 0.  1.
         11    1    1    2    0    0 -0.16350819071E+01 -0.27414804295E+01 -0.97833266610E+02  0.97885327110E+02  0.00000000000E+00 0.  1.
        -15    1    1    2    0    0 -0.13444118529E+01  0.61762207998E+01 -0.25014491977E+02  0.25861857715E+02  0.17770000000E+01 0.  1.
         15    1    1    2    0    0 -0.42436545137E+01 -0.29237357565E+01 -0.59004841024E+02  0.59256103716E+02  0.17770000000E+01 0. -1.
</event>
<event>
 6    1  0.1378789E-002  0.1853400E+03  0.7546771E-02  0.1066216E+00
        -11   -1    0    0    0    0  0.00000000000E+00  0.00000000000E+00  0.18250000000E+03  0.18250000000E+03  0.00000000000E+00 0.  1.
         11   -1    0    0    0    0 -0.00000000000E+00 -0.00000000000E+00 -0.18250000000E+03  0.18250000000E+03  0.00000000000E+00 0. -1.
        -11    1    1    2    0    0 -0.33441123052E+01 -0.38949957303E+00  0.16447519561E+03  0.16450964947E+03  0.00000000000E+00 0.  1.
         11    1    1    2    0    0  0.49794595450E+01 -0.26993146275E+01 -0.17957067994E+03  0.17965998556E+03  0.00000000000E+00 0. -1.
        -15    1    1    2    0    0  0.17223630764E+01  0.11661165126E+01  0.16201847565E+02  0.16431188509E+02  0.17770000000E+01 0.  1.
         15    1    1    2    0    0 -0.33577103162E+01  0.19226976879E+01 -0.11063632394E+01  0.43991764666E+01  0.17770000000E+01 0. -1.
</event>
<event>
 6    1  0.1378789E-002  0.1457775E+03  0.7546771E-02  0.1102143E+00
        -11   -1    0    0    0    0  0.00000000000E+00  0.00000000000E+00  0.18250000000E+03  0.18250000000E+03  0.00000000000E+00 0. -1.
         11   -1    0    0    0    0 -0.00000000000E+00 -0.00000000000E+00 -0.18250000000E+03  0.18250000000E+03  0.00000000000E+00 0. -1.
        -11    1    1    2    0    0 -0.18299919849E+01 -0.34561416366E+00  0.13598515169E+03  0.13599790366E+03  0.00000000000E+00 0. -1.
         11    1    1    2    0    0 -0.14589881909E+02 -0.30089322117E+02 -0.15461667529E+03  0.15819149230E+03  0.00000000000E+00 0. -1.
        -15    1    1    2    0    0  0.84870090888E+01  0.48025395715E+02  0.11308930326E+02  0.50095085497E+02  0.17770000000E+01 0. -1.
         15    1    1    2    0    0  0.79328648052E+01 -0.17590459434E+02  0.73225932760E+01  0.20715518540E+02  0.17770000000E+01 0.  1.
</event>
<event>
 6    1  0.1378789E-002  0.1829325E+03  0.7546771E-02  0.1068111E+00
        -11   -1    0    0    0    0  0.00000000000E+00  0.00000000000E+00  0.18250000000E+03  0.18250000000E+03  0.00000000000E+00 0.  1.
         11   -1    0    0    0    0 -0.00000000000E+00 -0.00000000000E+00 -0.18250000000E+03  0.18250000000E+03  0.00000000000E+00 0. -1.
        -11    1    1    2    0    0 -0.18585515734E+01 -0.15026996008E+01  0.15329169367E+03  0.15331032473E+03  0.00000000000E+00 0.  1.
         11    1    1    2    0    0  0.51954131813E+01  0.21706054377E+01 -0.18198037998E+03  0.18206746701E+03  0.00000000000E+00 0. -1.
        -15    1    1    2    0    0 -0.41703182193E+01 -0.83115290863E+00  0.25182227499E+02  0.25600482027E+02  0.17770000000E+01 0. -1.
         15    1    1    2    0    0  0.83345661142E+00  0.16324707173E+00  0.35064588129E+01  0.40217262384E+01  0.17770000000E+01 0. -1.
</event>
<event>
 6    1  0.1378789E-002  0.1893020E+03  0.7546771E-02  0.1063166E+00
        -11   -1    0    0    0    0  0.00000000000E+00  0.00000000000E+00  0.18250000000E+03  0.18250000000E+03  0.00000000000E+00 0. -1.
         11   -1    0    0    0    0 -0.00000000000E+00 -0.00000000000E+00 -0.18250000000E+03  0.18250000000E+03  0.00000000000E+00 0. -1.
        -11    1    1    2    0    0 -0.96308045983E+00 -0.50262240841E+01  0.17562349031E+03  0.17569803869E+03  0.00000000000E+00 0. -1.
         11    1    1    2    0    0 -0.83849375362E+01  0.38068424416E+01 -0.16249991588E+03  0.16276062757E+03  0.00000000000E+00 0. -1.
        -15    1    1    2    0    0  0.10904951437E+02  0.84724230492E+01 -0.12789657000E+02  0.18905897845E+02  0.17770000000E+01 0. -1.
         15    1    1    2    0    0 -0.15569334410E+01 -0.72530414067E+01 -0.33391742569E+00  0.76354358902E+01  0.17770000000E+01 0.  1.
</event>
<event>
 6    1  0.1378789E-002  0.1849465E+03  0.7546771E-02  0.1066524E+00
        -11   -1    0    0    0    0  0.00000000000E+00  0.00000000000E+00  0.18250000000E+03  0.18250000000E+03  0.00000000000E+00 0.  1.
         11   -1    0    0    0    0 -0.00000000000E+00 -0.00000000000E+00 -0.18250000000E+03  0.18250000000E+03  0.00000000000E+00 0. -1.
        -11    1    1    2    0    0 -0.66476383958E-01 -0.25471634339E+01  0.18003549363E+03  0.18005352379E+03  0.00000000000E+00 0.  1.
         11    1    1    2    0    0 -0.74556876740E+01  0.45769028092E+01 -0.14845434157E+03  0.14871189209E+03  0.00000000000E+00 0. -1.
        -15    1    1    2    0    0  0.86868743820E+01 -0.27489328581E+01 -0.32508035649E+02  0.33807521783E+02  0.17770000000E+01 0. -1.
         15    1    1    2    0    0 -0.11647103241E+01  0.71919348283E+00  0.92688358674E+00  0.24270623371E+01  0.17770000000E+01 0.  1.
</event>
<event>
 6    1  0.1378789E-002  0.1850488E+03  0.7546771E-02  0.1066444E+00
        -11   -1    0    0    0    0  0.00000000000E+00  0.00000000000E+00  0.18250000000E+03  0.18250000000E+03  0.00000000000E+00 0. -1.
         11   -1    0    0    0    0 -0.00000000000E+00 -0.00000000000E+00 -0.18250000000E+03  0.18250000000E+03  0.00000000000E+00 0. -1.
        -11    1    1    2    0    0  0.36328956117E+01 -0.37269063979E+01  0.17987594203E+03  0.17995122196E+03  0.00000000000E+00 0. -1.
         11    1    1    2    0    0 -0.49801974842E+01 -0.74695471599E+00 -0.17644695241E+03  0.17651880161E+03  0.00000000000E+00 0. -1.
        -15    1    1    2    0    0  0.15310446203E+01  0.32387442763E+01 -0.45733267988E+01  0.60750809974E+01  0.17770000000E+01 0.  1.
         15    1    1    2    0    0 -0.18374274788E+00  0.12351168376E+01  0.11443371758E+01  0.24548954300E+01  0.17770000000E+01 0. -1.
</event>
<event>
 6    1  0.2525959E-002  0.1828735E+03  0.7546771E-02  0.1068158E+00
        -11   -1    0    0    0    0  0.00000000000E+00  0.00000000000E+00  0.18250000000E+03  0.18250000000E+03  0.00000000000E+00 0. -1.
         11   -1    0    0    0    0 -0.00000000000E+00 -0.00000000000E+00 -0.18250000000E+03  0.18250000000E+03  0.00000000000E+00 0.  1.
        -11    1    1    2    0    0 -0.30630395176E+01  0.58910264809E+00  0.18209983601E+03  0.18212654811E+03  0.00000000000E+00 0. -1.
         11    1    1    2    0    0 -0.63506099913E+00 -0.33720873709E+00 -0.32393049505E+02  0.32401028818E+02  0.00000000000E+00 0.  1.
        -15    1    1    2    0    0  0.22191663668E+01  0.25801841168E+01 -0.14069406689E+03  0.14074643952E+03  0.17770000000E+01 0.  1.
         15    1    1    2    0    0  0.14789341499E+01 -0.28320780278E+01 -0.90127196152E+01  0.97259835512E+01  0.17770000000E+01 0. -1.
</event>
<event>
 6    1  0.1378789E-002  0.1580603E+03  0.7546771E-02  0.1089766E+00
        -11   -1    0    0    0    0  0.00000000000E+00  0.00000000000E+00  0.18250000000E+03  0.18250000000E+03  0.00000000000E+00 0. -1.
         11   -1    0    0    0    0 -0.00000000000E+00 -0.00000000000E+00 -0.18250000000E+03  0.18250000000E+03  0.00000000000E+00 0. -1.
        -11    1    1    2    0    0 -0.14326135675E+02  0.84225651465E+01  0.15442185514E+03  0.15531351233E+03  0.00000000000E+00 0. -1.
         11    1    1    2    0    0 -0.15151707707E+02 -0.59611415447E+01 -0.16144680955E+03  0.16226577510E+03  0.00000000000E+00 0. -1.
        -15    1    1    2    0    0  0.25764484448E+02  0.11530124232E+02 -0.47466443715E+01  0.28678228423E+02  0.17770000000E+01 0. -1.
         15    1    1    2    0    0  0.37133589343E+01 -0.13991547834E+02  0.11771598773E+02  0.18742484148E+02  0.17770000000E+01 0.  1.
</event>
<event>
 6    1  0.1378789E-002  0.1837391E+03  0.7546771E-02  0.1067473E+00
        -11   -1    0    0    0    0  0.00000000000E+00  0.00000000000E+00  0.18250000000E+03  0.18250000000E+03  0.00000000000E+00 0. -1.
         11   -1    0    0    0    0 -0.00000000000E+00 -0.00000000000E+00 -0.18250000000E+03  0.18250000000E+03  0.00000000000E+00 0. -1.
        -11    1    1    2    0    0  0.41818522936E+01 -0.94478466902E+00  0.18121020487E+03  0.18126091375E+03  0.00000000000E+00 0. -1.
         11    1    1    2    0    0 -0.64519958981E+01 -0.18596166157E+00 -0.17135219189E+03  0.17147371955E+03  0.00000000000E+00 0. -1.
        -15    1    1    2    0    0  0.41289598717E+01  0.10911289122E+01 -0.53245133692E+01  0.70531584091E+01  0.17770000000E+01 0.  1.
         15    1    1    2    0    0 -0.18588162672E+01  0.39617418395E-01 -0.45334996101E+01  0.52122082815E+01  0.17770000000E+01 0. -1.
</event>
<event>
 6    1  0.1378789E-002  0.1839046E+03  0.7546771E-02  0.1067342E+00
        -11   -1    0    0    0    0  0.00000000000E+00  0.00000000000E+00  0.18250000000E+03  0.18250000000E+03  0.00000000000E+00 0.  1.
         11   -1    0    0    0    0 -0.00000000000E+00 -0.00000000000E+00 -0.18250000000E+03  0.18250000000E+03  0.00000000000E+00 0.  1.
        -11    1    1    2    0    0  0.16450314508E+00 -0.30608547843E+01  0.17235575211E+03  0.17238300722E+03  0.00000000000E+00 0.  1.
         11    1    1    2    0    0 -0.20011739460E+01 -0.16823262256E+01 -0.18107655047E+03  0.18109542250E+03  0.00000000000E+00 0.  1.
        -15    1    1    2    0    0  0.27638749314E+01  0.43967920559E+01  0.61459585505E+01  0.82402257569E+01  0.17770000000E+01 0. -1.
         15    1    1    2    0    0 -0.92720413051E+00  0.34638895394E+00  0.25748398171E+01  0.32813445248E+01  0.17770000000E+01 0.  1.
</event>
<event>
 6    1  0.1378789E-002  0.1858542E+03  0.7546771E-02  0.1065816E+00
        -11   -1    0    0    0    0  0.00000000000E+00  0.00000000000E+00  0.18250000000E+03  0.18250000000E+03  0.00000000000E+00 0. -1.
         11   -1    0    0    0    0 -0.00000000000E+00 -0.00000000000E+00 -0.18250000000E+03  0.18250000000E+03  0.00000000000E+00 0. -1.
        -11    1    1    2    0    0 -0.16562032944E+01  0.44187171588E+01  0.16699088256E+03  0.16705754377E+03  0.00000000000E+00 0. -1.
         11    1    1    2    0    0 -0.48697267699E+00  0.29755321708E+01 -0.17912038370E+03  0.17914575851E+03  0.00000000000E+00 0. -1.
        -15    1    1    2    0    0  0.65077933994E+00  0.73508857481E+00 -0.16596903555E+01  0.26222452285E+01  0.17770000000E+01 0. -1.
         15    1    1    2    0    0  0.14923966314E+01 -0.81293379044E+01  0.13789191493E+02  0.16174452494E+02  0.17770000000E+01 0. -1.
</event>
<event>
 6    1  0.1378789E-002  0.1835764E+03  0.7546771E-02  0.1067601E+00
        -11   -1    0    0    0    0  0.00000000000E+00  0.00000000000E+00  0.18250000000E+03  0.18250000000E+03  0.00000000000E+00 0.  1.
         11   -1    0    0    0    0 -0.00000000000E+00 -0.00000000000E+00 -0.18250000000E+03  0.18250000000E+03  0.00000000000E+00 0. -1.
        -11    1    1    2    0    0 -0.29904644618E+01 -0.25656813525E+01  0.18138081225E+03  0.18142360555E+03  0.00000000000E+00 0.  1.
         11    1    1    2    0    0 -0.19198625887E+01 -0.23922131023E+01 -0.15342004761E+03  0.15345070728E+03  0.00000000000E+00 0. -1.
        -15    1    1    2    0    0 -0.12674090636E+01  0.37218771722E+01 -0.14962377302E+02  0.15572063413E+02  0.17770000000E+01 0. -1.
         15    1    1    2    0    0  0.61777361140E+01  0.12360172826E+01 -0.12998387333E+02  0.14553623757E+02  0.17770000000E+01 0. -1.
</event>
<event>
 6    1  0.1378789E-002  0.1828595E+03  0.7546771E-02  0.1068169E+00
        -11   -1    0    0    0    0  0.00000000000E+00  0.00000000000E+00  0.18250000000E+03  0.18250000000E+03  0.00000000000E+00 0. -1.
         11   -1    0    0    0    0 -0.00000000000E+00 -0.00000000000E+00 -0.18250000000E+03  0.18250000000E+03  0.00000000000E+00 0.  1.
        -11    1    1    2    0    0 -0.12517294995E+01 -0.12743624086E+01  0.12012339677E+03  0.12013667749E+03  0.00000000000E+00 0. -1.
         11    1    1    2    0    0 -0.44493058143E+01 -0.12102176698E+01 -0.18208209647E+03  0.18214046997E+03  0.00000000000E+00 0.  1.
        -15    1    1    2    0    0 -0.12741981518E+01  0.15986217060E+00  0.14720241814E+02  0.14882620230E+02  0.17770000000E+01 0. -1.
         15    1    1    2    0    0  0.69752334656E+01  0.23247179078E+01  0.47238457883E+02  0.47840232310E+02  0.17770000000E+01 0. -1.
</event>
<event>
 6    1  0.1378789E-002  0.1835925E+03  0.7546771E-02  0.1067588E+00
        -11   -1    0    0    0    0  0.00000000000E+00  0.00000000000E+00  0.18250000000E+03  0.18250000000E+03  0.00000000000E+00 0.  1.
         11   -1    0    0    0    0 -0.00000000000E+00 -0.00000000000E+00 -0.18250000000E+03  0.18250000000E+03  0.00000000000E+00 0. -1.
        -11    1    1    2    0    0 -0.25847680820E+01 -0.16524453825E+01  0.14431285090E+03  0.14434545554E+03  0.00000000000E+00 0.  1.
         11    1    1    2    0    0  0.35672032339E+00 -0.55179919525E+01 -0.18132321205E+03  0.18140750456E+03  0.00000000000E+00 0. -1.
        -15    1    1    2    0    0 -0.21798052004E+00 -0.12727126743E+01  0.15970226061E+01  0.27157914616E+01  0.17770000000E+01 0.  1.
         15    1    1    2    0    0  0.24460282786E+01  0.84431500092E+01  0.35413338543E+02  0.36531248434E+02  0.17770000000E+01 0.  1.
</event>
<event>
 6    1  0.1378789E-002  0.1865642E+03  0.7546771E-02  0.1065265E+00
        -11   -1    0    0    0    0  0.00000000000E+00  0.00000000000E+00  0.18250000000E+03  0.18250000000E+03  0.00000000000E+00 0.  1.
         11   -1    0    0    0    0 -0.00000000000E+00 -0.00000000000E+00 -0.18250000000E+03  0.18250000000E+03  0.00000000000E+00 0. -1.
        -11    1    1    2    0    0  0.30864701682E+01 -0.67908006994E+00  0.17237897343E+03  0.17240794045E+03  0.00000000000E+00 0.  1.
         11    1    1    2    0    0  0.15113485194E+01 -0.32598590369E+01 -0.17839962624E+03  0.17843580778E+03  0.00000000000E+00 0. -1.
        -15    1    1    2    0    0 -0.45847040162E-01  0.30396837282E+01  0.80521224958E+01  0.87884119615E+01  0.17770000000E+01 0.  1.
         15    1    1    2    0    0 -0.45519716474E+01  0.89925537864E+00 -0.20314696852E+01  0.53678398073E+01  0.17770000000E+01 0. -1.
</event>
<event>
 6    1  0.1378789E-002  0.1881168E+03  0.7546771E-02  0.1064070E+00
        -11   -1    0    0    0    0  0.00000000000E+00  0.00000000000E+00  0.18250000000E+03  0.18250000000E+03  0.00000000000E+00 0.  1.
         11   -1    0    0    0    0 -0.00000000000E+00 -0.00000000000E+00 -0.18250000000E+03  0.18250000000E+03  0.00000000000E+00 0. -1.
        -11    1    1    2    0    0  0.29396531666E+01  0.11665187606E+01  0.16130799243E+03  0.16133899326E+03  0.00000000000E+00 0.  1.
         11    1    1    2    0    0 -0.31795367093E+01  0.15958725162E+01 -0.17684739915E+03  0.17688317853E+03  0.00000000000E+00 0. -1.
        -15    1    1    2    0    0 -0.46582325189E+01  0.47072623413E+01  0.16255343141E+02  0.17642317267E+02  0.17770000000E+01 0. -1.
         15    1    1    2    0    0  0.48981160616E+01 -0.74696536182E+01 -0.71593642068E+00  0.91355109373E+01  0.17770000000E+01 0.  1.
</event>
<event>
 6    1  0.1378789E-002  0.2181278E+03  0.7546771E-02  0.1043174E+00
        -11   -1    0    0    0    0  0.00000000000E+00  0.00000000000E+00  0.18250000000E+03  0.18250000000E+03  0.00000000000E+00 0.  1.
         11   -1    0    0    0    0 -0.00000000000E+00 -0.00000000000E+00 -0.18250000000E+03  0.18250000000E+03  0.00000000000E+00 0.  1.
        -11    1    1    2    0    0  0.28881642484E+01  0.89242509170E+00  0.11196271555E+03  0.11200351597E+03  0.00000000000E+00 0.  1.
         11    1    1    2    0    0  0.27141276937E+01  0.54084412603E+00 -0.14684613471E+03  0.14687221072E+03  0.00000000000E+00 0.  1.
        -15    1    1    2    0    0 -0.50725686270E+01 -0.13943039386E+02 -0.33447061407E+02  0.36633358371E+02  0.17770000000E+01 0.  1.
         15    1    1    2    0    0 -0.52972331501E+00  0.12509770169E+02  0.68330480565E+02  0.69490914943E+02  0.17770000000E+01 0. -1.
</event>
<event>
 6    1  0.1378789E-002  0.1875415E+03  0.7546771E-02  0.1064511E+00
        -11   -1    0    0    0    0  0.00000000000E+00  0.00000000000E+00  0.18250000000E+03  0.18250000000E+03  0.00000000000E+00 0.  1.
         11   -1    0    0    0    0 -0.00000000000E+00 -0.00000000000E+00 -0.18250000000E+03  0.18250000000E+03  0.00000000000E+00 0. -1.
        -11    1    1    2    0    0  0.60377537550E+01  0.58907174647E+00  0.17735480842E+03  0.17745852908E+03  0.00000000000E+00 0.  1.
         11    1    1    2    0    0  0.17963790840E+01  0.43244732903E+01 -0.16170017564E+03  0.16176796608E+03  0.00000000000E+00 0. -1.
        -15    1    1    2    0    0 -0.12354757146E+02 -0.62120617322E+01 -0.66201628310E+01  0.15434183490E+02  0.17770000000E+01 0. -1.
         15    1    1    2    0    0  0.45206243068E+01  0.12985166954E+01 -0.90344699429E+01  0.10339321345E+02  0.17770000000E+01 0.  1.
</event>
<event>
 6    1  0.1378789E-002  0.1847388E+03  0.7546771E-02  0.1066687E+00
        -11   -1    0    0    0    0  0.00000000000E+00  0.00000000000E+00  0.18250000000E+03  0.18250000000E+03  0.00000000000E+00 0.  1.
         11   -1    0    0    0    0 -0.00000000000E+00 -0.00000000000E+00 -0.18250000000E+03  0.18250000000E+03  0.00000000000E+00 0. -1.
        -11    1    1    2    0    0 -0.83861241486E-04  0.34926387904E+01  0.18022732661E+03  0.18026116548E+03  0.00000000000E+00 0.  1.
         11    1    1    2    0    0  0.63490223960E+01  0.10407518003E+01 -0.16808253283E+03  0.16820562147E+03  0.00000000000E+00 0. -1.
        -15    1    1    2    0    0 -0.53052817023E+01 -0.44394944005E+01 -0.41156097343E+01  0.82432455355E+01  0.17770000000E+01 0. -1.
         15    1    1    2    0    0 -0.10436568325E+01 -0.93896190172E-01 -0.80291840362E+01  0.82899675129E+01  0.17770000000E+01 0.  1.
</event>
<event>
 6    1  0.1378789E-002  0.1826461E+03  0.7546771E-02  0.1068339E+00
        -11   -1    0    0    0    0  0.00000000000E+00  0.00000000000E+00  0.18250000000E+03  0.18250000000E+03  0.00000000000E+00 0.  1.
         11   -1    0    0    0    0 -0.00000000000E+00 -0.00000000000E+00 -0.18250000000E+03  0.18250000000E+03  0.00000000000E+00 0.  1.
        -11    1    1    2    0    0 -0.91957529515E-02  0.16856558596E+01  0.92824055212E+02  0.92839359898E+02  0.00000000000E+00 0.  1.
         11    1    1    2    0    0 -0.58732918644E+01 -0.16019966773E+01 -0.18225223630E+03  0.18235388558E+03  0.00000000000E+00 0.  1.
        -15    1    1    2    0    0  0.30071887388E+01 -0.28100326565E-02  0.20481193747E+02  0.20776915514E+02  0.17770000000E+01 0. -1.
         15    1    1    2    0    0  0.28752988786E+01 -0.80849149590E-01  0.68946987343E+02  0.69029839004E+02  0.17770000000E+01 0.  1.
</event>
<event>
 6    1  0.1378789E-002  0.1828593E+03  0.7546771E-02  0.1068169E+00
        -11   -1    0    0    0    0  0.00000000000E+00  0.00000000000E+00  0.18250000000E+03  0.18250000000E+03  0.00000000000E+00 0.  1.
         11   -1    0    0    0    0 -0.00000000000E+00 -0.00000000000E+00 -0.18250000000E+03  0.18250000000E+03  0.00000000000E+00 0. -1.
        -11    1    1    2    0    0 -0.25291196319E+01 -0.13489520870E+01  0.13958953839E+03  0.13961896485E+03  0.00000000000E+00 0.  1.
         11    1    1    2    0    0  0.32406363537E+01  0.12764933503E+01 -0.18210737221E+03  0.18214067687E+03  0.00000000000E+00 0. -1.
        -15    1    1    2    0    0 -0.25276492036E+01 -0.18536593802E+01  0.11310294678E+02  0.11870364708E+02  0.17770000000E+01 0. -1.
         15    1    1    2    0    0  0.18161324818E+01  0.19261181169E+01  0.31207539142E+02  0.31369993569E+02  0.17770000000E+01 0.  1.
</event>
<event>
 6    1  0.1378789E-002  0.1714928E+03  0.7546771E-02  0.1077571E+00
        -11   -1    0    0    0    0  0.00000000000E+00  0.00000000000E+00  0.18250000000E+03  0.18250000000E+03  0.00000000000E+00 0. -1.
         11   -1    0    0    0    0 -0.00000000000E+00 -0.00000000000E+00 -0.18250000000E+03  0.18250000000E+03  0.00000000000E+00 0.  1.
        -11    1    1    2    0    0  0.59205942819E+01 -0.62206166891E+01  0.17267301606E+03  0.17288643667E+03  0.00000000000E+00 0. -1.
         11    1    1    2    0    0 -0.28371308197E+01  0.12056027178E+01 -0.17013125798E+03  0.17015918351E+03  0.00000000000E+00 0.  1.
        -15    1    1    2    0    0 -0.52021319848E+01 -0.18870846669E+01  0.74818135670E+01  0.94740977923E+01  0.17770000000E+01 0.  1.
         15    1    1    2    0    0  0.21186685226E+01  0.69020986383E+01 -0.10023571646E+02  0.12480282026E+02  0.17770000000E+01 0. -1.
</event>
<event>
 6    1  0.1378789E-002  0.1580710E+03  0.7546771E-02  0.1089756E+00
        -11   -1    0    0    0    0  0.00000000000E+00  0.00000000000E+00  0.18250000000E+03  0.18250000000E+03  0.00000000000E+00 0.  1.
         11   -1    0    0    0    0 -0.00000000000E+00 -0.00000000000E+00 -0.18250000000E+03  0.18250000000E+03  0.00000000000E+00 0.  1.
        -11    1    1    2    0    0 -0.29936546568E+01 -0.57230470393E-02  0.17430829148E+03  0.17433399691E+03  0.00000000000E+00 0.  1.
         11    1    1    2    0    0 -0.58190965480E+00 -0.32111337860E+01 -0.12931360173E+02  0.13336794029E+02  0.00000000000E+00 0.  1.
        -15    1    1    2    0    0 -0.18156065153E+02 -0.18230169049E+02 -0.19875713274E+02  0.32560458727E+02  0.17770000000E+01 0. -1.
         15    1    1    2    0    0  0.21731629464E+02  0.21447025882E+02 -0.14150121803E+03  0.14476875033E+03  0.17770000000E+01 0.  1.
</event>
<event>
 6    1  0.1378789E-002  0.1327295E+03  0.7546771E-02  0.1116854E+00
        -11   -1    0    0    0    0  0.00000000000E+00  0.00000000000E+00  0.18250000000E+03  0.18250000000E+03  0.00000000000E+00 0. -1.
         11   -1    0    0    0    0 -0.00000000000E+00 -0.00000000000E+00 -0.18250000000E+03  0.18250000000E+03  0.00000000000E+00 0.  1.
        -11    1    1    2    0    0 -0.34911626775E-01 -0.82936372023E+01  0.15811801372E+03  0.15833537791E+03  0.00000000000E+00 0. -1.
         11    1    1    2    0    0 -0.43225128429E+02  0.26702175802E+02 -0.10480919883E+03  0.11647483024E+03  0.00000000000E+00 0.  1.
        -15    1    1    2    0    0  0.82175767688E+01 -0.19981943345E+02  0.48813186054E+01  0.22221422729E+02  0.17770000000E+01 0. -1.
         15    1    1    2    0    0  0.35042463287E+02  0.15734047449E+01 -0.58190133489E+02  0.67968369115E+02  0.17770000000E+01 0.  1.
</event>
<event>
 6    1  0.1378789E-002  0.2090113E+03  0.7546771E-02  0.1049115E+00
        -11   -1    0    0    0    0  0.00000000000E+00  0.00000000000E+00  0.18250000000E+03  0.18250000000E+03  0.00000000000E+00 0.  1.
         11   -1    0    0    0    0 -0.00000000000E+00 -0.00000000000E+00 -0.18250000000E+03  0.18250000000E+03  0.00000000000E+00 0.  1.
        -11    1    1    2    0    0  0.12454435213E+02  0.21663392471E+01  0.12880898912E+03  0.12942782414E+03  0.00000000000E+00 0.  1.
         11    1    1    2    0    0  0.14837316521E+02 -0.14952196485E+02 -0.15455987698E+03  0.15598868457E+03  0.00000000000E+00 0.  1.
        -15    1    1    2    0    0 -0.13391802687E+02  0.82839763391E-01  0.48299178653E+02  0.50152922439E+02  0.17770000000E+01 0. -1.
         15    1    1    2    0    0 -0.13899949048E+02  0.12703017474E+02 -0.22548290790E+02  0.29430568854E+02  0.17770000000E+01 0.  1.
</event>
<event>
 6    1  0.1378789E-002  0.1858511E+03  0.7546771E-02  0.1065818E+00
        -11   -1    0    0    0    0  0.00000000000E+00  0.00000000000E+00  0.18250000000E+03  0.18250000000E+03  0.00000000000E+00 0.  1.
         11   -1    0    0    0    0 -0.00000000000E+00 -0.00000000000E+00 -0.18250000000E+03  0.18250000000E+03  0.00000000000E+00 0.  1.
        -11    1    1    2    0    0 -0.32214940469E+01 -0.77404874788E+01  0.17895260674E+03  0.17914890073E+03  0.00000000000E+00 0.  1.
         11    1    1    2    0    0  0.57725234804E+01 -0.43677403271E+01 -0.13784161004E+03  0.13803154944E+03  0.00000000000E+00 0.  1.
        -15    1    1    2    0    0  0.53490554233E+01  0.65452393251E+01 -0.41645543337E+01  0.95892540660E+01  0.17770000000E+01 0.  1.
         15    1    1    2    0    0 -0.79000848567E+01  0.55629884808E+01 -0.36946442376E+02  0.38230295772E+02  0.17770000000E+01 0. -1.
</event>
<event>
 6    1  0.1378789E-002  0.1831355E+03  0.7546771E-02  0.1067950E+00
        -11   -1    0    0    0    0  0.00000000000E+00  0.00000000000E+00  0.18250000000E+03  0.18250000000E+03  0.00000000000E+00 0.  1.
         11   -1    0    0    0    0 -0.00000000000E+00 -0.00000000000E+00 -0.18250000000E+03  0.18250000000E+03  0.00000000000E+00 0. -1.
        -11    1    1    2    0    0 -0.45605996484E+01  0.61923768618E+01  0.18170185786E+03  0.18186453681E+03  0.00000000000E+00 0.  1.
         11    1    1    2    0    0 -0.70063162870E+00  0.41593534819E+01 -0.44619941692E+02  0.44818861015E+02  0.00000000000E+00 0. -1.
        -15    1    1    2    0    0  0.35822501441E+01 -0.78692977076E+01 -0.13107874153E+03  0.13137561636E+03  0.17770000000E+01 0. -1.
         15    1    1    2    0    0  0.16789811330E+01 -0.24824326361E+01 -0.60031746324E+01  0.69409858165E+01  0.17770000000E+01 0.  1.
</event>
<event>
 6    1  0.1378789E-002  0.1837436E+03  0.7546771E-02  0.1067469E+00
        -11   -1    0    0    0    0  0.00000000000E+00  0.00000000000E+00  0.18250000000E+03  0.18250000000E+03  0.00000000000E+00 0.  1.
         11   -1    0    0    0    0 -0.00000000000E+00 -0.00000000000E+00 -0.18250000000E+03  0.18250000000E+03  0.00000000000E+00 0. -1.
        -11    1    1    2    0    0  0.10828216601E+01 -0.40452571251E+01  0.18120797813E+03  0.18125635973E+03  0.00000000000E+00 0.  1.
         11    1    1    2    0    0 -0.33919419276E+01  0.62023206512E+01 -0.10090865666E+03  0.10115597383E+03  0.00000000000E+00 0. -1.
        -15    1    1    2    0    0  0.83491640955E+01 -0.30612930374E+01 -0.20073252261E+02  0.22026648440E+02  0.17770000000E+01 0.  1.
         15    1    1    2    0    0 -0.60400438279E+01  0.90422951141E+00 -0.60226069202E+02  0.60561017998E+02  0.17770000000E+01 0. -1.
</event>
<event>
 6    1  0.1378789E-002  0.1827010E+03  0.7546771E-02  0.1068295E+00
        -11   -1    0    0    0    0  0.00000000000E+00  0.00000000000E+00  0.18250000000E+03  0.18250000000E+03  0.00000000000E+00 0.  1.
         11   -1    0    0    0    0 -0.00000000000E+00 -0.00000000000E+00 -0.18250000000E+03  0.18250000000E+03  0.00000000000E+00 0. -1.
        -11    1    1    2    0    0  0.19296202789E+01  0.29035816412E+01  0.18226566476E+03  0.18229900376E+03  0.00000000000E+00 0.  1.
         11    1    1    2    0    0  0.20670712022E+01  0.15609119806E+01 -0.89852542629E+02  0.89889869543E+02  0.00000000000E+00 0. -1.
        -15    1    1    2    0    0 -0.25976180639E+01 -0.52516845022E+01 -0.60827774406E+02  0.61135126383E+02  0.17770000000E+01 0.  1.
         15    1    1    2    0    0 -0.13990734173E+01  0.78719088030E+00 -0.31585347727E+02  0.31676000315E+02  0.17770000000E+01 0. -1.
</event>
<event>
 6    1  0.1378789E-002  0.1825533E+03  0.7546771E-02  0.1068412E+00
        -11   -1    0    0    0    0  0.00000000000E+00  0.00000000000E+00  0.18250000000E+03  0.18250000000E+03  0.00000000000E+00 0.  1.
         11   -1    0    0    0    0 -0.00000000000E+00 -0.00000000000E+00 -0.18250000000E+03  0.18250000000E+03  0.00000000000E+00 0.  1.
        -11    1    1    2    0    0  0.16172589765E+01 -0.37006358789E+00  0.75731974127E+02  0.75750144415E+02  0.00000000000E+00 0.  1.
         11    1    1    2    0    0 -0.15333034541E+01  0.32916857180E+01 -0.18241059758E+03  0.18244673832E+03  0.00000000000E+00 0.  1.
        -15    1    1    2    0    0  0.99754847008E-02 -0.17812225174E+01  0.80500978110E+02  0.80540288420E+02  0.17770000000E+01 0. -1.
         15    1    1    2    0    0 -0.93931007109E-01 -0.11403996127E+01  0.26177645342E+02  0.26262828845E+02  0.17770000000E+01 0.  1.
</event>
<event>
 6    1  0.1378789E-002  0.1862807E+03  0.7546771E-02  0.1065485E+00
        -11   -1    0    0    0    0  0.00000000000E+00  0.00000000000E+00  0.18250000000E+03  0.18250000000E+03  0.00000000000E+00 0. -1.
         11   -1    0    0    0    0 -0.00000000000E+00 -0.00000000000E+00 -0.18250000000E+03  0.18250000000E+03  0.00000000000E+00 0. -1.
        -11    1    1    2    0    0 -0.46039184115E+01 -0.47172498073E+01  0.17859772539E+03  0.17871932191E+03  0.00000000000E+00 0. -1.
         11    1    1    2    0    0 -0.75342985539E+00  0.34285230440E+00 -0.36265612630E+02  0.36275058424E+02  0.00000000000E+00 0. -1.
        -15    1    1    2    0    0  0.14203173997E+01  0.90979739778E+01 -0.20780074911E+01  0.96055336213E+01  0.17770000000E+01 0.  1.
         15    1    1    2    0    0  0.39370308672E+01 -0.47235764749E+01 -0.14025410527E+03  0.14040008604E+03  0.17770000000E+01 0. -1.
</event>
<event>
 6    1  0.1378789E-002  0.1826742E+03  0.7546771E-02  0.1068316E+00
        -11   -1    0    0    0    0  0.00000000000E+00  0.00000000000E+00  0.18250000000E+03  0.18250000000E+03  0.00000000000E+00 0. -1.
         11   -1    0    0    0    0 -0.00000000000E+00 -0.00000000000E+00 -0.18250000000E+03  0.18250000000E+03  0.00000000000E+00 0.  1.
        -11    1    1    2    0    0 -0.12850296716E+01  0.33843113285E+00  0.78702168608E+02  0.78713386286E+02  0.00000000000E+00 0. -1.
         11    1    1    2    0    0 -0.28035634213E+01  0.24058135756E+01 -0.18228835036E+03  0.18232578146E+03  0.00000000000E+00 0.  1.
        -15    1    1    2    0    0  0.26805215639E+01 -0.46938265801E+01  0.58683644200E+02  0.58958841826E+02  0.17770000000E+01 0. -1.
         15    1    1    2    0    0  0.14080715290E+01  0.19495818716E+01  0.44902537553E+02  0.45001990430E+02  0.17770000000E+01 0. -1.
</event>
<event>
 6    1  0.1378789E-002  0.1679632E+03  0.7546771E-02  0.1080653E+00
        -11   -1    0    0    0    0  0.00000000000E+00  0.00000000000E+00  0.18250000000E+03  0.18250000000E+03  0.00000000000E+00 0. -1.
         11   -1    0    0    0    0 -0.00000000000E+00 -0.00000000000E+00 -0.18250000000E+03  0.18250000000E+03  0.00000000000E+00 0.  1.
        -11    1    1    2    0    0 -0.10126956035E+02  0.91684369200E+01  0.16899520783E+03  0.16954644126E+03  0.00000000000E+00 0. -1.
         11    1    1    2    0    0  0.29122481854E+01 -0.65182520191E+01 -0.16632539489E+03  0.16647854451E+03  0.00000000000E+00 0.  1.
        -15    1    1    2    0    0  0.87218141241E+01 -0.64216992115E+01  0.10432662497E+02  0.15142867567E+02  0.17770000000E+01 0. -1.
         15    1    1    2    0    0 -0.15071062742E+01  0.37715143106E+01 -0.13102475443E+02  0.13832146661E+02  0.17770000000E+01 0.  1.
</event>
<event>
 6    1  0.1378789E-002  0.1830614E+03  0.7546771E-02  0.1068009E+00
        -11   -1    0    0    0    0  0.00000000000E+00  0.00000000000E+00  0.18250000000E+03  0.18250000000E+03  0.00000000000E+00 0.  1.
         11   -1    0    0    0    0 -0.00000000000E+00 -0.00000000000E+00 -0.18250000000E+03  0.18250000000E+03  0.00000000000E+00 0.  1.
        -11    1    1    2    0    0  0.39334027219E+00  0.33988104001E+01  0.12303145742E+03  0.12307902398E+03  0.00000000000E+00 0.  1.
         11    1    1    2    0    0 -0.77510739028E+01 -0.36423207168E+01 -0.18173689502E+03  0.18193857386E+03  0.00000000000E+00 0.  1.
        -15    1    1    2    0    0  0.26971041628E+01  0.16891970514E+01  0.47414923867E+02  0.47554815654E+02  0.17770000000E+01 0. -1.
         15    1    1    2    0    0  0.46606294678E+01 -0.14456867348E+01  0.11290513734E+02  0.12427586513E+02  0.17770000000E+01 0.  1.
</event>
<event>
 6    1  0.1378789E-002  0.1859130E+03  0.7546771E-02  0.1065770E+00
        -11   -1    0    0    0    0  0.00000000000E+00  0.00000000000E+00  0.18250000000E+03  0.18250000000E+03  0.00000000000E+00 0.  1.
         11   -1    0    0    0    0 -0.00000000000E+00 -0.00000000000E+00 -0.18250000000E+03  0.18250000000E+03  0.00000000000E+00 0. -1.
        -11    1    1    2    0    0 -0.17414571302E+01 -0.22561895786E+01  0.17671233174E+03  0.17673531411E+03  0.00000000000E+00 0.  1.
         11    1    1    2    0    0 -0.20818025652E+01  0.32311806642E+01 -0.17904579006E+03  0.17908704411E+03  0.00000000000E+00 0. -1.
        -15    1    1    2    0    0  0.57451793210E+00 -0.16354706960E+01 -0.21789662821E+01  0.33030982895E+01  0.17770000000E+01 0.  1.
         15    1    1    2    0    0  0.32487417633E+01  0.66047961042E+00  0.45124246053E+01  0.58745434869E+01  0.17770000000E+01 0. -1.
</event>
<event>
 6    1  0.1378789E-002  0.1836907E+03  0.7546771E-02  0.1067511E+00
        -11   -1    0    0    0    0  0.00000000000E+00  0.00000000000E+00  0.18250000000E+03  0.18250000000E+03  0.00000000000E+00 0. -1.
         11   -1    0    0    0    0 -0.00000000000E+00 -0.00000000000E+00 -0.18250000000E+03  0.18250000000E+03  0.00000000000E+00 0.  1.
        -11    1    1    2    0    0 -0.43569351963E+01 -0.32184510725E+00  0.10771512380E+03  0.10780368437E+03  0.00000000000E+00 0. -1.
         11    1    1    2    0    0  0.45688517870E+00  0.86147254939E+01 -0.18110399050E+03  0.18130934233E+03  0.00000000000E+00 0.  1.
        -15    1    1    2    0    0 -0.16769194859E+01 -0.85433510146E+01  0.16886910613E+02  0.19082095917E+02  0.17770000000E+01 0. -1.
         15    1    1    2    0    0  0.55769695036E+01  0.25047062799E+00  0.56501956089E+02  0.56804877390E+02  0.17770000000E+01 0. -1.
</event>
<event>
 6    1  0.1378789E-002  0.1887367E+03  0.7546771E-02  0.1063596E+00
        -11   -1    0    0    0    0  0.00000000000E+00  0.00000000000E+00  0.18250000000E+03  0.18250000000E+03  0.00000000000E+00 0.  1.
         11   -1    0    0    0    0 -0.00000000000E+00 -0.00000000000E+00 -0.18250000000E+03  0.18250000000E+03  0.00000000000E+00 0.  1.
        -11    1    1    2    0    0 -0.45551939628E+00  0.26983839735E+01  0.15976079748E+03  0.15978423322E+03  0.00000000000E+00 0.  1.
         11    1    1    2    0    0 -0.20441031397E+01 -0.31716404304E+01 -0.17622285964E+03  0.17626325176E+03  0.00000000000E+00 0.  1.
        -15    1    1    2    0    0  0.31172030245E+01  0.23031422048E+01 -0.54298820373E+01  0.69038226114E+01  0.17770000000E+01 0. -1.
         15    1    1    2    0    0 -0.61758048855E+00 -0.18298857479E+01  0.21891944193E+02  0.22048692412E+02  0.17770000000E+01 0.  1.
</event>
<event>
 6    1  0.1378789E-002  0.1840853E+03  0.7546771E-02  0.1067200E+00
        -11   -1    0    0    0    0  0.00000000000E+00  0.00000000000E+00  0.18250000000E+03  0.18250000000E+03  0.00000000000E+00 0. -1.
         11   -1    0    0    0    0 -0.00000000000E+00 -0.00000000000E+00 -0.18250000000E+03  0.18250000000E+03  0.00000000000E+00 0. -1.
        -11    1    1    2    0    0  0.12296960376E+01  0.11718819818E+01  0.68436140466E+02  0.68457218623E+02  0.00000000000E+00 0. -1.
         11    1    1    2    0    0 -0.45278342287E+01  0.34565220949E+01 -0.18082496512E+03  0.18091466728E+03  0.00000000000E+00 0. -1.
        -15    1    1    2    0    0  0.63611980346E+01 -0.23871958883E+01  0.62341116512E+01  0.93907093302E+01  0.17770000000E+01 0.  1.
         15    1    1    2    0    0 -0.30630598435E+01 -0.22412081884E+01  0.10615471300E+03  0.10623740476E+03  0.17770000000E+01 0. -1.
</event>
<event>
 6    1  0.1378789E-002  0.1906181E+03  0.7546771E-02  0.1062170E+00
        -11   -1    0    0    0    0  0.00000000000E+00  0.00000000000E+00  0.18250000000E+03  0.18250000000E+03  0.00000000000E+00 0.  1.
         11   -1    0    0    0    0 -0.00000000000E+00 -0.00000000000E+00 -0.18250000000E+03  0.18250000000E+03  0.00000000000E+00 0. -1.
        -11    1    1    2    0    0 -0.14218389959E+01  0.43335622156E+01  0.17432228324E+03  0.17438193662E+03  0.00000000000E+00 0.  1.
         11    1    1    2    0    0 -0.93305169137E+01 -0.17559303445E+01 -0.15923908441E+03  0.15952187261E+03  0.00000000000E+00 0. -1.
        -15    1    1    2    0    0  0.17121662601E+01  0.87721260862E+01  0.12256243363E+01  0.91946502592E+01  0.17770000000E+01 0.  1.
         15    1    1    2    0    0  0.90401896495E+01 -0.11349757957E+02 -0.16308823159E+02  0.21901540504E+02  0.17770000000E+01 0. -1.
</event>
<event>
 6    1  0.1378789E-002  0.1831709E+03  0.7546771E-02  0.1067922E+00
        -11   -1    0    0    0    0  0.00000000000E+00  0.00000000000E+00  0.18250000000E+03  0.18250000000E+03  0.00000000000E+00 0. -1.
         11   -1    0    0    0    0 -0.00000000000E+00 -0.00000000000E+00 -0.18250000000E+03  0.18250000000E+03  0.00000000000E+00 0. -1.
        -11    1    1    2    0    0 -0.38744475288E+01 -0.10878941213E+01  0.14475403134E+03  0.14480995976E+03  0.00000000000E+00 0. -1.
         11    1    1    2    0    0 -0.28381143721E+01 -0.10453311507E+01 -0.18180393021E+03  0.18182908637E+03  0.00000000000E+00 0. -1.
        -15    1    1    2    0    0  0.54644123019E+01  0.38099881769E+00  0.32627837557E+02  0.33132136583E+02  0.17770000000E+01 0. -1.
         15    1    1    2    0    0  0.12481495989E+01  0.17522264543E+01  0.44220613166E+01  0.52288172904E+01  0.17770000000E+01 0.  1.
</event>
<event>
 6    1  0.1378789E-002  0.1885645E+03  0.7546771E-02  0.1063727E+00
        -11   -1    0    0    0    0  0.00000000000E+00  0.00000000000E+00  0.18250000000E+03  0.18250000000E+03  0.00000000000E+00 0.  1.
         11   -1    0    0    0    0 -0.00000000000E+00 -0.00000000000E+00 -0.18250000000E+03  0.18250000000E+03  0.00000000000E+00 0.  1.
        -11    1    1    2    0    0 -0.97301237275E+01 -0.51126584470E-01  0.17616700639E+03  0.17643551814E+03  0.00000000000E+00 0.  1.
         11    1    1    2    0    0 -0.16616165397E+01 -0.25419908604E+01 -0.13579236768E+03  0.13582632222E+03  0.00000000000E+00 0.  1.
        -15    1    1    2    0    0  0.14886826140E+02  0.41682590103E+01 -0.39304918012E+01  0.16049874470E+02  0.17770000000E+01 0. -1.
         15    1    1    2    0    0 -0.34950858732E+01 -0.15751415655E+01 -0.36444146902E+02  0.36688285169E+02  0.17770000000E+01 0.  1.
</event>
<event>
 6    1  0.1378789E-002  0.1941027E+03  0.7546771E-02  0.1059577E+00
        -11   -1    0    0    0    0  0.00000000000E+00  0.00000000000E+00  0.18250000000E+03  0.18250000000E+03  0.00000000000E+00 0.  1.
         11   -1    0    0    0    0 -0.00000000000E+00 -0.00000000000E+00 -0.18250000000E+03  0.18250000000E+03  0.00000000000E+00 0. -1.
        -11    1    1    2    0    0 -0.25009254431E+02 -0.13018984860E+02  0.16855543604E+03  0.17089731359E+03  0.00000000000E+00 0.  1.
         11    1    1    2    0    0 -0.31660955669E+01  0.21585106541E+01 -0.13952749471E+03  0.13958010284E+03  0.00000000000E+00 0. -1.
        -15    1    1    2    0    0  0.39998716130E+01  0.23972877388E+00 -0.27677927443E+02  0.28022880639E+02  0.17770000000E+01 0. -1.
         15    1    1    2    0    0  0.24175478385E+02  0.10620745432E+02 -0.13500138843E+01  0.26499702925E+02  0.17770000000E+01 0. -1.
</event>
<event>
 6    1  0.1378789E-002  0.1974537E+03  0.7546771E-02  0.1057138E+00
        -11   -1    0    0    0    0  0.00000000000E+00  0.00000000000E+00  0.18250000000E+03  0.18250000000E+03  0.00000000000E+00 0. -1.
         11   -1    0    0    0    0 -0.00000000000E+00 -0.00000000000E+00 -0.18250000000E+03  0.18250000000E+03  0.00000000000E+00 0. -1.
        -11    1    1    2    0    0 -0.20765012196E+01  0.28610019758E-01  0.15162722649E+03  0.15164144713E+03  0.00000000000E+00 0. -1.
         11    1    1    2    0    0  0.22376487742E+01 -0.16720970180E+01 -0.16752296802E+03  0.16754625569E+03  0.00000000000E+00 0. -1.
        -15    1    1    2    0    0  0.14877953080E+02  0.15883046984E+02  0.11031617360E+02  0.24463830033E+02  0.17770000000E+01 0. -1.
         15    1    1    2    0    0 -0.15039100634E+02 -0.14239559985E+02  0.48641241794E+01  0.21348467146E+02  0.17770000000E+01 0.  1.
</event>
<event>
 6    1  0.1378789E-002  0.1829185E+03  0.7546771E-02  0.1068122E+00
        -11   -1    0    0    0    0  0.00000000000E+00  0.00000000000E+00  0.18250000000E+03  0.18250000000E+03  0.00000000000E+00 0. -1.
         11   -1    0    0    0    0 -0.00000000000E+00 -0.00000000000E+00 -0.18250000000E+03  0.18250000000E+03  0.00000000000E+00 0. -1.
        -11    1    1    2    0    0  0.25026952985E+01 -0.15638072879E+01  0.92485257599E+02  0.92532328676E+02  0.00000000000E+00 0. -1.
         11    1    1    2    0    0  0.43997198778E+01  0.19914277436E+01 -0.18201742379E+03  0.18208148144E+03  0.00000000000E+00 0. -1.
        -15    1    1    2    0    0 -0.23867733186E+01  0.66571044519E+00  0.62353696575E+01  0.69409956805E+01  0.17770000000E+01 0.  1.
         15    1    1    2    0    0 -0.45156418577E+01 -0.10933309009E+01  0.83296796535E+02  0.83445194204E+02  0.17770000000E+01 0. -1.
</event>
<event>
 6    1  0.1378789E-002  0.1833248E+03  0.7546771E-02  0.1067800E+00
        -11   -1    0    0    0    0  0.00000000000E+00  0.00000000000E+00  0.18250000000E+03  0.18250000000E+03  0.00000000000E+00 0. -1.
         11   -1    0    0    0    0 -0.00000000000E+00 -0.00000000000E+00 -0.18250000000E+03  0.18250000000E+03  0.00000000000E+00 0. -1.
        -11    1    1    2    0    0  0.28083060820E+01  0.70666559658E+01  0.18151602516E+03  0.18167523661E+03  0.00000000000E+00 0. -1.
         11    1    1    2    0    0  0.39765044126E+01 -0.17106801674E+01 -0.12894219701E+03  0.12901484094E+03  0.00000000000E+00 0. -1.
        -15    1    1    2    0    0 -0.74796365242E+01 -0.35926116807E+00 -0.22921195570E+02  0.24178770988E+02  0.17770000000E+01 0. -1.
         15    1    1    2    0    0  0.69482602954E+00 -0.49967146303E+01 -0.29652632582E+02  0.30131151461E+02  0.17770000000E+01 0.  1.
</event>
<event>
 6    1  0.1378789E-002  0.1850006E+03  0.7546771E-02  0.1066482E+00
        -11   -1    0    0    0    0  0.00000000000E+00  0.00000000000E+00  0.18250000000E+03  0.18250000000E+03  0.00000000000E+00 0.  1.
         11   -1    0    0    0    0 -0.00000000000E+00 -0.00000000000E+00 -0.18250000000E+03  0.18250000000E+03  0.00000000000E+00 0.  1.
        -11    1    1    2    0    0 -0.16278458368E+01 -0.55865635782E+01  0.17990528427E+03  0.17999936356E+03  0.00000000000E+00 0.  1.
         11    1    1    2    0    0 -0.15713332578E+01 -0.22837450711E+01 -0.16009706590E+03  0.16012106385E+03  0.00000000000E+00 0.  1.
        -15    1    1    2    0    0 -0.15904903660E+01  0.28148261881E+01 -0.16606628735E+02  0.17011488854E+02  0.17770000000E+01 0.  1.
         15    1    1    2    0    0  0.47896694606E+01  0.50554824612E+01 -0.32015896311E+01  0.78680837326E+01  0.17770000000E+01 0. -1.
</event>
<event>
 6    1  0.1378789E-002  0.1956393E+03  0.7546771E-02  0.1058452E+00
        -11   -1    0    0    0    0  0.00000000000E+00  0.00000000000E+00  0.18250000000E+03  0.18250000000E+03  0.00000000000E+00 0. -1.
         11   -1    0    0    0    0 -0.00000000000E+00 -0.00000000000E+00 -0.18250000000E+03  0.18250000000E+03  0.00000000000E+00 0.  1.
        -11    1    1    2    0    0  0.34994012397E+01  0.37741721670E+01  0.14806296393E+03  0.14815239273E+03  0.00000000000E+00 0. -1.
         11    1    1    2    0    0  0.35366944895E+01 -0.16785946535E+02 -0.16848966070E+03  0.16936068603E+03  0.00000000000E+00 0.  1.
        -15    1    1    2    0    0 -0.90753808157E+01  0.10431197579E+02  0.32224745729E+02  0.35110744598E+02  0.17770000000E+01 0. -1.
         15    1    1    2    0    0  0.20392850865E+01  0.25805767888E+01 -0.11798048952E+02  0.12376176643E+02  0.17770000000E+01 0.  1.
</event>
<event>
 6    1  0.1378789E-002  0.1827271E+03  0.7546771E-02  0.1068274E+00
        -11   -1    0    0    0    0  0.00000000000E+00  0.00000000000E+00  0.18250000000E+03  0.18250000000E+03  0.00000000000E+00 0. -1.
         11   -1    0    0    0    0 -0.00000000000E+00 -0.00000000000E+00 -0.18250000000E+03  0.18250000000E+03  0.00000000000E+00 0. -1.
        -11    1    1    2    0    0 -0.29552810792E+01 -0.11349095751E+01  0.18224541475E+03  0.18227290776E+03  0.00000000000E+00 0. -1.
         11    1    1    2    0    0 -0.46630317737E+00  0.15678064134E+01 -0.11797473049E+03  0.11798606905E+03  0.00000000000E+00 0. -1.
        -15    1    1    2    0    0  0.20959780832E+00 -0.11672147144E+01 -0.47906592403E+02  0.47954203634E+02  0.17770000000E+01 0. -1.
         15    1    1    2    0    0  0.32119864483E+01  0.73431787600E+00 -0.16364091855E+02  0.16786819559E+02  0.17770000000E+01 0. -1.
</event>
<event>
 6    1  0.1378789E-002  0.1841595E+03  0.7546771E-02  0.1067141E+00
        -11   -1    0    0    0    0  0.00000000000E+00  0.00000000000E+00  0.18250000000E+03  0.18250000000E+03  0.00000000000E+00 0.  1.
         11   -1    0    0    0    0 -0.00000000000E+00 -0.00000000000E+00 -0.18250000000E+03  0.18250000000E+03  0.00000000000E+00 0. -1.
        -11    1    1    2    0    0  0.18254364586E+01  0.19225621366E+01  0.17567157551E+03  0.17569157893E+03  0.00000000000E+00 0.  1.
         11    1    1    2    0    0  0.19543160904E+01 -0.34235346502E+01 -0.18079751042E+03  0.18084048140E+03  0.00000000000E+00 0. -1.
        -15    1    1    2    0    0 -0.16722024753E+01 -0.33530298041E+00  0.44517982772E+01  0.50877230770E+01  0.17770000000E+01 0.  1.
         15    1    1    2    0    0 -0.21075500737E+01  0.18362754940E+01  0.67413662476E+00  0.33802165895E+01  0.17770000000E+01 0. -1.
</event>
<event>
 6    1  0.1378789E-002  0.1828564E+03  0.7546771E-02  0.1068171E+00
        -11   -1    0    0    0    0  0.00000000000E+00  0.00000000000E+00  0.18250000000E+03  0.18250000000E+03  0.00000000000E+00 0.  1.
         11   -1    0    0    0    0 -0.00000000000E+00 -0.00000000000E+00 -0.18250000000E+03  0.18250000000E+03  0.00000000000E+00 0.  1.
        -11    1    1    2    0    0  0.25370248314E+01  0.12524327713E+01  0.18212160762E+03  0.18214358360E+03  0.00000000000E+00 0.  1.
         11    1    1    2    0    0  0.69652437863E+00 -0.31731645897E+01 -0.10645185326E+03  0.10650141399E+03  0.00000000000E+00 0.  1.
        -15    1    1    2    0    0 -0.44602659214E+01  0.21184671874E+01 -0.71137065279E+02  0.71330369835E+02  0.17770000000E+01 0.  1.
         15    1    1    2    0    0  0.12267167113E+01 -0.19773536899E+00 -0.45326890829E+01  0.50246325725E+01  0.17770000000E+01 0.  1.
</event>
<event>
 6    1  0.1378789E-002  0.1883102E+03  0.7546771E-02  0.1063922E+00
        -11   -1    0    0    0    0  0.00000000000E+00  0.00000000000E+00  0.18250000000E+03  0.18250000000E+03  0.00000000000E+00 0.  1.
         11   -1    0    0    0    0 -0.00000000000E+00 -0.00000000000E+00 -0.18250000000E+03  0.18250000000E+03  0.00000000000E+00 0.  1.
        -11    1    1    2    0    0 -0.66904898656E+01 -0.21836699466E+01  0.85650399678E+02  0.85939060002E+02  0.00000000000E+00 0.  1.
         11    1    1    2    0    0 -0.54729280446E+01  0.36464666779E+01 -0.17656741018E+03  0.17668984125E+03  0.00000000000E+00 0.  1.
        -15    1    1    2    0    0  0.47581189246E+01 -0.57080032529E+00  0.93976698419E+02  0.94115583638E+02  0.17770000000E+01 0.  1.
         15    1    1    2    0    0  0.74052989855E+01 -0.89199640600E+00 -0.30596879131E+01  0.82555151129E+01  0.17770000000E+01 0. -1.
</event>
<event>
 6    1  0.1378789E-002  0.2030129E+03  0.7546771E-02  0.1053206E+00
        -11   -1    0    0    0    0  0.00000000000E+00  0.00000000000E+00  0.18250000000E+03  0.18250000000E+03  0.00000000000E+00 0. -1.
         11   -1    0    0    0    0 -0.00000000000E+00 -0.00000000000E+00 -0.18250000000E+03  0.18250000000E+03  0.00000000000E+00 0. -1.
        -11    1    1    2    0    0 -0.21978717753E+01  0.13891269148E+01  0.13167977298E+03  0.13170544000E+03  0.00000000000E+00 0. -1.
         11    1    1    2    0    0 -0.25011789353E+02 -0.13287570743E+02 -0.15949194509E+03  0.16198712816E+03  0.00000000000E+00 0. -1.
        -15    1    1    2    0    0  0.18545653269E+02 -0.21496194057E+02  0.26503772187E+01  0.28569386457E+02  0.17770000000E+01 0. -1.
         15    1    1    2    0    0  0.86640078592E+01  0.33394637886E+02  0.25161794894E+02  0.42738045381E+02  0.17770000000E+01 0.  1.
</event>
<event>
 6    1  0.1378789E-002  0.1825877E+03  0.7546771E-02  0.1068385E+00
        -11   -1    0    0    0    0  0.00000000000E+00  0.00000000000E+00  0.18250000000E+03  0.18250000000E+03  0.00000000000E+00 0. -1.
         11   -1    0    0    0    0 -0.00000000000E+00 -0.00000000000E+00 -0.18250000000E+03  0.18250000000E+03  0.00000000000E+00 0.  1.
        -11    1    1    2    0    0  0.29620343361E+01 -0.22709461619E+01  0.18237406423E+03  0.18241225329E+03  0.00000000000E+00 0. -1.
         11    1    1    2    0    0 -0.56538747924E+00  0.13815649550E+00 -0.12445802432E+02  0.12459404014E+02  0.00000000000E+00 0.  1.
        -15    1    1    2    0    0 -0.37091951465E+01  0.36054486035E+01 -0.99702754328E+02  0.99852663148E+02  0.17770000000E+01 0.  1.
         15    1    1    2    0    0  0.13125482896E+01 -0.14726589370E+01 -0.70225507474E+02  0.70275679551E+02  0.17770000000E+01 0.  1.
</event>
<event>
 6    1  0.1378789E-002  0.1871099E+03  0.7546771E-02  0.1064843E+00
        -11   -1    0    0    0    0  0.00000000000E+00  0.00000000000E+00  0.18250000000E+03  0.18250000000E+03  0.00000000000E+00 0. -1.
         11   -1    0    0    0    0 -0.00000000000E+00 -0.00000000000E+00 -0.18250000000E+03  0.18250000000E+03  0.00000000000E+00 0.  1.
        -11    1    1    2    0    0  0.11112911224E+01 -0.32282699271E+01  0.17785736156E+03  0.17789012833E+03  0.00000000000E+00 0. -1.
         11    1    1    2    0    0  0.31272892269E+01 -0.41938830094E+01 -0.16915047854E+03  0.16923135933E+03  0.00000000000E+00 0.  1.
        -15    1    1    2    0    0 -0.33341208260E+01  0.99539569581E+01 -0.98049724261E+01  0.14473867282E+02  0.17770000000E+01 0. -1.
         15    1    1    2    0    0 -0.90445952323E+00 -0.25318040216E+01  0.10980894016E+01  0.34046450574E+01  0.17770000000E+01 0.  1.
</event>
<event>
 6    1  0.1378789E-002  0.1889023E+03  0.7546771E-02  0.1063470E+00
        -11   -1    0    0    0    0  0.00000000000E+00  0.00000000000E+00  0.18250000000E+03  0.18250000000E+03  0.00000000000E+00 0.  1.
         11   -1    0    0    0    0 -0.00000000000E+00 -0.00000000000E+00 -0.18250000000E+03  0.18250000000E+03  0.00000000000E+00 0. -1.
        -11    1    1    2    0    0 -0.10422566315E+01  0.32667814229E+01  0.17606434125E+03  0.17609772974E+03  0.00000000000E+00 0.  1.
         11    1    1    2    0    0 -0.29003834907E+01 -0.25341563909E+01 -0.31212413420E+02  0.31449148231E+02  0.00000000000E+00 0. -1.
        -15    1    1    2    0    0  0.81727379174E+01  0.10536842879E+02 -0.14441100233E+01  0.13530036426E+02  0.17770000000E+01 0.  1.
         15    1    1    2    0    0 -0.42300977952E+01 -0.11269467911E+02 -0.14340781780E+03  0.14392308561E+03  0.17770000000E+01 0. -1.
</event>
<event>
 6    1  0.1378789E-002  0.2013290E+03  0.7546771E-02  0.1054382E+00
        -11   -1    0    0    0    0  0.00000000000E+00  0.00000000000E+00  0.18250000000E+03  0.18250000000E+03  0.00000000000E+00 0.  1.
         11   -1    0    0    0    0 -0.00000000000E+00 -0.00000000000E+00 -0.18250000000E+03  0.18250000000E+03  0.00000000000E+00 0. -1.
        -11    1    1    2    0    0  0.34750120890E+01 -0.24220388865E+01  0.15325549997E+03  0.15331402497E+03  0.00000000000E+00 0.  1.
         11    1    1    2    0    0 -0.54589601171E+00 -0.67104531198E+01 -0.16353248409E+03  0.16367101617E+03  0.00000000000E+00 0. -1.
        -15    1    1    2    0    0 -0.40706656255E+01  0.10357114773E+01  0.28024778852E+02  0.28393467129E+02  0.17770000000E+01 0.  1.
         15    1    1    2    0    0  0.11415495482E+01  0.80967805290E+01 -0.17747794739E+02  0.19621491722E+02  0.17770000000E+01 0.  1.
</event>
<event>
 6    1  0.1378789E-002  0.1844815E+03  0.7546771E-02  0.1066888E+00
        -11   -1    0    0    0    0  0.00000000000E+00  0.00000000000E+00  0.18250000000E+03  0.18250000000E+03  0.00000000000E+00 0. -1.
         11   -1    0    0    0    0 -0.00000000000E+00 -0.00000000000E+00 -0.18250000000E+03  0.18250000000E+03  0.00000000000E+00 0. -1.
        -11    1    1    2    0    0 -0.30812034544E+01 -0.64807824136E+01  0.18037577358E+03  0.18051845903E+03  0.00000000000E+00 0. -1.
         11    1    1    2    0    0 -0.44982669230E+01  0.12894923679E+01 -0.15746245290E+03  0.15753196904E+03  0.00000000000E+00 0. -1.
        -15    1    1    2    0    0 -0.22546109614E+01  0.24782405892E+01 -0.52855690814E+01  0.65053759707E+01  0.17770000000E+01 0.  1.
         15    1    1    2    0    0  0.98340813388E+01  0.27130494565E+01 -0.17627751600E+02  0.20444195964E+02  0.17770000000E+01 0.  1.
</event>
<event>
 6    1  0.1378789E-002  0.1828740E+03  0.7546771E-02  0.1068157E+00
        -11   -1    0    0    0    0  0.00000000000E+00  0.00000000000E+00  0.18250000000E+03  0.18250000000E+03  0.00000000000E+00 0.  1.
         11   -1    0    0    0    0 -0.00000000000E+00 -0.00000000000E+00 -0.18250000000E+03  0.18250000000E+03  0.00000000000E+00 0.  1.
        -11    1    1    2    0    0 -0.11866658984E+00 -0.22801677689E+01  0.27019284829E+02  0.27115585914E+02  0.00000000000E+00 0.  1.
         11    1    1    2    0    0  0.34254972948E+00  0.28744418126E+01 -0.18210296174E+03  0.18212596857E+03  0.00000000000E+00 0.  1.
        -15    1    1    2    0    0 -0.12830628122E+00 -0.31812616166E+01  0.10053355256E+02  0.10694137127E+02  0.17770000000E+01 0.  1.
         15    1    1    2    0    0 -0.95576858416E-01  0.25869875730E+01  0.14503032165E+03  0.14506430838E+03  0.17770000000E+01 0.  1.
</event>
<event>
 6    1  0.1378789E-002  0.1829618E+03  0.7546771E-02  0.1068088E+00
        -11   -1    0    0    0    0  0.00000000000E+00  0.00000000000E+00  0.18250000000E+03  0.18250000000E+03  0.00000000000E+00 0. -1.
         11   -1    0    0    0    0 -0.00000000000E+00 -0.00000000000E+00 -0.18250000000E+03  0.18250000000E+03  0.00000000000E+00 0. -1.
        -11    1    1    2    0    0  0.28860513980E+01  0.89654351082E+00  0.11000723077E+03  0.11004873422E+03  0.00000000000E+00 0. -1.
         11    1    1    2    0    0 -0.24238436486E+01 -0.17913972488E+01 -0.18201327672E+03  0.18203822956E+03  0.00000000000E+00 0. -1.
        -15    1    1    2    0    0 -0.51299841966E+01  0.77126620749E+00  0.52173375756E+02  0.52460751579E+02  0.17770000000E+01 0.  1.
         15    1    1    2    0    0  0.46677764472E+01  0.12358753050E+00  0.19832670193E+02  0.20452284636E+02  0.17770000000E+01 0. -1.
</event>
<event>
 6    1  0.1378789E-002  0.1865567E+03  0.7546771E-02  0.1065271E+00
        -11   -1    0    0    0    0  0.00000000000E+00  0.00000000000E+00  0.18250000000E+03  0.18250000000E+03  0.00000000000E+00 0. -1.
         11   -1    0    0    0    0 -0.00000000000E+00 -0.00000000000E+00 -0.18250000000E+03  0.18250000000E+03  0.00000000000E+00 0.  1.
        -11    1    1    2    0    0  0.60248033876E+01 -0.76540771258E+00  0.17833991943E+03  0.17844329902E+03  0.00000000000E+00 0. -1.
         11    1    1    2    0    0 -0.11046705971E+01 -0.22703738680E+01 -0.16430440767E+03  0.16432380618E+03  0.00000000000E+00 0.  1.
        -15    1    1    2    0    0  0.55841228769E+00  0.23064724877E+01 -0.15869910709E+02  0.16144455226E+02  0.17770000000E+01 0. -1.
         15    1    1    2    0    0 -0.54785450782E+01  0.72930909284E+00  0.18343989554E+01  0.60884395746E+01  0.17770000000E+01 0. -1.
</event>
<event>
 6    1  0.1378789E-002  0.1284222E+03  0.7546771E-02  0.1122125E+00
        -11   -1    0    0    0    0  0.00000000000E+00  0.00000000000E+00  0.18250000000E+03  0.18250000000E+03  0.00000000000E+00 0.  1.
         11   -1    0    0    0    0 -0.00000000000E+00 -0.00000000000E+00 -0.18250000000E+03  0.18250000000E+03  0.00000000000E+00 0. -1.
        -11    1    1    2    0    0  0.55548743077E+01 -0.82753636406E+01  0.20605425535E+02  0.22889338860E+02  0.00000000000E+00 0.  1.
         11    1    1    2    0    0  0.51971963513E+01 -0.10577020053E+02 -0.10707723377E+03  0.10772380514E+03  0.00000000000E+00 0. -1.
        -15    1    1    2    0    0 -0.22146867175E+02 -0.46180630061E+02 -0.56874025386E+02  0.76556820801E+02  0.17770000000E+01 0. -1.
         15    1    1    2    0    0  0.11394796516E+02  0.65033013754E+02  0.14334583362E+03  0.15783003520E+03  0.17770000000E+01 0.  1.
</event>
<event>
 6    1  0.1378789E-002  0.1850377E+03  0.7546771E-02  0.1066453E+00
        -11   -1    0    0    0    0  0.00000000000E+00  0.00000000000E+00  0.18250000000E+03  0.18250000000E+03  0.00000000000E+00 0.  1.
         11   -1    0    0    0    0 -0.00000000000E+00 -0.00000000000E+00 -0.18250000000E+03  0.18250000000E+03  0.00000000000E+00 0.  1.
        -11    1    1    2    0    0  0.71199936287E+01 -0.18721541095E+01  0.11508094902E+03  0.11531619183E+03  0.00000000000E+00 0.  1.
         11    1    1    2    0    0 -0.78123828341E+01 -0.68803307095E+01 -0.17966091666E+03  0.17996226619E+03  0.00000000000E+00 0.  1.
        -15    1    1    2    0    0  0.66836668726E+01  0.10129673079E+02  0.13490011206E+02  0.18232383577E+02  0.17770000000E+01 0. -1.
         15    1    1    2    0    0 -0.59912776672E+01 -0.13771882605E+01  0.51089956438E+02  0.51489158407E+02  0.17770000000E+01 0.  1.
</event>
<event>
 6    1  0.1378789E-002  0.1853297E+03  0.7546771E-02  0.1066224E+00
        -11   -1    0    0    0    0  0.00000000000E+00  0.00000000000E+00  0.18250000000E+03  0.18250000000E+03  0.00000000000E+00 0.  1.
         11   -1    0    0    0    0 -0.00000000000E+00 -0.00000000000E+00 -0.18250000000E+03  0.18250000000E+03  0.00000000000E+00 0.  1.
        -11    1    1    2    0    0 -0.32006345186E+01  0.36331182522E+00  0.10373583485E+03  0.10378583472E+03  0.00000000000E+00 0.  1.
         11    1    1    2    0    0  0.26135480188E+01 -0.34973110367E+01 -0.17961726895E+03  0.17967032343E+03  0.00000000000E+00 0.  1.
        -15    1    1    2    0    0 -0.37762212251E+00 -0.18148203510E+01  0.76147965105E+02  0.76191249432E+02  0.17770000000E+01 0.  1.
         15    1    1    2    0    0  0.96470862236E+00  0.49488195625E+01 -0.26653100138E+00  0.53525924152E+01  0.17770000000E+01 0. -1.
</event>
<event>
 6    1  0.1378789E-002  0.1875970E+03  0.7546771E-02  0.1064469E+00
        -11   -1    0    0    0    0  0.00000000000E+00  0.00000000000E+00  0.18250000000E+03  0.18250000000E+03  0.00000000000E+00 0.  1.
         11   -1    0    0    0    0 -0.00000000000E+00 -0.00000000000E+00 -0.18250000000E+03  0.18250000000E+03  0.00000000000E+00 0. -1.
        -11    1    1    2    0    0 -0.86212864929E+01  0.50553195898E+00  0.17719271195E+03  0.17740304201E+03  0.00000000000E+00 0.  1.
         11    1    1    2    0    0  0.41203494575E+01 -0.29470512784E+00 -0.17122658207E+03  0.17127640392E+03  0.00000000000E+00 0. -1.
        -15    1    1    2    0    0  0.22857529851E+01 -0.15445970171E+00  0.45678662181E+01  0.54103285755E+01  0.17770000000E+01 0.  1.
         15    1    1    2    0    0  0.22151840503E+01 -0.56367129435E-01 -0.10533996099E+02  0.10910225499E+02  0.17770000000E+01 0. -1.
</event>
<event>
 6    1  0.1378789E-002  0.1870393E+03  0.7546771E-02  0.1064898E+00
        -11   -1    0    0    0    0  0.00000000000E+00  0.00000000000E+00  0.18250000000E+03  0.18250000000E+03  0.00000000000E+00 0. -1.
         11   -1    0    0    0    0 -0.00000000000E+00 -0.00000000000E+00 -0.18250000000E+03  0.18250000000E+03  0.00000000000E+00 0. -1.
        -11    1    1    2    0    0 -0.34276804834E+01 -0.15224289386E+01  0.17792114632E+03  0.17796067288E+03  0.00000000000E+00 0. -1.
         11    1    1    2    0    0 -0.28925726488E+01  0.30227753857E+01 -0.43606359257E+02  0.43806605840E+02  0.00000000000E+00 0. -1.
        -15    1    1    2    0    0  0.68826284456E+01  0.77385791050E+01 -0.21414805955E+01  0.10723798256E+02  0.17770000000E+01 0.  1.
         15    1    1    2    0    0 -0.56237531335E+00 -0.92389255521E+01 -0.13217330647E+03  0.13250892303E+03  0.17770000000E+01 0. -1.
</event>
<event>
 6    1  0.1378789E-002  0.1825985E+03  0.7546771E-02  0.1068376E+00
        -11   -1    0    0    0    0  0.00000000000E+00  0.00000000000E+00  0.18250000000E+03  0.18250000000E+03  0.00000000000E+00 0.  1.
         11   -1    0    0    0    0 -0.00000000000E+00 -0.00000000000E+00 -0.18250000000E+03  0.18250000000E+03  0.00000000000E+00 0.  1.
        -11    1    1    2    0    0  0.45152069988E+01 -0.49573939815E-01  0.18234560542E+03  0.18240150594E+03  0.00000000000E+00 0.  1.
         11    1    1    2    0    0 -0.15340871893E+01 -0.18399136594E+00 -0.64533848321E+02  0.64552341982E+02  0.00000000000E+00 0.  1.
        -15    1    1    2    0    0 -0.23147929931E+01 -0.20015074702E+01 -0.34111741418E+02  0.34294794508E+02  0.17770000000E+01 0. -1.
         15    1    1    2    0    0 -0.66632681640E+00  0.22350727759E+01 -0.83700015680E+02  0.83751357575E+02  0.17770000000E+01 0.  1.
</event>
<event>
 6    1  0.1378789E-002  0.1892324E+03  0.7546771E-02  0.1063219E+00
        -11   -1    0    0    0    0  0.00000000000E+00  0.00000000000E+00  0.18250000000E+03  0.18250000000E+03  0.00000000000E+00 0.  1.
         11   -1    0    0    0    0 -0.00000000000E+00 -0.00000000000E+00 -0.18250000000E+03  0.18250000000E+03  0.00000000000E+00 0. -1.
        -11    1    1    2    0    0  0.39734464696E+01  0.38491629154E+01  0.16381931524E+03  0.16391269743E+03  0.00000000000E+00 0.  1.
         11    1    1    2    0    0  0.12287253606E+01  0.70056760279E+01 -0.17562365697E+03  0.17576762543E+03  0.00000000000E+00 0. -1.
        -15    1    1    2    0    0  0.26225302653E+01 -0.41054083883E+01  0.13714359590E+02  0.14661972275E+02  0.17770000000E+01 0. -1.
         15    1    1    2    0    0 -0.78247020955E+01 -0.67494305550E+01 -0.19100178643E+01  0.10657704863E+02  0.17770000000E+01 0.  1.
</event>
<event>
 6    1  0.1378789E-002  0.1905909E+03  0.7546771E-02  0.1062191E+00
        -11   -1    0    0    0    0  0.00000000000E+00  0.00000000000E+00  0.18250000000E+03  0.18250000000E+03  0.00000000000E+00 0. -1.
         11   -1    0    0    0    0 -0.00000000000E+00 -0.00000000000E+00 -0.18250000000E+03  0.18250000000E+03  0.00000000000E+00 0. -1.
        -11    1    1    2    0    0  0.27875756534E+01  0.12777372934E+00  0.16735514596E+03  0.16737840895E+03  0.00000000000E+00 0. -1.
         11    1    1    2    0    0 -0.17893959247E+01 -0.25500649469E+01 -0.17438127606E+03  0.17440910014E+03  0.00000000000E+00 0. -1.
        -15    1    1    2    0    0  0.37913056472E+01  0.11412091248E+01  0.13894958880E+02  0.14556921655E+02  0.17770000000E+01 0.  1.
         15    1    1    2    0    0 -0.47894853759E+01  0.12810820927E+01 -0.68688287739E+01  0.86555692603E+01  0.17770000000E+01 0. -1.
</event>
<event>
 6    1  0.1378789E-002  0.1841813E+03  0.7546771E-02  0.1067124E+00
        -11   -1    0    0    0    0  0.00000000000E+00  0.00000000000E+00  0.18250000000E+03  0.18250000000E+03  0.00000000000E+00 0.  1.
         11   -1    0    0    0    0 -0.00000000000E+00 -0.00000000000E+00 -0.18250000000E+03  0.18250000000E+03  0.00000000000E+00 0. -1.
        -11    1    1    2    0    0 -0.60328961883E+00 -0.49270424414E+01  0.18075056534E+03  0.18081871190E+03  0.00000000000E+00 0.  1.
         11    1    1    2    0    0 -0.96574511737E+00 -0.21542452709E+01 -0.16788092902E+03  0.16789752757E+03  0.00000000000E+00 0. -1.
        -15    1    1    2    0    0 -0.30035264616E+00  0.63905724693E+01 -0.61393693156E+01  0.90431859868E+01  0.17770000000E+01 0.  1.
         15    1    1    2    0    0  0.18693873824E+01  0.69071524297E+00 -0.67302670022E+01  0.72405745389E+01  0.17770000000E+01 0.  1.
</event>
<event>
 6    1  0.1378789E-002  0.1716129E+03  0.7546771E-02  0.1077467E+00
        -11   -1    0    0    0    0  0.00000000000E+00  0.00000000000E+00  0.18250000000E+03  0.18250000000E+03  0.00000000000E+00 0.  1.
         11   -1    0    0    0    0 -0.00000000000E+00 -0.00000000000E+00 -0.18250000000E+03  0.18250000000E+03  0.00000000000E+00 0. -1.
        -11    1    1    2    0    0 -0.59111899669E+00  0.10718713678E+02  0.17334858127E+03  0.17368065774E+03  0.00000000000E+00 0.  1.
         11    1    1    2    0    0 -0.32129559416E+01  0.87121742138E+00 -0.16974807678E+03  0.16978071644E+03  0.00000000000E+00 0. -1.
        -15    1    1    2    0    0  0.33101779129E+01 -0.83759602586E+01  0.61889226720E+01  0.11071336004E+02  0.17770000000E+01 0. -1.
         15    1    1    2    0    0  0.49389702537E+00 -0.32139708407E+01 -0.97894271654E+01  0.10467289815E+02  0.17770000000E+01 0.  1.
</event>
<event>
 6    1  0.1378789E-002  0.1764648E+03  0.7546771E-02  0.1073363E+00
        -11   -1    0    0    0    0  0.00000000000E+00  0.00000000000E+00  0.18250000000E+03  0.18250000000E+03  0.00000000000E+00 0.  1.
         11   -1    0    0    0    0 -0.00000000000E+00 -0.00000000000E+00 -0.18250000000E+03  0.18250000000E+03  0.00000000000E+00 0. -1.
        -11    1    1    2    0    0 -0.61436676850E+01 -0.20826175529E+01  0.17677161625E+03  0.17689060535E+03  0.00000000000E+00 0.  1.
         11    1    1    2    0    0  0.39317358022E+01 -0.30323984845E+01 -0.17601375154E+03  0.17608377187E+03  0.00000000000E+00 0. -1.
        -15    1    1    2    0    0 -0.18074013666E+01  0.14694045685E+01 -0.43757576259E+01  0.52660073383E+01  0.17770000000E+01 0. -1.
         15    1    1    2    0    0  0.40193332494E+01  0.36456114690E+01  0.36178929108E+01  0.67596154377E+01  0.17770000000E+01 0. -1.
</event>
<event>
 6    1  0.1378789E-002  0.1836326E+03  0.7546771E-02  0.1067557E+00
        -11   -1    0    0    0    0  0.00000000000E+00  0.00000000000E+00  0.18250000000E+03  0.18250000000E+03  0.00000000000E+00 0. -1.
         11   -1    0    0    0    0 -0.00000000000E+00 -0.00000000000E+00 -0.18250000000E+03  0.18250000000E+03  0.00000000000E+00 0. -1.
        -11    1    1    2    0    0  0.28788249666E+01  0.22044376598E+01  0.12445471902E+03  0.12450752694E+03  0.00000000000E+00 0. -1.
         11    1    1    2    0    0  0.11330900071E+01  0.38060482573E+01 -0.18132396301E+03  0.18136744321E+03  0.00000000000E+00 0. -1.
        -15    1    1    2    0    0 -0.41599373394E+00 -0.95689413436E+01  0.45812189175E+02  0.46836439823E+02  0.17770000000E+01 0. -1.
         15    1    1    2    0    0 -0.35959212398E+01  0.35584554265E+01  0.11057054810E+02  0.12288590019E+02  0.17770000000E+01 0.  1.
</event>
<event>
 6    1  0.1378789E-002  0.1854352E+03  0.7546771E-02  0.1066142E+00
        -11   -1    0    0    0    0  0.00000000000E+00  0.00000000000E+00  0.18250000000E+03  0.18250000000E+03  0.00000000000E+00 0. -1.
         11   -1    0    0    0    0 -0.00000000000E+00 -0.00000000000E+00 -0.18250000000E+03  0.18250000000E+03  0.00000000000E+00 0. -1.
        -11    1    1    2    0    0  0.41118852353E+01 -0.13004525926E+01  0.17951303802E+03  0.17956483396E+03  0.00000000000E+00 0. -1.
         11    1    1    2    0    0  0.41149845066E+01 -0.19896208207E+01 -0.17195956732E+03  0.17202030253E+03  0.00000000000E+00 0. -1.
        -15    1    1    2    0    0 -0.29767930862E+00  0.16657357779E+01 -0.43814431108E+00  0.24925866264E+01  0.17770000000E+01 0. -1.
         15    1    1    2    0    0 -0.79291904332E+01  0.16243376354E+01 -0.71153263882E+01  0.10922276882E+02  0.17770000000E+01 0.  1.
</event>
<event>
 6    1  0.1378789E-002  0.1895422E+03  0.7546771E-02  0.1062983E+00
        -11   -1    0    0    0    0  0.00000000000E+00  0.00000000000E+00  0.18250000000E+03  0.18250000000E+03  0.00000000000E+00 0. -1.
         11   -1    0    0    0    0 -0.00000000000E+00 -0.00000000000E+00 -0.18250000000E+03  0.18250000000E+03  0.00000000000E+00 0. -1.
        -11    1    1    2    0    0  0.23235617187E+01  0.28036892543E+01  0.17542005269E+03  0.17545784251E+03  0.00000000000E+00 0. -1.
         11    1    1    2    0    0 -0.26852891278E+01  0.15371859635E+02 -0.10133787111E+03  0.10253228256E+03  0.00000000000E+00 0. -1.
        -15    1    1    2    0    0 -0.10194728402E+02 -0.13254818471E+02 -0.59058415782E+01  0.17823001813E+02  0.17770000000E+01 0.  1.
         15    1    1    2    0    0  0.10556455811E+02 -0.49207304176E+01 -0.68176339997E+02  0.69186873116E+02  0.17770000000E+01 0. -1.
</event>
<event>
 6    1  0.1422354E-002  0.1832978E+03  0.7546771E-02  0.1067822E+00
        -11   -1    0    0    0    0  0.00000000000E+00  0.00000000000E+00  0.18250000000E+03  0.18250000000E+03  0.00000000000E+00 0. -1.
         11   -1    0    0    0    0 -0.00000000000E+00 -0.00000000000E+00 -0.18250000000E+03  0.18250000000E+03  0.00000000000E+00 0.  1.
        -11    1    1    2    0    0  0.15843002042E+00  0.22949152489E+01  0.16725654312E+03  0.16727236159E+03  0.00000000000E+00 0. -1.
         11    1    1    2    0    0 -0.29726696218E+01 -0.62794728296E+00 -0.18167677159E+03  0.18170217505E+03  0.00000000000E+00 0.  1.
        -15    1    1    2    0    0  0.18608408503E+01 -0.17501202228E-01  0.18026020410E+01  0.31416775901E+01  0.17770000000E+01 0. -1.
         15    1    1    2    0    0  0.95339875101E+00 -0.16494667637E+01  0.12617626432E+02  0.12883785762E+02  0.17770000000E+01 0. -1.
</event>
<event>
 6    1  0.1378789E-002  0.1840686E+03  0.7546771E-02  0.1067213E+00
        -11   -1    0    0    0    0  0.00000000000E+00  0.00000000000E+00  0.18250000000E+03  0.18250000000E+03  0.00000000000E+00 0.  1.
         11   -1    0    0    0    0 -0.00000000000E+00 -0.00000000000E+00 -0.18250000000E+03  0.18250000000E+03  0.00000000000E+00 0. -1.
        -11    1    1    2    0    0 -0.36506483152E+01 -0.13104013553E+01  0.18088985013E+03  0.18093142973E+03  0.00000000000E+00 0.  1.
         11    1    1    2    0    0  0.26463343640E+01 -0.37622008111E+01 -0.16310128906E+03  0.16316613538E+03  0.00000000000E+00 0. -1.
        -15    1    1    2    0    0 -0.29140292481E+01  0.31934357779E+01 -0.14324697940E+02  0.15067989202E+02  0.17770000000E+01 0. -1.
         15    1    1    2    0    0  0.39183431993E+01  0.18791663886E+01 -0.34638631236E+01  0.58344456877E+01  0.17770000000E+01 0.  1.
</event>
<event>
 6    1  0.1378789E-002  0.1857980E+03  0.7546771E-02  0.1065860E+00
        -11   -1    0    0    0    0  0.00000000000E+00  0.00000000000E+00  0.18250000000E+03  0.18250000000E+03  0.00000000000E+00 0. -1.
         11   -1    0    0    0    0 -0.00000000000E+00 -0.00000000000E+00 -0.18250000000E+03  0.18250000000E+03  0.00000000000E+00 0.  1.
        -11    1    1    2    0    0 -0.14185174897E+01 -0.20646694819E+01  0.16763830957E+03  0.16765702457E+03  0.00000000000E+00 0. -1.
         11    1    1    2    0    0 -0.63937328889E+01 -0.29939968425E+01 -0.17906289755E+03  0.17920202319E+03  0.00000000000E+00 0.  1.
        -15    1    1    2    0    0  0.49877801386E+01 -0.38988139581E+00  0.10390851736E+02  0.11668654036E+02  0.17770000000E+01 0. -1.
         15    1    1    2    0    0  0.28244702400E+01  0.54485477202E+01  0.10337362497E+01  0.64722982031E+01  0.17770000000E+01 0.  1.
</event>
<event>
 6    1  0.1378789E-002  0.1829105E+03  0.7546771E-02  0.1068128E+00
        -11   -1    0    0    0    0  0.00000000000E+00  0.00000000000E+00  0.18250000000E+03  0.18250000000E+03  0.00000000000E+00 0.  1.
         11   -1    0    0    0    0 -0.00000000000E+00 -0.00000000000E+00 -0.18250000000E+03  0.18250000000E+03  0.00000000000E+00 0. -1.
        -11    1    1    2    0    0 -0.16950740281E+01 -0.35102060769E+01  0.11266444597E+03  0.11273185978E+03  0.00000000000E+00 0.  1.
         11    1    1    2    0    0 -0.20448380722E+01  0.32813537901E+01 -0.18204841359E+03  0.18208946575E+03  0.00000000000E+00 0. -1.
        -15    1    1    2    0    0  0.87268436830E-01 -0.34581938544E+01  0.14206986514E+02  0.14729661073E+02  0.17770000000E+01 0. -1.
         15    1    1    2    0    0  0.36526436634E+01  0.36870461412E+01  0.55176981099E+02  0.55449013402E+02  0.17770000000E+01 0.  1.
</event>
<event>
 6    1  0.1378789E-002  0.1648514E+03  0.7546771E-02  0.1083441E+00
        -11   -1    0    0    0    0  0.00000000000E+00  0.00000000000E+00  0.18250000000E+03  0.18250000000E+03  0.00000000000E+00 0.  1.
         11   -1    0    0    0    0 -0.00000000000E+00 -0.00000000000E+00 -0.18250000000E+03  0.18250000000E+03  0.00000000000E+00 0. -1.
        -11    1    1    2    0    0  0.63221390152E+01  0.18590336243E+01  0.16211696362E+03  0.16225084080E+03  0.00000000000E+00 0.  1.
         11    1    1    2    0    0  0.57009413524E+01 -0.87814547699E+01 -0.16745992812E+03  0.16778689522E+03  0.00000000000E+00 0. -1.
        -15    1    1    2    0    0 -0.45576325405E+01 -0.40603374881E+01  0.16401055109E+02  0.17590073695E+02  0.17770000000E+01 0.  1.
         15    1    1    2    0    0 -0.74654478272E+01  0.10982758634E+02 -0.11058090609E+02  0.17372190288E+02  0.17770000000E+01 0. -1.
</event>
<event>
 6    1  0.1378789E-002  0.1876111E+03  0.7546771E-02  0.1064458E+00
        -11   -1    0    0    0    0  0.00000000000E+00  0.00000000000E+00  0.18250000000E+03  0.18250000000E+03  0.00000000000E+00 0.  1.
         11   -1    0    0    0    0 -0.00000000000E+00 -0.00000000000E+00 -0.18250000000E+03  0.18250000000E+03  0.00000000000E+00 0. -1.
        -11    1    1    2    0    0 -0.23794204929E+01 -0.21152709814E+01  0.17736037375E+03  0.17738894607E+03  0.00000000000E+00 0.  1.
         11    1    1    2    0    0 -0.14811691452E+01  0.22982110583E+01 -0.11123354898E+03  0.11126714724E+03  0.00000000000E+00 0. -1.
        -15    1    1    2    0    0  0.71538158607E+01 -0.73837422265E+01 -0.74446569304E+00  0.10459860841E+02  0.17770000000E+01 0.  1.
         15    1    1    2    0    0 -0.32932262226E+01  0.72008021496E+01 -0.65382359072E+02  0.65884045848E+02  0.17770000000E+01 0. -1.
</event>
<event>
 6    1  0.1378789E-002  0.1866832E+03  0.7546771E-02  0.1065173E+00
        -11   -1    0    0    0    0  0.00000000000E+00  0.00000000000E+00  0.18250000000E+03  0.18250000000E+03  0.00000000000E+00 0.  1.
         11   -1    0    0    0    0 -0.00000000000E+00 -0.00000000000E+00 -0.18250000000E+03  0.18250000000E+03  0.00000000000E+00 0.  1.
        -11    1    1    2    0    0  0.19014767900E+02  0.34918486524E+01  0.17726568880E+03  0.17831679346E+03  0.00000000000E+00 0.  1.
         11    1    1    2    0    0  0.82719150356E+01 -0.36388683107E+01 -0.10549278542E+03  0.10587914675E+03  0.00000000000E+00 0.  1.
        -15    1    1    2    0    0 -0.19824239217E+01  0.88464346507E+01 -0.27844902896E+02  0.29337446326E+02  0.17770000000E+01 0.  1.
         15    1    1    2    0    0 -0.25304259014E+02 -0.86994149925E+01 -0.43928000482E+02  0.51466613458E+02  0.17770000000E+01 0. -1.
</event>
<event>
 6    1  0.1378789E-002  0.1850491E+03  0.7546771E-02  0.1066444E+00
        -11   -1    0    0    0    0  0.00000000000E+00  0.00000000000E+00  0.18250000000E+03  0.18250000000E+03  0.00000000000E+00 0.  1.
         11   -1    0    0    0    0 -0.00000000000E+00 -0.00000000000E+00 -0.18250000000E+03  0.18250000000E+03  0.00000000000E+00 0. -1.
        -11    1    1    2    0    0 -0.12748446066E+01  0.81845069545E+01  0.17976012413E+03  0.17995086443E+03  0.00000000000E+00 0.  1.
         11    1    1    2    0    0 -0.23564029207E+01 -0.14115274767E+01 -0.13682246008E+03  0.13685002969E+03  0.00000000000E+00 0. -1.
        -15    1    1    2    0    0 -0.33459446259E+00 -0.37776720336E+01  0.69756119877E+00  0.42458309050E+01  0.17770000000E+01 0.  1.
         15    1    1    2    0    0  0.39658419899E+01 -0.29953074441E+01 -0.43635225250E+02  0.43953274975E+02  0.17770000000E+01 0. -1.
</event>
<event>
 6    1  0.1378789E-002  0.1833970E+03  0.7546771E-02  0.1067743E+00
        -11   -1    0    0    0    0  0.00000000000E+00  0.00000000000E+00  0.18250000000E+03  0.18250000000E+03  0.00000000000E+00 0. -1.
         11   -1    0    0    0    0 -0.00000000000E+00 -0.00000000000E+00 -0.18250000000E+03  0.18250000000E+03  0.00000000000E+00 0.  1.
        -11    1    1    2    0    0 -0.52452317412E+00  0.23381233036E+01  0.16561316556E+03  0.16563050007E+03  0.00000000000E+00 0. -1.
         11    1    1    2    0    0 -0.15743229732E+01  0.32439442721E+01 -0.18156724007E+03  0.18160304055E+03  0.00000000000E+00 0.  1.
        -15    1    1    2    0    0  0.16963133623E+01 -0.46283983417E+01  0.80963192763E+01  0.96440481675E+01  0.17770000000E+01 0. -1.
         15    1    1    2    0    0  0.40253278499E+00 -0.95366923395E+00  0.78577552377E+01  0.81224112200E+01  0.17770000000E+01 0. -1.
</event>
<event>
 6    1  0.1378789E-002  0.1849588E+03  0.7546771E-02  0.1066514E+00
        -11   -1    0    0    0    0  0.00000000000E+00  0.00000000000E+00  0.18250000000E+03  0.18250000000E+03  0.00000000000E+00 0. -1.
         11   -1    0    0    0    0 -0.00000000000E+00 -0.00000000000E+00 -0.18250000000E+03  0.18250000000E+03  0.00000000000E+00 0. -1.
        -11    1    1    2    0    0 -0.81241182784E+00  0.23122205339E+01  0.18002451888E+03  0.18004120021E+03  0.00000000000E+00 0. -1.
         11    1    1    2    0    0  0.45761353619E+01  0.87275201751E+01 -0.14850960564E+03  0.14883619718E+03  0.00000000000E+00 0. -1.
        -15    1    1    2    0    0 -0.10034106516E+01 -0.94290109693E+01 -0.86195267688E+01  0.12937041838E+02  0.17770000000E+01 0.  1.
         15    1    1    2    0    0 -0.27603128825E+01 -0.16107297397E+01 -0.22895386475E+02  0.23185560772E+02  0.17770000000E+01 0. -1.
</event>
<event>
 6    1  0.1378789E-002  0.1829248E+03  0.7546771E-02  0.1068117E+00
        -11   -1    0    0    0    0  0.00000000000E+00  0.00000000000E+00  0.18250000000E+03  0.18250000000E+03  0.00000000000E+00 0. -1.
         11   -1    0    0    0    0 -0.00000000000E+00 -0.00000000000E+00 -0.18250000000E+03  0.18250000000E+03  0.00000000000E+00 0. -1.
        -11    1    1    2    0    0 -0.31204297349E+01 -0.28519373221E+01  0.18202612861E+03  0.18207521008E+03  0.00000000000E+00 0. -1.
         11    1    1    2    0    0  0.15437530031E+01  0.92611831005E-02 -0.64735324713E+02  0.64753729814E+02  0.00000000000E+00 0. -1.
        -15    1    1    2    0    0  0.24166345969E+01  0.26961171610E+01 -0.90008842033E+01  0.98632051567E+01  0.17770000000E+01 0.  1.
         15    1    1    2    0    0 -0.83995786514E+00  0.14655897802E+00 -0.10828991969E+03  0.10830785495E+03  0.17770000000E+01 0. -1.
</event>
<event>
 6    1  0.1378789E-002  0.1830646E+03  0.7546771E-02  0.1068006E+00
        -11   -1    0    0    0    0  0.00000000000E+00  0.00000000000E+00  0.18250000000E+03  0.18250000000E+03  0.00000000000E+00 0. -1.
         11   -1    0    0    0    0 -0.00000000000E+00 -0.00000000000E+00 -0.18250000000E+03  0.18250000000E+03  0.00000000000E+00 0. -1.
        -11    1    1    2    0    0 -0.28358357382E+01 -0.31921308930E+00  0.18191303679E+03  0.18193541935E+03  0.00000000000E+00 0. -1.
         11    1    1    2    0    0 -0.16091276164E+01  0.33758646910E+01 -0.15217543851E+03  0.15222138430E+03  0.00000000000E+00 0. -1.
        -15    1    1    2    0    0  0.36649929201E+01 -0.46344235834E+00 -0.94809510748E+01  0.10329235897E+02  0.17770000000E+01 0. -1.
         15    1    1    2    0    0  0.77997043441E+00 -0.25932092434E+01 -0.20256647207E+02  0.20513960445E+02  0.17770000000E+01 0. -1.
</event>
<event>
 6    1  0.1378789E-002  0.1951366E+03  0.7546771E-02  0.1058819E+00
        -11   -1    0    0    0    0  0.00000000000E+00  0.00000000000E+00  0.18250000000E+03  0.18250000000E+03  0.00000000000E+00 0. -1.
         11   -1    0    0    0    0 -0.00000000000E+00 -0.00000000000E+00 -0.18250000000E+03  0.18250000000E+03  0.00000000000E+00 0.  1.
        -11    1    1    2    0    0 -0.11218987038E+01 -0.35120349527E+01  0.16982339754E+03  0.16986341395E+03  0.00000000000E+00 0. -1.
         11    1    1    2    0    0 -0.62733736714E+00 -0.20581856050E+01 -0.11530429668E+03  0.11532437085E+03  0.00000000000E+00 0.  1.
        -15    1    1    2    0    0  0.19689293586E+01  0.18705850263E+01  0.12374209042E+02  0.12792753792E+02  0.17770000000E+01 0. -1.
         15    1    1    2    0    0 -0.21969328770E+00  0.36996355314E+01 -0.66893309903E+02  0.67019461405E+02  0.17770000000E+01 0.  1.
</event>
<event>
 6    1  0.1378789E-002  0.1847276E+03  0.7546771E-02  0.1066695E+00
        -11   -1    0    0    0    0  0.00000000000E+00  0.00000000000E+00  0.18250000000E+03  0.18250000000E+03  0.00000000000E+00 0.  1.
         11   -1    0    0    0    0 -0.00000000000E+00 -0.00000000000E+00 -0.18250000000E+03  0.18250000000E+03  0.00000000000E+00 0. -1.
        -11    1    1    2    0    0  0.11956586330E+01 -0.54934996269E+01  0.18018473818E+03  0.18027242721E+03  0.00000000000E+00 0.  1.
         11    1    1    2    0    0  0.20396529130E+01 -0.11280467352E+01 -0.85306283037E+02  0.85338119262E+02  0.00000000000E+00 0. -1.
        -15    1    1    2    0    0  0.61835512392E+01  0.60626876646E+01 -0.85540471621E+02  0.85996060967E+02  0.17770000000E+01 0. -1.
         15    1    1    2    0    0 -0.94188627852E+01  0.55885869743E+00 -0.93379835210E+01  0.13393392567E+02  0.17770000000E+01 0.  1.
</event>
<event>
 6    1  0.1378789E-002  0.1467824E+03  0.7546771E-02  0.1101081E+00
        -11   -1    0    0    0    0  0.00000000000E+00  0.00000000000E+00  0.18250000000E+03  0.18250000000E+03  0.00000000000E+00 0. -1.
         11   -1    0    0    0    0 -0.00000000000E+00 -0.00000000000E+00 -0.18250000000E+03  0.18250000000E+03  0.00000000000E+00 0. -1.
        -11    1    1    2    0    0  0.11616484653E+02  0.22622164125E+01  0.15138404835E+03  0.15184594309E+03  0.00000000000E+00 0. -1.
         11    1    1    2    0    0 -0.19028829071E+02  0.20467408790E+02 -0.14014575752E+03  0.14290501919E+03  0.00000000000E+00 0. -1.
        -15    1    1    2    0    0 -0.10489636151E+02 -0.80698502272E+01  0.24345189606E+02  0.27766903594E+02  0.17770000000E+01 0.  1.
         15    1    1    2    0    0  0.17901980569E+02 -0.14659774976E+02 -0.35583480439E+02  0.42482134125E+02  0.17770000000E+01 0. -1.
</event>
<event>
 6    1  0.1378789E-002  0.1826263E+03  0.7546771E-02  0.1068354E+00
        -11   -1    0    0    0    0  0.00000000000E+00  0.00000000000E+00  0.18250000000E+03  0.18250000000E+03  0.00000000000E+00 0.  1.
         11   -1    0    0    0    0 -0.00000000000E+00 -0.00000000000E+00 -0.18250000000E+03  0.18250000000E+03  0.00000000000E+00 0. -1.
        -11    1    1    2    0    0  0.13947856310E+01  0.23422949999E+01  0.18235327935E+03  0.18237365562E+03  0.00000000000E+00 0.  1.
         11    1    1    2    0    0 -0.52342086025E+00 -0.31973203049E+01 -0.70937400270E+02  0.71011348273E+02  0.00000000000E+00 0. -1.
        -15    1    1    2    0    0  0.69084776847E+00  0.29440464858E+01 -0.59120758589E+02  0.59224711949E+02  0.17770000000E+01 0. -1.
         15    1    1    2    0    0 -0.15622125392E+01 -0.20890211808E+01 -0.52295120496E+02  0.52390284158E+02  0.17770000000E+01 0. -1.
</event>
<event>
 6    1  0.1378789E-002  0.1875775E+03  0.7546771E-02  0.1064483E+00
        -11   -1    0    0    0    0  0.00000000000E+00  0.00000000000E+00  0.18250000000E+03  0.18250000000E+03  0.00000000000E+00 0. -1.
         11   -1    0    0    0    0 -0.00000000000E+00 -0.00000000000E+00 -0.18250000000E+03  0.18250000000E+03  0.00000000000E+00 0. -1.
        -11    1    1    2    0    0 -0.51554792210E+01 -0.45559552264E+01  0.17728907676E+03  0.17742252515E+03  0.00000000000E+00 0. -1.
         11    1    1    2    0    0 -0.34591349268E+00  0.27017721486E+01 -0.15661027446E+03  0.15663395958E+03  0.00000000000E+00 0. -1.
        -15    1    1    2    0    0 -0.11979792939E+01  0.39561387093E+00  0.43857846644E+01  0.48973973543E+01  0.17770000000E+01 0.  1.
         15    1    1    2    0    0  0.66993720076E+01  0.14585692069E+01 -0.25064586967E+02  0.26046117911E+02  0.17770000000E+01 0. -1.
</event>
<event>
 6    1  0.1378789E-002  0.1774375E+03  0.7546771E-02  0.1072557E+00
        -11   -1    0    0    0    0  0.00000000000E+00  0.00000000000E+00  0.18250000000E+03  0.18250000000E+03  0.00000000000E+00 0. -1.
         11   -1    0    0    0    0 -0.00000000000E+00 -0.00000000000E+00 -0.18250000000E+03  0.18250000000E+03  0.00000000000E+00 0. -1.
        -11    1    1    2    0    0  0.44817065861E+01  0.59007348754E+00  0.17664901617E+03  0.17670684422E+03  0.00000000000E+00 0. -1.
         11    1    1    2    0    0 -0.51111291773E+00  0.24057505828E+01 -0.17818943349E+03  0.17820640583E+03  0.00000000000E+00 0. -1.
        -15    1    1    2    0    0 -0.72422550117E+00 -0.40794217772E+01 -0.19251603871E+01  0.49020563164E+01  0.17770000000E+01 0.  1.
         15    1    1    2    0    0 -0.32463681672E+01  0.10835977069E+01  0.34655777063E+01  0.51846936366E+01  0.17770000000E+01 0. -1.
</event>
<event>
 6    1  0.1378789E-002  0.1867820E+03  0.7546771E-02  0.1065097E+00
        -11   -1    0    0    0    0  0.00000000000E+00  0.00000000000E+00  0.18250000000E+03  0.18250000000E+03  0.00000000000E+00 0.  1.
         11   -1    0    0    0    0 -0.00000000000E+00 -0.00000000000E+00 -0.18250000000E+03  0.18250000000E+03  0.00000000000E+00 0. -1.
        -11    1    1    2    0    0 -0.48372100107E+01 -0.37750127805E+01  0.17811236930E+03  0.17821802776E+03  0.00000000000E+00 0.  1.
         11    1    1    2    0    0  0.72209750810E+01 -0.28473960102E+01 -0.12919064704E+03  0.12942362006E+03  0.00000000000E+00 0. -1.
        -15    1    1    2    0    0 -0.70177189306E+01 -0.17539794814E+01  0.29033401283E-01  0.74487176714E+01  0.17770000000E+01 0.  1.
         15    1    1    2    0    0  0.46339538604E+01  0.83763882721E+01 -0.48950755654E+02  0.49909634510E+02  0.17770000000E+01 0. -1.
</event>
<event>
 6    1  0.1378789E-002  0.1837095E+03  0.7546771E-02  0.1067496E+00
        -11   -1    0    0    0    0  0.00000000000E+00  0.00000000000E+00  0.18250000000E+03  0.18250000000E+03  0.00000000000E+00 0. -1.
         11   -1    0    0    0    0 -0.00000000000E+00 -0.00000000000E+00 -0.18250000000E+03  0.18250000000E+03  0.00000000000E+00 0.  1.
        -11    1    1    2    0    0  0.30389361431E+00 -0.82113421126E+01  0.18110423528E+03  0.18129054726E+03  0.00000000000E+00 0. -1.
         11    1    1    2    0    0 -0.10088137583E+01 -0.73701911999E+00 -0.87476013052E+01  0.88363697849E+01  0.00000000000E+00 0.  1.
        -15    1    1    2    0    0 -0.52406917654E+01  0.27415507667E+01 -0.72096363332E+01  0.94930256422E+01  0.17770000000E+01 0. -1.
         15    1    1    2    0    0  0.59456119094E+01  0.62068104659E+01 -0.16514699764E+03  0.16538005731E+03  0.17770000000E+01 0.  1.
</event>
<event>
 6    1  0.1378789E-002  0.1922015E+03  0.7546771E-02  0.1060984E+00
        -11   -1    0    0    0    0  0.00000000000E+00  0.00000000000E+00  0.18250000000E+03  0.18250000000E+03  0.00000000000E+00 0.  1.
         11   -1    0    0    0    0 -0.00000000000E+00 -0.00000000000E+00 -0.18250000000E+03  0.18250000000E+03  0.00000000000E+00 0. -1.
        -11    1    1    2    0    0 -0.21684577599E+01  0.24201685574E+01  0.11636151276E+03  0.11640687727E+03  0.00000000000E+00 0.  1.
         11    1    1    2    0    0  0.12564151360E+02 -0.18293931773E+02 -0.17136744446E+03  0.17279851521E+03  0.00000000000E+00 0. -1.
        -15    1    1    2    0    0  0.60483795006E+01 -0.29670773520E+01  0.49677699168E+02  0.50163910994E+02  0.17770000000E+01 0. -1.
         15    1    1    2    0    0 -0.16444073101E+02  0.18840840567E+02  0.53282325300E+01  0.25630696524E+02  0.17770000000E+01 0.  1.
</event>
<event>
 6    1  0.1378789E-002  0.1872163E+03  0.7546771E-02  0.1064761E+00
        -11   -1    0    0    0    0  0.00000000000E+00  0.00000000000E+00  0.18250000000E+03  0.18250000000E+03  0.00000000000E+00 0.  1.
         11   -1    0    0    0    0 -0.00000000000E+00 -0.00000000000E+00 -0.18250000000E+03  0.18250000000E+03  0.00000000000E+00 0. -1.
        -11    1    1    2    0    0  0.90133623393E+00  0.11401933692E+02  0.14545775658E+03  0.14590673544E+03  0.00000000000E+00 0.  1.
         11    1    1    2    0    0 -0.32135537878E+01 -0.14648072284E+01 -0.17774860846E+03  0.17778368991E+03  0.00000000000E+00 0. -1.
        -15    1    1    2    0    0  0.12317297215E+02 -0.87680940687E+01  0.22380705739E+02  0.27067489774E+02  0.17770000000E+01 0.  1.
         15    1    1    2    0    0 -0.10005079661E+02 -0.11690323945E+01  0.99101461471E+01  0.14242084869E+02  0.17770000000E+01 0.  1.
</event>
<event>
 6    1  0.1378789E-002  0.1833355E+03  0.7546771E-02  0.1067792E+00
        -11   -1    0    0    0    0  0.00000000000E+00  0.00000000000E+00  0.18250000000E+03  0.18250000000E+03  0.00000000000E+00 0.  1.
         11   -1    0    0    0    0 -0.00000000000E+00 -0.00000000000E+00 -0.18250000000E+03  0.18250000000E+03  0.00000000000E+00 0.  1.
        -11    1    1    2    0    0 -0.37808225111E+01  0.79114289200E+00  0.18162337974E+03  0.18166445055E+03  0.00000000000E+00 0.  1.
         11    1    1    2    0    0 -0.11476890978E+01 -0.23539104741E+01 -0.16441610884E+03  0.16443696340E+03  0.00000000000E+00 0.  1.
        -15    1    1    2    0    0  0.14628464886E+01  0.27306832518E+01 -0.60746955635E+01  0.70467159770E+01  0.17770000000E+01 0. -1.
         15    1    1    2    0    0  0.34656651203E+01 -0.11679156697E+01 -0.11132575332E+02  0.11851870075E+02  0.17770000000E+01 0.  1.
</event>
<event>
 6    1  0.1378789E-002  0.1765828E+03  0.7546771E-02  0.1073265E+00
        -11   -1    0    0    0    0  0.00000000000E+00  0.00000000000E+00  0.18250000000E+03  0.18250000000E+03  0.00000000000E+00 0.  1.
         11   -1    0    0    0    0 -0.00000000000E+00 -0.00000000000E+00 -0.18250000000E+03  0.18250000000E+03  0.00000000000E+00 0.  1.
        -11    1    1    2    0    0 -0.78724241780E+01  0.19180737493E+01  0.17643540174E+03  0.17662136070E+03  0.00000000000E+00 0.  1.
         11    1    1    2    0    0  0.39730438755E+00  0.35734277248E+01 -0.17662939297E+03  0.17666598342E+03  0.00000000000E+00 0.  1.
        -15    1    1    2    0    0  0.35262975320E+01  0.59736070585E+00  0.12084135517E+01  0.41724820442E+01  0.17770000000E+01 0.  1.
         15    1    1    2    0    0  0.39488222584E+01 -0.60888621799E+01 -0.10144223228E+01  0.75401738390E+01  0.17770000000E+01 0. -1.
</event>
<event>
 6    1  0.1378789E-002  0.1839150E+03  0.7546771E-02  0.1067334E+00
        -11   -1    0    0    0    0  0.00000000000E+00  0.00000000000E+00  0.18250000000E+03  0.18250000000E+03  0.00000000000E+00 0.  1.
         11   -1    0    0    0    0 -0.00000000000E+00 -0.00000000000E+00 -0.18250000000E+03  0.18250000000E+03  0.00000000000E+00 0. -1.
        -11    1    1    2    0    0  0.25508272868E+01  0.35397481359E+01  0.27802425324E+02  0.28142696932E+02  0.00000000000E+00 0.  1.
         11    1    1    2    0    0  0.73881154292E+01 -0.68583424597E+01 -0.18080416688E+03  0.18108497418E+03  0.00000000000E+00 0. -1.
        -15    1    1    2    0    0 -0.85018989712E+01 -0.48878154831E+01  0.13917943110E+03  0.13953581905E+03  0.17770000000E+01 0.  1.
         15    1    1    2    0    0 -0.14370437448E+01  0.82064098068E+01  0.13822310452E+02  0.16236509843E+02  0.17770000000E+01 0. -1.
</event>
<event>
 6    1  0.1378789E-002  0.1842289E+03  0.7546771E-02  0.1067087E+00
        -11   -1    0    0    0    0  0.00000000000E+00  0.00000000000E+00  0.18250000000E+03  0.18250000000E+03  0.00000000000E+00 0.  1.
         11   -1    0    0    0    0 -0.00000000000E+00 -0.00000000000E+00 -0.18250000000E+03  0.18250000000E+03  0.00000000000E+00 0.  1.
        -11    1    1    2    0    0  0.10507472929E+01  0.24554588125E+01  0.17531345403E+03  0.17533379740E+03  0.00000000000E+00 0.  1.
         11    1    1    2    0    0 -0.34866553377E+01  0.18471294613E+01 -0.18072801179E+03  0.18077107871E+03  0.00000000000E+00 0.  1.
        -15    1    1    2    0    0  0.17838682463E+00 -0.36444294505E+01  0.36595167873E+01  0.54647488502E+01  0.17770000000E+01 0.  1.
         15    1    1    2    0    0  0.22575212202E+01 -0.65815882332E+00  0.17550409752E+01  0.34303750409E+01  0.17770000000E+01 0. -1.
</event>
<event>
 6    1  0.1378789E-002  0.1833942E+03  0.7546771E-02  0.1067745E+00
        -11   -1    0    0    0    0  0.00000000000E+00  0.00000000000E+00  0.18250000000E+03  0.18250000000E+03  0.00000000000E+00 0. -1.
         11   -1    0    0    0    0 -0.00000000000E+00 -0.00000000000E+00 -0.18250000000E+03  0.18250000000E+03  0.00000000000E+00 0.  1.
        -11    1    1    2    0    0  0.16508501071E+00  0.46081347040E+01  0.16383110740E+03  0.16389598504E+03  0.00000000000E+00 0. -1.
         11    1    1    2    0    0 -0.36719783011E+01 -0.15054855195E+00 -0.18156858110E+03  0.18160577010E+03  0.00000000000E+00 0.  1.
        -15    1    1    2    0    0  0.11716432972E-01 -0.35081999651E+01  0.70175910354E+01  0.80443717722E+01  0.17770000000E+01 0. -1.
         15    1    1    2    0    0  0.34951768574E+01 -0.94938618695E+00  0.10719882668E+02  0.11453873092E+02  0.17770000000E+01 0.  1.
</event>
<event>
 6    1  0.1378789E-002  0.1839031E+03  0.7546771E-02  0.1067343E+00
        -11   -1    0    0    0    0  0.00000000000E+00  0.00000000000E+00  0.18250000000E+03  0.18250000000E+03  0.00000000000E+00 0.  1.
         11   -1    0    0    0    0 -0.00000000000E+00 -0.00000000000E+00 -0.18250000000E+03  0.18250000000E+03  0.00000000000E+00 0. -1.
        -11    1    1    2    0    0  0.45481927639E+01 -0.98441420933E+00  0.16571659307E+03  0.16578191804E+03  0.00000000000E+00 0.  1.
         11    1    1    2    0    0  0.34191959759E+00  0.31301216633E+01 -0.18106955563E+03  0.18109693136E+03  0.00000000000E+00 0. -1.
        -15    1    1    2    0    0 -0.15383286351E+01 -0.32911629133E+01  0.27014590426E+01  0.48635191241E+01  0.17770000000E+01 0.  1.
         15    1    1    2    0    0 -0.33517837264E+01  0.11454554594E+01  0.12651503513E+02  0.13257631481E+02  0.17770000000E+01 0. -1.
</event>
<event>
 6    1  0.1378789E-002  0.1896618E+03  0.7546771E-02  0.1062893E+00
        -11   -1    0    0    0    0  0.00000000000E+00  0.00000000000E+00  0.18250000000E+03  0.18250000000E+03  0.00000000000E+00 0. -1.
         11   -1    0    0    0    0 -0.00000000000E+00 -0.00000000000E+00 -0.18250000000E+03  0.18250000000E+03  0.00000000000E+00 0. -1.
        -11    1    1    2    0    0  0.24928275893E+01  0.30788447424E+01  0.16262551415E+03  0.16267375734E+03  0.00000000000E+00 0. -1.
         11    1    1    2    0    0  0.19921570438E+01 -0.17153949385E+02 -0.17448570638E+03  0.17533821146E+03  0.00000000000E+00 0. -1.
        -15    1    1    2    0    0  0.60892094635E+01  0.57386515778E+01 -0.57521884525E+00  0.85731674159E+01  0.17770000000E+01 0.  1.
         15    1    1    2    0    0 -0.10574194097E+02  0.83364530649E+01  0.12435411078E+02  0.18414863784E+02  0.17770000000E+01 0. -1.
</event>
<event>
 6    1  0.1378789E-002  0.1840397E+03  0.7546771E-02  0.1067236E+00
        -11   -1    0    0    0    0  0.00000000000E+00  0.00000000000E+00  0.18250000000E+03  0.18250000000E+03  0.00000000000E+00 0.  1.
         11   -1    0    0    0    0 -0.00000000000E+00 -0.00000000000E+00 -0.18250000000E+03  0.18250000000E+03  0.00000000000E+00 0.  1.
        -11    1    1    2    0    0  0.13068601719E+02  0.41683867796E+01  0.18043963674E+03  0.18096028931E+03  0.00000000000E+00 0.  1.
         11    1    1    2    0    0 -0.25125034568E+01 -0.49887639143E+01 -0.11990587879E+03  0.12003591215E+03  0.00000000000E+00 0.  1.
        -15    1    1    2    0    0  0.32953397796E+01 -0.16221129746E+01 -0.39789449408E+01  0.56991443750E+01  0.17770000000E+01 0.  1.
         15    1    1    2    0    0 -0.13851438042E+02  0.24424901093E+01 -0.56554813011E+02  0.58304654166E+02  0.17770000000E+01 0.  1.
</event>
<event>
 6    1  0.1378789E-002  0.1834409E+03  0.7546771E-02  0.1067708E+00
        -11   -1    0    0    0    0  0.00000000000E+00  0.00000000000E+00  0.18250000000E+03  0.18250000000E+03  0.00000000000E+00 0. -1.
         11   -1    0    0    0    0 -0.00000000000E+00 -0.00000000000E+00 -0.18250000000E+03  0.18250000000E+03  0.00000000000E+00 0. -1.
        -11    1    1    2    0    0  0.32694848346E+00  0.24385861090E+01  0.18154239841E+03  0.18155907033E+03  0.00000000000E+00 0. -1.
         11    1    1    2    0    0 -0.10590734249E+00  0.11311427110E+01 -0.57743064382E+02  0.57754239536E+02  0.00000000000E+00 0. -1.
        -15    1    1    2    0    0 -0.14978657351E+01  0.46926092767E-01 -0.58124682956E+00  0.23961178384E+01  0.17770000000E+01 0.  1.
         15    1    1    2    0    0  0.12768245941E+01 -0.36166549128E+01 -0.12321808720E+03  0.12329057229E+03  0.17770000000E+01 0. -1.
</event>
<event>
 6    1  0.1378789E-002  0.1843645E+03  0.7546771E-02  0.1066980E+00
        -11   -1    0    0    0    0  0.00000000000E+00  0.00000000000E+00  0.18250000000E+03  0.18250000000E+03  0.00000000000E+00 0.  1.
         11   -1    0    0    0    0 -0.00000000000E+00 -0.00000000000E+00 -0.18250000000E+03  0.18250000000E+03  0.00000000000E+00 0.  1.
        -11    1    1    2    0    0 -0.26500321860E+01  0.39497436171E+01  0.18057287638E+03  0.18063550822E+03  0.00000000000E+00 0.  1.
         11    1    1    2    0    0  0.83141832304E+01 -0.15711279222E+01 -0.14165496802E+03  0.14190744889E+03  0.00000000000E+00 0.  1.
        -15    1    1    2    0    0  0.47472184750E+01 -0.67599086037E+00 -0.62133608540E+01  0.80471503648E+01  0.17770000000E+01 0. -1.
         15    1    1    2    0    0 -0.10411369519E+02 -0.17026248345E+01 -0.32704547508E+02  0.34409892520E+02  0.17770000000E+01 0.  1.
</event>
<event>
 6    1  0.1378789E-002  0.1831686E+03  0.7546771E-02  0.1067924E+00
        -11   -1    0    0    0    0  0.00000000000E+00  0.00000000000E+00  0.18250000000E+03  0.18250000000E+03  0.00000000000E+00 0.  1.
         11   -1    0    0    0    0 -0.00000000000E+00 -0.00000000000E+00 -0.18250000000E+03  0.18250000000E+03  0.00000000000E+00 0.  1.
        -11    1    1    2    0    0  0.48231113467E+01  0.36716522263E+01  0.18173031899E+03  0.18183138418E+03  0.00000000000E+00 0.  1.
         11    1    1    2    0    0 -0.27959692391E+01  0.49958101235E+00 -0.16036629407E+03  0.16039144397E+03  0.00000000000E+00 0.  1.
        -15    1    1    2    0    0  0.17345789127E+01 -0.19891004308E+01 -0.78729034976E+01  0.84915029890E+01  0.17770000000E+01 0.  1.
         15    1    1    2    0    0 -0.37617210203E+01 -0.21821328079E+01 -0.13491121423E+02  0.14285668863E+02  0.17770000000E+01 0. -1.
</event>
<event>
 6    1  0.1378789E-002  0.1832854E+03  0.7546771E-02  0.1067831E+00
        -11   -1    0    0    0    0  0.00000000000E+00  0.00000000000E+00  0.18250000000E+03  0.18250000000E+03  0.00000000000E+00 0.  1.
         11   -1    0    0    0    0 -0.00000000000E+00 -0.00000000000E+00 -0.18250000000E+03  0.18250000000E+03  0.00000000000E+00 0.  1.
        -11    1    1    2    0    0  0.32452655597E+01  0.16959420220E+01  0.18167769283E+03  0.18171458950E+03  0.00000000000E+00 0.  1.
         11    1    1    2    0    0 -0.38993564863E+01  0.15273804188E+01 -0.14195808570E+03  0.14201984357E+03  0.00000000000E+00 0.  1.
        -15    1    1    2    0    0 -0.62158621157E+00 -0.23313859098E+01 -0.23155421172E+01  0.37869768913E+01  0.17770000000E+01 0. -1.
         15    1    1    2    0    0  0.12756771382E+01 -0.89193653096E+00 -0.37404065008E+02  0.37478590036E+02  0.17770000000E+01 0.  1.
</event>
<event>
 6    1  0.1378789E-002  0.1836849E+03  0.7546771E-02  0.1067516E+00
        -11   -1    0    0    0    0  0.00000000000E+00  0.00000000000E+00  0.18250000000E+03  0.18250000000E+03  0.00000000000E+00 0. -1.
         11   -1    0    0    0    0 -0.00000000000E+00 -0.00000000000E+00 -0.18250000000E+03  0.18250000000E+03  0.00000000000E+00 0.  1.
        -11    1    1    2    0    0  0.19932005062E+01 -0.21029324839E+01  0.15913327653E+03  0.15915965215E+03  0.00000000000E+00 0. -1.
         11    1    1    2    0    0  0.15114733445E+01  0.63860715975E+01 -0.18119627926E+03  0.18131507957E+03  0.00000000000E+00 0.  1.
        -15    1    1    2    0    0 -0.22319717037E+00  0.10749599825E+01  0.13976313450E+02  0.14131539993E+02  0.17770000000E+01 0. -1.
         15    1    1    2    0    0 -0.32814766803E+01 -0.53580990962E+01  0.80866892810E+01  0.10393728285E+02  0.17770000000E+01 0.  1.
</event>
<event>
 6    1  0.1378789E-002  0.1425773E+03  0.7546771E-02  0.1105589E+00
        -11   -1    0    0    0    0  0.00000000000E+00  0.00000000000E+00  0.18250000000E+03  0.18250000000E+03  0.00000000000E+00 0.  1.
         11   -1    0    0    0    0 -0.00000000000E+00 -0.00000000000E+00 -0.18250000000E+03  0.18250000000E+03  0.00000000000E+00 0.  1.
        -11    1    1    2    0    0 -0.56979018217E+01  0.42519622293E+01  0.11951703803E+03  0.11972830763E+03  0.00000000000E+00 0.  1.
         11    1    1    2    0    0 -0.45534457982E+01 -0.21678649406E+01 -0.10312052251E+02  0.11479195471E+02  0.00000000000E+00 0.  1.
        -15    1    1    2    0    0  0.69253410517E+01  0.16497890757E+02 -0.16956953184E+03  0.17052015895E+03  0.17770000000E+01 0.  1.
         15    1    1    2    0    0  0.33260065682E+01 -0.18581988045E+02  0.60364546061E+02  0.63272337949E+02  0.17770000000E+01 0. -1.
</event>
<event>
 6    1  0.1378789E-002  0.1839456E+03  0.7546771E-02  0.1067310E+00
        -11   -1    0    0    0    0  0.00000000000E+00  0.00000000000E+00  0.18250000000E+03  0.18250000000E+03  0.00000000000E+00 0. -1.
         11   -1    0    0    0    0 -0.00000000000E+00 -0.00000000000E+00 -0.18250000000E+03  0.18250000000E+03  0.00000000000E+00 0. -1.
        -11    1    1    2    0    0 -0.50685322573E+00  0.13575037818E+02  0.18054407370E+03  0.18105441475E+03  0.00000000000E+00 0. -1.
         11    1    1    2    0    0 -0.27987364676E+01 -0.10099178231E+01 -0.81607213490E+02  0.81661436146E+02  0.00000000000E+00 0. -1.
        -15    1    1    2    0    0  0.16747046836E+01 -0.18919425468E+02 -0.69273922547E+02  0.71852511228E+02  0.17770000000E+01 0. -1.
         15    1    1    2    0    0  0.16308850097E+01  0.63543054730E+01 -0.29662937664E+02  0.30431637876E+02  0.17770000000E+01 0.  1.
</event>
<event>
 6    1  0.1378789E-002  0.1826499E+03  0.7546771E-02  0.1068336E+00
        -11   -1    0    0    0    0  0.00000000000E+00  0.00000000000E+00  0.18250000000E+03  0.18250000000E+03  0.00000000000E+00 0. -1.
         11   -1    0    0    0    0 -0.00000000000E+00 -0.00000000000E+00 -0.18250000000E+03  0.18250000000E+03  0.00000000000E+00 0.  1.
        -11    1    1    2    0    0 -0.46453779251E+00  0.52312525993E+00  0.91109733681E+01  0.91377946526E+01  0.00000000000E+00 0. -1.
         11    1    1    2    0    0  0.26692780550E+01 -0.14231072737E+01 -0.18232497087E+03  0.18235006247E+03  0.00000000000E+00 0.  1.
        -15    1    1    2    0    0  0.16076288912E+01 -0.80087141217E-01  0.13975451183E+03  0.13977507714E+03  0.17770000000E+01 0. -1.
         15    1    1    2    0    0 -0.38123691536E+01  0.98006915500E+00  0.33459485673E+02  0.33737065738E+02  0.17770000000E+01 0. -1.
</event>
<event>
 6    1  0.1378789E-002  0.1849611E+03  0.7546771E-02  0.1066513E+00
        -11   -1    0    0    0    0  0.00000000000E+00  0.00000000000E+00  0.18250000000E+03  0.18250000000E+03  0.00000000000E+00 0.  1.
         11   -1    0    0    0    0 -0.00000000000E+00 -0.00000000000E+00 -0.18250000000E+03  0.18250000000E+03  0.00000000000E+00 0.  1.
        -11    1    1    2    0    0 -0.14738563504E+00  0.28983442469E+01  0.18001553326E+03  0.18003892450E+03  0.00000000000E+00 0.  1.
         11    1    1    2    0    0 -0.19274325009E+00 -0.21503052424E+01 -0.14459429970E+03  0.14461041618E+03  0.00000000000E+00 0.  1.
        -15    1    1    2    0    0  0.21227162426E+01 -0.14842198832E+01 -0.37102704559E+02  0.37235430003E+02  0.17770000000E+01 0. -1.
         15    1    1    2    0    0 -0.17825873575E+01  0.73618087869E+00  0.16814710011E+01  0.31152293176E+01  0.17770000000E+01 0.  1.
</event>
<event>
 6    1  0.1378789E-002  0.1833290E+03  0.7546771E-02  0.1067797E+00
        -11   -1    0    0    0    0  0.00000000000E+00  0.00000000000E+00  0.18250000000E+03  0.18250000000E+03  0.00000000000E+00 0.  1.
         11   -1    0    0    0    0 -0.00000000000E+00 -0.00000000000E+00 -0.18250000000E+03  0.18250000000E+03  0.00000000000E+00 0.  1.
        -11    1    1    2    0    0  0.59233403105E+01  0.20134102040E+01  0.18156325376E+03  0.18167100731E+03  0.00000000000E+00 0.  1.
         11    1    1    2    0    0 -0.52172281835E-01 -0.18251836990E+01 -0.11603036722E+03  0.11604473334E+03  0.00000000000E+00 0.  1.
        -15    1    1    2    0    0 -0.69216408614E+01  0.11210670529E+01 -0.63981381453E+02  0.64388980464E+02  0.17770000000E+01 0.  1.
         15    1    1    2    0    0  0.10504728327E+01 -0.13092935579E+01 -0.15515050857E+01  0.28952788853E+01  0.17770000000E+01 0.  1.
</event>
<event>
 6    1  0.1378789E-002  0.1833603E+03  0.7546771E-02  0.1067772E+00
        -11   -1    0    0    0    0  0.00000000000E+00  0.00000000000E+00  0.18250000000E+03  0.18250000000E+03  0.00000000000E+00 0. -1.
         11   -1    0    0    0    0 -0.00000000000E+00 -0.00000000000E+00 -0.18250000000E+03  0.18250000000E+03  0.00000000000E+00 0.  1.
        -11    1    1    2    0    0 -0.27322572720E+00  0.13023804425E+02  0.18117195311E+03  0.18163967278E+03  0.00000000000E+00 0. -1.
         11    1    1    2    0    0 -0.45099781460E+00  0.12728109241E+01 -0.72448772975E+02  0.72461356268E+02  0.00000000000E+00 0.  1.
        -15    1    1    2    0    0 -0.11224645430E+01 -0.12887924513E+02 -0.39268344915E+02  0.41382594968E+02  0.17770000000E+01 0.  1.
         15    1    1    2    0    0  0.18466880848E+01 -0.14086908363E+01 -0.69454835215E+02  0.69516375988E+02  0.17770000000E+01 0. -1.
</event>
<event>
 6    1  0.1378789E-002  0.1831456E+03  0.7546771E-02  0.1067942E+00
        -11   -1    0    0    0    0  0.00000000000E+00  0.00000000000E+00  0.18250000000E+03  0.18250000000E+03  0.00000000000E+00 0. -1.
         11   -1    0    0    0    0 -0.00000000000E+00 -0.00000000000E+00 -0.18250000000E+03  0.18250000000E+03  0.00000000000E+00 0.  1.
        -11    1    1    2    0    0 -0.29437312498E+01 -0.19454387136E+01  0.14719316600E+03  0.14723545226E+03  0.00000000000E+00 0. -1.
         11    1    1    2    0    0  0.36537935766E+01 -0.21994412195E+01 -0.18180438288E+03  0.18185439610E+03  0.00000000000E+00 0.  1.
        -15    1    1    2    0    0  0.33563544143E+01  0.27902221338E+01  0.13619582568E+02  0.14411842798E+02  0.17770000000E+01 0.  1.
         15    1    1    2    0    0 -0.40664167411E+01  0.13546577994E+01  0.20991634309E+02  0.21498308836E+02  0.17770000000E+01 0. -1.
</event>
<event>
 6    1  0.1378789E-002  0.1891024E+03  0.7546771E-02  0.1063317E+00
        -11   -1    0    0    0    0  0.00000000000E+00  0.00000000000E+00  0.18250000000E+03  0.18250000000E+03  0.00000000000E+00 0.  1.
         11   -1    0    0    0    0 -0.00000000000E+00 -0.00000000000E+00 -0.18250000000E+03  0.18250000000E+03  0.00000000000E+00 0.  1.
        -11    1    1    2    0    0 -0.24294851332E+01 -0.96852706335E+00  0.17587810695E+03  0.17589755242E+03  0.00000000000E+00 0.  1.
         11    1    1    2    0    0 -0.40106452537E+01 -0.27465637980E+01 -0.15642150880E+03  0.15649702011E+03  0.00000000000E+00 0.  1.
        -15    1    1    2    0    0  0.94319782074E+01  0.44163031609E+01 -0.24359734699E+02  0.26552219306E+02  0.17770000000E+01 0.  1.
         15    1    1    2    0    0 -0.29918478205E+01 -0.70121229947E+00  0.49031365462E+01  0.60532081627E+01  0.17770000000E+01 0. -1.
</event>
<event>
 6    1  0.1378789E-002  0.1634975E+03  0.7546771E-02  0.1084675E+00
        -11   -1    0    0    0    0  0.00000000000E+00  0.00000000000E+00  0.18250000000E+03  0.18250000000E+03  0.00000000000E+00 0. -1.
         11   -1    0    0    0    0 -0.00000000000E+00 -0.00000000000E+00 -0.18250000000E+03  0.18250000000E+03  0.00000000000E+00 0. -1.
        -11    1    1    2    0    0 -0.13291260343E+02 -0.16920182251E+02  0.16325160158E+03  0.16466340088E+03  0.00000000000E+00 0. -1.
         11    1    1    2    0    0  0.22052504264E+01  0.59685785336E+00 -0.16291050619E+03  0.16292652453E+03  0.00000000000E+00 0. -1.
        -15    1    1    2    0    0  0.68650628792E+01 -0.35785376786E+01  0.11369023257E+02  0.13868937921E+02  0.17770000000E+01 0. -1.
         15    1    1    2    0    0  0.42209470371E+01  0.19901862076E+02 -0.11710118653E+02  0.23541136673E+02  0.17770000000E+01 0.  1.
</event>
<event>
 6    1  0.1378789E-002  0.1867995E+03  0.7546771E-02  0.1065083E+00
        -11   -1    0    0    0    0  0.00000000000E+00  0.00000000000E+00  0.18250000000E+03  0.18250000000E+03  0.00000000000E+00 0. -1.
         11   -1    0    0    0    0 -0.00000000000E+00 -0.00000000000E+00 -0.18250000000E+03  0.18250000000E+03  0.00000000000E+00 0. -1.
        -11    1    1    2    0    0 -0.23930021242E+01 -0.47755921935E+01  0.17182040839E+03  0.17190341904E+03  0.00000000000E+00 0. -1.
         11    1    1    2    0    0 -0.30552571272E+01 -0.13706815583E+01 -0.17816901203E+03  0.17820047758E+03  0.00000000000E+00 0. -1.
        -15    1    1    2    0    0  0.26442450219E+01  0.50592932506E+01  0.87926880530E+01  0.10632853433E+02  0.17770000000E+01 0. -1.
         15    1    1    2    0    0  0.28040142294E+01  0.10869805013E+01 -0.24440844145E+01  0.42632499380E+01  0.17770000000E+01 0. -1.
</event>
<event>
 6    1  0.1378789E-002  0.2030266E+03  0.7546771E-02  0.1053197E+00
        -11   -1    0    0    0    0  0.00000000000E+00  0.00000000000E+00  0.18250000000E+03  0.18250000000E+03  0.00000000000E+00 0. -1.
         11   -1    0    0    0    0 -0.00000000000E+00 -0.00000000000E+00 -0.18250000000E+03  0.18250000000E+03  0.00000000000E+00 0.  1.
        -11    1    1    2    0    0 -0.28720795327E+01  0.10608272528E+01  0.16194443884E+03  0.16197337888E+03  0.00000000000E+00 0. -1.
         11    1    1    2    0    0  0.67008454183E+00  0.66012377446E+01 -0.13367953095E+03  0.13384409718E+03  0.00000000000E+00 0.  1.
        -15    1    1    2    0    0 -0.25940646496E+02  0.74440169947E+01 -0.86109651462E+00  0.27059744009E+02  0.17770000000E+01 0.  1.
         15    1    1    2    0    0  0.28142641487E+02 -0.15106081992E+02 -0.27403811367E+02  0.42122779935E+02  0.17770000000E+01 0. -1.
</event>
<event>
 6    1  0.1378789E-002  0.1981375E+03  0.7546771E-02  0.1056647E+00
        -11   -1    0    0    0    0  0.00000000000E+00  0.00000000000E+00  0.18250000000E+03  0.18250000000E+03  0.00000000000E+00 0. -1.
         11   -1    0    0    0    0 -0.00000000000E+00 -0.00000000000E+00 -0.18250000000E+03  0.18250000000E+03  0.00000000000E+00 0.  1.
        -11    1    1    2    0    0  0.22620186965E+01  0.38351645562E+01  0.13744403842E+03  0.13751614056E+03  0.00000000000E+00 0. -1.
         11    1    1    2    0    0 -0.28898604702E+01  0.31580543236E+02 -0.16382132159E+03  0.16686254047E+03  0.00000000000E+00 0.  1.
        -15    1    1    2    0    0 -0.59328458921E+01  0.77688918291E+01  0.78847111841E+00  0.99666321461E+01  0.17770000000E+01 0. -1.
         15    1    1    2    0    0  0.65606876657E+01 -0.43184599621E+02  0.25588812047E+02  0.50654686832E+02  0.17770000000E+01 0.  1.
</event>
<event>
 6    1  0.1378789E-002  0.1689623E+03  0.7546771E-02  0.1079772E+00
        -11   -1    0    0    0    0  0.00000000000E+00  0.00000000000E+00  0.18250000000E+03  0.18250000000E+03  0.00000000000E+00 0.  1.
         11   -1    0    0    0    0 -0.00000000000E+00 -0.00000000000E+00 -0.18250000000E+03  0.18250000000E+03  0.00000000000E+00 0.  1.
        -11    1    1    2    0    0  0.11138891409E+01 -0.37226299325E+01  0.16904632511E+03  0.16909097774E+03  0.00000000000E+00 0.  1.
         11    1    1    2    0    0  0.14512883212E+02 -0.32720249388E+01 -0.16861220081E+03  0.16926725670E+03  0.00000000000E+00 0.  1.
        -15    1    1    2    0    0 -0.16664652201E+02  0.66294075808E+01 -0.73148847092E+01  0.19450576988E+02  0.17770000000E+01 0. -1.
         15    1    1    2    0    0  0.10378798477E+01  0.36524729043E+00  0.68807604164E+01  0.71911885714E+01  0.17770000000E+01 0. -1.
</event>
<event>
 6    1  0.1378789E-002  0.1850868E+03  0.7546771E-02  0.1066414E+00
        -11   -1    0    0    0    0  0.00000000000E+00  0.00000000000E+00  0.18250000000E+03  0.18250000000E+03  0.00000000000E+00 0. -1.
         11   -1    0    0    0    0 -0.00000000000E+00 -0.00000000000E+00 -0.18250000000E+03  0.18250000000E+03  0.00000000000E+00 0.  1.
        -11    1    1    2    0    0 -0.50501424289E+01 -0.22198769034E+00  0.16480316034E+03  0.16488066859E+03  0.00000000000E+00 0. -1.
         11    1    1    2    0    0 -0.60969039923E+00 -0.84216955247E+01 -0.17971498353E+03  0.17991323460E+03  0.00000000000E+00 0.  1.
        -15    1    1    2    0    0  0.10038768021E+01  0.54503135509E+01  0.22694072458E+01  0.62467291188E+01  0.17770000000E+01 0.  1.
         15    1    1    2    0    0  0.46559560260E+01  0.31933696642E+01  0.12642415946E+02  0.13959367689E+02  0.17770000000E+01 0. -1.
</event>
<event>
 6    1  0.1378789E-002  0.1869738E+03  0.7546771E-02  0.1064948E+00
        -11   -1    0    0    0    0  0.00000000000E+00  0.00000000000E+00  0.18250000000E+03  0.18250000000E+03  0.00000000000E+00 0.  1.
         11   -1    0    0    0    0 -0.00000000000E+00 -0.00000000000E+00 -0.18250000000E+03  0.18250000000E+03  0.00000000000E+00 0. -1.
        -11    1    1    2    0    0 -0.21267569893E+01 -0.45278412498E+01  0.17795591525E+03  0.17802621215E+03  0.00000000000E+00 0.  1.
         11    1    1    2    0    0 -0.61416926148E+01 -0.46639726970E+01 -0.12924561113E+03  0.12947548427E+03  0.00000000000E+00 0. -1.
        -15    1    1    2    0    0  0.12811198903E+02  0.24302523536E+01 -0.47231587758E+02  0.49030740918E+02  0.17770000000E+01 0. -1.
         15    1    1    2    0    0 -0.45427492987E+01  0.67615615933E+01 -0.14787163539E+01  0.84675626614E+01  0.17770000000E+01 0.  1.
</event>
<event>
 6    1  0.1378789E-002  0.1836962E+03  0.7546771E-02  0.1067507E+00
        -11   -1    0    0    0    0  0.00000000000E+00  0.00000000000E+00  0.18250000000E+03  0.18250000000E+03  0.00000000000E+00 0.  1.
         11   -1    0    0    0    0 -0.00000000000E+00 -0.00000000000E+00 -0.18250000000E+03  0.18250000000E+03  0.00000000000E+00 0. -1.
        -11    1    1    2    0    0  0.17734851654E+01  0.19262458831E+01  0.18128492536E+03  0.18130383293E+03  0.00000000000E+00 0.  1.
         11    1    1    2    0    0 -0.28789408843E+00 -0.32144927719E+01 -0.15307280988E+03  0.15310682863E+03  0.00000000000E+00 0. -1.
        -15    1    1    2    0    0  0.20781382750E+01  0.12802660258E+01 -0.25709209104E+02  0.25885882282E+02  0.17770000000E+01 0. -1.
         15    1    1    2    0    0 -0.35637293520E+01  0.79808630238E-02 -0.25029063670E+01  0.47034561623E+01  0.17770000000E+01 0. -1.
</event>
<event>
 6    1  0.1378789E-002  0.1848614E+03  0.7546771E-02  0.1066591E+00
        -11   -1    0    0    0    0  0.00000000000E+00  0.00000000000E+00  0.18250000000E+03  0.18250000000E+03  0.00000000000E+00 0. -1.
         11   -1    0    0    0    0 -0.00000000000E+00 -0.00000000000E+00 -0.18250000000E+03  0.18250000000E+03  0.00000000000E+00 0. -1.
        -11    1    1    2    0    0 -0.16771327312E+01  0.26371223248E+01  0.18011147936E+03  0.18013859160E+03  0.00000000000E+00 0. -1.
         11    1    1    2    0    0 -0.30280263164E+01 -0.65294440379E+01 -0.15145232898E+03  0.15162325196E+03  0.00000000000E+00 0. -1.
        -15    1    1    2    0    0  0.59745113410E+01  0.25963944659E+01 -0.29726386373E+02  0.30483632096E+02  0.17770000000E+01 0.  1.
         15    1    1    2    0    0 -0.12693522934E+01  0.12959272472E+01  0.10672359905E+01  0.27545243390E+01  0.17770000000E+01 0.  1.
</event>
<event>
 6    1  0.1378789E-002  0.1829180E+03  0.7546771E-02  0.1068123E+00
        -11   -1    0    0    0    0  0.00000000000E+00  0.00000000000E+00  0.18250000000E+03  0.18250000000E+03  0.00000000000E+00 0. -1.
         11   -1    0    0    0    0 -0.00000000000E+00 -0.00000000000E+00 -0.18250000000E+03  0.18250000000E+03  0.00000000000E+00 0.  1.
        -11    1    1    2    0    0  0.12813258418E+00  0.27863751005E+01  0.10300132943E+03  0.10303909049E+03  0.00000000000E+00 0. -1.
         11    1    1    2    0    0 -0.32783258138E+01  0.26399382361E+01 -0.18203337694E+03  0.18208203375E+03  0.00000000000E+00 0.  1.
        -15    1    1    2    0    0  0.23860974756E+01 -0.30529352176E+01  0.11294586675E+02  0.12072252970E+02  0.17770000000E+01 0.  1.
         15    1    1    2    0    0  0.76409575393E+00 -0.23733781190E+01  0.67737460833E+02  0.67806622797E+02  0.17770000000E+01 0. -1.
</event>
<event>
 6    1  0.1378789E-002  0.1425965E+03  0.7546771E-02  0.1105568E+00
        -11   -1    0    0    0    0  0.00000000000E+00  0.00000000000E+00  0.18250000000E+03  0.18250000000E+03  0.00000000000E+00 0. -1.
         11   -1    0    0    0    0 -0.00000000000E+00 -0.00000000000E+00 -0.18250000000E+03  0.18250000000E+03  0.00000000000E+00 0.  1.
        -11    1    1    2    0    0 -0.49174611610E+01 -0.50409087542E+02  0.15228800239E+03  0.16048954235E+03  0.00000000000E+00 0. -1.
         11    1    1    2    0    0  0.22976425883E+01  0.20113712666E+01 -0.12964193551E+03  0.12967789410E+03  0.00000000000E+00 0.  1.
        -15    1    1    2    0    0  0.15134433296E+02  0.41464304910E+02  0.41850013610E+01  0.44373546379E+02  0.17770000000E+01 0. -1.
         15    1    1    2    0    0 -0.12514614723E+02  0.69334113653E+01 -0.26831068244E+02  0.30459017170E+02  0.17770000000E+01 0.  1.
</event>
<event>
 6    1  0.1378789E-002  0.1840347E+03  0.7546771E-02  0.1067240E+00
        -11   -1    0    0    0    0  0.00000000000E+00  0.00000000000E+00  0.18250000000E+03  0.18250000000E+03  0.00000000000E+00 0. -1.
         11   -1    0    0    0    0 -0.00000000000E+00 -0.00000000000E+00 -0.18250000000E+03  0.18250000000E+03  0.00000000000E+00 0.  1.
        -11    1    1    2    0    0  0.29515694529E+01  0.16728964227E+01  0.18093345204E+03  0.18096525747E+03  0.00000000000E+00 0. -1.
         11    1    1    2    0    0 -0.19326291173E+01 -0.97293284084E+00 -0.15197196609E+03  0.15198736833E+03  0.00000000000E+00 0.  1.
        -15    1    1    2    0    0 -0.42042521532E+01  0.11158349684E+01 -0.25946099409E+01  0.53675463286E+01  0.17770000000E+01 0.  1.
         15    1    1    2    0    0  0.31853118176E+01 -0.18157985503E+01 -0.26366876008E+02  0.26679827870E+02  0.17770000000E+01 0. -1.
</event>
<event>
 6    1  0.1378789E-002  0.1839624E+03  0.7546771E-02  0.1067297E+00
        -11   -1    0    0    0    0  0.00000000000E+00  0.00000000000E+00  0.18250000000E+03  0.18250000000E+03  0.00000000000E+00 0.  1.
         11   -1    0    0    0    0 -0.00000000000E+00 -0.00000000000E+00 -0.18250000000E+03  0.18250000000E+03  0.00000000000E+00 0.  1.
        -11    1    1    2    0    0  0.25184776690E+01 -0.12712106474E+01  0.17441691993E+03  0.17443973362E+03  0.00000000000E+00 0.  1.
         11    1    1    2    0    0 -0.41317968559E+01  0.11940722631E+01 -0.18098650094E+03  0.18103759575E+03  0.00000000000E+00 0.  1.
        -15    1    1    2    0    0  0.40339461064E+00 -0.96879437423E+00  0.68138189384E+01  0.71194906613E+01  0.17770000000E+01 0.  1.
         15    1    1    2    0    0  0.12099245762E+01  0.10459327585E+01 -0.24423793119E+00  0.24031799730E+01  0.17770000000E+01 0. -1.
</event>
<event>
 6    1  0.1378789E-002  0.1832113E+03  0.7546771E-02  0.1067890E+00
        -11   -1    0    0    0    0  0.00000000000E+00  0.00000000000E+00  0.18250000000E+03  0.18250000000E+03  0.00000000000E+00 0.  1.
         11   -1    0    0    0    0 -0.00000000000E+00 -0.00000000000E+00 -0.18250000000E+03  0.18250000000E+03  0.00000000000E+00 0. -1.
        -11    1    1    2    0    0 -0.22692313151E+01 -0.87642514649E+00  0.15546093842E+03  0.15547996947E+03  0.00000000000E+00 0.  1.
         11    1    1    2    0    0  0.27480320976E+00 -0.34746995611E+01 -0.18175530655E+03  0.18178872493E+03  0.00000000000E+00 0. -1.
        -15    1    1    2    0    0  0.29008718942E+01  0.25562328603E+01  0.23402407368E+02  0.23786125868E+02  0.17770000000E+01 0.  1.
         15    1    1    2    0    0 -0.90644378888E+00  0.17948918473E+01  0.28919607596E+01  0.39451797324E+01  0.17770000000E+01 0. -1.
</event>
<event>
 6    1  0.1378789E-002  0.1844496E+03  0.7546771E-02  0.1066913E+00
        -11   -1    0    0    0    0  0.00000000000E+00  0.00000000000E+00  0.18250000000E+03  0.18250000000E+03  0.00000000000E+00 0.  1.
         11   -1    0    0    0    0 -0.00000000000E+00 -0.00000000000E+00 -0.18250000000E+03  0.18250000000E+03  0.00000000000E+00 0. -1.
        -11    1    1    2    0    0 -0.38496209215E+01 -0.26967071353E+01  0.18048924390E+03  0.18055043332E+03  0.00000000000E+00 0.  1.
         11    1    1    2    0    0  0.44206628464E+01 -0.38551312423E+01 -0.15139396223E+03  0.15150754469E+03  0.00000000000E+00 0. -1.
        -15    1    1    2    0    0 -0.13515132685E+01  0.57580061403E+01 -0.31879394525E+01  0.69499575380E+01  0.17770000000E+01 0. -1.
         15    1    1    2    0    0  0.78047134362E+00  0.79383223738E+00 -0.25907342212E+02  0.25992064455E+02  0.17770000000E+01 0.  1.
</event>
<event>
 6    1  0.1378789E-002  0.1884294E+03  0.7546771E-02  0.1063831E+00
        -11   -1    0    0    0    0  0.00000000000E+00  0.00000000000E+00  0.18250000000E+03  0.18250000000E+03  0.00000000000E+00 0.  1.
         11   -1    0    0    0    0 -0.00000000000E+00 -0.00000000000E+00 -0.18250000000E+03  0.18250000000E+03  0.00000000000E+00 0.  1.
        -11    1    1    2    0    0  0.55842116878E+00 -0.24479895421E+01  0.17125293903E+03  0.17127134499E+03  0.00000000000E+00 0.  1.
         11    1    1    2    0    0 -0.47906811643E+01 -0.51636223245E+01 -0.17643009424E+03  0.17657064245E+03  0.00000000000E+00 0.  1.
        -15    1    1    2    0    0 -0.24842433960E+00  0.24443427874E+01 -0.43461301581E+01  0.52993492682E+01  0.17770000000E+01 0. -1.
         15    1    1    2    0    0  0.44806843351E+01  0.51672690792E+01  0.95232853674E+01  0.11858663290E+02  0.17770000000E+01 0.  1.
</event>
<event>
 6    1  0.1378789E-002  0.1869987E+03  0.7546771E-02  0.1064929E+00
        -11   -1    0    0    0    0  0.00000000000E+00  0.00000000000E+00  0.18250000000E+03  0.18250000000E+03  0.00000000000E+00 0. -1.
         11   -1    0    0    0    0 -0.00000000000E+00 -0.00000000000E+00 -0.18250000000E+03  0.18250000000E+03  0.00000000000E+00 0.  1.
        -11    1    1    2    0    0 -0.16556762723E+01  0.28092522304E+01  0.17797146192E+03  0.17800133263E+03  0.00000000000E+00 0. -1.
         11    1    1    2    0    0  0.60437585300E+01 -0.54207145566E+01 -0.13627042044E+03  0.13651204580E+03  0.00000000000E+00 0.  1.
        -15    1    1    2    0    0  0.13351271846E+01 -0.25734997607E+01  0.33325017416E+01  0.47611723846E+01  0.17770000000E+01 0.  1.
         15    1    1    2    0    0 -0.57232094422E+01  0.51849620869E+01 -0.45033543225E+02  0.45725449178E+02  0.17770000000E+01 0.  1.
</event>
<event>
 6    1  0.1378789E-002  0.1834328E+03  0.7546771E-02  0.1067715E+00
        -11   -1    0    0    0    0  0.00000000000E+00  0.00000000000E+00  0.18250000000E+03  0.18250000000E+03  0.00000000000E+00 0.  1.
         11   -1    0    0    0    0 -0.00000000000E+00 -0.00000000000E+00 -0.18250000000E+03  0.18250000000E+03  0.00000000000E+00 0.  1.
        -11    1    1    2    0    0  0.19992107056E+00 -0.71988560642E+00  0.28475639060E+02  0.28485438800E+02  0.00000000000E+00 0.  1.
         11    1    1    2    0    0 -0.12849329600E+02 -0.91311705615E+01 -0.18088165560E+03  0.18156722413E+03  0.00000000000E+00 0.  1.
        -15    1    1    2    0    0  0.79438296002E+01 -0.33786844240E+01  0.10756822657E+03  0.10792868495E+03  0.17770000000E+01 0.  1.
         15    1    1    2    0    0  0.47055789292E+01  0.13229740592E+02  0.44837789965E+02  0.47018652120E+02  0.17770000000E+01 0. -1.
</event>
<event>
 6    1  0.1378789E-002  0.1834361E+03  0.7546771E-02  0.1067712E+00
        -11   -1    0    0    0    0  0.00000000000E+00  0.00000000000E+00  0.18250000000E+03  0.18250000000E+03  0.00000000000E+00 0.  1.
         11   -1    0    0    0    0 -0.00000000000E+00 -0.00000000000E+00 -0.18250000000E+03  0.18250000000E+03  0.00000000000E+00 0. -1.
        -11    1    1    2    0    0  0.13158754143E+01  0.10792432439E+01  0.12010255787E+03  0.12011461485E+03  0.00000000000E+00 0.  1.
         11    1    1    2    0    0 -0.31992052723E+01  0.50483141816E+01 -0.18146549235E+03  0.18156388767E+03  0.00000000000E+00 0. -1.
        -15    1    1    2    0    0  0.90796334786E+00 -0.44925131263E+01  0.54169366003E+01  0.73149164563E+01  0.17770000000E+01 0. -1.
         15    1    1    2    0    0  0.97536651009E+00 -0.16350442992E+01  0.55945997881E+02  0.56006581020E+02  0.17770000000E+01 0.  1.
</event>
<event>
 6    1  0.1378789E-002  0.1879794E+03  0.7546771E-02  0.1064175E+00
        -11   -1    0    0    0    0  0.00000000000E+00  0.00000000000E+00  0.18250000000E+03  0.18250000000E+03  0.00000000000E+00 0.  1.
         11   -1    0    0    0    0 -0.00000000000E+00 -0.00000000000E+00 -0.18250000000E+03  0.18250000000E+03  0.00000000000E+00 0.  1.
        -11    1    1    2    0    0  0.81986194224E+00 -0.34333387652E+01  0.17698541413E+03  0.17702061123E+03  0.00000000000E+00 0.  1.
         11    1    1    2    0    0 -0.58612280236E+01  0.78262287735E+01 -0.17449657494E+02  0.20002359796E+02  0.00000000000E+00 0.  1.
        -15    1    1    2    0    0  0.51993703220E+01 -0.86668237397E+01 -0.16227308925E+03  0.16259723402E+03  0.17770000000E+01 0.  1.
         15    1    1    2    0    0 -0.15800424066E+00  0.42739337314E+01  0.27373326193E+01  0.53797949541E+01  0.17770000000E+01 0.  1.
</event>
<event>
 6    1  0.1378789E-002  0.1779572E+03  0.7546771E-02  0.1072129E+00
        -11   -1    0    0    0    0  0.00000000000E+00  0.00000000000E+00  0.18250000000E+03  0.18250000000E+03  0.00000000000E+00 0. -1.
         11   -1    0    0    0    0 -0.00000000000E+00 -0.00000000000E+00 -0.18250000000E+03  0.18250000000E+03  0.00000000000E+00 0.  1.
        -11    1    1    2    0    0 -0.24184891815E+01  0.11102013728E+01  0.17879425184E+03  0.17881405461E+03  0.00000000000E+00 0. -1.
         11    1    1    2    0    0  0.74922453329E+00  0.29493780278E+01 -0.17710526074E+03  0.17713140193E+03  0.00000000000E+00 0.  1.
        -15    1    1    2    0    0  0.36416962615E+01 -0.40931836779E+01  0.25274322237E+00  0.57652157304E+01  0.17770000000E+01 0. -1.
         15    1    1    2    0    0 -0.19724316133E+01  0.33604277245E-01 -0.19417343243E+01  0.32893277280E+01  0.17770000000E+01 0. -1.
</event>
<event>
 6    1  0.1378789E-002  0.1839194E+03  0.7546771E-02  0.1067331E+00
        -11   -1    0    0    0    0  0.00000000000E+00  0.00000000000E+00  0.18250000000E+03  0.18250000000E+03  0.00000000000E+00 0. -1.
         11   -1    0    0    0    0 -0.00000000000E+00 -0.00000000000E+00 -0.18250000000E+03  0.18250000000E+03  0.00000000000E+00 0.  1.
        -11    1    1    2    0    0 -0.15233877397E+01  0.58200136190E+01  0.18098061218E+03  0.18108057669E+03  0.00000000000E+00 0. -1.
         11    1    1    2    0    0  0.13104910982E+01  0.23358604513E+00 -0.80908841955E+02  0.80919791496E+02  0.00000000000E+00 0.  1.
        -15    1    1    2    0    0 -0.52376805072E+01  0.41887468814E+01 -0.74956539801E+02  0.75276951887E+02  0.17770000000E+01 0.  1.
         15    1    1    2    0    0  0.54505771488E+01 -0.10242346545E+02 -0.25115230426E+02  0.27722679927E+02  0.17770000000E+01 0. -1.
</event>
<event>
 6    1  0.1378789E-002  0.1841004E+03  0.7546771E-02  0.1067188E+00
        -11   -1    0    0    0    0  0.00000000000E+00  0.00000000000E+00  0.18250000000E+03  0.18250000000E+03  0.00000000000E+00 0.  1.
         11   -1    0    0    0    0 -0.00000000000E+00 -0.00000000000E+00 -0.18250000000E+03  0.18250000000E+03  0.00000000000E+00 0.  1.
        -11    1    1    2    0    0 -0.35080874266E+01  0.47816435688E+01  0.16025041534E+03  0.16036011478E+03  0.00000000000E+00 0.  1.
         11    1    1    2    0    0 -0.47391093240E+01 -0.45682397757E+01 -0.18077977033E+03  0.18089956697E+03  0.00000000000E+00 0.  1.
        -15    1    1    2    0    0  0.42466127787E+01 -0.12786805049E+01  0.17894121895E+02  0.18520963024E+02  0.17770000000E+01 0.  1.
         15    1    1    2    0    0  0.40005839719E+01  0.10652767119E+01  0.26352330858E+01  0.52193552289E+01  0.17770000000E+01 0. -1.
</event>
<event>
 6    1  0.1378789E-002  0.1842742E+03  0.7546771E-02  0.1067051E+00
        -11   -1    0    0    0    0  0.00000000000E+00  0.00000000000E+00  0.18250000000E+03  0.18250000000E+03  0.00000000000E+00 0.  1.
         11   -1    0    0    0    0 -0.00000000000E+00 -0.00000000000E+00 -0.18250000000E+03  0.18250000000E+03  0.00000000000E+00 0. -1.
        -11    1    1    2    0    0  0.17051520161E+01  0.11611166164E+02  0.89496200083E+02  0.90262376173E+02  0.00000000000E+00 0.  1.
         11    1    1    2    0    0 -0.26378481269E+01 -0.40289414957E+00 -0.18070611330E+03  0.18072581429E+03  0.00000000000E+00 0. -1.
        -15    1    1    2    0    0  0.53914278474E+00 -0.12885592308E+02  0.90507457457E+02  0.91438978277E+02  0.17770000000E+01 0. -1.
         15    1    1    2    0    0  0.39355332605E+00  0.16773202939E+01  0.70245576155E+00  0.25728312587E+01  0.17770000000E+01 0.  1.
</event>
<event>
 6    1  0.1378789E-002  0.1834880E+03  0.7546771E-02  0.1067671E+00
        -11   -1    0    0    0    0  0.00000000000E+00  0.00000000000E+00  0.18250000000E+03  0.18250000000E+03  0.00000000000E+00 0. -1.
         11   -1    0    0    0    0 -0.00000000000E+00 -0.00000000000E+00 -0.18250000000E+03  0.18250000000E+03  0.00000000000E+00 0. -1.
        -11    1    1    2    0    0 -0.29129342231E+01  0.73164919454E+00  0.18148712237E+03  0.18151197228E+03  0.00000000000E+00 0. -1.
         11    1    1    2    0    0  0.24388071260E+01 -0.38571275579E+00 -0.15924813414E+03  0.15926727467E+03  0.00000000000E+00 0. -1.
        -15    1    1    2    0    0  0.35062194898E+01 -0.10432169869E+01 -0.42652804664E+01  0.58934050641E+01  0.17770000000E+01 0. -1.
         15    1    1    2    0    0 -0.30320923927E+01  0.69728054813E+00 -0.17973707764E+02  0.18327347987E+02  0.17770000000E+01 0.  1.
</event>
<event>
 6    1  0.1378789E-002  0.1832506E+03  0.7546771E-02  0.1067859E+00
        -11   -1    0    0    0    0  0.00000000000E+00  0.00000000000E+00  0.18250000000E+03  0.18250000000E+03  0.00000000000E+00 0.  1.
         11   -1    0    0    0    0 -0.00000000000E+00 -0.00000000000E+00 -0.18250000000E+03  0.18250000000E+03  0.00000000000E+00 0. -1.
        -11    1    1    2    0    0  0.21312286239E+01 -0.13381353282E+01  0.18173202053E+03  0.18174944299E+03  0.00000000000E+00 0.  1.
         11    1    1    2    0    0  0.84207160305E+00  0.27324337382E+01 -0.17065651880E+03  0.17068046955E+03  0.00000000000E+00 0. -1.
        -15    1    1    2    0    0 -0.27176921617E+01  0.54488392299E+00 -0.57861653229E+01  0.66573408594E+01  0.17770000000E+01 0. -1.
         15    1    1    2    0    0 -0.25560806522E+00 -0.19391823330E+01 -0.52893364124E+01  0.59127465942E+01  0.17770000000E+01 0.  1.
</event>
<event>
 6    1  0.1378789E-002  0.1863648E+03  0.7546771E-02  0.1065419E+00
        -11   -1    0    0    0    0  0.00000000000E+00  0.00000000000E+00  0.18250000000E+03  0.18250000000E+03  0.00000000000E+00 0. -1.
         11   -1    0    0    0    0 -0.00000000000E+00 -0.00000000000E+00 -0.18250000000E+03  0.18250000000E+03  0.00000000000E+00 0. -1.
        -11    1    1    2    0    0  0.50672568476E+01 -0.39849845503E+00  0.16410250038E+03  0.16418120027E+03  0.00000000000E+00 0. -1.
         11    1    1    2    0    0  0.53131465223E+01  0.80179634375E+01 -0.17837607385E+03  0.17863521765E+03  0.00000000000E+00 0. -1.
        -15    1    1    2    0    0 -0.62701927644E+01 -0.75476531582E+01  0.14614139714E+02  0.17692178896E+02  0.17770000000E+01 0.  1.
         15    1    1    2    0    0 -0.41102106054E+01 -0.71811824302E-01 -0.34056624688E+00  0.44914031802E+01  0.17770000000E+01 0. -1.
</event>
<event>
 6    1  0.1378789E-002  0.1003745E+03  0.7546771E-02  0.1163169E+00
        -11   -1    0    0    0    0  0.00000000000E+00  0.00000000000E+00  0.18250000000E+03  0.18250000000E+03  0.00000000000E+00 0. -1.
         11   -1    0    0    0    0 -0.00000000000E+00 -0.00000000000E+00 -0.18250000000E+03  0.18250000000E+03  0.00000000000E+00 0. -1.
        -11    1    1    2    0    0 -0.47744551150E+02 -0.37839432420E+02  0.13883055889E+03  0.15160900003E+03  0.00000000000E+00 0. -1.
         11    1    1    2    0    0 -0.58518280609E+01  0.10677108813E+02 -0.54600288693E+02  0.55941362780E+02  0.00000000000E+00 0. -1.
        -15    1    1    2    0    0 -0.23685450487E+02 -0.52404787941E+01 -0.67806362705E+02  0.72036960896E+02  0.17770000000E+01 0. -1.
         15    1    1    2    0    0  0.77281829698E+02  0.32402802402E+02 -0.16423907488E+02  0.85412676291E+02  0.17770000000E+01 0.  1.
</event>
<event>
 6    1  0.1378789E-002  0.1825782E+03  0.7546771E-02  0.1068393E+00
        -11   -1    0    0    0    0  0.00000000000E+00  0.00000000000E+00  0.18250000000E+03  0.18250000000E+03  0.00000000000E+00 0.  1.
         11   -1    0    0    0    0 -0.00000000000E+00 -0.00000000000E+00 -0.18250000000E+03  0.18250000000E+03  0.00000000000E+00 0.  1.
        -11    1    1    2    0    0  0.58307312045E+00 -0.10242429879E+01  0.59936992825E+02  0.59948579273E+02  0.00000000000E+00 0.  1.
         11    1    1    2    0    0 -0.13219562957E+01  0.34017907303E+01 -0.18238524233E+03  0.18242175410E+03  0.00000000000E+00 0.  1.
        -15    1    1    2    0    0  0.17678901975E+01 -0.68988555080E+00  0.98510983952E+02  0.98545284342E+02  0.17770000000E+01 0.  1.
         15    1    1    2    0    0 -0.10290070222E+01 -0.16876621916E+01  0.23937265552E+02  0.24084382288E+02  0.17770000000E+01 0. -1.
</event>
<event>
 6    1  0.1378789E-002  0.1826706E+03  0.7546771E-02  0.1068319E+00
        -11   -1    0    0    0    0  0.00000000000E+00  0.00000000000E+00  0.18250000000E+03  0.18250000000E+03  0.00000000000E+00 0.  1.
         11   -1    0    0    0    0 -0.00000000000E+00 -0.00000000000E+00 -0.18250000000E+03  0.18250000000E+03  0.00000000000E+00 0. -1.
        -11    1    1    2    0    0  0.80853041145E+00  0.16623233891E+01  0.52541386543E+02  0.52573894095E+02  0.00000000000E+00 0.  1.
         11    1    1    2    0    0 -0.26249276793E+01  0.34729853056E+01 -0.18227744583E+03  0.18232942475E+03  0.00000000000E+00 0. -1.
        -15    1    1    2    0    0 -0.70330208940E+00  0.14277632374E+01  0.37710674817E+02  0.37786053854E+02  0.17770000000E+01 0.  1.
         15    1    1    2    0    0  0.25196993573E+01 -0.65630719321E+01  0.92025384466E+02  0.92310627303E+02  0.17770000000E+01 0.  1.
</event>
<event>
 6    1  0.1378789E-002  0.1825524E+03  0.7546771E-02  0.1068413E+00
        -11   -1    0    0    0    0  0.00000000000E+00  0.00000000000E+00  0.18250000000E+03  0.18250000000E+03  0.00000000000E+00 0.  1.
         11   -1    0    0    0    0 -0.00000000000E+00 -0.00000000000E+00 -0.18250000000E+03  0.18250000000E+03  0.00000000000E+00 0. -1.
        -11    1    1    2    0    0 -0.69337747452E+00 -0.59278840543E-01  0.50680707658E+01  0.51156258259E+01  0.00000000000E+00 0.  1.
         11    1    1    2    0    0  0.14553124236E+01  0.33264349537E+01 -0.18241145245E+03  0.18244758450E+03  0.00000000000E+00 0. -1.
        -15    1    1    2    0    0  0.37374747083E+00 -0.25882511197E+01  0.13353246193E+03  0.13356988751E+03  0.17770000000E+01 0.  1.
         15    1    1    2    0    0 -0.11356824199E+01 -0.67890499345E+00  0.43810919757E+02  0.43866902165E+02  0.17770000000E+01 0.  1.
</event>
<event>
 6    1  0.1378789E-002  0.1854678E+03  0.7546771E-02  0.1066117E+00
        -11   -1    0    0    0    0  0.00000000000E+00  0.00000000000E+00  0.18250000000E+03  0.18250000000E+03  0.00000000000E+00 0. -1.
         11   -1    0    0    0    0 -0.00000000000E+00 -0.00000000000E+00 -0.18250000000E+03  0.18250000000E+03  0.00000000000E+00 0. -1.
        -11    1    1    2    0    0  0.14308667098E+01 -0.15836513101E+01  0.12777019726E+03  0.12778802228E+03  0.00000000000E+00 0. -1.
         11    1    1    2    0    0  0.44216793790E+01  0.73121946993E+00 -0.17947625106E+03  0.17953219941E+03  0.00000000000E+00 0. -1.
        -15    1    1    2    0    0 -0.90512484140E+01 -0.87885209215E-02  0.52928983971E+02  0.53726718198E+02  0.17770000000E+01 0.  1.
         15    1    1    2    0    0  0.31987023252E+01  0.86122036108E+00 -0.12229301738E+01  0.39530601166E+01  0.17770000000E+01 0. -1.
</event>
<event>
 6    1  0.1378789E-002  0.1870896E+03  0.7546771E-02  0.1064859E+00
        -11   -1    0    0    0    0  0.00000000000E+00  0.00000000000E+00  0.18250000000E+03  0.18250000000E+03  0.00000000000E+00 0.  1.
         11   -1    0    0    0    0 -0.00000000000E+00 -0.00000000000E+00 -0.18250000000E+03  0.18250000000E+03  0.00000000000E+00 0.  1.
        -11    1    1    2    0    0  0.22679650843E+01 -0.25843727120E+01  0.17787719463E+03  0.17791042414E+03  0.00000000000E+00 0.  1.
         11    1    1    2    0    0  0.17849106997E+01 -0.12095477385E+01 -0.12663689325E+03  0.12665524720E+03  0.00000000000E+00 0.  1.
        -15    1    1    2    0    0 -0.58350179099E+01  0.98443566254E+00  0.24244505655E+01  0.66371859344E+01  0.17770000000E+01 0.  1.
         15    1    1    2    0    0  0.17821421259E+01  0.28094847879E+01 -0.53664751943E+02  0.53797142725E+02  0.17770000000E+01 0. -1.
</event>
<event>
 6    1  0.1378789E-002  0.1827365E+03  0.7546771E-02  0.1068267E+00
        -11   -1    0    0    0    0  0.00000000000E+00  0.00000000000E+00  0.18250000000E+03  0.18250000000E+03  0.00000000000E+00 0. -1.
         11   -1    0    0    0    0 -0.00000000000E+00 -0.00000000000E+00 -0.18250000000E+03  0.18250000000E+03  0.00000000000E+00 0.  1.
        -11    1    1    2    0    0 -0.26253529683E+01  0.24201003428E+01  0.18222856499E+03  0.18226354343E+03  0.00000000000E+00 0. -1.
         11    1    1    2    0    0 -0.91526313385E+00  0.36318945309E+00 -0.55583874938E+02  0.55592596326E+02  0.00000000000E+00 0.  1.
        -15    1    1    2    0    0 -0.11730488307E+01 -0.88733096874E+00 -0.96158622022E+02  0.96186286538E+02  0.17770000000E+01 0.  1.
         15    1    1    2    0    0  0.47136649329E+01 -0.18959588271E+01 -0.30486068031E+02  0.30957573709E+02  0.17770000000E+01 0. -1.
</event>
<event>
 6    1  0.1378789E-002  0.1849125E+03  0.7546771E-02  0.1066551E+00
        -11   -1    0    0    0    0  0.00000000000E+00  0.00000000000E+00  0.18250000000E+03  0.18250000000E+03  0.00000000000E+00 0.  1.
         11   -1    0    0    0    0 -0.00000000000E+00 -0.00000000000E+00 -0.18250000000E+03  0.18250000000E+03  0.00000000000E+00 0.  1.
        -11    1    1    2    0    0  0.45197683487E+01  0.19123622655E+01  0.18002065249E+03  0.18008753638E+03  0.00000000000E+00 0.  1.
         11    1    1    2    0    0 -0.26376734537E+01  0.11395451074E+01 -0.12803762321E+03  0.12806985922E+03  0.00000000000E+00 0.  1.
        -15    1    1    2    0    0 -0.58224604282E+01  0.45709265480E+00 -0.18181597622E+01  0.63697262935E+01  0.17770000000E+01 0. -1.
         15    1    1    2    0    0  0.39403655332E+01 -0.35090000277E+01 -0.50164869519E+02  0.50472878109E+02  0.17770000000E+01 0.  1.
</event>
<event>
 6    1  0.1378789E-002  0.1891531E+03  0.7546771E-02  0.1063279E+00
        -11   -1    0    0    0    0  0.00000000000E+00  0.00000000000E+00  0.18250000000E+03  0.18250000000E+03  0.00000000000E+00 0.  1.
         11   -1    0    0    0    0 -0.00000000000E+00 -0.00000000000E+00 -0.18250000000E+03  0.18250000000E+03  0.00000000000E+00 0. -1.
        -11    1    1    2    0    0  0.28334870745E+01  0.72858874375E+00  0.15544297824E+03  0.15547050838E+03  0.00000000000E+00 0.  1.
         11    1    1    2    0    0 -0.11112991290E+02 -0.15876587261E+02 -0.17477571440E+03  0.17584685082E+03  0.00000000000E+00 0. -1.
        -15    1    1    2    0    0  0.92260690808E+01  0.11960550924E+02  0.13056748480E+01  0.15265570572E+02  0.17770000000E+01 0.  1.
         15    1    1    2    0    0 -0.94656486524E+00  0.31874475934E+01  0.18027061316E+02  0.18417070231E+02  0.17770000000E+01 0. -1.
</event>
<event>
 6    1  0.1378789E-002  0.1826196E+03  0.7546771E-02  0.1068360E+00
        -11   -1    0    0    0    0  0.00000000000E+00  0.00000000000E+00  0.18250000000E+03  0.18250000000E+03  0.00000000000E+00 0.  1.
         11   -1    0    0    0    0 -0.00000000000E+00 -0.00000000000E+00 -0.18250000000E+03  0.18250000000E+03  0.00000000000E+00 0. -1.
        -11    1    1    2    0    0  0.17026767330E+01  0.54060084783E+00  0.37207099033E+02  0.37249960749E+02  0.00000000000E+00 0.  1.
         11    1    1    2    0    0 -0.17742440433E+01  0.49702057110E+01 -0.18230399022E+03  0.18238036006E+03  0.00000000000E+00 0. -1.
        -15    1    1    2    0    0 -0.22119982878E+01 -0.22527721176E+00  0.41204600799E+02  0.41302790974E+02  0.17770000000E+01 0.  1.
         15    1    1    2    0    0  0.22835655981E+01 -0.52855293471E+01  0.10389229039E+03  0.10406688822E+03  0.17770000000E+01 0. -1.
</event>
<event>
 6    1  0.1378789E-002  0.1847221E+03  0.7546771E-02  0.1066700E+00
        -11   -1    0    0    0    0  0.00000000000E+00  0.00000000000E+00  0.18250000000E+03  0.18250000000E+03  0.00000000000E+00 0.  1.
         11   -1    0    0    0    0 -0.00000000000E+00 -0.00000000000E+00 -0.18250000000E+03  0.18250000000E+03  0.00000000000E+00 0. -1.
        -11    1    1    2    0    0 -0.36735207146E+01  0.46376974771E+00  0.18023984474E+03  0.18027787293E+03  0.00000000000E+00 0.  1.
         11    1    1    2    0    0  0.19355058899E+01  0.12990797897E+01 -0.16992390944E+03  0.16993989758E+03  0.00000000000E+00 0. -1.
        -15    1    1    2    0    0  0.28269295500E+01  0.57924293550E-01  0.71008660254E+00  0.34142111662E+01  0.17770000000E+01 0. -1.
         15    1    1    2    0    0 -0.10889147253E+01 -0.18207738310E+01 -0.11026021905E+02  0.11368018326E+02  0.17770000000E+01 0.  1.
</event>
<event>
 6    1  0.1378789E-002  0.1888384E+03  0.7546771E-02  0.1063518E+00
        -11   -1    0    0    0    0  0.00000000000E+00  0.00000000000E+00  0.18250000000E+03  0.18250000000E+03  0.00000000000E+00 0. -1.
         11   -1    0    0    0    0 -0.00000000000E+00 -0.00000000000E+00 -0.18250000000E+03  0.18250000000E+03  0.00000000000E+00 0.  1.
        -11    1    1    2    0    0 -0.10800057648E+01 -0.30289521068E+01  0.16191297762E+03  0.16194490818E+03  0.00000000000E+00 0. -1.
         11    1    1    2    0    0 -0.95834672564E+00 -0.35731618619E+01 -0.17612273409E+03  0.17616158315E+03  0.00000000000E+00 0.  1.
        -15    1    1    2    0    0  0.71267899499E+01  0.10661239785E+02  0.22197788148E+01  0.13135384110E+02  0.17770000000E+01 0. -1.
         15    1    1    2    0    0 -0.50884374595E+01 -0.40591258161E+01  0.11989977659E+02  0.13758124561E+02  0.17770000000E+01 0.  1.
</event>
<event>
 6    1  0.1378789E-002  0.1825741E+03  0.7546771E-02  0.1068396E+00
        -11   -1    0    0    0    0  0.00000000000E+00  0.00000000000E+00  0.18250000000E+03  0.18250000000E+03  0.00000000000E+00 0. -1.
         11   -1    0    0    0    0 -0.00000000000E+00 -0.00000000000E+00 -0.18250000000E+03  0.18250000000E+03  0.00000000000E+00 0.  1.
        -11    1    1    2    0    0 -0.26380294499E+01  0.19347812790E+01  0.18239659483E+03  0.18242593122E+03  0.00000000000E+00 0. -1.
         11    1    1    2    0    0  0.36962265692E+00  0.90068510322E+00 -0.25676282874E+02  0.25694734029E+02  0.00000000000E+00 0.  1.
        -15    1    1    2    0    0  0.71187075555E+00 -0.13246902029E+01 -0.12827988512E+03  0.12830100630E+03  0.17770000000E+01 0.  1.
         15    1    1    2    0    0  0.15565360374E+01 -0.15107761793E+01 -0.28440426837E+02  0.28578328446E+02  0.17770000000E+01 0. -1.
</event>
<event>
 6    1  0.1378789E-002  0.1883700E+03  0.7546771E-02  0.1063876E+00
        -11   -1    0    0    0    0  0.00000000000E+00  0.00000000000E+00  0.18250000000E+03  0.18250000000E+03  0.00000000000E+00 0.  1.
         11   -1    0    0    0    0 -0.00000000000E+00 -0.00000000000E+00 -0.18250000000E+03  0.18250000000E+03  0.00000000000E+00 0. -1.
        -11    1    1    2    0    0 -0.14073969303E+01  0.46441328014E+01  0.17472178338E+03  0.17478915962E+03  0.00000000000E+00 0.  1.
         11    1    1    2    0    0  0.65261491250E+00 -0.40633001899E+01 -0.17658201548E+03  0.17662996491E+03  0.00000000000E+00 0. -1.
        -15    1    1    2    0    0 -0.16673446077E+01 -0.14391999940E+01 -0.51665266721E+01  0.58908455689E+01  0.17770000000E+01 0. -1.
         15    1    1    2    0    0  0.24221266255E+01  0.85836738248E+00  0.70267587732E+01  0.76900298965E+01  0.17770000000E+01 0.  1.
</event>
<event>
 6    1  0.1378789E-002  0.2161431E+03  0.7546771E-02  0.1044440E+00
        -11   -1    0    0    0    0  0.00000000000E+00  0.00000000000E+00  0.18250000000E+03  0.18250000000E+03  0.00000000000E+00 0. -1.
         11   -1    0    0    0    0 -0.00000000000E+00 -0.00000000000E+00 -0.18250000000E+03  0.18250000000E+03  0.00000000000E+00 0.  1.
        -11    1    1    2    0    0 -0.43071941152E+01 -0.76634503268E+01  0.11862614141E+03  0.11895142629E+03  0.00000000000E+00 0. -1.
         11    1    1    2    0    0  0.14184242260E+02  0.80314520918E+01 -0.14796171343E+03  0.14885686277E+03  0.00000000000E+00 0.  1.
        -15    1    1    2    0    0 -0.14772259435E+02  0.93471673650E+01 -0.31120801928E+02  0.35738651740E+02  0.17770000000E+01 0.  1.
         15    1    1    2    0    0  0.48952112902E+01 -0.97151691300E+01  0.60456373953E+02  0.61453059203E+02  0.17770000000E+01 0. -1.
</event>
<event>
 6    1  0.1378789E-002  0.1891383E+03  0.7546771E-02  0.1063290E+00
        -11   -1    0    0    0    0  0.00000000000E+00  0.00000000000E+00  0.18250000000E+03  0.18250000000E+03  0.00000000000E+00 0.  1.
         11   -1    0    0    0    0 -0.00000000000E+00 -0.00000000000E+00 -0.18250000000E+03  0.18250000000E+03  0.00000000000E+00 0. -1.
        -11    1    1    2    0    0 -0.26844884553E+01 -0.39273632842E+01  0.13904092783E+03  0.13912228532E+03  0.00000000000E+00 0.  1.
         11    1    1    2    0    0  0.16876996641E+01  0.37188927361E+01 -0.17581428026E+03  0.17586170600E+03  0.00000000000E+00 0. -1.
        -15    1    1    2    0    0 -0.52292769183E+01 -0.10622132980E+02  0.92056094835E+00  0.12007506302E+02  0.17770000000E+01 0. -1.
         15    1    1    2    0    0  0.62260657095E+01  0.10830603528E+02  0.35852791480E+02  0.38008502377E+02  0.17770000000E+01 0. -1.
</event>
<event>
 6    1  0.1378789E-002  0.1848614E+03  0.7546771E-02  0.1066590E+00
        -11   -1    0    0    0    0  0.00000000000E+00  0.00000000000E+00  0.18250000000E+03  0.18250000000E+03  0.00000000000E+00 0.  1.
         11   -1    0    0    0    0 -0.00000000000E+00 -0.00000000000E+00 -0.18250000000E+03  0.18250000000E+03  0.00000000000E+00 0.  1.
        -11    1    1    2    0    0  0.21908009937E+01 -0.88668534555E+00  0.13789273544E+03  0.13791298818E+03  0.00000000000E+00 0.  1.
         11    1    1    2    0    0  0.15184249846E+00 -0.29683499430E+01 -0.18011403606E+03  0.18013855818E+03  0.00000000000E+00 0.  1.
        -15    1    1    2    0    0  0.25996945971E+01 -0.25239789962E+01  0.36900608848E+02  0.37120635021E+02  0.17770000000E+01 0.  1.
         15    1    1    2    0    0 -0.49423380892E+01  0.63790142847E+01  0.53206917640E+01  0.98278186227E+01  0.17770000000E+01 0. -1.
</event>
<event>
 6    1  0.1378789E-002  0.1834859E+03  0.7546771E-02  0.1067673E+00
        -11   -1    0    0    0    0  0.00000000000E+00  0.00000000000E+00  0.18250000000E+03  0.18250000000E+03  0.00000000000E+00 0. -1.
         11   -1    0    0    0    0 -0.00000000000E+00 -0.00000000000E+00 -0.18250000000E+03  0.18250000000E+03  0.00000000000E+00 0. -1.
        -11    1    1    2    0    0  0.94505696862E+01 -0.51814317271E+01  0.12666100844E+03  0.12711873018E+03  0.00000000000E+00 0. -1.
         11    1    1    2    0    0 -0.54996185313E+01 -0.21749264284E+01 -0.18141774382E+03  0.18151411483E+03  0.00000000000E+00 0. -1.
        -15    1    1    2    0    0  0.96881463467E+00  0.59322273087E+01  0.15214917932E+02  0.16455436163E+02  0.17770000000E+01 0. -1.
         15    1    1    2    0    0 -0.49197657895E+01  0.14241308467E+01  0.39541817446E+02  0.39911718830E+02  0.17770000000E+01 0.  1.
</event>
<event>
 6    1  0.1378789E-002  0.1864761E+03  0.7546771E-02  0.1065333E+00
        -11   -1    0    0    0    0  0.00000000000E+00  0.00000000000E+00  0.18250000000E+03  0.18250000000E+03  0.00000000000E+00 0. -1.
         11   -1    0    0    0    0 -0.00000000000E+00 -0.00000000000E+00 -0.18250000000E+03  0.18250000000E+03  0.00000000000E+00 0.  1.
        -11    1    1    2    0    0 -0.40046181666E+01  0.60758939319E+00  0.17847796283E+03  0.17852391814E+03  0.00000000000E+00 0. -1.
         11    1    1    2    0    0 -0.23762134643E+01 -0.15376425366E+01 -0.15183334186E+03  0.15185971959E+03  0.00000000000E+00 0.  1.
        -15    1    1    2    0    0 -0.36556474625E+00 -0.37298156130E+01  0.21166026556E+01  0.46564898682E+01  0.17770000000E+01 0. -1.
         15    1    1    2    0    0  0.67463963772E+01  0.46598687564E+01 -0.28761223627E+02  0.29959872403E+02  0.17770000000E+01 0.  1.
</event>
<event>
 6    1  0.1378789E-002  0.1929713E+03  0.7546771E-02  0.1060412E+00
        -11   -1    0    0    0    0  0.00000000000E+00  0.00000000000E+00  0.18250000000E+03  0.18250000000E+03  0.00000000000E+00 0.  1.
         11   -1    0    0    0    0 -0.00000000000E+00 -0.00000000000E+00 -0.18250000000E+03  0.18250000000E+03  0.00000000000E+00 0. -1.
        -11    1    1    2    0    0  0.35058512338E+01  0.29184247286E+01  0.17196825086E+03  0.17202874033E+03  0.00000000000E+00 0.  1.
         11    1    1    2    0    0 -0.91063708925E+00 -0.41221221563E+01 -0.15887377232E+03  0.15892984831E+03  0.00000000000E+00 0. -1.
        -15    1    1    2    0    0  0.81266103480E+00  0.28167145188E+01 -0.23021241289E+02  0.23275084922E+02  0.17770000000E+01 0.  1.
         15    1    1    2    0    0 -0.34078751794E+01 -0.16130170911E+01  0.99267627541E+01  0.10766326446E+02  0.17770000000E+01 0.  1.
</event>
<event>
 6    1  0.1378789E-002  0.1827340E+03  0.7546771E-02  0.1068269E+00
        -11   -1    0    0    0    0  0.00000000000E+00  0.00000000000E+00  0.18250000000E+03  0.18250000000E+03  0.00000000000E+00 0. -1.
         11   -1    0    0    0    0 -0.00000000000E+00 -0.00000000000E+00 -0.18250000000E+03  0.18250000000E+03  0.00000000000E+00 0. -1.
        -11    1    1    2    0    0  0.23355874614E+01  0.77071004036E+00  0.18224944291E+03  0.18226603744E+03  0.00000000000E+00 0. -1.
         11    1    1    2    0    0 -0.17060614209E+01 -0.19981288281E+00 -0.71254947408E+02  0.71275648723E+02  0.00000000000E+00 0. -1.
        -15    1    1    2    0    0  0.10046114478E+01 -0.17695489754E+01 -0.83028027263E+01  0.87312547695E+01  0.17770000000E+01 0. -1.
         15    1    1    2    0    0 -0.16341374883E+01  0.11986518178E+01 -0.10269169277E+03  0.10272705907E+03  0.17770000000E+01 0. -1.
</event>
<event>
 6    1  0.1378789E-002  0.1904173E+03  0.7546771E-02  0.1062322E+00
        -11   -1    0    0    0    0  0.00000000000E+00  0.00000000000E+00  0.18250000000E+03  0.18250000000E+03  0.00000000000E+00 0. -1.
         11   -1    0    0    0    0 -0.00000000000E+00 -0.00000000000E+00 -0.18250000000E+03  0.18250000000E+03  0.00000000000E+00 0.  1.
        -11    1    1    2    0    0 -0.13492361131E+02 -0.79986766072E+01  0.17387667626E+03  0.17458270585E+03  0.00000000000E+00 0. -1.
         11    1    1    2    0    0  0.15741453289E+01 -0.40677083795E+01 -0.15078423752E+03  0.15084730846E+03  0.00000000000E+00 0.  1.
        -15    1    1    2    0    0 -0.84962970819E+01  0.13258011682E+01 -0.84725647739E+01  0.12201921803E+02  0.17770000000E+01 0.  1.
         15    1    1    2    0    0  0.20414512884E+02  0.10740583819E+02 -0.14619873965E+02  0.27368063885E+02  0.17770000000E+01 0. -1.
</event>
<event>
 6    1  0.1378789E-002  0.1832130E+03  0.7546771E-02  0.1067889E+00
        -11   -1    0    0    0    0  0.00000000000E+00  0.00000000000E+00  0.18250000000E+03  0.18250000000E+03  0.00000000000E+00 0.  1.
         11   -1    0    0    0    0 -0.00000000000E+00 -0.00000000000E+00 -0.18250000000E+03  0.18250000000E+03  0.00000000000E+00 0.  1.
        -11    1    1    2    0    0  0.12016743547E+01 -0.19059767553E+01  0.16565999380E+03  0.16567531595E+03  0.00000000000E+00 0.  1.
         11    1    1    2    0    0 -0.36758315375E+01 -0.18517950837E+01 -0.18174037581E+03  0.18178697721E+03  0.00000000000E+00 0.  1.
        -15    1    1    2    0    0 -0.59324772126E+00  0.27093265944E+01  0.80160060097E+01  0.86663991831E+01  0.17770000000E+01 0.  1.
         15    1    1    2    0    0  0.30674049040E+01  0.10484452446E+01  0.80643759987E+01  0.88713076559E+01  0.17770000000E+01 0. -1.
</event>
<event>
 6    1  0.1378789E-002  0.1698898E+03  0.7546771E-02  0.1078960E+00
        -11   -1    0    0    0    0  0.00000000000E+00  0.00000000000E+00  0.18250000000E+03  0.18250000000E+03  0.00000000000E+00 0. -1.
         11   -1    0    0    0    0 -0.00000000000E+00 -0.00000000000E+00 -0.18250000000E+03  0.18250000000E+03  0.00000000000E+00 0. -1.
        -11    1    1    2    0    0  0.19584798185E+01 -0.63703592133E+01  0.17522438845E+03  0.17535108619E+03  0.00000000000E+00 0. -1.
         11    1    1    2    0    0  0.10189453226E+02 -0.44053943626E+01 -0.16460810277E+03  0.16498199887E+03  0.00000000000E+00 0. -1.
        -15    1    1    2    0    0 -0.52200072998E+01 -0.32864691189E+01 -0.21999221036E+01  0.67857749551E+01  0.17770000000E+01 0.  1.
         15    1    1    2    0    0 -0.69279257443E+01  0.14062222695E+02 -0.84163635785E+01  0.17881139984E+02  0.17770000000E+01 0. -1.
</event>
<event>
 6    1  0.1378789E-002  0.1849676E+03  0.7546771E-02  0.1066507E+00
        -11   -1    0    0    0    0  0.00000000000E+00  0.00000000000E+00  0.18250000000E+03  0.18250000000E+03  0.00000000000E+00 0.  1.
         11   -1    0    0    0    0 -0.00000000000E+00 -0.00000000000E+00 -0.18250000000E+03  0.18250000000E+03  0.00000000000E+00 0.  1.
        -11    1    1    2    0    0 -0.42122216611E+01  0.51848740870E+00  0.17998235487E+03  0.18003238516E+03  0.00000000000E+00 0.  1.
         11    1    1    2    0    0 -0.23626346550E+01  0.21412500418E-01 -0.17312926416E+03  0.17314538575E+03  0.00000000000E+00 0.  1.
        -15    1    1    2    0    0  0.91083960739E+00  0.11079786906E+01 -0.48218829240E+01  0.53353096913E+01  0.17770000000E+01 0.  1.
         15    1    1    2    0    0  0.56640167087E+01 -0.16478785997E+01 -0.20312077927E+01  0.64869193962E+01  0.17770000000E+01 0.  1.
</event>
<event>
 6    1  0.1378789E-002  0.1862397E+03  0.7546771E-02  0.1065516E+00
        -11   -1    0    0    0    0  0.00000000000E+00  0.00000000000E+00  0.18250000000E+03  0.18250000000E+03  0.00000000000E+00 0. -1.
         11   -1    0    0    0    0 -0.00000000000E+00 -0.00000000000E+00 -0.18250000000E+03  0.18250000000E+03  0.00000000000E+00 0. -1.
        -11    1    1    2    0    0  0.30187872355E+01  0.52448574278E+01  0.17865785245E+03  0.17876031396E+03  0.00000000000E+00 0. -1.
         11    1    1    2    0    0  0.30238769268E+01  0.34686087358E+00 -0.17208971321E+03  0.17211662771E+03  0.00000000000E+00 0. -1.
        -15    1    1    2    0    0 -0.70590681200E+01 -0.45384103073E+01 -0.17099248375E+01  0.87469527717E+01  0.17770000000E+01 0.  1.
         15    1    1    2    0    0  0.10164039578E+01 -0.10533079941E+01 -0.48582144052E+01  0.53761055554E+01  0.17770000000E+01 0.  1.
</event>
<event>
 6    1  0.1378789E-002  0.1826237E+03  0.7546771E-02  0.1068356E+00
        -11   -1    0    0    0    0  0.00000000000E+00  0.00000000000E+00  0.18250000000E+03  0.18250000000E+03  0.00000000000E+00 0.  1.
         11   -1    0    0    0    0 -0.00000000000E+00 -0.00000000000E+00 -0.18250000000E+03  0.18250000000E+03  0.00000000000E+00 0. -1.
        -11    1    1    2    0    0 -0.19780708335E+01  0.15545102565E+01  0.13555878162E+03  0.13558212471E+03  0.00000000000E+00 0.  1.
         11    1    1    2    0    0  0.41554559942E+00 -0.25193041587E+01 -0.18235837571E+03  0.18237625055E+03  0.00000000000E+00 0. -1.
        -15    1    1    2    0    0  0.88443198448E+00  0.62141094413E+00  0.36692054676E+02  0.36750958856E+02  0.17770000000E+01 0.  1.
         15    1    1    2    0    0  0.67809324959E+00  0.34338295810E+00  0.10107539413E+02  0.10290665882E+02  0.17770000000E+01 0. -1.
</event>
<event>
 6    1  0.1378789E-002  0.1858945E+03  0.7546771E-02  0.1065784E+00
        -11   -1    0    0    0    0  0.00000000000E+00  0.00000000000E+00  0.18250000000E+03  0.18250000000E+03  0.00000000000E+00 0.  1.
         11   -1    0    0    0    0 -0.00000000000E+00 -0.00000000000E+00 -0.18250000000E+03  0.18250000000E+03  0.00000000000E+00 0.  1.
        -11    1    1    2    0    0  0.59784160704E+00  0.10955663097E+01  0.85775273757E+02  0.85784353283E+02  0.00000000000E+00 0.  1.
         11    1    1    2    0    0 -0.10364696934E+02  0.17770359605E+02 -0.17792016259E+03  0.17910554676E+03  0.00000000000E+00 0.  1.
        -15    1    1    2    0    0 -0.13787919624E+01  0.11334423453E+01  0.62787220890E+02  0.62837716340E+02  0.17770000000E+01 0. -1.
         15    1    1    2    0    0  0.11145647289E+02 -0.19999368260E+02  0.29357667946E+02  0.37272383617E+02  0.17770000000E+01 0.  1.
</event>
<event>
 6    1  0.1378789E-002  0.1854432E+03  0.7546771E-02  0.1066136E+00
        -11   -1    0    0    0    0  0.00000000000E+00  0.00000000000E+00  0.18250000000E+03  0.18250000000E+03  0.00000000000E+00 0.  1.
         11   -1    0    0    0    0 -0.00000000000E+00 -0.00000000000E+00 -0.18250000000E+03  0.18250000000E+03  0.00000000000E+00 0. -1.
        -11    1    1    2    0    0 -0.27914893850E+01 -0.28857294775E+00  0.14751855769E+03  0.14754524917E+03  0.00000000000E+00 0.  1.
         11    1    1    2    0    0 -0.41842787381E+01 -0.20867389301E+00 -0.17950787832E+03  0.17955676014E+03  0.00000000000E+00 0. -1.
        -15    1    1    2    0    0  0.32829518560E+01 -0.40981579000E+01  0.31201929481E+02  0.31690547541E+02  0.17770000000E+01 0.  1.
         15    1    1    2    0    0  0.36928162671E+01  0.45954047408E+01  0.78739114167E+00  0.62074431551E+01  0.17770000000E+01 0. -1.
</event>
<event>
 6    1  0.1378789E-002  0.1857739E+03  0.7546771E-02  0.1065878E+00
        -11   -1    0    0    0    0  0.00000000000E+00  0.00000000000E+00  0.18250000000E+03  0.18250000000E+03  0.00000000000E+00 0.  1.
         11   -1    0    0    0    0 -0.00000000000E+00 -0.00000000000E+00 -0.18250000000E+03  0.18250000000E+03  0.00000000000E+00 0.  1.
        -11    1    1    2    0    0 -0.45293876404E+01 -0.26436720064E+01  0.16300107465E+03  0.16308542145E+03  0.00000000000E+00 0.  1.
         11    1    1    2    0    0  0.54881187773E+01  0.55562815987E+01 -0.17905589734E+03  0.17922613115E+03  0.00000000000E+00 0.  1.
        -15    1    1    2    0    0 -0.39302230675E+01 -0.53513432346E+01  0.87470771593E+00  0.69286629563E+01  0.17770000000E+01 0.  1.
         15    1    1    2    0    0  0.29714919305E+01  0.24387336423E+01  0.15180114979E+02  0.15759784448E+02  0.17770000000E+01 0.  1.
</event>
<event>
 6    1  0.1378789E-002  0.1833614E+03  0.7546771E-02  0.1067771E+00
        -11   -1    0    0    0    0  0.00000000000E+00  0.00000000000E+00  0.18250000000E+03  0.18250000000E+03  0.00000000000E+00 0. -1.
         11   -1    0    0    0    0 -0.00000000000E+00 -0.00000000000E+00 -0.18250000000E+03  0.18250000000E+03  0.00000000000E+00 0. -1.
        -11    1    1    2    0    0  0.58234366508E+01  0.94097504333E+00  0.17040537775E+03  0.17050745032E+03  0.00000000000E+00 0. -1.
         11    1    1    2    0    0 -0.42347010681E+01 -0.20921088702E-01 -0.18158918135E+03  0.18163855294E+03  0.00000000000E+00 0. -1.
        -15    1    1    2    0    0 -0.19779969514E+01 -0.53105434310E-01  0.10327519920E+02  0.10664459144E+02  0.17770000000E+01 0.  1.
         15    1    1    2    0    0  0.38926136877E+00 -0.86694852032E+00  0.85628367995E+00  0.21895375975E+01  0.17770000000E+01 0.  1.
</event>
<event>
 6    1  0.1378789E-002  0.1827986E+03  0.7546771E-02  0.1068217E+00
        -11   -1    0    0    0    0  0.00000000000E+00  0.00000000000E+00  0.18250000000E+03  0.18250000000E+03  0.00000000000E+00 0.  1.
         11   -1    0    0    0    0 -0.00000000000E+00 -0.00000000000E+00 -0.18250000000E+03  0.18250000000E+03  0.00000000000E+00 0.  1.
        -11    1    1    2    0    0 -0.40339208843E+01  0.43685575716E+01  0.18210437901E+03  0.18220143157E+03  0.00000000000E+00 0.  1.
         11    1    1    2    0    0 -0.17976683540E+01 -0.31660259370E+01 -0.12056218391E+03  0.12061714439E+03  0.00000000000E+00 0.  1.
        -15    1    1    2    0    0  0.15916853043E+01 -0.24211874140E+01 -0.14209273044E+02  0.14610160165E+02  0.17770000000E+01 0. -1.
         15    1    1    2    0    0  0.42399039340E+01  0.12186557794E+01 -0.47332922051E+02  0.47571263870E+02  0.17770000000E+01 0.  1.
</event>
<event>
 6    1  0.1378789E-002  0.1825713E+03  0.7546771E-02  0.1068398E+00
        -11   -1    0    0    0    0  0.00000000000E+00  0.00000000000E+00  0.18250000000E+03  0.18250000000E+03  0.00000000000E+00 0. -1.
         11   -1    0    0    0    0 -0.00000000000E+00 -0.00000000000E+00 -0.18250000000E+03  0.18250000000E+03  0.00000000000E+00 0. -1.
        -11    1    1    2    0    0  0.21576706606E+01  0.41417815033E+01  0.18236889622E+03  0.18242868252E+03  0.00000000000E+00 0. -1.
         11    1    1    2    0    0 -0.43997117521E+00 -0.28723285365E+00 -0.26882107734E+02  0.26887242208E+02  0.00000000000E+00 0. -1.
        -15    1    1    2    0    0 -0.39658701688E+00 -0.46123955534E+01 -0.75275942408E+02  0.75439092706E+02  0.17770000000E+01 0.  1.
         15    1    1    2    0    0 -0.13211124685E+01  0.75784690370E+00 -0.80210846077E+02  0.80244982569E+02  0.17770000000E+01 0. -1.
</event>
<event>
 6    1  0.1378789E-002  0.1943933E+03  0.7546771E-02  0.1059363E+00
        -11   -1    0    0    0    0  0.00000000000E+00  0.00000000000E+00  0.18250000000E+03  0.18250000000E+03  0.00000000000E+00 0.  1.
         11   -1    0    0    0    0 -0.00000000000E+00 -0.00000000000E+00 -0.18250000000E+03  0.18250000000E+03  0.00000000000E+00 0.  1.
        -11    1    1    2    0    0  0.23713827224E+01 -0.72798743435E+01  0.17043485648E+03  0.17060674174E+03  0.00000000000E+00 0.  1.
         11    1    1    2    0    0 -0.12388632532E+01 -0.17189648207E+02 -0.13110493061E+03  0.13223283109E+03  0.00000000000E+00 0.  1.
        -15    1    1    2    0    0  0.17770150678E+01  0.22975665103E+02 -0.47697485125E+02  0.53002328116E+02  0.17770000000E+01 0.  1.
         15    1    1    2    0    0 -0.29095345370E+01  0.14938574476E+01  0.83675592572E+01  0.91580990505E+01  0.17770000000E+01 0. -1.
</event>
<event>
 6    1  0.1378789E-002  0.1838448E+03  0.7546771E-02  0.1067389E+00
        -11   -1    0    0    0    0  0.00000000000E+00  0.00000000000E+00  0.18250000000E+03  0.18250000000E+03  0.00000000000E+00 0. -1.
         11   -1    0    0    0    0 -0.00000000000E+00 -0.00000000000E+00 -0.18250000000E+03  0.18250000000E+03  0.00000000000E+00 0. -1.
        -11    1    1    2    0    0  0.42125057017E+01 -0.27697791107E+00  0.18110601791E+03  0.18115521423E+03  0.00000000000E+00 0. -1.
         11    1    1    2    0    0  0.27625967957E+01  0.20503883958E+01 -0.16788569689E+03  0.16792094346E+03  0.00000000000E+00 0. -1.
        -15    1    1    2    0    0 -0.10641959360E+01 -0.17333655767E+01 -0.42233053037E+01  0.50130934463E+01  0.17770000000E+01 0. -1.
         15    1    1    2    0    0 -0.59109065614E+01 -0.40044908034E-01 -0.89970157147E+01  0.10910748863E+02  0.17770000000E+01 0.  1.
</event>
<event>
 6    1  0.1378789E-002  0.1841628E+03  0.7546771E-02  0.1067139E+00
        -11   -1    0    0    0    0  0.00000000000E+00  0.00000000000E+00  0.18250000000E+03  0.18250000000E+03  0.00000000000E+00 0. -1.
         11   -1    0    0    0    0 -0.00000000000E+00 -0.00000000000E+00 -0.18250000000E+03  0.18250000000E+03  0.00000000000E+00 0. -1.
        -11    1    1    2    0    0  0.39526815588E+01  0.11441247595E+00  0.14335396157E+03  0.14340849027E+03  0.00000000000E+00 0. -1.
         11    1    1    2    0    0  0.81454542350E+00 -0.39329779403E+01 -0.18079261927E+03  0.18083722787E+03  0.00000000000E+00 0. -1.
        -15    1    1    2    0    0 -0.57142424613E+01  0.19399136351E+01  0.37475822900E+02  0.38000142932E+02  0.17770000000E+01 0. -1.
         15    1    1    2    0    0  0.94701547899E+00  0.18786518293E+01 -0.37165199196E-01  0.27541389335E+01  0.17770000000E+01 0.  1.
</event>
<event>
 6    1  0.1378789E-002  0.1832406E+03  0.7546771E-02  0.1067867E+00
        -11   -1    0    0    0    0  0.00000000000E+00  0.00000000000E+00  0.18250000000E+03  0.18250000000E+03  0.00000000000E+00 0.  1.
         11   -1    0    0    0    0 -0.00000000000E+00 -0.00000000000E+00 -0.18250000000E+03  0.18250000000E+03  0.00000000000E+00 0.  1.
        -11    1    1    2    0    0 -0.23331837230E+01 -0.74094814077E+00  0.11512774435E+03  0.11515376793E+03  0.00000000000E+00 0.  1.
         11    1    1    2    0    0 -0.21797118495E+01 -0.52838247152E+01 -0.18166954531E+03  0.18175943893E+03  0.00000000000E+00 0.  1.
        -15    1    1    2    0    0 -0.38870703124E+01  0.21148544104E+01  0.17074343996E+02  0.17727743136E+02  0.17770000000E+01 0. -1.
         15    1    1    2    0    0  0.83999658848E+01  0.39099184456E+01  0.49467456968E+02  0.50359050001E+02  0.17770000000E+01 0.  1.
</event>
<event>
 6    1  0.1378789E-002  0.1853244E+03  0.7546771E-02  0.1066229E+00
        -11   -1    0    0    0    0  0.00000000000E+00  0.00000000000E+00  0.18250000000E+03  0.18250000000E+03  0.00000000000E+00 0.  1.
         11   -1    0    0    0    0 -0.00000000000E+00 -0.00000000000E+00 -0.18250000000E+03  0.18250000000E+03  0.00000000000E+00 0.  1.
        -11    1    1    2    0    0  0.92227919085E+00 -0.55478425865E+01  0.14220210725E+03  0.14231327578E+03  0.00000000000E+00 0.  1.
         11    1    1    2    0    0  0.84256595534E+00  0.10859417336E+02 -0.17934519525E+03  0.17967564087E+03  0.00000000000E+00 0.  1.
        -15    1    1    2    0    0 -0.78862674229E+01  0.15908038763E+01  0.30267053490E+02  0.31368393756E+02  0.17770000000E+01 0.  1.
         15    1    1    2    0    0  0.61214222767E+01 -0.69023786262E+01  0.68760345091E+01  0.11642689593E+02  0.17770000000E+01 0. -1.
</event>
<event>
 6    1  0.1378789E-002  0.1840600E+03  0.7546771E-02  0.1067220E+00
        -11   -1    0    0    0    0  0.00000000000E+00  0.00000000000E+00  0.18250000000E+03  0.18250000000E+03  0.00000000000E+00 0. -1.
         11   -1    0    0    0    0 -0.00000000000E+00 -0.00000000000E+00 -0.18250000000E+03  0.18250000000E+03  0.00000000000E+00 0.  1.
        -11    1    1    2    0    0  0.68707876011E+01 -0.32034868986E+00  0.11078181083E+03  0.11099513483E+03  0.00000000000E+00 0. -1.
         11    1    1    2    0    0  0.41422372847E+01  0.58754631850E+01 -0.18079717617E+03  0.18094004009E+03  0.00000000000E+00 0.  1.
        -15    1    1    2    0    0 -0.54204645028E+01  0.57578891212E+01  0.29416113548E+02  0.30512295683E+02  0.17770000000E+01 0.  1.
         15    1    1    2    0    0 -0.55925603830E+01 -0.11313003616E+02  0.40599251796E+02  0.42552529394E+02  0.17770000000E+01 0. -1.
</event>
<event>
 6    1  0.1378789E-002  0.1860873E+03  0.7546771E-02  0.1065635E+00
        -11   -1    0    0    0    0  0.00000000000E+00  0.00000000000E+00  0.18250000000E+03  0.18250000000E+03  0.00000000000E+00 0.  1.
         11   -1    0    0    0    0 -0.00000000000E+00 -0.00000000000E+00 -0.18250000000E+03  0.18250000000E+03  0.00000000000E+00 0. -1.
        -11    1    1    2    0    0 -0.30933882765E+01  0.18410891598E+01  0.17423779196E+03  0.17427497470E+03  0.00000000000E+00 0.  1.
         11    1    1    2    0    0  0.13729857464E+01  0.38409553067E+01 -0.17886617489E+03  0.17891267855E+03  0.00000000000E+00 0. -1.
        -15    1    1    2    0    0 -0.20132482678E+01 -0.66535561271E+00 -0.12608994687E+01  0.30403064236E+01  0.17770000000E+01 0. -1.
         15    1    1    2    0    0  0.37336507979E+01 -0.50166888538E+01  0.58892823939E+01  0.87720403243E+01  0.17770000000E+01 0.  1.
</event>
<event>
 6    1  0.1378789E-002  0.1831210E+03  0.7546771E-02  0.1067962E+00
        -11   -1    0    0    0    0  0.00000000000E+00  0.00000000000E+00  0.18250000000E+03  0.18250000000E+03  0.00000000000E+00 0. -1.
         11   -1    0    0    0    0 -0.00000000000E+00 -0.00000000000E+00 -0.18250000000E+03  0.18250000000E+03  0.00000000000E+00 0. -1.
        -11    1    1    2    0    0  0.19990318842E+01 -0.41414727317E+01  0.18182088770E+03  0.18187903433E+03  0.00000000000E+00 0. -1.
         11    1    1    2    0    0 -0.50038076235E+01 -0.76710948236E+00 -0.13152718132E+03  0.13162456448E+03  0.00000000000E+00 0. -1.
        -15    1    1    2    0    0  0.15629873171E+01  0.41762446565E+01 -0.96132845189E+01  0.10745088042E+02  0.17770000000E+01 0. -1.
         15    1    1    2    0    0  0.14417884221E+01  0.73233755753E+00 -0.40680421855E+02  0.40751313150E+02  0.17770000000E+01 0.  1.
</event>
<event>
 6    1  0.1378789E-002  0.1942874E+03  0.7546771E-02  0.1059441E+00
        -11   -1    0    0    0    0  0.00000000000E+00  0.00000000000E+00  0.18250000000E+03  0.18250000000E+03  0.00000000000E+00 0. -1.
         11   -1    0    0    0    0 -0.00000000000E+00 -0.00000000000E+00 -0.18250000000E+03  0.18250000000E+03  0.00000000000E+00 0.  1.
        -11    1    1    2    0    0 -0.67340964931E+01 -0.51785520915E+01  0.15626863013E+03  0.15649936173E+03  0.00000000000E+00 0. -1.
         11    1    1    2    0    0 -0.37724053628E+01 -0.11087048939E+02 -0.17031045137E+03  0.17071263439E+03  0.00000000000E+00 0.  1.
        -15    1    1    2    0    0  0.13393116136E+02  0.11004507529E+02  0.21743407460E+02  0.27864103121E+02  0.17770000000E+01 0.  1.
         15    1    1    2    0    0 -0.28866142798E+01  0.52610935010E+01 -0.77015862256E+01  0.99239007560E+01  0.17770000000E+01 0. -1.
</event>
<event>
 6    1  0.1378789E-002  0.2031582E+03  0.7546771E-02  0.1053105E+00
        -11   -1    0    0    0    0  0.00000000000E+00  0.00000000000E+00  0.18250000000E+03  0.18250000000E+03  0.00000000000E+00 0. -1.
         11   -1    0    0    0    0 -0.00000000000E+00 -0.00000000000E+00 -0.18250000000E+03  0.18250000000E+03  0.00000000000E+00 0.  1.
        -11    1    1    2    0    0 -0.13968395461E+01  0.16633410468E+02  0.16097874631E+03  0.16184183102E+03  0.00000000000E+00 0. -1.
         11    1    1    2    0    0  0.24152043289E+01  0.36329886997E+00 -0.12968702081E+03  0.12971001721E+03  0.00000000000E+00 0.  1.
        -15    1    1    2    0    0  0.40795701774E+01 -0.21229365538E+02  0.15178674816E+02  0.26474114756E+02  0.17770000000E+01 0. -1.
         15    1    1    2    0    0 -0.50979349602E+01  0.42326561997E+01 -0.46470400312E+02  0.46974037015E+02  0.17770000000E+01 0.  1.
</event>
<event>
 6    1  0.1378789E-002  0.1832358E+03  0.7546771E-02  0.1067871E+00
        -11   -1    0    0    0    0  0.00000000000E+00  0.00000000000E+00  0.18250000000E+03  0.18250000000E+03  0.00000000000E+00 0. -1.
         11   -1    0    0    0    0 -0.00000000000E+00 -0.00000000000E+00 -0.18250000000E+03  0.18250000000E+03  0.00000000000E+00 0. -1.
        -11    1    1    2    0    0 -0.39602701529E+00 -0.85491310240E+00  0.54194393246E+02  0.54202582716E+02  0.00000000000E+00 0. -1.
         11    1    1    2    0    0  0.22601103947E+00 -0.31280450854E+01 -0.18173715244E+03  0.18176421079E+03  0.00000000000E+00 0. -1.
        -15    1    1    2    0    0 -0.17306887636E+01 -0.27431874704E+01  0.11004970676E+03  0.11011183428E+03  0.17770000000E+01 0. -1.
         15    1    1    2    0    0  0.19007047394E+01  0.67261456582E+01  0.17493052438E+02  0.18921372216E+02  0.17770000000E+01 0.  1.
</event>
<event>
 6    1  0.1573991E-002  0.1853598E+03  0.7546771E-02  0.1066201E+00
        -11   -1    0    0    0    0  0.00000000000E+00  0.00000000000E+00  0.18250000000E+03  0.18250000000E+03  0.00000000000E+00 0.  1.
         11   -1    0    0    0    0 -0.00000000000E+00 -0.00000000000E+00 -0.18250000000E+03  0.18250000000E+03  0.00000000000E+00 0. -1.
        -11    1    1    2    0    0 -0.17206954060E+01  0.19902774698E+01  0.17962088488E+03  0.17964015219E+03  0.00000000000E+00 0.  1.
         11    1    1    2    0    0 -0.22119373470E+00  0.13190540492E+01 -0.69698734696E+02  0.69711566103E+02  0.00000000000E+00 0. -1.
        -15    1    1    2    0    0  0.99580925931E+00 -0.21267008777E+01  0.20904191015E+01  0.36113811380E+01  0.17770000000E+01 0.  1.
         15    1    1    2    0    0  0.94607988143E+00 -0.11826306413E+01 -0.11201256928E+03  0.11203690056E+03  0.17770000000E+01 0.  1.
</event>
<event>
 6    1  0.1378789E-002  0.1828339E+03  0.7546771E-02  0.1068189E+00
        -11   -1    0    0    0    0  0.00000000000E+00  0.00000000000E+00  0.18250000000E+03  0.18250000000E+03  0.00000000000E+00 0. -1.
         11   -1    0    0    0    0 -0.00000000000E+00 -0.00000000000E+00 -0.18250000000E+03  0.18250000000E+03  0.00000000000E+00 0. -1.
        -11    1    1    2    0    0  0.13265655391E+01  0.24658154685E+01  0.90026436199E+02  0.90069968562E+02  0.00000000000E+00 0. -1.
         11    1    1    2    0    0  0.46021091252E+01 -0.15903711921E+01 -0.18210106130E+03  0.18216614728E+03  0.00000000000E+00 0. -1.
        -15    1    1    2    0    0 -0.23385054509E+01  0.28026718095E+01  0.16434139612E+02  0.16928149656E+02  0.17770000000E+01 0. -1.
         15    1    1    2    0    0 -0.35901692135E+01 -0.36781160858E+01  0.75640485490E+02  0.75835734500E+02  0.17770000000E+01 0.  1.
</event>
<event>
 6    1  0.1378789E-002  0.1826005E+03  0.7546771E-02  0.1068375E+00
        -11   -1    0    0    0    0  0.00000000000E+00  0.00000000000E+00  0.18250000000E+03  0.18250000000E+03  0.00000000000E+00 0.  1.
         11   -1    0    0    0    0 -0.00000000000E+00 -0.00000000000E+00 -0.18250000000E+03  0.18250000000E+03  0.00000000000E+00 0. -1.
        -11    1    1    2    0    0 -0.34457682662E+01 -0.25181337374E+01  0.18234957239E+03  0.18239950895E+03  0.00000000000E+00 0.  1.
         11    1    1    2    0    0  0.96031281632E+00  0.19603599432E+01 -0.98118888724E+02  0.98143168566E+02  0.00000000000E+00 0. -1.
        -15    1    1    2    0    0  0.88534078992E+00 -0.26897080741E+00 -0.10874348486E+02  0.11057366666E+02  0.17770000000E+01 0. -1.
         15    1    1    2    0    0  0.16001146600E+01  0.82674460161E+00 -0.73356335179E+02  0.73399955814E+02  0.17770000000E+01 0.  1.
</event>
<event>
 6    1  0.1378789E-002  0.1758242E+03  0.7546771E-02  0.1073897E+00
        -11   -1    0    0    0    0  0.00000000000E+00  0.00000000000E+00  0.18250000000E+03  0.18250000000E+03  0.00000000000E+00 0. -1.
         11   -1    0    0    0    0 -0.00000000000E+00 -0.00000000000E+00 -0.18250000000E+03  0.18250000000E+03  0.00000000000E+00 0. -1.
        -11    1    1    2    0    0  0.61728359237E+01  0.58399910100E+01  0.17385758477E+03  0.17406512914E+03  0.00000000000E+00 0. -1.
         11    1    1    2    0    0 -0.30369560328E+01  0.32325186413E+01 -0.17767958306E+03  0.17773493330E+03  0.00000000000E+00 0. -1.
        -15    1    1    2    0    0 -0.16538547920E+01 -0.28882314847E+01  0.52296518565E+01  0.64485738208E+01  0.17770000000E+01 0. -1.
         15    1    1    2    0    0 -0.14820250989E+01 -0.61842781666E+01 -0.14076535736E+01  0.67513637451E+01  0.17770000000E+01 0.  1.
</event>
<event>
 6    1  0.1378789E-002  0.1850396E+03  0.7546771E-02  0.1066451E+00
        -11   -1    0    0    0    0  0.00000000000E+00  0.00000000000E+00  0.18250000000E+03  0.18250000000E+03  0.00000000000E+00 0. -1.
         11   -1    0    0    0    0 -0.00000000000E+00 -0.00000000000E+00 -0.18250000000E+03  0.18250000000E+03  0.00000000000E+00 0.  1.
        -11    1    1    2    0    0  0.11294274229E+01  0.25977897384E+01  0.11263310305E+03  0.11266871802E+03  0.00000000000E+00 0. -1.
         11    1    1    2    0    0  0.35098552908E+01  0.79282657655E+01 -0.17975140579E+03  0.17996039666E+03  0.00000000000E+00 0.  1.
        -15    1    1    2    0    0 -0.97671031051E+01 -0.10877946003E+02  0.19465707852E+02  0.24408963999E+02  0.17770000000E+01 0. -1.
         15    1    1    2    0    0  0.51278203913E+01  0.35189049872E+00  0.47652594884E+02  0.47961921324E+02  0.17770000000E+01 0.  1.
</event>
<event>
 6    1  0.1378789E-002  0.1868013E+03  0.7546771E-02  0.1065082E+00
        -11   -1    0    0    0    0  0.00000000000E+00  0.00000000000E+00  0.18250000000E+03  0.18250000000E+03  0.00000000000E+00 0. -1.
         11   -1    0    0    0    0 -0.00000000000E+00 -0.00000000000E+00 -0.18250000000E+03  0.18250000000E+03  0.00000000000E+00 0.  1.
        -11    1    1    2    0    0 -0.40690825258E+01 -0.47535167638E+01  0.17808881884E+03  0.17819871142E+03  0.00000000000E+00 0. -1.
         11    1    1    2    0    0 -0.54717499963E+00  0.40347970587E+01 -0.17333171007E+03  0.17337952792E+03  0.00000000000E+00 0.  1.
        -15    1    1    2    0    0  0.37511140420E+01  0.36545355917E+01 -0.72312568597E+01  0.91035867502E+01  0.17770000000E+01 0. -1.
         15    1    1    2    0    0  0.86514348338E+00 -0.29358158866E+01  0.24741480828E+01  0.43181739083E+01  0.17770000000E+01 0.  1.
</event>
<event>
 6    1  0.1378789E-002  0.1883735E+03  0.7546771E-02  0.1063873E+00
        -11   -1    0    0    0    0  0.00000000000E+00  0.00000000000E+00  0.18250000000E+03  0.18250000000E+03  0.00000000000E+00 0.  1.
         11   -1    0    0    0    0 -0.00000000000E+00 -0.00000000000E+00 -0.18250000000E+03  0.18250000000E+03  0.00000000000E+00 0.  1.
        -11    1    1    2    0    0 -0.10098887586E+01  0.51964641005E+01  0.16170534392E+03  0.16179196941E+03  0.00000000000E+00 0.  1.
         11    1    1    2    0    0  0.36417597833E+01  0.14572528179E+01 -0.17658293050E+03  0.17662649106E+03  0.00000000000E+00 0.  1.
        -15    1    1    2    0    0 -0.32411819478E+01 -0.84496662143E+01 -0.20564113573E+01  0.94492685549E+01  0.17770000000E+01 0.  1.
         15    1    1    2    0    0  0.60931092307E+00  0.17959492960E+01  0.16933997935E+02  0.17132270975E+02  0.17770000000E+01 0. -1.
</event>
<event>
 6    1  0.1378789E-002  0.1863594E+03  0.7546771E-02  0.1065424E+00
        -11   -1    0    0    0    0  0.00000000000E+00  0.00000000000E+00  0.18250000000E+03  0.18250000000E+03  0.00000000000E+00 0.  1.
         11   -1    0    0    0    0 -0.00000000000E+00 -0.00000000000E+00 -0.18250000000E+03  0.18250000000E+03  0.00000000000E+00 0. -1.
        -11    1    1    2    0    0 -0.35258097543E+01  0.32145139163E+01  0.17650012966E+03  0.17656460632E+03  0.00000000000E+00 0.  1.
         11    1    1    2    0    0  0.33431936931E+01 -0.33295768949E+01 -0.17857831012E+03  0.17864063331E+03  0.00000000000E+00 0. -1.
        -15    1    1    2    0    0  0.12944099724E+01  0.15945460616E+01 -0.30357717592E+01  0.40732927090E+01  0.17770000000E+01 0. -1.
         15    1    1    2    0    0 -0.11117939112E+01 -0.14794830830E+01  0.51139522130E+01  0.57214676553E+01  0.17770000000E+01 0.  1.
</event>
<event>
 6    1  0.1378789E-002  0.1828188E+03  0.7546771E-02  0.1068201E+00
        -11   -1    0    0    0    0  0.00000000000E+00  0.00000000000E+00  0.18250000000E+03  0.18250000000E+03  0.00000000000E+00 0.  1.
         11   -1    0    0    0    0 -0.00000000000E+00 -0.00000000000E+00 -0.18250000000E+03  0.18250000000E+03  0.00000000000E+00 0. -1.
        -11    1    1    2    0    0 -0.20512399729E+01  0.73963908491E+00  0.11377276426E+03  0.11379365772E+03  0.00000000000E+00 0.  1.
         11    1    1    2    0    0 -0.68347541940E+00 -0.63322335236E+01 -0.18206985285E+03  0.18218121647E+03  0.00000000000E+00 0. -1.
        -15    1    1    2    0    0 -0.12592829736E+01  0.13079492633E+01  0.39653579475E+02  0.39734879125E+02  0.17770000000E+01 0. -1.
         15    1    1    2    0    0  0.39939983659E+01  0.42846451753E+01  0.28643509113E+02  0.29290246679E+02  0.17770000000E+01 0.  1.
</event>
<event>
 6    1  0.1378789E-002  0.1826869E+03  0.7546771E-02  0.1068306E+00
        -11   -1    0    0    0    0  0.00000000000E+00  0.00000000000E+00  0.18250000000E+03  0.18250000000E+03  0.00000000000E+00 0.  1.
         11   -1    0    0    0    0 -0.00000000000E+00 -0.00000000000E+00 -0.18250000000E+03  0.18250000000E+03  0.00000000000E+00 0.  1.
        -11    1    1    2    0    0 -0.12035566551E+01  0.16958426934E+00  0.74284907851E+02  0.74294850709E+02  0.00000000000E+00 0.  1.
         11    1    1    2    0    0 -0.27993736423E+01  0.12352974356E+01 -0.18228738359E+03  0.18231306225E+03  0.00000000000E+00 0.  1.
        -15    1    1    2    0    0  0.46502336547E+01 -0.36045813091E+01  0.64147066998E+02  0.64440838083E+02  0.17770000000E+01 0. -1.
         15    1    1    2    0    0 -0.64730335731E+00  0.21996996042E+01  0.43855408739E+02  0.43951248955E+02  0.17770000000E+01 0.  1.
</event>
<event>
 6    1  0.1378789E-002  0.1828112E+03  0.7546771E-02  0.1068207E+00
        -11   -1    0    0    0    0  0.00000000000E+00  0.00000000000E+00  0.18250000000E+03  0.18250000000E+03  0.00000000000E+00 0.  1.
         11   -1    0    0    0    0 -0.00000000000E+00 -0.00000000000E+00 -0.18250000000E+03  0.18250000000E+03  0.00000000000E+00 0.  1.
        -11    1    1    2    0    0  0.13811645242E+01 -0.13421056713E+01  0.11770760003E+03  0.11772335354E+03  0.00000000000E+00 0.  1.
         11    1    1    2    0    0  0.14996942822E+01  0.35592964294E+01 -0.18214789677E+03  0.18218884152E+03  0.00000000000E+00 0.  1.
        -15    1    1    2    0    0 -0.14054054675E+01 -0.26445042304E+00  0.57143410999E+02  0.57188917180E+02  0.17770000000E+01 0. -1.
         15    1    1    2    0    0 -0.14754533389E+01 -0.19527403351E+01  0.72968857428E+01  0.78988877644E+01  0.17770000000E+01 0. -1.
</event>
<event>
 6    1  0.1378789E-002  0.1899005E+03  0.7546771E-02  0.1062712E+00
        -11   -1    0    0    0    0  0.00000000000E+00  0.00000000000E+00  0.18250000000E+03  0.18250000000E+03  0.00000000000E+00 0.  1.
         11   -1    0    0    0    0 -0.00000000000E+00 -0.00000000000E+00 -0.18250000000E+03  0.18250000000E+03  0.00000000000E+00 0. -1.
        -11    1    1    2    0    0 -0.81416837519E+01 -0.24953691762E+01  0.17489229728E+03  0.17509948466E+03  0.00000000000E+00 0.  1.
         11    1    1    2    0    0  0.14545080632E+01  0.29233953786E+01 -0.16211232017E+03  0.16214520093E+03  0.00000000000E+00 0. -1.
        -15    1    1    2    0    0  0.89888723477E+01 -0.40307911123E+01  0.36733896020E+01  0.10662955652E+02  0.17770000000E+01 0. -1.
         15    1    1    2    0    0 -0.23016966590E+01  0.36027649099E+01 -0.16453366714E+02  0.17092358752E+02  0.17770000000E+01 0.  1.
</event>
<event>
 6    1  0.1378789E-002  0.1852663E+03  0.7546771E-02  0.1066274E+00
        -11   -1    0    0    0    0  0.00000000000E+00  0.00000000000E+00  0.18250000000E+03  0.18250000000E+03  0.00000000000E+00 0.  1.
         11   -1    0    0    0    0 -0.00000000000E+00 -0.00000000000E+00 -0.18250000000E+03  0.18250000000E+03  0.00000000000E+00 0.  1.
        -11    1    1    2    0    0  0.40375318826E+01  0.22888096931E+01  0.17967372295E+03  0.17973365582E+03  0.00000000000E+00 0.  1.
         11    1    1    2    0    0 -0.39311928808E+01  0.11354729253E+01 -0.17616009140E+03  0.17620760874E+03  0.00000000000E+00 0.  1.
        -15    1    1    2    0    0  0.18639637881E+01  0.27030453125E+00 -0.36886039720E+01  0.45067675561E+01  0.17770000000E+01 0.  1.
         15    1    1    2    0    0 -0.19703027899E+01 -0.36945871496E+01  0.17497241935E+00  0.45519678863E+01  0.17770000000E+01 0. -1.
</event>
<event>
 6    1  0.1378789E-002  0.1855238E+03  0.7546771E-02  0.1066073E+00
        -11   -1    0    0    0    0  0.00000000000E+00  0.00000000000E+00  0.18250000000E+03  0.18250000000E+03  0.00000000000E+00 0.  1.
         11   -1    0    0    0    0 -0.00000000000E+00 -0.00000000000E+00 -0.18250000000E+03  0.18250000000E+03  0.00000000000E+00 0. -1.
        -11    1    1    2    0    0 -0.65581191658E+01 -0.66652944620E+00  0.17935511530E+03  0.17947621172E+03  0.00000000000E+00 0.  1.
         11    1    1    2    0    0  0.10402956202E+02  0.16885763781E+01 -0.14318949431E+03  0.14357682288E+03  0.00000000000E+00 0. -1.
        -15    1    1    2    0    0  0.30979755791E+01  0.20734620968E+01  0.76526487875E+00  0.42000067965E+01  0.17770000000E+01 0.  1.
         15    1    1    2    0    0 -0.69428126155E+01 -0.30955090287E+01 -0.36930885872E+02  0.37746958599E+02  0.17770000000E+01 0. -1.
</event>
<event>
 6    1  0.1378789E-002  0.1828451E+03  0.7546771E-02  0.1068180E+00
        -11   -1    0    0    0    0  0.00000000000E+00  0.00000000000E+00  0.18250000000E+03  0.18250000000E+03  0.00000000000E+00 0.  1.
         11   -1    0    0    0    0 -0.00000000000E+00 -0.00000000000E+00 -0.18250000000E+03  0.18250000000E+03  0.00000000000E+00 0. -1.
        -11    1    1    2    0    0  0.28794442049E+01 -0.10499385685E+01  0.12930854087E+03  0.12934485808E+03  0.00000000000E+00 0.  1.
         11    1    1    2    0    0  0.27525907564E+01  0.45283364186E+01 -0.18207779422E+03  0.18215489490E+03  0.00000000000E+00 0. -1.
        -15    1    1    2    0    0 -0.10883601816E+01  0.87059828427E+00  0.12048936553E+02  0.12258754844E+02  0.17770000000E+01 0. -1.
         15    1    1    2    0    0 -0.45436747797E+01 -0.43489961344E+01  0.40720316796E+02  0.41241492175E+02  0.17770000000E+01 0.  1.
</event>
<event>
 6    1  0.1378789E-002  0.1739673E+03  0.7546771E-02  0.1075457E+00
        -11   -1    0    0    0    0  0.00000000000E+00  0.00000000000E+00  0.18250000000E+03  0.18250000000E+03  0.00000000000E+00 0. -1.
         11   -1    0    0    0    0 -0.00000000000E+00 -0.00000000000E+00 -0.18250000000E+03  0.18250000000E+03  0.00000000000E+00 0. -1.
        -11    1    1    2    0    0  0.22745031625E+01  0.11848882795E+01  0.17561322848E+03  0.17563195421E+03  0.00000000000E+00 0. -1.
         11    1    1    2    0    0  0.42669701308E+01  0.85770883414E+00 -0.17233073674E+03  0.17238568828E+03  0.00000000000E+00 0. -1.
        -15    1    1    2    0    0  0.11141570362E+01 -0.93270865905E+00  0.50055270840E+01  0.55067523762E+01  0.17770000000E+01 0. -1.
         15    1    1    2    0    0 -0.76556303296E+01 -0.11098884546E+01 -0.82880188207E+01  0.11475605130E+02  0.17770000000E+01 0. -1.
</event>
<event>
 6    1  0.1378789E-002  0.1830321E+03  0.7546771E-02  0.1068032E+00
        -11   -1    0    0    0    0  0.00000000000E+00  0.00000000000E+00  0.18250000000E+03  0.18250000000E+03  0.00000000000E+00 0.  1.
         11   -1    0    0    0    0 -0.00000000000E+00 -0.00000000000E+00 -0.18250000000E+03  0.18250000000E+03  0.00000000000E+00 0.  1.
        -11    1    1    2    0    0 -0.27001304152E+01 -0.37316286546E+01  0.18190959388E+03  0.18196789855E+03  0.00000000000E+00 0.  1.
         11    1    1    2    0    0  0.15099906131E+01 -0.11444313110E+01 -0.67517956784E+02  0.67544535552E+02  0.00000000000E+00 0.  1.
        -15    1    1    2    0    0 -0.96756935675E+00  0.50060333506E+00 -0.10238703546E+03  0.10240824944E+03  0.17770000000E+01 0.  1.
         15    1    1    2    0    0  0.21577091589E+01  0.43754566306E+01 -0.12004601636E+02  0.13079316457E+02  0.17770000000E+01 0. -1.
</event>
<event>
 6    1  0.1378789E-002  0.1830130E+03  0.7546771E-02  0.1068047E+00
        -11   -1    0    0    0    0  0.00000000000E+00  0.00000000000E+00  0.18250000000E+03  0.18250000000E+03  0.00000000000E+00 0. -1.
         11   -1    0    0    0    0 -0.00000000000E+00 -0.00000000000E+00 -0.18250000000E+03  0.18250000000E+03  0.00000000000E+00 0. -1.
        -11    1    1    2    0    0 -0.24636618488E+01 -0.15071695782E+01  0.18196410533E+03  0.18198702376E+03  0.00000000000E+00 0. -1.
         11    1    1    2    0    0 -0.12602322412E+01 -0.33989518968E+01 -0.15262272756E+03  0.15266577228E+03  0.00000000000E+00 0. -1.
        -15    1    1    2    0    0  0.23116037065E+01  0.41067326229E+01 -0.15487268266E+02  0.16285636981E+02  0.17770000000E+01 0.  1.
         15    1    1    2    0    0  0.14122903835E+01  0.79938885213E+00 -0.13854109505E+02  0.14061566977E+02  0.17770000000E+01 0. -1.
</event>
<event>
 6    1  0.1378789E-002  0.1835505E+03  0.7546771E-02  0.1067622E+00
        -11   -1    0    0    0    0  0.00000000000E+00  0.00000000000E+00  0.18250000000E+03  0.18250000000E+03  0.00000000000E+00 0. -1.
         11   -1    0    0    0    0 -0.00000000000E+00 -0.00000000000E+00 -0.18250000000E+03  0.18250000000E+03  0.00000000000E+00 0. -1.
        -11    1    1    2    0    0 -0.10115542005E+01 -0.32001942496E+01  0.18141844836E+03  0.18144949129E+03  0.00000000000E+00 0. -1.
         11    1    1    2    0    0 -0.18718190789E+01 -0.28678026025E+01 -0.16198050322E+03  0.16201670105E+03  0.00000000000E+00 0. -1.
        -15    1    1    2    0    0  0.18024570237E+01 -0.30250893505E+00 -0.59383813796E+01  0.64623885204E+01  0.17770000000E+01 0. -1.
         15    1    1    2    0    0  0.10809162557E+01  0.63705057871E+01 -0.13499563763E+02  0.15071419135E+02  0.17770000000E+01 0.  1.
</event>
<event>
 6    1  0.1378789E-002  0.1839454E+03  0.7546771E-02  0.1067310E+00
        -11   -1    0    0    0    0  0.00000000000E+00  0.00000000000E+00  0.18250000000E+03  0.18250000000E+03  0.00000000000E+00 0.  1.
         11   -1    0    0    0    0 -0.00000000000E+00 -0.00000000000E+00 -0.18250000000E+03  0.18250000000E+03  0.00000000000E+00 0.  1.
        -11    1    1    2    0    0  0.19265752005E+01 -0.17011245110E+01  0.59496944254E+02  0.59552429775E+02  0.00000000000E+00 0.  1.
         11    1    1    2    0    0  0.87791242568E+01  0.87656281365E+01 -0.18062904214E+03  0.18105457775E+03  0.00000000000E+00 0.  1.
        -15    1    1    2    0    0 -0.12383749502E+02 -0.85422414281E+01  0.34093272755E+02  0.37307319878E+02  0.17770000000E+01 0. -1.
         15    1    1    2    0    0  0.16780500445E+01  0.14777378027E+01  0.87038825136E+02  0.87085672593E+02  0.17770000000E+01 0.  1.
</event>
<event>
 6    1  0.1378789E-002  0.1826142E+03  0.7546771E-02  0.1068364E+00
        -11   -1    0    0    0    0  0.00000000000E+00  0.00000000000E+00  0.18250000000E+03  0.18250000000E+03  0.00000000000E+00 0. -1.
         11   -1    0    0    0    0 -0.00000000000E+00 -0.00000000000E+00 -0.18250000000E+03  0.18250000000E+03  0.00000000000E+00 0. -1.
        -11    1    1    2    0    0  0.11626247699E+01 -0.10939113270E-01  0.81552193614E+02  0.81560481235E+02  0.00000000000E+00 0. -1.
         11    1    1    2    0    0  0.24887684869E+01 -0.31513199850E+00 -0.18236851220E+03  0.18238576567E+03  0.00000000000E+00 0. -1.
        -15    1    1    2    0    0 -0.19563294329E+01 -0.15728126922E+01  0.27443190931E+02  0.27614985463E+02  0.17770000000E+01 0.  1.
         15    1    1    2    0    0 -0.16950638239E+01  0.18988838040E+01  0.73373127653E+02  0.73438767634E+02  0.17770000000E+01 0. -1.
</event>
<event>
 6    1  0.1378789E-002  0.1737828E+03  0.7546771E-02  0.1075613E+00
        -11   -1    0    0    0    0  0.00000000000E+00  0.00000000000E+00  0.18250000000E+03  0.18250000000E+03  0.00000000000E+00 0. -1.
         11   -1    0    0    0    0 -0.00000000000E+00 -0.00000000000E+00 -0.18250000000E+03  0.18250000000E+03  0.00000000000E+00 0. -1.
        -11    1    1    2    0    0 -0.59732201771E+01 -0.21408215277E+00  0.17515203396E+03  0.17525398766E+03  0.00000000000E+00 0. -1.
         11    1    1    2    0    0 -0.35681494342E+01  0.17761775252E+01 -0.17241078882E+03  0.17245685431E+03  0.00000000000E+00 0. -1.
        -15    1    1    2    0    0  0.38575779238E+01 -0.54156146776E+00 -0.81330667325E+01  0.91912295008E+01  0.17770000000E+01 0.  1.
         15    1    1    2    0    0  0.56837916875E+01 -0.10205339047E+01  0.53918215880E+01  0.80979285274E+01  0.17770000000E+01 0. -1.
</event>
<event>
 6    1  0.1378789E-002  0.1969672E+03  0.7546771E-02  0.1057489E+00
        -11   -1    0    0    0    0  0.00000000000E+00  0.00000000000E+00  0.18250000000E+03  0.18250000000E+03  0.00000000000E+00 0. -1.
         11   -1    0    0    0    0 -0.00000000000E+00 -0.00000000000E+00 -0.18250000000E+03  0.18250000000E+03  0.00000000000E+00 0. -1.
        -11    1    1    2    0    0 -0.43811397418E+01 -0.18819694442E+01  0.15660880565E+03  0.15668137797E+03  0.00000000000E+00 0. -1.
         11    1    1    2    0    0  0.32943133133E+01 -0.10263060896E+01 -0.16799733994E+03  0.16803277071E+03  0.00000000000E+00 0. -1.
        -15    1    1    2    0    0 -0.25459901217E+01  0.44409529566E+01 -0.13749384592E+02  0.14778614093E+02  0.17770000000E+01 0.  1.
         15    1    1    2    0    0  0.36328165502E+01 -0.15326774228E+01  0.25137918886E+02  0.25507237230E+02  0.17770000000E+01 0.  1.
</event>
<event>
 6    1  0.1378789E-002  0.1252369E+03  0.7546771E-02  0.1126173E+00
        -11   -1    0    0    0    0  0.00000000000E+00  0.00000000000E+00  0.18250000000E+03  0.18250000000E+03  0.00000000000E+00 0. -1.
         11   -1    0    0    0    0 -0.00000000000E+00 -0.00000000000E+00 -0.18250000000E+03  0.18250000000E+03  0.00000000000E+00 0.  1.
        -11    1    1    2    0    0  0.65435998295E+00  0.20160824598E+01  0.60122803370E+02  0.60160155091E+02  0.00000000000E+00 0. -1.
         11    1    1    2    0    0 -0.25223631725E+01 -0.44947542632E+01 -0.12838489131E+03  0.12848830860E+03  0.00000000000E+00 0.  1.
        -15    1    1    2    0    0 -0.28990283155E+01 -0.72146717007E+00  0.12211490580E+03  0.12216436808E+03  0.17770000000E+01 0. -1.
         15    1    1    2    0    0  0.47670315050E+01  0.32001389735E+01 -0.53852817867E+02  0.54187168223E+02  0.17770000000E+01 0.  1.
</event>
<event>
 6    1  0.1378789E-002  0.1845336E+03  0.7546771E-02  0.1066847E+00
        -11   -1    0    0    0    0  0.00000000000E+00  0.00000000000E+00  0.18250000000E+03  0.18250000000E+03  0.00000000000E+00 0. -1.
         11   -1    0    0    0    0 -0.00000000000E+00 -0.00000000000E+00 -0.18250000000E+03  0.18250000000E+03  0.00000000000E+00 0. -1.
        -11    1    1    2    0    0  0.26157763384E+01  0.30867911591E+01  0.15419968253E+03  0.15425275576E+03  0.00000000000E+00 0. -1.
         11    1    1    2    0    0 -0.24710911501E+01 -0.41080595796E+00 -0.18044896739E+03  0.18046635388E+03  0.00000000000E+00 0. -1.
        -15    1    1    2    0    0  0.15730719081E+01  0.26486048937E+01  0.18218095426E+00  0.35609804845E+01  0.17770000000E+01 0.  1.
         15    1    1    2    0    0 -0.17177570964E+01 -0.53245900948E+01  0.26067103898E+02  0.26719909876E+02  0.17770000000E+01 0. -1.
</event>
<event>
 6    1  0.1378789E-002  0.1975105E+03  0.7546771E-02  0.1057097E+00
        -11   -1    0    0    0    0  0.00000000000E+00  0.00000000000E+00  0.18250000000E+03  0.18250000000E+03  0.00000000000E+00 0.  1.
         11   -1    0    0    0    0 -0.00000000000E+00 -0.00000000000E+00 -0.18250000000E+03  0.18250000000E+03  0.00000000000E+00 0. -1.
        -11    1    1    2    0    0 -0.14162266138E+01 -0.35001386912E+01  0.11621881963E+03  0.11628013891E+03  0.00000000000E+00 0.  1.
         11    1    1    2    0    0  0.45790981684E+01  0.36106234453E+01 -0.16738791349E+03  0.16748945735E+03  0.00000000000E+00 0. -1.
        -15    1    1    2    0    0  0.17958251323E+02  0.12082618918E+02  0.52425264620E+02  0.56745524669E+02  0.17770000000E+01 0.  1.
         15    1    1    2    0    0 -0.21121122878E+02 -0.12193103673E+02 -0.12561707643E+01  0.24484879064E+02  0.17770000000E+01 0. -1.
</event>
<event>
 6    1  0.1378789E-002  0.1846079E+03  0.7546771E-02  0.1066789E+00
        -11   -1    0    0    0    0  0.00000000000E+00  0.00000000000E+00  0.18250000000E+03  0.18250000000E+03  0.00000000000E+00 0. -1.
         11   -1    0    0    0    0 -0.00000000000E+00 -0.00000000000E+00 -0.18250000000E+03  0.18250000000E+03  0.00000000000E+00 0.  1.
        -11    1    1    2    0    0 -0.35168624220E+01 -0.24809232748E+00  0.17857436809E+03  0.17860916776E+03  0.00000000000E+00 0. -1.
         11    1    1    2    0    0  0.24128913201E+01 -0.79325087941E+00 -0.18037422962E+03  0.18039211181E+03  0.00000000000E+00 0.  1.
        -15    1    1    2    0    0 -0.13097414165E+01  0.13820183572E+01  0.27583851967E+00  0.26190099669E+01  0.17770000000E+01 0. -1.
         15    1    1    2    0    0  0.24137125184E+01 -0.34067515031E+00  0.15240230133E+01  0.33797104646E+01  0.17770000000E+01 0. -1.
</event>
<event>
 6    1  0.1378789E-002  0.1833112E+03  0.7546771E-02  0.1067811E+00
        -11   -1    0    0    0    0  0.00000000000E+00  0.00000000000E+00  0.18250000000E+03  0.18250000000E+03  0.00000000000E+00 0.  1.
         11   -1    0    0    0    0 -0.00000000000E+00 -0.00000000000E+00 -0.18250000000E+03  0.18250000000E+03  0.00000000000E+00 0. -1.
        -11    1    1    2    0    0  0.19301496071E+01  0.16140293993E+01  0.12540604371E+03  0.12543128146E+03  0.00000000000E+00 0.  1.
         11    1    1    2    0    0  0.14166166921E+01 -0.39332026973E+01 -0.18164070857E+03  0.18168881060E+03  0.00000000000E+00 0. -1.
        -15    1    1    2    0    0 -0.23474309412E+01 -0.24929064531E+01  0.47813475881E+02  0.47968856766E+02  0.17770000000E+01 0.  1.
         15    1    1    2    0    0 -0.99933535799E+00  0.48120797510E+01  0.84211889768E+01  0.99110511789E+01  0.17770000000E+01 0.  1.
</event>
<event>
 6    1  0.1378789E-002  0.1461242E+03  0.7546771E-02  0.1101775E+00
        -11   -1    0    0    0    0  0.00000000000E+00  0.00000000000E+00  0.18250000000E+03  0.18250000000E+03  0.00000000000E+00 0. -1.
         11   -1    0    0    0    0 -0.00000000000E+00 -0.00000000000E+00 -0.18250000000E+03  0.18250000000E+03  0.00000000000E+00 0. -1.
        -11    1    1    2    0    0  0.22901838771E+02 -0.18950146643E+02  0.12869077550E+03  0.13207921099E+03  0.00000000000E+00 0. -1.
         11    1    1    2    0    0  0.22703886454E+01 -0.13012760695E+02 -0.16464041446E+03  0.16516946655E+03  0.00000000000E+00 0. -1.
        -15    1    1    2    0    0 -0.20898461629E+02  0.19364733996E+02  0.43741249577E+02  0.52232109518E+02  0.17770000000E+01 0.  1.
         15    1    1    2    0    0 -0.42737657882E+01  0.12598173342E+02 -0.77916106103E+01  0.15519212946E+02  0.17770000000E+01 0. -1.
</event>
<event>
 6    1  0.1378789E-002  0.1680998E+03  0.7546771E-02  0.1080533E+00
        -11   -1    0    0    0    0  0.00000000000E+00  0.00000000000E+00  0.18250000000E+03  0.18250000000E+03  0.00000000000E+00 0.  1.
         11   -1    0    0    0    0 -0.00000000000E+00 -0.00000000000E+00 -0.18250000000E+03  0.18250000000E+03  0.00000000000E+00 0.  1.
        -11    1    1    2    0    0  0.10408973819E+02 -0.16768578875E+02  0.16324489886E+03  0.16443366132E+03  0.00000000000E+00 0.  1.
         11    1    1    2    0    0 -0.68279010379E+01  0.11275047085E+00 -0.17218050999E+03  0.17231587554E+03  0.00000000000E+00 0.  1.
        -15    1    1    2    0    0  0.32774109275E+01  0.14849973044E+01  0.10686828661E+02  0.11415457732E+02  0.17770000000E+01 0. -1.
         15    1    1    2    0    0 -0.68584837087E+01  0.15170831100E+02 -0.17512175325E+01  0.16835005402E+02  0.17770000000E+01 0.  1.
</event>
<event>
 6    1  0.1378789E-002  0.1858829E+03  0.7546771E-02  0.1065793E+00
        -11   -1    0    0    0    0  0.00000000000E+00  0.00000000000E+00  0.18250000000E+03  0.18250000000E+03  0.00000000000E+00 0. -1.
         11   -1    0    0    0    0 -0.00000000000E+00 -0.00000000000E+00 -0.18250000000E+03  0.18250000000E+03  0.00000000000E+00 0.  1.
        -11    1    1    2    0    0 -0.30262844869E+00 -0.30884716792E+01  0.17909016669E+03  0.17911705124E+03  0.00000000000E+00 0. -1.
         11    1    1    2    0    0 -0.33542532767E+01 -0.79281467092E+01 -0.14335186675E+03  0.14361011185E+03  0.00000000000E+00 0.  1.
        -15    1    1    2    0    0 -0.71519800034E+00  0.10457160943E+02 -0.35976521404E+02  0.37514417821E+02  0.17770000000E+01 0.  1.
         15    1    1    2    0    0  0.43720797257E+01  0.55945744555E+00  0.23822146692E+00  0.47584190892E+01  0.17770000000E+01 0. -1.
</event>
<event>
 6    1  0.1378789E-002  0.1791798E+03  0.7546771E-02  0.1071129E+00
        -11   -1    0    0    0    0  0.00000000000E+00  0.00000000000E+00  0.18250000000E+03  0.18250000000E+03  0.00000000000E+00 0. -1.
         11   -1    0    0    0    0 -0.00000000000E+00 -0.00000000000E+00 -0.18250000000E+03  0.18250000000E+03  0.00000000000E+00 0.  1.
        -11    1    1    2    0    0 -0.14081483763E+01  0.41176385332E+01  0.17869624039E+03  0.17874922142E+03  0.00000000000E+00 0. -1.
         11    1    1    2    0    0  0.24898521447E+01  0.60866752224E+00 -0.17962601631E+03  0.17964430293E+03  0.00000000000E+00 0.  1.
        -15    1    1    2    0    0 -0.76590208748E+00 -0.58625374744E+00  0.37166684227E+00  0.20557637767E+01  0.17770000000E+01 0. -1.
         15    1    1    2    0    0 -0.31580168092E+00 -0.41400523080E+01  0.55810907318E+00  0.45507118731E+01  0.17770000000E+01 0.  1.
</event>
<event>
 6    1  0.1378789E-002  0.1826932E+03  0.7546771E-02  0.1068301E+00
        -11   -1    0    0    0    0  0.00000000000E+00  0.00000000000E+00  0.18250000000E+03  0.18250000000E+03  0.00000000000E+00 0. -1.
         11   -1    0    0    0    0 -0.00000000000E+00 -0.00000000000E+00 -0.18250000000E+03  0.18250000000E+03  0.00000000000E+00 0. -1.
        -11    1    1    2    0    0 -0.30554990023E+01  0.32005647645E+01  0.18225313093E+03  0.18230683867E+03  0.00000000000E+00 0. -1.
         11    1    1    2    0    0 -0.20828119829E+01 -0.14044023497E+00 -0.51371416513E+02  0.51413813939E+02  0.00000000000E+00 0. -1.
        -15    1    1    2    0    0  0.58823730357E+01 -0.19912054863E+01 -0.57008418682E+02  0.57373205780E+02  0.17770000000E+01 0. -1.
         15    1    1    2    0    0 -0.74406205047E+00 -0.10689190433E+01 -0.73873295738E+02  0.73906141616E+02  0.17770000000E+01 0.  1.
</event>
<event>
 6    1  0.1378789E-002  0.1946467E+03  0.7546771E-02  0.1059177E+00
        -11   -1    0    0    0    0  0.00000000000E+00  0.00000000000E+00  0.18250000000E+03  0.18250000000E+03  0.00000000000E+00 0. -1.
         11   -1    0    0    0    0 -0.00000000000E+00 -0.00000000000E+00 -0.18250000000E+03  0.18250000000E+03  0.00000000000E+00 0. -1.
        -11    1    1    2    0    0 -0.23963937796E+01  0.21834118105E+01  0.17032249443E+03  0.17035334485E+03  0.00000000000E+00 0. -1.
         11    1    1    2    0    0  0.24648180695E+01 -0.33994228821E+00 -0.16722485645E+03  0.16724336610E+03  0.00000000000E+00 0. -1.
        -15    1    1    2    0    0  0.68987451229E+01  0.38582682733E+01  0.90711131566E+01  0.12162308220E+02  0.17770000000E+01 0.  1.
         15    1    1    2    0    0 -0.69671694127E+01 -0.57017377955E+01 -0.12168751140E+02  0.15240980835E+02  0.17770000000E+01 0. -1.
</event>
<event>
 6    1  0.1378789E-002  0.1829674E+03  0.7546771E-02  0.1068083E+00
        -11   -1    0    0    0    0  0.00000000000E+00  0.00000000000E+00  0.18250000000E+03  0.18250000000E+03  0.00000000000E+00 0.  1.
         11   -1    0    0    0    0 -0.00000000000E+00 -0.00000000000E+00 -0.18250000000E+03  0.18250000000E+03  0.00000000000E+00 0. -1.
        -11    1    1    2    0    0  0.25683832373E+01  0.27621752991E+00  0.18201425140E+03  0.18203258115E+03  0.00000000000E+00 0.  1.
         11    1    1    2    0    0  0.37312074415E+01 -0.34108014809E+00 -0.10878553964E+03  0.10885004309E+03  0.00000000000E+00 0. -1.
        -15    1    1    2    0    0 -0.72928066157E+01 -0.15242689111E+01 -0.65965670057E+02  0.66408853169E+02  0.17770000000E+01 0.  1.
         15    1    1    2    0    0  0.99321593679E+00  0.15891315293E+01 -0.72630416968E+01  0.77085225954E+01  0.17770000000E+01 0. -1.
</event>
<event>
 6    1  0.1378789E-002  0.1757312E+03  0.7546771E-02  0.1073974E+00
        -11   -1    0    0    0    0  0.00000000000E+00  0.00000000000E+00  0.18250000000E+03  0.18250000000E+03  0.00000000000E+00 0.  1.
         11   -1    0    0    0    0 -0.00000000000E+00 -0.00000000000E+00 -0.18250000000E+03  0.18250000000E+03  0.00000000000E+00 0. -1.
        -11    1    1    2    0    0  0.13610781958E+01 -0.40832994843E+01  0.17611126666E+03  0.17616385587E+03  0.00000000000E+00 0.  1.
         11    1    1    2    0    0 -0.37656487648E+01  0.77144465158E-01 -0.17529011620E+03  0.17533057605E+03  0.00000000000E+00 0. -1.
        -15    1    1    2    0    0  0.26710819605E+01 -0.10342115281E+01  0.47215596094E+01  0.58013038595E+01  0.17770000000E+01 0.  1.
         15    1    1    2    0    0 -0.26651139152E+00  0.50403665472E+01 -0.55427100756E+01  0.77042642241E+01  0.17770000000E+01 0. -1.
</event>
<event>
 6    1  0.1378789E-002  0.1829789E+03  0.7546771E-02  0.1068074E+00
        -11   -1    0    0    0    0  0.00000000000E+00  0.00000000000E+00  0.18250000000E+03  0.18250000000E+03  0.00000000000E+00 0. -1.
         11   -1    0    0    0    0 -0.00000000000E+00 -0.00000000000E+00 -0.18250000000E+03  0.18250000000E+03  0.00000000000E+00 0. -1.
        -11    1    1    2    0    0  0.87652362922E-01  0.26273007056E+01  0.18200213803E+03  0.18202112141E+03  0.00000000000E+00 0. -1.
         11    1    1    2    0    0  0.13362185954E+01 -0.11988749193E+01 -0.12803250608E+03  0.12804509125E+03  0.00000000000E+00 0. -1.
        -15    1    1    2    0    0 -0.81859459611E+00 -0.51539386185E+00 -0.17575969554E+01  0.26800380601E+01  0.17770000000E+01 0. -1.
         15    1    1    2    0    0 -0.60527636218E+00 -0.91303192439E+00 -0.52212034996E+02  0.52253749283E+02  0.17770000000E+01 0.  1.
</event>
<event>
 6    1  0.1378789E-002  0.1830903E+03  0.7546771E-02  0.1067986E+00
        -11   -1    0    0    0    0  0.00000000000E+00  0.00000000000E+00  0.18250000000E+03  0.18250000000E+03  0.00000000000E+00 0.  1.
         11   -1    0    0    0    0 -0.00000000000E+00 -0.00000000000E+00 -0.18250000000E+03  0.18250000000E+03  0.00000000000E+00 0. -1.
        -11    1    1    2    0    0 -0.62954486883E+01  0.25131397727E+01  0.18178338326E+03  0.18190972204E+03  0.00000000000E+00 0.  1.
         11    1    1    2    0    0  0.60519961827E+01  0.13746648124E+01 -0.11245019114E+03  0.11262132058E+03  0.00000000000E+00 0. -1.
        -15    1    1    2    0    0  0.45339822431E+01 -0.34434126456E+01 -0.18858964063E+02  0.19779594034E+02  0.17770000000E+01 0.  1.
         15    1    1    2    0    0 -0.42905297374E+01 -0.44439193953E+00 -0.50474228056E+02  0.50689363346E+02  0.17770000000E+01 0. -1.
</event>
<event>
 6    1  0.1378789E-002  0.1839986E+03  0.7546771E-02  0.1067268E+00
        -11   -1    0    0    0    0  0.00000000000E+00  0.00000000000E+00  0.18250000000E+03  0.18250000000E+03  0.00000000000E+00 0. -1.
         11   -1    0    0    0    0 -0.00000000000E+00 -0.00000000000E+00 -0.18250000000E+03  0.18250000000E+03  0.00000000000E+00 0. -1.
        -11    1    1    2    0    0 -0.86103476109E+00  0.17689391812E+00  0.30072123998E+02  0.30084968241E+02  0.00000000000E+00 0. -1.
         11    1    1    2    0    0 -0.78559227454E+01  0.95101333580E+00 -0.18082835576E+03  0.18100142042E+03  0.00000000000E+00 0. -1.
        -15    1    1    2    0    0  0.19154386672E+02 -0.32833149981E+01  0.80514062317E+02  0.82845293445E+02  0.17770000000E+01 0.  1.
         15    1    1    2    0    0 -0.10437429166E+02  0.21554077442E+01  0.70242169446E+02  0.71068317890E+02  0.17770000000E+01 0. -1.
</event>
<event>
 6    1  0.1378789E-002  0.1830504E+03  0.7546771E-02  0.1068018E+00
        -11   -1    0    0    0    0  0.00000000000E+00  0.00000000000E+00  0.18250000000E+03  0.18250000000E+03  0.00000000000E+00 0. -1.
         11   -1    0    0    0    0 -0.00000000000E+00 -0.00000000000E+00 -0.18250000000E+03  0.18250000000E+03  0.00000000000E+00 0. -1.
        -11    1    1    2    0    0  0.36581409335E+00 -0.35416272205E+01  0.14351140086E+03  0.14355556109E+03  0.00000000000E+00 0. -1.
         11    1    1    2    0    0  0.13145241214E+01  0.51839813229E+01 -0.18187099137E+03  0.18194960603E+03  0.00000000000E+00 0. -1.
        -15    1    1    2    0    0 -0.11201824440E+01  0.24655058112E+01  0.59646018457E+01  0.67873214003E+01  0.17770000000E+01 0. -1.
         15    1    1    2    0    0 -0.56015577071E+00 -0.41078599136E+01  0.32394988659E+02  0.32707511473E+02  0.17770000000E+01 0. -1.
</event>
<event>
 6    1  0.1378789E-002  0.1870380E+03  0.7546771E-02  0.1064899E+00
        -11   -1    0    0    0    0  0.00000000000E+00  0.00000000000E+00  0.18250000000E+03  0.18250000000E+03  0.00000000000E+00 0. -1.
         11   -1    0    0    0    0 -0.00000000000E+00 -0.00000000000E+00 -0.18250000000E+03  0.18250000000E+03  0.00000000000E+00 0. -1.
        -11    1    1    2    0    0  0.30900350510E+01 -0.79092751460E+01  0.16645863866E+03  0.16667508313E+03  0.00000000000E+00 0. -1.
         11    1    1    2    0    0  0.27300459961E+01  0.73984751144E+01 -0.17778714626E+03  0.17796196212E+03  0.00000000000E+00 0. -1.
        -15    1    1    2    0    0 -0.53035156753E+01 -0.15891774474E+00  0.15102984690E+02  0.16106222677E+02  0.17770000000E+01 0. -1.
         15    1    1    2    0    0 -0.51656537181E+00  0.66971777636E+00 -0.37744770931E+01  0.42567320811E+01  0.17770000000E+01 0.  1.
</event>
<event>
 6    1  0.1378789E-002  0.1284350E+03  0.7546771E-02  0.1122109E+00
        -11   -1    0    0    0    0  0.00000000000E+00  0.00000000000E+00  0.18250000000E+03  0.18250000000E+03  0.00000000000E+00 0. -1.
         11   -1    0    0    0    0 -0.00000000000E+00 -0.00000000000E+00 -0.18250000000E+03  0.18250000000E+03  0.00000000000E+00 0. -1.
        -11    1    1    2    0    0 -0.13737283656E+02  0.53367416446E+01  0.13038750694E+03  0.13121774171E+03  0.00000000000E+00 0. -1.
         11    1    1    2    0    0 -0.19125198698E+02  0.19241183950E+02 -0.12605942747E+03  0.12894563056E+03  0.00000000000E+00 0. -1.
        -15    1    1    2    0    0  0.39800244293E+02 -0.12551900845E+02 -0.45253113301E+02  0.61584183465E+02  0.17770000000E+01 0. -1.
         15    1    1    2    0    0 -0.69377619400E+01 -0.12026024749E+02  0.40925033834E+02  0.43252444270E+02  0.17770000000E+01 0.  1.
</event>
<event>
 6    1  0.1378789E-002  0.1838439E+03  0.7546771E-02  0.1067390E+00
        -11   -1    0    0    0    0  0.00000000000E+00  0.00000000000E+00  0.18250000000E+03  0.18250000000E+03  0.00000000000E+00 0. -1.
         11   -1    0    0    0    0 -0.00000000000E+00 -0.00000000000E+00 -0.18250000000E+03  0.18250000000E+03  0.00000000000E+00 0. -1.
        -11    1    1    2    0    0 -0.30837419272E+01 -0.20137149573E+01  0.13621255622E+03  0.13626233883E+03  0.00000000000E+00 0. -1.
         11    1    1    2    0    0  0.47697015029E+01  0.26897654878E+01 -0.18107331025E+03  0.18115608898E+03  0.00000000000E+00 0. -1.
        -15    1    1    2    0    0 -0.63024338525E+01 -0.12959416281E+01  0.81539878100E+01  0.10537807332E+02  0.17770000000E+01 0.  1.
         15    1    1    2    0    0  0.46164742768E+01  0.61989109761E+00  0.36706766219E+02  0.37043764860E+02  0.17770000000E+01 0.  1.
</event>
<event>
 6    1  0.1378789E-002  0.1832931E+03  0.7546771E-02  0.1067825E+00
        -11   -1    0    0    0    0  0.00000000000E+00  0.00000000000E+00  0.18250000000E+03  0.18250000000E+03  0.00000000000E+00 0. -1.
         11   -1    0    0    0    0 -0.00000000000E+00 -0.00000000000E+00 -0.18250000000E+03  0.18250000000E+03  0.00000000000E+00 0.  1.
        -11    1    1    2    0    0  0.36278021273E+00 -0.33050249984E+01  0.18167646408E+03  0.18170688594E+03  0.00000000000E+00 0. -1.
         11    1    1    2    0    0  0.24365303237E+01  0.48806504928E+00 -0.16634825153E+03  0.16636681062E+03  0.00000000000E+00 0.  1.
        -15    1    1    2    0    0 -0.23998311594E+01  0.40019683252E+01 -0.10194763533E+02  0.11351910525E+02  0.17770000000E+01 0. -1.
         15    1    1    2    0    0 -0.39947937701E+00 -0.11850083760E+01 -0.51334490083E+01  0.55743929126E+01  0.17770000000E+01 0.  1.
</event>
<event>
 6    1  0.1378789E-002  0.1957189E+03  0.7546771E-02  0.1058394E+00
        -11   -1    0    0    0    0  0.00000000000E+00  0.00000000000E+00  0.18250000000E+03  0.18250000000E+03  0.00000000000E+00 0. -1.
         11   -1    0    0    0    0 -0.00000000000E+00 -0.00000000000E+00 -0.18250000000E+03  0.18250000000E+03  0.00000000000E+00 0.  1.
        -11    1    1    2    0    0 -0.21581567697E+01  0.82557594977E+00  0.82804235466E+02  0.82836469187E+02  0.00000000000E+00 0. -1.
         11    1    1    2    0    0 -0.10587737796E+02 -0.79659278337E+01 -0.16876181822E+03  0.16928114924E+03  0.00000000000E+00 0.  1.
        -15    1    1    2    0    0  0.17594106398E+02  0.73422440498E+01 -0.65454198679E+01  0.20235152035E+02  0.17770000000E+01 0.  1.
         15    1    1    2    0    0 -0.48482118330E+01 -0.20189216587E+00  0.92503002623E+02  0.92647229541E+02  0.17770000000E+01 0. -1.
</event>
<event>
 6    1  0.1378789E-002  0.1862121E+03  0.7546771E-02  0.1065538E+00
        -11   -1    0    0    0    0  0.00000000000E+00  0.00000000000E+00  0.18250000000E+03  0.18250000000E+03  0.00000000000E+00 0. -1.
         11   -1    0    0    0    0 -0.00000000000E+00 -0.00000000000E+00 -0.18250000000E+03  0.18250000000E+03  0.00000000000E+00 0.  1.
        -11    1    1    2    0    0 -0.65736514941E+01 -0.35522008979E+01  0.17863170582E+03  0.17878791164E+03  0.00000000000E+00 0. -1.
         11    1    1    2    0    0  0.44759942594E+01 -0.23808530170E+01 -0.16044451491E+03  0.16052459422E+03  0.00000000000E+00 0.  1.
        -15    1    1    2    0    0  0.52656612154E+01 -0.28452618721E+01 -0.13998477840E+01  0.63984377761E+01  0.17770000000E+01 0. -1.
         15    1    1    2    0    0 -0.31680039808E+01  0.87783157869E+01 -0.16787343123E+02  0.19289056364E+02  0.17770000000E+01 0.  1.
</event>
<event>
 6    1  0.1378789E-002  0.1852940E+03  0.7546771E-02  0.1066252E+00
        -11   -1    0    0    0    0  0.00000000000E+00  0.00000000000E+00  0.18250000000E+03  0.18250000000E+03  0.00000000000E+00 0. -1.
         11   -1    0    0    0    0 -0.00000000000E+00 -0.00000000000E+00 -0.18250000000E+03  0.18250000000E+03  0.00000000000E+00 0.  1.
        -11    1    1    2    0    0  0.59704515925E+01 -0.40067809006E+01  0.16407939472E+03  0.16423686662E+03  0.00000000000E+00 0. -1.
         11    1    1    2    0    0  0.15583685563E+01 -0.37988625859E+01 -0.17965911006E+03  0.17970602577E+03  0.00000000000E+00 0.  1.
        -15    1    1    2    0    0 -0.59079782341E+01  0.94251215312E+01  0.12517526988E+02  0.16839932707E+02  0.17770000000E+01 0.  1.
         15    1    1    2    0    0 -0.16208419147E+01 -0.16194780446E+01  0.30621883526E+01  0.42171749023E+01  0.17770000000E+01 0. -1.
</event>
<event>
 6    1  0.1378789E-002  0.1833110E+03  0.7546771E-02  0.1067811E+00
        -11   -1    0    0    0    0  0.00000000000E+00  0.00000000000E+00  0.18250000000E+03  0.18250000000E+03  0.00000000000E+00 0. -1.
         11   -1    0    0    0    0 -0.00000000000E+00 -0.00000000000E+00 -0.18250000000E+03  0.18250000000E+03  0.00000000000E+00 0. -1.
        -11    1    1    2    0    0  0.23215127153E+01 -0.20495722925E+01  0.13603981592E+03  0.13607505900E+03  0.00000000000E+00 0. -1.
         11    1    1    2    0    0  0.44238617242E+01 -0.67952667464E+01 -0.18150796377E+03  0.18168898457E+03  0.00000000000E+00 0. -1.
        -15    1    1    2    0    0 -0.42523858984E+01  0.22945018550E+01  0.13218420183E+02  0.14185622500E+02  0.17770000000E+01 0. -1.
         15    1    1    2    0    0 -0.24929885411E+01  0.65503371839E+01  0.32249727669E+02  0.33050333929E+02  0.17770000000E+01 0.  1.
</event>
<event>
 6    1  0.1378789E-002  0.1844727E+03  0.7546771E-02  0.1066895E+00
        -11   -1    0    0    0    0  0.00000000000E+00  0.00000000000E+00  0.18250000000E+03  0.18250000000E+03  0.00000000000E+00 0.  1.
         11   -1    0    0    0    0 -0.00000000000E+00 -0.00000000000E+00 -0.18250000000E+03  0.18250000000E+03  0.00000000000E+00 0.  1.
        -11    1    1    2    0    0 -0.34189966950E+01 -0.17807677393E+01  0.18048612463E+03  0.18052728840E+03  0.00000000000E+00 0.  1.
         11    1    1    2    0    0 -0.25480994791E+01  0.16661045533E+01 -0.16022121737E+03  0.16025013950E+03  0.00000000000E+00 0.  1.
        -15    1    1    2    0    0  0.54109725017E+01  0.17927841593E+01 -0.28284352997E+01  0.66068505129E+01  0.17770000000E+01 0. -1.
         15    1    1    2    0    0  0.55612367232E+00 -0.16781209732E+01 -0.17436471960E+02  0.17615721585E+02  0.17770000000E+01 0. -1.
</event>
<event>
 6    1  0.1378789E-002  0.1826460E+03  0.7546771E-02  0.1068339E+00
        -11   -1    0    0    0    0  0.00000000000E+00  0.00000000000E+00  0.18250000000E+03  0.18250000000E+03  0.00000000000E+00 0. -1.
         11   -1    0    0    0    0 -0.00000000000E+00 -0.00000000000E+00 -0.18250000000E+03  0.18250000000E+03  0.00000000000E+00 0.  1.
        -11    1    1    2    0    0  0.14414066073E+01  0.33339659557E+01  0.18231786054E+03  0.18235403821E+03  0.00000000000E+00 0. -1.
         11    1    1    2    0    0  0.14317540948E+01 -0.11095632089E+01 -0.62088330864E+02  0.62114747683E+02  0.00000000000E+00 0.  1.
        -15    1    1    2    0    0 -0.54454222056E+00 -0.43112783874E+01 -0.53826701588E+02  0.54031057554E+02  0.17770000000E+01 0. -1.
         15    1    1    2    0    0 -0.23286184815E+01  0.20868756406E+01 -0.66402828087E+02  0.66500156548E+02  0.17770000000E+01 0.  1.
</event>
<event>
 6    1  0.1378789E-002  0.1838401E+03  0.7546771E-02  0.1067393E+00
        -11   -1    0    0    0    0  0.00000000000E+00  0.00000000000E+00  0.18250000000E+03  0.18250000000E+03  0.00000000000E+00 0.  1.
         11   -1    0    0    0    0 -0.00000000000E+00 -0.00000000000E+00 -0.18250000000E+03  0.18250000000E+03  0.00000000000E+00 0.  1.
        -11    1    1    2    0    0 -0.47781357167E+01  0.33612015505E+01  0.18106569328E+03  0.18115991152E+03  0.00000000000E+00 0.  1.
         11    1    1    2    0    0 -0.25549725635E+01  0.49865976637E+00 -0.16400463640E+03  0.16402529472E+03  0.00000000000E+00 0.  1.
        -15    1    1    2    0    0  0.52132869984E+01 -0.20022537576E+01 -0.65538460723E+01  0.87919286153E+01  0.17770000000E+01 0.  1.
         15    1    1    2    0    0  0.21198212819E+01 -0.18576075593E+01 -0.10507210807E+02  0.11022865147E+02  0.17770000000E+01 0.  1.
</event>
<event>
 6    1  0.1378789E-002  0.1868579E+03  0.7546771E-02  0.1065038E+00
        -11   -1    0    0    0    0  0.00000000000E+00  0.00000000000E+00  0.18250000000E+03  0.18250000000E+03  0.00000000000E+00 0. -1.
         11   -1    0    0    0    0 -0.00000000000E+00 -0.00000000000E+00 -0.18250000000E+03  0.18250000000E+03  0.00000000000E+00 0. -1.
        -11    1    1    2    0    0 -0.16045047751E+01  0.15821811172E+01  0.69005275304E+02  0.69042057852E+02  0.00000000000E+00 0. -1.
         11    1    1    2    0    0 -0.34886466976E+01  0.38657379842E+00 -0.17810747958E+03  0.17814206234E+03  0.00000000000E+00 0. -1.
        -15    1    1    2    0    0  0.79102308124E+01 -0.20031823810E+02  0.83851444436E+02  0.86591386290E+02  0.17770000000E+01 0. -1.
         15    1    1    2    0    0 -0.28170793397E+01  0.18063068894E+02  0.25250759837E+02  0.31224493514E+02  0.17770000000E+01 0.  1.
</event>
<event>
 6    1  0.1378789E-002  0.1826811E+03  0.7546771E-02  0.1068311E+00
        -11   -1    0    0    0    0  0.00000000000E+00  0.00000000000E+00  0.18250000000E+03  0.18250000000E+03  0.00000000000E+00 0. -1.
         11   -1    0    0    0    0 -0.00000000000E+00 -0.00000000000E+00 -0.18250000000E+03  0.18250000000E+03  0.00000000000E+00 0. -1.
        -11    1    1    2    0    0  0.93788547803E-01 -0.14777193931E+01  0.22692726492E+02  0.22740982533E+02  0.00000000000E+00 0. -1.
         11    1    1    2    0    0  0.19753132827E+00  0.27395345490E+01 -0.18229823094E+03  0.18231892132E+03  0.00000000000E+00 0. -1.
        -15    1    1    2    0    0  0.11656974669E+01  0.18421620742E+01  0.13533657053E+03  0.13536579133E+03  0.17770000000E+01 0. -1.
         15    1    1    2    0    0 -0.14570173430E+01 -0.31039772301E+01  0.24268933925E+02  0.24574304813E+02  0.17770000000E+01 0. -1.
</event>
<event>
 6    1  0.1378789E-002  0.1826624E+03  0.7546771E-02  0.1068326E+00
        -11   -1    0    0    0    0  0.00000000000E+00  0.00000000000E+00  0.18250000000E+03  0.18250000000E+03  0.00000000000E+00 0.  1.
         11   -1    0    0    0    0 -0.00000000000E+00 -0.00000000000E+00 -0.18250000000E+03  0.18250000000E+03  0.00000000000E+00 0. -1.
        -11    1    1    2    0    0 -0.11956749000E+01  0.53061220955E+00  0.73878839806E+02  0.73890419940E+02  0.00000000000E+00 0.  1.
         11    1    1    2    0    0  0.68883536411E+00  0.30525706207E+01 -0.18231071451E+03  0.18233756965E+03  0.00000000000E+00 0. -1.
        -15    1    1    2    0    0 -0.28260133460E+01 -0.22840751693E+00  0.55064076564E+02  0.55165648534E+02  0.17770000000E+01 0. -1.
         15    1    1    2    0    0  0.33328528819E+01 -0.33547753134E+01  0.53367798142E+02  0.53606361873E+02  0.17770000000E+01 0.  1.
</event>
<event>
 6    1  0.1378789E-002  0.1826578E+03  0.7546771E-02  0.1068329E+00
        -11   -1    0    0    0    0  0.00000000000E+00  0.00000000000E+00  0.18250000000E+03  0.18250000000E+03  0.00000000000E+00 0.  1.
         11   -1    0    0    0    0 -0.00000000000E+00 -0.00000000000E+00 -0.18250000000E+03  0.18250000000E+03  0.00000000000E+00 0. -1.
        -11    1    1    2    0    0 -0.10717006126E+00 -0.11946497931E+01  0.28150185778E+02  0.28175727726E+02  0.00000000000E+00 0.  1.
         11    1    1    2    0    0 -0.62248269489E+00  0.25272903152E+01 -0.18232363902E+03  0.18234221680E+03  0.00000000000E+00 0. -1.
        -15    1    1    2    0    0  0.40412904499E+01 -0.28131196952E+01  0.10993691755E+03  0.11006147937E+03  0.17770000000E+01 0.  1.
         15    1    1    2    0    0 -0.33116376937E+01  0.14804791730E+01  0.44236535692E+02  0.44420576108E+02  0.17770000000E+01 0. -1.
</event>
<event>
 6    1  0.1378789E-002  0.1922492E+03  0.7546771E-02  0.1060949E+00
        -11   -1    0    0    0    0  0.00000000000E+00  0.00000000000E+00  0.18250000000E+03  0.18250000000E+03  0.00000000000E+00 0. -1.
         11   -1    0    0    0    0 -0.00000000000E+00 -0.00000000000E+00 -0.18250000000E+03  0.18250000000E+03  0.00000000000E+00 0. -1.
        -11    1    1    2    0    0  0.24445915350E+01 -0.20225165980E-01  0.17273349510E+03  0.17275079383E+03  0.00000000000E+00 0. -1.
         11    1    1    2    0    0 -0.82668883432E+00 -0.20826018846E+01 -0.11083034719E+03  0.11085299501E+03  0.00000000000E+00 0. -1.
        -15    1    1    2    0    0 -0.90496096174E+01 -0.94763488558E+01  0.41833871818E+01  0.13869213358E+02  0.17770000000E+01 0.  1.
         15    1    1    2    0    0  0.74317069167E+01  0.11579175906E+02 -0.66086535094E+02  0.67526997801E+02  0.17770000000E+01 0. -1.
</event>
<event>
 6    1  0.1378789E-002  0.1845703E+03  0.7546771E-02  0.1066819E+00
        -11   -1    0    0    0    0  0.00000000000E+00  0.00000000000E+00  0.18250000000E+03  0.18250000000E+03  0.00000000000E+00 0. -1.
         11   -1    0    0    0    0 -0.00000000000E+00 -0.00000000000E+00 -0.18250000000E+03  0.18250000000E+03  0.00000000000E+00 0.  1.
        -11    1    1    2    0    0  0.25963468005E+00  0.36533948762E+01  0.18039254445E+03  0.18042972260E+03  0.00000000000E+00 0. -1.
         11    1    1    2    0    0 -0.52246151192E+01 -0.18494604094E+01 -0.15089256105E+03  0.15099431144E+03  0.00000000000E+00 0.  1.
        -15    1    1    2    0    0 -0.36563173306E+01 -0.22132499295E+01 -0.26870296223E+01  0.53521013502E+01  0.17770000000E+01 0. -1.
         15    1    1    2    0    0  0.86212977697E+01  0.40931546267E+00 -0.26812953776E+02  0.28223864611E+02  0.17770000000E+01 0.  1.
</event>
<event>
 6    1  0.1378789E-002  0.1837334E+03  0.7546771E-02  0.1067477E+00
        -11   -1    0    0    0    0  0.00000000000E+00  0.00000000000E+00  0.18250000000E+03  0.18250000000E+03  0.00000000000E+00 0. -1.
         11   -1    0    0    0    0 -0.00000000000E+00 -0.00000000000E+00 -0.18250000000E+03  0.18250000000E+03  0.00000000000E+00 0.  1.
        -11    1    1    2    0    0 -0.11137619447E+02  0.30310759420E+01  0.38304074376E+02  0.40005450905E+02  0.00000000000E+00 0. -1.
         11    1    1    2    0    0  0.49930865146E+01  0.50452245480E+00 -0.18119713491E+03  0.18126661898E+03  0.00000000000E+00 0.  1.
        -15    1    1    2    0    0 -0.32676596968E+01 -0.11285903649E+01  0.77080443912E+02  0.77178389972E+02  0.17770000000E+01 0.  1.
         15    1    1    2    0    0  0.94121926295E+01 -0.24070080319E+01  0.65812616623E+02  0.66549540145E+02  0.17770000000E+01 0. -1.
</event>
<event>
 6    1  0.1378789E-002  0.1834832E+03  0.7546771E-02  0.1067675E+00
        -11   -1    0    0    0    0  0.00000000000E+00  0.00000000000E+00  0.18250000000E+03  0.18250000000E+03  0.00000000000E+00 0. -1.
         11   -1    0    0    0    0 -0.00000000000E+00 -0.00000000000E+00 -0.18250000000E+03  0.18250000000E+03  0.00000000000E+00 0. -1.
        -11    1    1    2    0    0  0.11419112190E+00  0.57984796234E+01  0.13555738490E+03  0.13568139152E+03  0.00000000000E+00 0. -1.
         11    1    1    2    0    0  0.85849748450E+00  0.63300364599E+01 -0.18140432027E+03  0.18151675898E+03  0.00000000000E+00 0. -1.
        -15    1    1    2    0    0 -0.21268144341E+00 -0.10198974408E+02  0.40435950844E+02  0.41740725461E+02  0.17770000000E+01 0. -1.
         15    1    1    2    0    0 -0.76000716300E+00 -0.19295416753E+01  0.54109845280E+01  0.60611240316E+01  0.17770000000E+01 0.  1.
</event>
<event>
 6    1  0.1378789E-002  0.1855767E+03  0.7546771E-02  0.1066032E+00
        -11   -1    0    0    0    0  0.00000000000E+00  0.00000000000E+00  0.18250000000E+03  0.18250000000E+03  0.00000000000E+00 0. -1.
         11   -1    0    0    0    0 -0.00000000000E+00 -0.00000000000E+00 -0.18250000000E+03  0.18250000000E+03  0.00000000000E+00 0. -1.
        -11    1    1    2    0    0  0.22376567643E+01  0.28649623944E+01  0.16948402053E+03  0.16952300236E+03  0.00000000000E+00 0. -1.
         11    1    1    2    0    0  0.47849964509E+01  0.18101447397E+01 -0.17935035281E+03  0.17942330358E+03  0.00000000000E+00 0. -1.
        -15    1    1    2    0    0 -0.13294835528E+01  0.23655062113E+01  0.14067083245E+01  0.35354919690E+01  0.17770000000E+01 0. -1.
         15    1    1    2    0    0 -0.56931696624E+01 -0.70406133453E+01  0.84596239555E+01  0.12518202089E+02  0.17770000000E+01 0.  1.
</event>
<event>
 6    1  0.1378789E-002  0.1862524E+03  0.7546771E-02  0.1065507E+00
        -11   -1    0    0    0    0  0.00000000000E+00  0.00000000000E+00  0.18250000000E+03  0.18250000000E+03  0.00000000000E+00 0. -1.
         11   -1    0    0    0    0 -0.00000000000E+00 -0.00000000000E+00 -0.18250000000E+03  0.18250000000E+03  0.00000000000E+00 0. -1.
        -11    1    1    2    0    0 -0.44256068703E+01 -0.16937286000E+01  0.17046106557E+03  0.17052691749E+03  0.00000000000E+00 0. -1.
         11    1    1    2    0    0 -0.11958638548E+00  0.28568536508E+01 -0.17872469662E+03  0.17874756809E+03  0.00000000000E+00 0. -1.
        -15    1    1    2    0    0  0.58723324333E+01  0.25332475389E+01  0.91702876432E+01  0.11320491851E+02  0.17770000000E+01 0.  1.
         15    1    1    2    0    0 -0.13271391775E+01 -0.36963725896E+01 -0.90665658906E+00  0.44050225752E+01  0.17770000000E+01 0.  1.
</event>
<event>
 6    1  0.1378789E-002  0.1866687E+03  0.7546771E-02  0.1065184E+00
        -11   -1    0    0    0    0  0.00000000000E+00  0.00000000000E+00  0.18250000000E+03  0.18250000000E+03  0.00000000000E+00 0. -1.
         11   -1    0    0    0    0 -0.00000000000E+00 -0.00000000000E+00 -0.18250000000E+03  0.18250000000E+03  0.00000000000E+00 0.  1.
        -11    1    1    2    0    0 -0.34057992508E+01  0.13839020811E+02  0.17776087121E+03  0.17833127964E+03  0.00000000000E+00 0. -1.
         11    1    1    2    0    0  0.41065365031E+01  0.21554729998E+01 -0.81186674962E+02  0.81319037730E+02  0.00000000000E+00 0.  1.
        -15    1    1    2    0    0  0.11686511163E+02 -0.18273795569E+02 -0.27280932104E+02  0.34898612195E+02  0.17770000000E+01 0.  1.
         15    1    1    2    0    0 -0.12387248415E+02  0.22793017582E+01 -0.69293264146E+02  0.70451070431E+02  0.17770000000E+01 0. -1.
</event>
<event>
 6    1  0.1378789E-002  0.1845295E+03  0.7546771E-02  0.1066851E+00
        -11   -1    0    0    0    0  0.00000000000E+00  0.00000000000E+00  0.18250000000E+03  0.18250000000E+03  0.00000000000E+00 0.  1.
         11   -1    0    0    0    0 -0.00000000000E+00 -0.00000000000E+00 -0.18250000000E+03  0.18250000000E+03  0.00000000000E+00 0.  1.
        -11    1    1    2    0    0 -0.17935515536E+00  0.69694588967E+01  0.18033581131E+03  0.18047052493E+03  0.00000000000E+00 0.  1.
         11    1    1    2    0    0  0.32763324038E+00 -0.22928968402E+01 -0.15885908824E+03  0.15887597249E+03  0.00000000000E+00 0.  1.
        -15    1    1    2    0    0  0.21708028306E+01 -0.85061370517E+01 -0.16183104986E+02  0.18496415016E+02  0.17770000000E+01 0.  1.
         15    1    1    2    0    0 -0.23190809156E+01  0.38295749952E+01 -0.52936180896E+01  0.71570875652E+01  0.17770000000E+01 0. -1.
</event>
<event>
 6    1  0.1378789E-002  0.1853120E+03  0.7546771E-02  0.1066238E+00
        -11   -1    0    0    0    0  0.00000000000E+00  0.00000000000E+00  0.18250000000E+03  0.18250000000E+03  0.00000000000E+00 0. -1.
         11   -1    0    0    0    0 -0.00000000000E+00 -0.00000000000E+00 -0.18250000000E+03  0.18250000000E+03  0.00000000000E+00 0.  1.
        -11    1    1    2    0    0  0.15110769430E+01  0.46504558427E+01  0.17962144975E+03  0.17968799432E+03  0.00000000000E+00 0. -1.
         11    1    1    2    0    0  0.61876817705E+01 -0.83003880243E-01 -0.13633257811E+02  0.14971974281E+02  0.00000000000E+00 0.  1.
        -15    1    1    2    0    0 -0.13880691136E+01 -0.41015053088E+01 -0.48405334341E+00  0.47054349748E+01  0.17770000000E+01 0. -1.
         15    1    1    2    0    0 -0.63106895999E+01 -0.46594665360E+00 -0.16550413860E+03  0.16563459642E+03  0.17770000000E+01 0.  1.
</event>
<event>
 6    1  0.1378789E-002  0.1833540E+03  0.7546771E-02  0.1067777E+00
        -11   -1    0    0    0    0  0.00000000000E+00  0.00000000000E+00  0.18250000000E+03  0.18250000000E+03  0.00000000000E+00 0. -1.
         11   -1    0    0    0    0 -0.00000000000E+00 -0.00000000000E+00 -0.18250000000E+03  0.18250000000E+03  0.00000000000E+00 0.  1.
        -11    1    1    2    0    0  0.66193300591E+00 -0.42755924985E+01  0.18159443568E+03  0.18164596862E+03  0.00000000000E+00 0. -1.
         11    1    1    2    0    0  0.15877653249E+01  0.12188727839E+01 -0.12684406529E+03  0.12685985791E+03  0.00000000000E+00 0.  1.
        -15    1    1    2    0    0 -0.52130137563E+01  0.61872038855E+01 -0.44050884514E+02  0.44822931183E+02  0.17770000000E+01 0. -1.
         15    1    1    2    0    0  0.29633154255E+01 -0.31304841709E+01 -0.10699485877E+02  0.11671242286E+02  0.17770000000E+01 0.  1.
</event>
<event>
 6    1  0.1378789E-002  0.1775882E+03  0.7546771E-02  0.1072433E+00
        -11   -1    0    0    0    0  0.00000000000E+00  0.00000000000E+00  0.18250000000E+03  0.18250000000E+03  0.00000000000E+00 0. -1.
         11   -1    0    0    0    0 -0.00000000000E+00 -0.00000000000E+00 -0.18250000000E+03  0.18250000000E+03  0.00000000000E+00 0. -1.
        -11    1    1    2    0    0  0.28913797422E+01  0.31050470139E+01  0.17584444162E+03  0.17589561974E+03  0.00000000000E+00 0. -1.
         11    1    1    2    0    0 -0.39046023333E+01  0.31525638958E+01 -0.17928379296E+03  0.17935401584E+03  0.00000000000E+00 0. -1.
        -15    1    1    2    0    0  0.10289548943E+01 -0.45921794547E+01  0.48063888734E+01  0.69574394227E+01  0.17770000000E+01 0. -1.
         15    1    1    2    0    0 -0.15732303162E-01 -0.16654314550E+01 -0.13670375329E+01  0.27929249995E+01  0.17770000000E+01 0.  1.
</event>
<event>
 6    1  0.1378789E-002  0.1853159E+03  0.7546771E-02  0.1066235E+00
        -11   -1    0    0    0    0  0.00000000000E+00  0.00000000000E+00  0.18250000000E+03  0.18250000000E+03  0.00000000000E+00 0. -1.
         11   -1    0    0    0    0 -0.00000000000E+00 -0.00000000000E+00 -0.18250000000E+03  0.18250000000E+03  0.00000000000E+00 0. -1.
        -11    1    1    2    0    0 -0.51938703911E+01  0.11080076362E+01  0.17960559373E+03  0.17968409298E+03  0.00000000000E+00 0. -1.
         11    1    1    2    0    0  0.83176451646E+01  0.47788294489E+00 -0.16514001660E+03  0.16535004286E+03  0.00000000000E+00 0. -1.
        -15    1    1    2    0    0  0.32461869886E+01  0.29414147063E+01 -0.19707840153E+01  0.51216568681E+01  0.17770000000E+01 0. -1.
         15    1    1    2    0    0 -0.63699617621E+01 -0.45273052875E+01 -0.12494793118E+02  0.14844207290E+02  0.17770000000E+01 0.  1.
</event>
<event>
 6    1  0.1378789E-002  0.1832573E+03  0.7546771E-02  0.1067854E+00
        -11   -1    0    0    0    0  0.00000000000E+00  0.00000000000E+00  0.18250000000E+03  0.18250000000E+03  0.00000000000E+00 0.  1.
         11   -1    0    0    0    0 -0.00000000000E+00 -0.00000000000E+00 -0.18250000000E+03  0.18250000000E+03  0.00000000000E+00 0.  1.
        -11    1    1    2    0    0 -0.52340055496E+01  0.27559322009E+01  0.18164641664E+03  0.18174270454E+03  0.00000000000E+00 0.  1.
         11    1    1    2    0    0  0.17543026544E+01 -0.19535390600E+01 -0.11637829874E+03  0.11640791343E+03  0.00000000000E+00 0.  1.
        -15    1    1    2    0    0  0.52757068843E+01 -0.11450814564E+01 -0.98458684280E+01  0.11368515680E+02  0.17770000000E+01 0.  1.
         15    1    1    2    0    0 -0.17960039891E+01  0.34268831556E+00 -0.55422249471E+02  0.55480866351E+02  0.17770000000E+01 0.  1.
</event>
<event>
 6    1  0.1378789E-002  0.1826913E+03  0.7546771E-02  0.1068303E+00
        -11   -1    0    0    0    0  0.00000000000E+00  0.00000000000E+00  0.18250000000E+03  0.18250000000E+03  0.00000000000E+00 0. -1.
         11   -1    0    0    0    0 -0.00000000000E+00 -0.00000000000E+00 -0.18250000000E+03  0.18250000000E+03  0.00000000000E+00 0.  1.
        -11    1    1    2    0    0 -0.20527807076E+01 -0.23260017279E+01  0.25867859311E+02  0.26053221260E+02  0.00000000000E+00 0. -1.
         11    1    1    2    0    0 -0.30782944435E-01  0.27181604160E+01 -0.18228845315E+03  0.18230872030E+03  0.00000000000E+00 0.  1.
        -15    1    1    2    0    0  0.14735915193E+01  0.47692455537E+00  0.14572063326E+03  0.14573969815E+03  0.17770000000E+01 0. -1.
         15    1    1    2    0    0  0.60997213277E+00 -0.86908324353E+00  0.10699960581E+02  0.10898360295E+02  0.17770000000E+01 0.  1.
</event>
<event>
 6    1  0.1378789E-002  0.1831900E+03  0.7546771E-02  0.1067907E+00
        -11   -1    0    0    0    0  0.00000000000E+00  0.00000000000E+00  0.18250000000E+03  0.18250000000E+03  0.00000000000E+00 0. -1.
         11   -1    0    0    0    0 -0.00000000000E+00 -0.00000000000E+00 -0.18250000000E+03  0.18250000000E+03  0.00000000000E+00 0. -1.
        -11    1    1    2    0    0 -0.85324048703E+00  0.29887061826E+01  0.12753175537E+03  0.12756962417E+03  0.00000000000E+00 0. -1.
         11    1    1    2    0    0  0.21844304597E+01  0.14201969471E+01 -0.18179135160E+03  0.18181002231E+03  0.00000000000E+00 0. -1.
        -15    1    1    2    0    0  0.36909166894E+01  0.55206733584E+00  0.30261531637E+02  0.30542522331E+02  0.17770000000E+01 0.  1.
         15    1    1    2    0    0 -0.50221066621E+01 -0.49609704656E+01  0.23998064601E+02  0.25077831183E+02  0.17770000000E+01 0. -1.
</event>
<event>
 6    1  0.1378789E-002  0.1933600E+03  0.7546771E-02  0.1060125E+00
        -11   -1    0    0    0    0  0.00000000000E+00  0.00000000000E+00  0.18250000000E+03  0.18250000000E+03  0.00000000000E+00 0. -1.
         11   -1    0    0    0    0 -0.00000000000E+00 -0.00000000000E+00 -0.18250000000E+03  0.18250000000E+03  0.00000000000E+00 0.  1.
        -11    1    1    2    0    0  0.73704895089E+00 -0.81761401657E+01  0.12089174502E+03  0.12117015525E+03  0.00000000000E+00 0. -1.
         11    1    1    2    0    0 -0.33827158327E+01 -0.21740758580E+01 -0.17159292762E+03  0.17164003665E+03  0.00000000000E+00 0.  1.
        -15    1    1    2    0    0  0.25945404972E+01  0.87735644787E+00  0.59229954960E+02  0.59319867568E+02  0.17770000000E+01 0. -1.
         15    1    1    2    0    0  0.51126384698E-01  0.94728595759E+01 -0.85287723622E+01  0.12869940538E+02  0.17770000000E+01 0.  1.
</event>
<event>
 6    1  0.1378789E-002  0.1826364E+03  0.7546771E-02  0.1068346E+00
        -11   -1    0    0    0    0  0.00000000000E+00  0.00000000000E+00  0.18250000000E+03  0.18250000000E+03  0.00000000000E+00 0. -1.
         11   -1    0    0    0    0 -0.00000000000E+00 -0.00000000000E+00 -0.18250000000E+03  0.18250000000E+03  0.00000000000E+00 0.  1.
        -11    1    1    2    0    0  0.26749836151E+01  0.35326551350E+00  0.18234359497E+03  0.18236355711E+03  0.00000000000E+00 0. -1.
         11    1    1    2    0    0 -0.21041225813E+01 -0.14343642275E+01 -0.58282826923E+02  0.58338431987E+02  0.00000000000E+00 0.  1.
        -15    1    1    2    0    0  0.23643306672E+01  0.16132343286E+01 -0.33104039573E+02  0.33275031924E+02  0.17770000000E+01 0.  1.
         15    1    1    2    0    0 -0.29351917010E+01 -0.53213561462E+00 -0.90956728475E+02  0.91022978980E+02  0.17770000000E+01 0.  1.
</event>
<event>
 6    1  0.1378789E-002  0.1843290E+03  0.7546771E-02  0.1067008E+00
        -11   -1    0    0    0    0  0.00000000000E+00  0.00000000000E+00  0.18250000000E+03  0.18250000000E+03  0.00000000000E+00 0.  1.
         11   -1    0    0    0    0 -0.00000000000E+00 -0.00000000000E+00 -0.18250000000E+03  0.18250000000E+03  0.00000000000E+00 0. -1.
        -11    1    1    2    0    0  0.27543063721E+01 -0.47288989458E+01  0.15732347080E+03  0.15741862391E+03  0.00000000000E+00 0.  1.
         11    1    1    2    0    0  0.29282308942E+01 -0.11781216877E+01 -0.18064346357E+03  0.18067103652E+03  0.00000000000E+00 0. -1.
        -15    1    1    2    0    0 -0.10764132222E+01 -0.13787928374E+00  0.16239358191E+02  0.16372298543E+02  0.17770000000E+01 0.  1.
         15    1    1    2    0    0 -0.46061240441E+01  0.60448999172E+01  0.70806345754E+01  0.10538041028E+02  0.17770000000E+01 0. -1.
</event>
<event>
 6    1  0.1378789E-002  0.1832443E+03  0.7546771E-02  0.1067864E+00
        -11   -1    0    0    0    0  0.00000000000E+00  0.00000000000E+00  0.18250000000E+03  0.18250000000E+03  0.00000000000E+00 0. -1.
         11   -1    0    0    0    0 -0.00000000000E+00 -0.00000000000E+00 -0.18250000000E+03  0.18250000000E+03  0.00000000000E+00 0. -1.
        -11    1    1    2    0    0 -0.34632069009E+01  0.31086970410E+01  0.18169610993E+03  0.18175569912E+03  0.00000000000E+00 0. -1.
         11    1    1    2    0    0 -0.22953887985E+00 -0.20278415160E+01 -0.13899277200E+03  0.13900775338E+03  0.00000000000E+00 0. -1.
        -15    1    1    2    0    0 -0.25587515544E+01  0.25821421532E+01 -0.16790427303E+02  0.17271098564E+02  0.17770000000E+01 0. -1.
         15    1    1    2    0    0  0.62514973352E+01 -0.36629976782E+01 -0.25912910618E+02  0.26965448942E+02  0.17770000000E+01 0.  1.
</event>
<event>
 6    1  0.1378789E-002  0.1883646E+03  0.7546771E-02  0.1063880E+00
        -11   -1    0    0    0    0  0.00000000000E+00  0.00000000000E+00  0.18250000000E+03  0.18250000000E+03  0.00000000000E+00 0. -1.
         11   -1    0    0    0    0 -0.00000000000E+00 -0.00000000000E+00 -0.18250000000E+03  0.18250000000E+03  0.00000000000E+00 0.  1.
        -11    1    1    2    0    0 -0.35310797319E+01  0.11950407562E+00  0.17150813512E+03  0.17154452256E+03  0.00000000000E+00 0. -1.
         11    1    1    2    0    0 -0.35850772297E+01 -0.19118212161E+01 -0.17658871471E+03  0.17663544945E+03  0.00000000000E+00 0.  1.
        -15    1    1    2    0    0 -0.40073635572E+01  0.13289218720E+01  0.35116288221E+00  0.45941310812E+01  0.17770000000E+01 0. -1.
         15    1    1    2    0    0  0.11123520519E+02  0.46339526843E+00  0.47294167057E+01  0.12225896911E+02  0.17770000000E+01 0.  1.
</event>
<event>
 6    1  0.1378789E-002  0.1825851E+03  0.7546771E-02  0.1068387E+00
        -11   -1    0    0    0    0  0.00000000000E+00  0.00000000000E+00  0.18250000000E+03  0.18250000000E+03  0.00000000000E+00 0. -1.
         11   -1    0    0    0    0 -0.00000000000E+00 -0.00000000000E+00 -0.18250000000E+03  0.18250000000E+03  0.00000000000E+00 0. -1.
        -11    1    1    2    0    0  0.40904233946E+00 -0.66934772504E+00  0.17219056421E+02  0.17236915213E+02  0.00000000000E+00 0. -1.
         11    1    1    2    0    0  0.45875593770E+01 -0.18784950187E+01 -0.18234755040E+03  0.18241492149E+03  0.00000000000E+00 0. -1.
        -15    1    1    2    0    0 -0.47362738455E+01  0.14749337944E+01  0.14779125936E+03  0.14788516420E+03  0.17770000000E+01 0. -1.
         15    1    1    2    0    0 -0.26032787100E+00  0.10729089494E+01  0.17337234618E+02  0.17462999096E+02  0.17770000000E+01 0. -1.
</event>
<event>
 6    1  0.1378789E-002  0.1711942E+03  0.7546771E-02  0.1077828E+00
        -11   -1    0    0    0    0  0.00000000000E+00  0.00000000000E+00  0.18250000000E+03  0.18250000000E+03  0.00000000000E+00 0.  1.
         11   -1    0    0    0    0 -0.00000000000E+00 -0.00000000000E+00 -0.18250000000E+03  0.18250000000E+03  0.00000000000E+00 0. -1.
        -11    1    1    2    0    0  0.17749838951E+01 -0.36966065057E+01  0.17054258474E+03  0.17059187752E+03  0.00000000000E+00 0.  1.
         11    1    1    2    0    0  0.24284396636E+01 -0.95851279385E+00 -0.17183667003E+03  0.17185650186E+03  0.00000000000E+00 0. -1.
        -15    1    1    2    0    0 -0.12553314303E+01  0.10458246296E+02  0.77624459470E+01  0.13204698735E+02  0.17770000000E+01 0.  1.
         15    1    1    2    0    0 -0.29480921285E+01 -0.58031269969E+01 -0.64683606570E+01  0.93469218853E+01  0.17770000000E+01 0. -1.
</event>
<event>
 6    1  0.1378789E-002  0.1833821E+03  0.7546771E-02  0.1067755E+00
        -11   -1    0    0    0    0  0.00000000000E+00  0.00000000000E+00  0.18250000000E+03  0.18250000000E+03  0.00000000000E+00 0.  1.
         11   -1    0    0    0    0 -0.00000000000E+00 -0.00000000000E+00 -0.18250000000E+03  0.18250000000E+03  0.00000000000E+00 0. -1.
        -11    1    1    2    0    0 -0.32809075464E+01 -0.26823767565E+01  0.96942797855E+02  0.97035383007E+02  0.00000000000E+00 0.  1.
         11    1    1    2    0    0 -0.76078997371E+01  0.85379237355E+01 -0.18125754102E+03  0.18161792989E+03  0.00000000000E+00 0. -1.
        -15    1    1    2    0    0  0.64610628051E+01 -0.75185358022E+01  0.27127875017E+02  0.28937053152E+02  0.17770000000E+01 0.  1.
         15    1    1    2    0    0  0.44277444784E+01  0.16629888232E+01  0.57186868148E+02  0.57409633953E+02  0.17770000000E+01 0. -1.
</event>
<event>
 6    1  0.1378789E-002  0.1869109E+03  0.7546771E-02  0.1064997E+00
        -11   -1    0    0    0    0  0.00000000000E+00  0.00000000000E+00  0.18250000000E+03  0.18250000000E+03  0.00000000000E+00 0. -1.
         11   -1    0    0    0    0 -0.00000000000E+00 -0.00000000000E+00 -0.18250000000E+03  0.18250000000E+03  0.00000000000E+00 0. -1.
        -11    1    1    2    0    0  0.70807950080E+01 -0.44505688854E+01  0.95189821252E+02  0.95556513600E+02  0.00000000000E+00 0. -1.
         11    1    1    2    0    0  0.26712625754E+01  0.41392771392E+00 -0.17806856020E+03  0.17808907634E+03  0.00000000000E+00 0. -1.
        -15    1    1    2    0    0 -0.98389006934E+01 -0.18508691512E+01  0.84406759958E+02  0.85016989709E+02  0.17770000000E+01 0. -1.
         15    1    1    2    0    0  0.86843110006E-01  0.58875103227E+01 -0.15280210129E+01  0.63374203538E+01  0.17770000000E+01 0.  1.
</event>
<event>
 6    1  0.1378789E-002  0.1830407E+03  0.7546771E-02  0.1068025E+00
        -11   -1    0    0    0    0  0.00000000000E+00  0.00000000000E+00  0.18250000000E+03  0.18250000000E+03  0.00000000000E+00 0.  1.
         11   -1    0    0    0    0 -0.00000000000E+00 -0.00000000000E+00 -0.18250000000E+03  0.18250000000E+03  0.00000000000E+00 0. -1.
        -11    1    1    2    0    0  0.35976804106E+01 -0.15270211131E+01  0.18191736393E+03  0.18195934270E+03  0.00000000000E+00 0.  1.
         11    1    1    2    0    0  0.11878992512E+01  0.15275720625E+01 -0.88181340393E+02  0.88202570113E+02  0.00000000000E+00 0. -1.
        -15    1    1    2    0    0 -0.72667841942E+01  0.43268521981E+00 -0.26709964507E+02  0.27741184221E+02  0.17770000000E+01 0.  1.
         15    1    1    2    0    0  0.24812045324E+01 -0.43323616920E+00 -0.67026059028E+02  0.67096902964E+02  0.17770000000E+01 0.  1.
</event>
<event>
 6    1  0.1378789E-002  0.1832817E+03  0.7546771E-02  0.1067834E+00
        -11   -1    0    0    0    0  0.00000000000E+00  0.00000000000E+00  0.18250000000E+03  0.18250000000E+03  0.00000000000E+00 0.  1.
         11   -1    0    0    0    0 -0.00000000000E+00 -0.00000000000E+00 -0.18250000000E+03  0.18250000000E+03  0.00000000000E+00 0.  1.
        -11    1    1    2    0    0  0.79636012727E+00 -0.34772300465E+01  0.14153292375E+03  0.14157787194E+03  0.00000000000E+00 0.  1.
         11    1    1    2    0    0 -0.16878608715E+01 -0.35808506096E+01 -0.18167517482E+03  0.18171829988E+03  0.00000000000E+00 0.  1.
        -15    1    1    2    0    0 -0.19392473149E+01  0.30795237978E+01  0.64699296643E+01  0.76329460780E+01  0.17770000000E+01 0. -1.
         15    1    1    2    0    0  0.28307480592E+01  0.39785568582E+01  0.33672321403E+02  0.34070882097E+02  0.17770000000E+01 0.  1.
</event>
<event>
 6    1  0.1378789E-002  0.1852337E+03  0.7546771E-02  0.1066299E+00
        -11   -1    0    0    0    0  0.00000000000E+00  0.00000000000E+00  0.18250000000E+03  0.18250000000E+03  0.00000000000E+00 0.  1.
         11   -1    0    0    0    0 -0.00000000000E+00 -0.00000000000E+00 -0.18250000000E+03  0.18250000000E+03  0.00000000000E+00 0.  1.
        -11    1    1    2    0    0 -0.13491185409E+01 -0.22024861215E+01  0.16387514567E+03  0.16389549852E+03  0.00000000000E+00 0.  1.
         11    1    1    2    0    0 -0.11339732881E+01 -0.38821907097E+01 -0.17972084778E+03  0.17976634954E+03  0.00000000000E+00 0.  1.
        -15    1    1    2    0    0  0.41812910687E+01  0.75479517174E+01  0.50174072424E+01  0.10138386191E+02  0.17770000000E+01 0. -1.
         15    1    1    2    0    0 -0.16981992398E+01 -0.14632748862E+01  0.10828294865E+02  0.11199765745E+02  0.17770000000E+01 0.  1.
</event>
<event>
 6    1  0.1378789E-002  0.1773631E+03  0.7546771E-02  0.1072619E+00
        -11   -1    0    0    0    0  0.00000000000E+00  0.00000000000E+00  0.18250000000E+03  0.18250000000E+03  0.00000000000E+00 0.  1.
         11   -1    0    0    0    0 -0.00000000000E+00 -0.00000000000E+00 -0.18250000000E+03  0.18250000000E+03  0.00000000000E+00 0. -1.
        -11    1    1    2    0    0 -0.63768697854E-01  0.25233733327E+01  0.17706946536E+03  0.17708745591E+03  0.00000000000E+00 0.  1.
         11    1    1    2    0    0 -0.39237222072E+01  0.87795916385E+00 -0.17763243172E+03  0.17767793112E+03  0.00000000000E+00 0. -1.
        -15    1    1    2    0    0  0.39819572106E+01  0.11701274622E+01  0.22545932107E+01  0.50463948568E+01  0.17770000000E+01 0. -1.
         15    1    1    2    0    0  0.55336944201E-02 -0.45714599588E+01 -0.16916268470E+01  0.51882181108E+01  0.17770000000E+01 0.  1.
</event>
<event>
 6    1  0.1378789E-002  0.1826066E+03  0.7546771E-02  0.1068370E+00
        -11   -1    0    0    0    0  0.00000000000E+00  0.00000000000E+00  0.18250000000E+03  0.18250000000E+03  0.00000000000E+00 0.  1.
         11   -1    0    0    0    0 -0.00000000000E+00 -0.00000000000E+00 -0.18250000000E+03  0.18250000000E+03  0.00000000000E+00 0. -1.
        -11    1    1    2    0    0  0.16148466870E+01  0.10474824298E+00  0.92473798644E+02  0.92487956717E+02  0.00000000000E+00 0.  1.
         11    1    1    2    0    0 -0.16600668302E+01 -0.55558710512E+01 -0.18230122068E+03  0.18239341706E+03  0.00000000000E+00 0. -1.
        -15    1    1    2    0    0 -0.77312280891E+00  0.28066946498E+01  0.62664850538E+02  0.62757600939E+02  0.17770000000E+01 0.  1.
         15    1    1    2    0    0  0.81834295211E+00  0.26444281584E+01  0.27162571496E+02  0.27361025287E+02  0.17770000000E+01 0. -1.
</event>
<event>
 6    1  0.1378789E-002  0.1865504E+03  0.7546771E-02  0.1065276E+00
        -11   -1    0    0    0    0  0.00000000000E+00  0.00000000000E+00  0.18250000000E+03  0.18250000000E+03  0.00000000000E+00 0. -1.
         11   -1    0    0    0    0 -0.00000000000E+00 -0.00000000000E+00 -0.18250000000E+03  0.18250000000E+03  0.00000000000E+00 0.  1.
        -11    1    1    2    0    0  0.10583629283E+01  0.23290418724E+01  0.17843125069E+03  0.17844958893E+03  0.00000000000E+00 0. -1.
         11    1    1    2    0    0 -0.30094613648E+01 -0.58467670255E+01 -0.13253361271E+03  0.13269664668E+03  0.00000000000E+00 0.  1.
        -15    1    1    2    0    0 -0.17947789781E+01  0.11252173969E+02 -0.59945901496E+01  0.12997133940E+02  0.17770000000E+01 0. -1.
         15    1    1    2    0    0  0.37458774147E+01 -0.77344488155E+01 -0.39903047831E+02  0.40856630445E+02  0.17770000000E+01 0.  1.
</event>
<event>
 6    1  0.1378789E-002  0.1870125E+03  0.7546771E-02  0.1064919E+00
        -11   -1    0    0    0    0  0.00000000000E+00  0.00000000000E+00  0.18250000000E+03  0.18250000000E+03  0.00000000000E+00 0.  1.
         11   -1    0    0    0    0 -0.00000000000E+00 -0.00000000000E+00 -0.18250000000E+03  0.18250000000E+03  0.00000000000E+00 0. -1.
        -11    1    1    2    0    0 -0.39686669094E+01 -0.53691380482E+01  0.14447634349E+03  0.14463053546E+03  0.00000000000E+00 0.  1.
         11    1    1    2    0    0 -0.43436503457E+01  0.13998972713E+01 -0.17792900815E+03  0.17798752471E+03  0.00000000000E+00 0. -1.
        -15    1    1    2    0    0  0.53748557298E+01 -0.10985218230E+01 -0.22265095785E+01  0.61814964382E+01  0.17770000000E+01 0.  1.
         15    1    1    2    0    0  0.29374615252E+01  0.50677625998E+01  0.35679174239E+02  0.36200443387E+02  0.17770000000E+01 0.  1.
</event>
<event>
 6    1  0.1378789E-002  0.1918935E+03  0.7546771E-02  0.1061214E+00
        -11   -1    0    0    0    0  0.00000000000E+00  0.00000000000E+00  0.18250000000E+03  0.18250000000E+03  0.00000000000E+00 0.  1.
         11   -1    0    0    0    0 -0.00000000000E+00 -0.00000000000E+00 -0.18250000000E+03  0.18250000000E+03  0.00000000000E+00 0. -1.
        -11    1    1    2    0    0  0.10817828250E+01 -0.39698825344E+01  0.17305759342E+03  0.17310650150E+03  0.00000000000E+00 0.  1.
         11    1    1    2    0    0 -0.15321655095E+01  0.25696922408E+01 -0.16986428205E+03  0.16989062707E+03  0.00000000000E+00 0. -1.
        -15    1    1    2    0    0  0.13508843928E+01  0.44198332212E+01  0.84591513769E+01  0.98017746027E+01  0.17770000000E+01 0.  1.
         15    1    1    2    0    0 -0.90050170829E+00 -0.30196429275E+01 -0.11652462747E+02  0.12201096828E+02  0.17770000000E+01 0. -1.
</event>
<event>
 6    1  0.1378789E-002  0.1889474E+03  0.7546771E-02  0.1063435E+00
        -11   -1    0    0    0    0  0.00000000000E+00  0.00000000000E+00  0.18250000000E+03  0.18250000000E+03  0.00000000000E+00 0. -1.
         11   -1    0    0    0    0 -0.00000000000E+00 -0.00000000000E+00 -0.18250000000E+03  0.18250000000E+03  0.00000000000E+00 0. -1.
        -11    1    1    2    0    0 -0.16782282615E+01 -0.16546396052E+01  0.16374223629E+03  0.16375919585E+03  0.00000000000E+00 0. -1.
         11    1    1    2    0    0 -0.10262777569E+01  0.65031209314E+01 -0.17592950346E+03  0.17605264558E+03  0.00000000000E+00 0. -1.
        -15    1    1    2    0    0 -0.11110940763E+01  0.24626763870E+01  0.15714857148E+02  0.16044119459E+02  0.17770000000E+01 0.  1.
         15    1    1    2    0    0  0.38156000947E+01 -0.73111577131E+01 -0.35275899773E+01  0.91440391095E+01  0.17770000000E+01 0. -1.
</event>
<event>
 6    1  0.1378789E-002  0.1854821E+03  0.7546771E-02  0.1066106E+00
        -11   -1    0    0    0    0  0.00000000000E+00  0.00000000000E+00  0.18250000000E+03  0.18250000000E+03  0.00000000000E+00 0. -1.
         11   -1    0    0    0    0 -0.00000000000E+00 -0.00000000000E+00 -0.18250000000E+03  0.18250000000E+03  0.00000000000E+00 0.  1.
        -11    1    1    2    0    0  0.76843420500E+01  0.26396607302E+01  0.17303614430E+03  0.17322679977E+03  0.00000000000E+00 0. -1.
         11    1    1    2    0    0 -0.49595252827E+01  0.29885318244E+01 -0.17942451784E+03  0.17951792616E+03  0.00000000000E+00 0.  1.
        -15    1    1    2    0    0 -0.49757907446E+01 -0.29306707753E+01  0.56039921153E+01  0.82407391267E+01  0.17770000000E+01 0.  1.
         15    1    1    2    0    0  0.22509739773E+01 -0.26975217794E+01  0.78438141738E+00  0.40145349425E+01  0.17770000000E+01 0. -1.
</event>
<event>
 6    1  0.1378789E-002  0.1842590E+03  0.7546771E-02  0.1067063E+00
        -11   -1    0    0    0    0  0.00000000000E+00  0.00000000000E+00  0.18250000000E+03  0.18250000000E+03  0.00000000000E+00 0. -1.
         11   -1    0    0    0    0 -0.00000000000E+00 -0.00000000000E+00 -0.18250000000E+03  0.18250000000E+03  0.00000000000E+00 0. -1.
        -11    1    1    2    0    0 -0.21024627402E+01 -0.10584678107E+01  0.16001823247E+03  0.16003554426E+03  0.00000000000E+00 0. -1.
         11    1    1    2    0    0  0.89053966475E+01  0.94066324792E+00 -0.18051901441E+03  0.18074099010E+03  0.00000000000E+00 0. -1.
        -15    1    1    2    0    0 -0.22263272758E+01 -0.30010932107E+01  0.16862811560E+02  0.17363042254E+02  0.17770000000E+01 0.  1.
         15    1    1    2    0    0 -0.45766066315E+01  0.31188977735E+01  0.36379703848E+01  0.68604233908E+01  0.17770000000E+01 0. -1.
</event>
<event>
 6    1  0.1378789E-002  0.1905492E+03  0.7546771E-02  0.1062222E+00
        -11   -1    0    0    0    0  0.00000000000E+00  0.00000000000E+00  0.18250000000E+03  0.18250000000E+03  0.00000000000E+00 0.  1.
         11   -1    0    0    0    0 -0.00000000000E+00 -0.00000000000E+00 -0.18250000000E+03  0.18250000000E+03  0.00000000000E+00 0.  1.
        -11    1    1    2    0    0  0.13102646110E+01 -0.23767997931E+01  0.17442963700E+03  0.17445075017E+03  0.00000000000E+00 0.  1.
         11    1    1    2    0    0 -0.52004152953E+01 -0.95457977382E+01 -0.12297863540E+03  0.12345813598E+03  0.00000000000E+00 0.  1.
        -15    1    1    2    0    0  0.53385642960E+00  0.37639892276E+01  0.68860671298E+01  0.80640106094E+01  0.17770000000E+01 0. -1.
         15    1    1    2    0    0  0.33562942547E+01  0.81586083036E+01 -0.58337068725E+02  0.59027103241E+02  0.17770000000E+01 0.  1.
</event>
<event>
 6    1  0.1378789E-002  0.1865312E+03  0.7546771E-02  0.1065291E+00
        -11   -1    0    0    0    0  0.00000000000E+00  0.00000000000E+00  0.18250000000E+03  0.18250000000E+03  0.00000000000E+00 0.  1.
         11   -1    0    0    0    0 -0.00000000000E+00 -0.00000000000E+00 -0.18250000000E+03  0.18250000000E+03  0.00000000000E+00 0. -1.
        -11    1    1    2    0    0  0.17311997398E+02 -0.10031490597E+01  0.17762435769E+03  0.17846883203E+03  0.00000000000E+00 0.  1.
         11    1    1    2    0    0  0.37357598389E+01  0.13643766297E+02 -0.47728076491E+02  0.49780292745E+02  0.00000000000E+00 0. -1.
        -15    1    1    2    0    0 -0.14009420924E+02 -0.53353004685E+00 -0.13639997991E+02  0.19640667075E+02  0.17770000000E+01 0. -1.
         15    1    1    2    0    0 -0.70383363131E+01 -0.12107087190E+02 -0.11625628321E+03  0.11711020815E+03  0.17770000000E+01 0.  1.
</event>
<event>
 6    1  0.1378789E-002  0.1834771E+03  0.7546771E-02  0.1067680E+00
        -11   -1    0    0    0    0  0.00000000000E+00  0.00000000000E+00  0.18250000000E+03  0.18250000000E+03  0.00000000000E+00 0. -1.
         11   -1    0    0    0    0 -0.00000000000E+00 -0.00000000000E+00 -0.18250000000E+03  0.18250000000E+03  0.00000000000E+00 0.  1.
        -11    1    1    2    0    0  0.10711986167E+01 -0.29438158526E+01  0.18149591176E+03  0.18152294484E+03  0.00000000000E+00 0. -1.
         11    1    1    2    0    0  0.48751577668E+01 -0.64331250672E+01 -0.11480485791E+03  0.11508826031E+03  0.00000000000E+00 0.  1.
        -15    1    1    2    0    0 -0.77661138942E+01  0.84006037964E+01 -0.60876183328E+02  0.61967330867E+02  0.17770000000E+01 0. -1.
         15    1    1    2    0    0  0.18197575107E+01  0.97633712343E+00 -0.58148705206E+01  0.64214639879E+01  0.17770000000E+01 0.  1.
</event>
<event>
 6    1  0.1378789E-002  0.1873479E+03  0.7546771E-02  0.1064660E+00
        -11   -1    0    0    0    0  0.00000000000E+00  0.00000000000E+00  0.18250000000E+03  0.18250000000E+03  0.00000000000E+00 0.  1.
         11   -1    0    0    0    0 -0.00000000000E+00 -0.00000000000E+00 -0.18250000000E+03  0.18250000000E+03  0.00000000000E+00 0. -1.
        -11    1    1    2    0    0  0.99014060106E+00  0.11932963293E+01  0.11293415862E+03  0.11294480297E+03  0.00000000000E+00 0.  1.
         11    1    1    2    0    0 -0.12725341296E+01 -0.36410895790E+01 -0.17761025826E+03  0.17765213400E+03  0.00000000000E+00 0. -1.
        -15    1    1    2    0    0  0.47705243299E+00  0.59218582216E+01  0.68591816543E+02  0.68871554429E+02  0.17770000000E+01 0.  1.
         15    1    1    2    0    0 -0.19465890441E+00 -0.34740649719E+01 -0.39157169048E+01  0.55315086004E+01  0.17770000000E+01 0.  1.
</event>
<event>
 6    1  0.1378789E-002  0.1966969E+03  0.7546771E-02  0.1057684E+00
        -11   -1    0    0    0    0  0.00000000000E+00  0.00000000000E+00  0.18250000000E+03  0.18250000000E+03  0.00000000000E+00 0.  1.
         11   -1    0    0    0    0 -0.00000000000E+00 -0.00000000000E+00 -0.18250000000E+03  0.18250000000E+03  0.00000000000E+00 0.  1.
        -11    1    1    2    0    0  0.89905519394E+00  0.19346753622E+01  0.14045504800E+03  0.14047124894E+03  0.00000000000E+00 0.  1.
         11    1    1    2    0    0 -0.23689752386E+01  0.13144524184E+01 -0.16828125460E+03  0.16830306141E+03  0.00000000000E+00 0.  1.
        -15    1    1    2    0    0  0.37798561058E+01 -0.11290446828E+01 -0.13790466754E+02  0.14453261098E+02  0.17770000000E+01 0.  1.
         15    1    1    2    0    0 -0.23099360611E+01 -0.21200830978E+01  0.41616673357E+02  0.41772428553E+02  0.17770000000E+01 0.  1.
</event>
<event>
 6    1  0.1378789E-002  0.1839033E+03  0.7546771E-02  0.1067343E+00
        -11   -1    0    0    0    0  0.00000000000E+00  0.00000000000E+00  0.18250000000E+03  0.18250000000E+03  0.00000000000E+00 0.  1.
         11   -1    0    0    0    0 -0.00000000000E+00 -0.00000000000E+00 -0.18250000000E+03  0.18250000000E+03  0.00000000000E+00 0. -1.
        -11    1    1    2    0    0  0.46259215172E+01  0.10461246307E+01  0.17771925727E+03  0.17778252988E+03  0.00000000000E+00 0.  1.
         11    1    1    2    0    0  0.67522863330E+00 -0.25956628687E+01  0.19468836828E+01  0.33141749365E+01  0.00000000000E+00 0. -1.
        -15    1    1    2    0    0  0.81771041705E+01  0.30875427066E+01 -0.15817786643E+03  0.15842914223E+03  0.17770000000E+01 0. -1.
         15    1    1    2    0    0 -0.13478254321E+02 -0.15380044687E+01 -0.21488274526E+02  0.25474152948E+02  0.17770000000E+01 0.  1.
</event>
<event>
 6    1  0.1378789E-002  0.1836487E+03  0.7546771E-02  0.1067544E+00
        -11   -1    0    0    0    0  0.00000000000E+00  0.00000000000E+00  0.18250000000E+03  0.18250000000E+03  0.00000000000E+00 0.  1.
         11   -1    0    0    0    0 -0.00000000000E+00 -0.00000000000E+00 -0.18250000000E+03  0.18250000000E+03  0.00000000000E+00 0.  1.
        -11    1    1    2    0    0 -0.12990896955E+01  0.21567893528E+01  0.18133379474E+03  0.18135127375E+03  0.00000000000E+00 0.  1.
         11    1    1    2    0    0  0.36394732869E+01  0.52822944107E+00 -0.15889894429E+03  0.15894149643E+03  0.00000000000E+00 0.  1.
        -15    1    1    2    0    0 -0.27138212023E+01  0.26622763726E+01 -0.59426838351E+01  0.72750093585E+01  0.17770000000E+01 0. -1.
         15    1    1    2    0    0  0.37343761096E+00 -0.53472951664E+01 -0.16492166620E+02  0.17432220457E+02  0.17770000000E+01 0.  1.
</event>
<event>
 6    1  0.1378789E-002  0.1834644E+03  0.7546771E-02  0.1067690E+00
        -11   -1    0    0    0    0  0.00000000000E+00  0.00000000000E+00  0.18250000000E+03  0.18250000000E+03  0.00000000000E+00 0. -1.
         11   -1    0    0    0    0 -0.00000000000E+00 -0.00000000000E+00 -0.18250000000E+03  0.18250000000E+03  0.00000000000E+00 0.  1.
        -11    1    1    2    0    0 -0.15664631031E+01 -0.19786261439E+01  0.61721554213E+02  0.61773125407E+02  0.00000000000E+00 0. -1.
         11    1    1    2    0    0  0.80416466298E+00 -0.78847440541E+01 -0.18136253146E+03  0.18153562650E+03  0.00000000000E+00 0.  1.
        -15    1    1    2    0    0 -0.76412758769E+01  0.11066284960E+02  0.74326375717E+02  0.75554084046E+02  0.17770000000E+01 0. -1.
         15    1    1    2    0    0  0.84035743171E+01 -0.12029147623E+01  0.45314601534E+02  0.46137164048E+02  0.17770000000E+01 0.  1.
</event>
<event>
 6    1  0.1378789E-002  0.1850668E+03  0.7546771E-02  0.1066430E+00
        -11   -1    0    0    0    0  0.00000000000E+00  0.00000000000E+00  0.18250000000E+03  0.18250000000E+03  0.00000000000E+00 0. -1.
         11   -1    0    0    0    0 -0.00000000000E+00 -0.00000000000E+00 -0.18250000000E+03  0.18250000000E+03  0.00000000000E+00 0. -1.
        -11    1    1    2    0    0  0.30999429173E+01 -0.18479720151E+01  0.17487862398E+03  0.17491585912E+03  0.00000000000E+00 0. -1.
         11    1    1    2    0    0  0.18628504162E+00 -0.34525975424E+01 -0.17989999134E+03  0.17993321543E+03  0.00000000000E+00 0. -1.
        -15    1    1    2    0    0  0.61126006459E+00  0.21033496576E+01  0.49817348546E-02  0.28205447109E+01  0.17770000000E+01 0.  1.
         15    1    1    2    0    0 -0.38974880235E+01  0.31972199000E+01  0.50163856255E+01  0.73303807354E+01  0.17770000000E+01 0. -1.
</event>
<event>
 6    1  0.1378789E-002  0.1829737E+03  0.7546771E-02  0.1068078E+00
        -11   -1    0    0    0    0  0.00000000000E+00  0.00000000000E+00  0.18250000000E+03  0.18250000000E+03  0.00000000000E+00 0.  1.
         11   -1    0    0    0    0 -0.00000000000E+00 -0.00000000000E+00 -0.18250000000E+03  0.18250000000E+03  0.00000000000E+00 0. -1.
        -11    1    1    2    0    0  0.37338335118E+00 -0.48459736148E+01  0.11134990002E+03  0.11145592451E+03  0.00000000000E+00 0.  1.
         11    1    1    2    0    0 -0.17448281753E+01 -0.20938078680E+01 -0.18200590417E+03  0.18202631022E+03  0.00000000000E+00 0. -1.
        -15    1    1    2    0    0  0.24422509043E+01  0.17728616542E+01  0.97890321735E+01  0.10396658493E+02  0.17770000000E+01 0. -1.
         15    1    1    2    0    0 -0.10708060802E+01  0.51669198286E+01  0.60866971985E+02  0.61121106779E+02  0.17770000000E+01 0.  1.
</event>
<event>
 6    1  0.1378789E-002  0.1835326E+03  0.7546771E-02  0.1067636E+00
        -11   -1    0    0    0    0  0.00000000000E+00  0.00000000000E+00  0.18250000000E+03  0.18250000000E+03  0.00000000000E+00 0.  1.
         11   -1    0    0    0    0 -0.00000000000E+00 -0.00000000000E+00 -0.18250000000E+03  0.18250000000E+03  0.00000000000E+00 0.  1.
        -11    1    1    2    0    0  0.14977975501E+01  0.28712600311E+01  0.18143851372E+03  0.18146741248E+03  0.00000000000E+00 0.  1.
         11    1    1    2    0    0  0.26880075944E+01 -0.77170600693E+00 -0.16330036429E+03  0.16332430895E+03  0.00000000000E+00 0.  1.
        -15    1    1    2    0    0 -0.47030861568E+01 -0.10789691013E+01 -0.17094517157E+02  0.17851146729E+02  0.17770000000E+01 0.  1.
         15    1    1    2    0    0  0.51728101227E+00 -0.10205849229E+01 -0.10436322694E+01  0.23571318470E+01  0.17770000000E+01 0. -1.
</event>
<event>
 6    1  0.1378789E-002  0.1839497E+03  0.7546771E-02  0.1067307E+00
        -11   -1    0    0    0    0  0.00000000000E+00  0.00000000000E+00  0.18250000000E+03  0.18250000000E+03  0.00000000000E+00 0.  1.
         11   -1    0    0    0    0 -0.00000000000E+00 -0.00000000000E+00 -0.18250000000E+03  0.18250000000E+03  0.00000000000E+00 0.  1.
        -11    1    1    2    0    0  0.24983172490E+01  0.31872398285E+01  0.15588442367E+03  0.15593701815E+03  0.00000000000E+00 0.  1.
         11    1    1    2    0    0 -0.23643568941E+01  0.22728292894E+01 -0.18102061856E+03  0.18105032527E+03  0.00000000000E+00 0.  1.
        -15    1    1    2    0    0 -0.34009561650E+01 -0.21285780581E+01  0.21214813304E+02  0.21663872690E+02  0.17770000000E+01 0.  1.
         15    1    1    2    0    0  0.32669958101E+01 -0.33314910598E+01  0.39213815853E+01  0.63487838869E+01  0.17770000000E+01 0.  1.
</event>
<event>
 6    1  0.1378789E-002  0.1832011E+03  0.7546771E-02  0.1067898E+00
        -11   -1    0    0    0    0  0.00000000000E+00  0.00000000000E+00  0.18250000000E+03  0.18250000000E+03  0.00000000000E+00 0. -1.
         11   -1    0    0    0    0 -0.00000000000E+00 -0.00000000000E+00 -0.18250000000E+03  0.18250000000E+03  0.00000000000E+00 0.  1.
        -11    1    1    2    0    0 -0.38341536621E+01  0.32300303118E+01  0.18172973384E+03  0.18179887236E+03  0.00000000000E+00 0. -1.
         11    1    1    2    0    0  0.57099511262E+00 -0.13885062738E+01 -0.81685565266E+02  0.81699360817E+02  0.00000000000E+00 0.  1.
        -15    1    1    2    0    0  0.75366758800E+01  0.32467433869E+01 -0.76902615364E+02  0.77359632915E+02  0.17770000000E+01 0.  1.
         15    1    1    2    0    0 -0.42735173305E+01 -0.50882674248E+01 -0.23141553208E+02  0.24142133908E+02  0.17770000000E+01 0. -1.
</event>
<event>
 6    1  0.1378789E-002  0.1854692E+03  0.7546771E-02  0.1066116E+00
        -11   -1    0    0    0    0  0.00000000000E+00  0.00000000000E+00  0.18250000000E+03  0.18250000000E+03  0.00000000000E+00 0. -1.
         11   -1    0    0    0    0 -0.00000000000E+00 -0.00000000000E+00 -0.18250000000E+03  0.18250000000E+03  0.00000000000E+00 0.  1.
        -11    1    1    2    0    0 -0.15535205024E+01  0.22133089109E+01  0.17951045942E+03  0.17953082522E+03  0.00000000000E+00 0. -1.
         11    1    1    2    0    0  0.39437081417E+00 -0.37365270406E+01 -0.16990704210E+03  0.16994858080E+03  0.00000000000E+00 0.  1.
        -15    1    1    2    0    0  0.50363170817E+01 -0.26326448700E+01 -0.31375379263E+01  0.67303181201E+01  0.17770000000E+01 0. -1.
         15    1    1    2    0    0 -0.38771673935E+01  0.41558629996E+01 -0.64658793981E+01  0.87902758580E+01  0.17770000000E+01 0.  1.
</event>
<event>
 6    1  0.1378789E-002  0.1855975E+03  0.7546771E-02  0.1066016E+00
        -11   -1    0    0    0    0  0.00000000000E+00  0.00000000000E+00  0.18250000000E+03  0.18250000000E+03  0.00000000000E+00 0.  1.
         11   -1    0    0    0    0 -0.00000000000E+00 -0.00000000000E+00 -0.18250000000E+03  0.18250000000E+03  0.00000000000E+00 0.  1.
        -11    1    1    2    0    0  0.31137328702E+00  0.47805598843E+01  0.17933851326E+03  0.17940248895E+03  0.00000000000E+00 0.  1.
         11    1    1    2    0    0  0.22500907245E+01  0.17421963002E+01 -0.16507567966E+03  0.16510020645E+03  0.00000000000E+00 0.  1.
        -15    1    1    2    0    0 -0.15631799683E+01 -0.17392555428E+00  0.18825957939E+01  0.30291381010E+01  0.17770000000E+01 0.  1.
         15    1    1    2    0    0 -0.99828404323E+00 -0.63488306302E+01 -0.16145429392E+02  0.17468166494E+02  0.17770000000E+01 0.  1.
</event>
<event>
 6    1  0.1378789E-002  0.1844343E+03  0.7546771E-02  0.1066925E+00
        -11   -1    0    0    0    0  0.00000000000E+00  0.00000000000E+00  0.18250000000E+03  0.18250000000E+03  0.00000000000E+00 0. -1.
         11   -1    0    0    0    0 -0.00000000000E+00 -0.00000000000E+00 -0.18250000000E+03  0.18250000000E+03  0.00000000000E+00 0. -1.
        -11    1    1    2    0    0  0.96542994045E+00 -0.26566298869E+01  0.18054354214E+03  0.18056566768E+03  0.00000000000E+00 0. -1.
         11    1    1    2    0    0  0.25533322099E+01 -0.34348501126E+00 -0.16713232224E+03  0.16715217805E+03  0.00000000000E+00 0. -1.
        -15    1    1    2    0    0 -0.64498624441E+01  0.30929028567E+01 -0.80158488347E+01  0.10889367988E+02  0.17770000000E+01 0. -1.
         15    1    1    2    0    0  0.29311002938E+01 -0.92787958486E-01 -0.53953710646E+01  0.63927862832E+01  0.17770000000E+01 0.  1.
</event>
<event>
 6    1  0.1378789E-002  0.1863525E+03  0.7546771E-02  0.1065429E+00
        -11   -1    0    0    0    0  0.00000000000E+00  0.00000000000E+00  0.18250000000E+03  0.18250000000E+03  0.00000000000E+00 0.  1.
         11   -1    0    0    0    0 -0.00000000000E+00 -0.00000000000E+00 -0.18250000000E+03  0.18250000000E+03  0.00000000000E+00 0. -1.
        -11    1    1    2    0    0 -0.60072337714E+01 -0.81120537655E+01  0.70734424356E+02  0.71451039621E+02  0.00000000000E+00 0.  1.
         11    1    1    2    0    0 -0.11091093803E+01  0.13909397131E+02 -0.17810173114E+03  0.17864749672E+03  0.00000000000E+00 0. -1.
        -15    1    1    2    0    0  0.62547792733E+01 -0.14164169078E+02  0.10476722784E+03  0.10592013834E+03  0.17770000000E+01 0.  1.
         15    1    1    2    0    0  0.86156387835E+00  0.83668257118E+01  0.26000789445E+01  0.89813253101E+01  0.17770000000E+01 0. -1.
</event>
<event>
 6    1  0.1378789E-002  0.1897454E+03  0.7546771E-02  0.1062829E+00
        -11   -1    0    0    0    0  0.00000000000E+00  0.00000000000E+00  0.18250000000E+03  0.18250000000E+03  0.00000000000E+00 0. -1.
         11   -1    0    0    0    0 -0.00000000000E+00 -0.00000000000E+00 -0.18250000000E+03  0.18250000000E+03  0.00000000000E+00 0.  1.
        -11    1    1    2    0    0 -0.35171980266E+01  0.16605278928E+01  0.16331717747E+03  0.16336348580E+03  0.00000000000E+00 0. -1.
         11    1    1    2    0    0 -0.67634615099E+01  0.11393333799E+02 -0.17475300120E+03  0.17525456883E+03  0.00000000000E+00 0.  1.
        -15    1    1    2    0    0  0.33860498200E+01 -0.22269990285E+01  0.12616525500E+02  0.13370089855E+02  0.17770000000E+01 0. -1.
         15    1    1    2    0    0  0.68946097165E+01 -0.10826862663E+02 -0.11807017720E+01  0.13011855515E+02  0.17770000000E+01 0. -1.
</event>
<event>
 6    1  0.1378789E-002  0.1826994E+03  0.7546771E-02  0.1068296E+00
        -11   -1    0    0    0    0  0.00000000000E+00  0.00000000000E+00  0.18250000000E+03  0.18250000000E+03  0.00000000000E+00 0. -1.
         11   -1    0    0    0    0 -0.00000000000E+00 -0.00000000000E+00 -0.18250000000E+03  0.18250000000E+03  0.00000000000E+00 0. -1.
        -11    1    1    2    0    0 -0.30378954038E-01  0.62335753192E+00  0.45809861149E+02  0.45814112192E+02  0.00000000000E+00 0. -1.
         11    1    1    2    0    0 -0.18871419108E+01 -0.17841017094E+01 -0.18228211672E+03  0.18230061547E+03  0.00000000000E+00 0. -1.
        -15    1    1    2    0    0  0.35089508553E+01 -0.11347226013E+01  0.12069661755E+03  0.12076601985E+03  0.17770000000E+01 0. -1.
         15    1    1    2    0    0 -0.15914299905E+01  0.22954667789E+01  0.15775638018E+02  0.16119252496E+02  0.17770000000E+01 0.  1.
</event>
<event>
 6    1  0.1378789E-002  0.1881424E+03  0.7546771E-02  0.1064050E+00
        -11   -1    0    0    0    0  0.00000000000E+00  0.00000000000E+00  0.18250000000E+03  0.18250000000E+03  0.00000000000E+00 0. -1.
         11   -1    0    0    0    0 -0.00000000000E+00 -0.00000000000E+00 -0.18250000000E+03  0.18250000000E+03  0.00000000000E+00 0. -1.
        -11    1    1    2    0    0  0.63298116870E+01  0.74777994894E+01  0.17658599801E+03  0.17685756612E+03  0.00000000000E+00 0. -1.
         11    1    1    2    0    0  0.90501556796E+01  0.43675112268E+01 -0.16155113545E+03  0.16186336780E+03  0.00000000000E+00 0. -1.
        -15    1    1    2    0    0  0.97636631101E-01 -0.18482574961E+01 -0.39276315707E+01  0.46914398045E+01  0.17770000000E+01 0. -1.
         15    1    1    2    0    0 -0.15477603998E+02 -0.99970532201E+01 -0.11107230992E+02  0.21587626268E+02  0.17770000000E+01 0.  1.
</event>
<event>
 6    1  0.1378789E-002  0.1870801E+03  0.7546771E-02  0.1064866E+00
        -11   -1    0    0    0    0  0.00000000000E+00  0.00000000000E+00  0.18250000000E+03  0.18250000000E+03  0.00000000000E+00 0.  1.
         11   -1    0    0    0    0 -0.00000000000E+00 -0.00000000000E+00 -0.18250000000E+03  0.18250000000E+03  0.00000000000E+00 0. -1.
        -11    1    1    2    0    0 -0.20231429289E+01 -0.31575497173E+00  0.11613106696E+03  0.11614911761E+03  0.00000000000E+00 0.  1.
         11    1    1    2    0    0 -0.86878073693E+00  0.24913017118E+01 -0.17790034533E+03  0.17791990960E+03  0.00000000000E+00 0. -1.
        -15    1    1    2    0    0  0.21899978549E+01 -0.20104691509E+01  0.66102072300E+02  0.66192747096E+02  0.17770000000E+01 0.  1.
         15    1    1    2    0    0  0.70192581090E+00 -0.16507758913E+00 -0.43327939286E+01  0.47382256892E+01  0.17770000000E+01 0.  1.
</event>
<event>
 6    1  0.1378789E-002  0.1740329E+03  0.7546771E-02  0.1075402E+00
        -11   -1    0    0    0    0  0.00000000000E+00  0.00000000000E+00  0.18250000000E+03  0.18250000000E+03  0.00000000000E+00 0.  1.
         11   -1    0    0    0    0 -0.00000000000E+00 -0.00000000000E+00 -0.18250000000E+03  0.18250000000E+03  0.00000000000E+00 0. -1.
        -11    1    1    2    0    0  0.50155059625E+01  0.15925092508E+01  0.17245845584E+03  0.17253872138E+03  0.00000000000E+00 0.  1.
         11    1    1    2    0    0 -0.24946392039E+01  0.37440350327E+01 -0.17553297042E+03  0.17559061685E+03  0.00000000000E+00 0. -1.
        -15    1    1    2    0    0  0.52713240535E+00 -0.10317852525E+02  0.20282912796E+01  0.10677436200E+02  0.17770000000E+01 0.  1.
         15    1    1    2    0    0 -0.30479991639E+01  0.49813082413E+01  0.10462233021E+01  0.61932255648E+01  0.17770000000E+01 0. -1.
</event>
<event>
 6    1  0.1378789E-002  0.1850273E+03  0.7546771E-02  0.1066461E+00
        -11   -1    0    0    0    0  0.00000000000E+00  0.00000000000E+00  0.18250000000E+03  0.18250000000E+03  0.00000000000E+00 0.  1.
         11   -1    0    0    0    0 -0.00000000000E+00 -0.00000000000E+00 -0.18250000000E+03  0.18250000000E+03  0.00000000000E+00 0.  1.
        -11    1    1    2    0    0  0.26048364443E+01 -0.22197372602E+01  0.15629513518E+03  0.15633259957E+03  0.00000000000E+00 0.  1.
         11    1    1    2    0    0  0.78802046952E+01  0.14381706453E+01 -0.17979438287E+03  0.17997273703E+03  0.00000000000E+00 0.  1.
        -15    1    1    2    0    0 -0.10800858592E+02 -0.23493068142E+01  0.11044816325E+02  0.15726521722E+02  0.17770000000E+01 0. -1.
         15    1    1    2    0    0  0.31581745261E+00  0.31308734291E+01  0.12454431367E+02  0.12968141685E+02  0.17770000000E+01 0. -1.
</event>
<event>
 6    1  0.1378789E-002  0.1827086E+03  0.7546771E-02  0.1068289E+00
        -11   -1    0    0    0    0  0.00000000000E+00  0.00000000000E+00  0.18250000000E+03  0.18250000000E+03  0.00000000000E+00 0.  1.
         11   -1    0    0    0    0 -0.00000000000E+00 -0.00000000000E+00 -0.18250000000E+03  0.18250000000E+03  0.00000000000E+00 0. -1.
        -11    1    1    2    0    0  0.38932542585E+01  0.23944161176E+00  0.18224963844E+03  0.18229137520E+03  0.00000000000E+00 0.  1.
         11    1    1    2    0    0  0.70451473444E+00 -0.22308634992E+01 -0.12529787036E+03  0.12531970878E+03  0.00000000000E+00 0. -1.
        -15    1    1    2    0    0 -0.14095850040E+01  0.73645118586E+00 -0.36388208122E+02  0.36466268106E+02  0.17770000000E+01 0. -1.
         15    1    1    2    0    0 -0.31881839889E+01  0.12549707016E+01 -0.20563559955E+02  0.20922647911E+02  0.17770000000E+01 0.  1.
</event>
<event>
 6    1  0.1378789E-002  0.1847560E+03  0.7546771E-02  0.1066673E+00
        -11   -1    0    0    0    0  0.00000000000E+00  0.00000000000E+00  0.18250000000E+03  0.18250000000E+03  0.00000000000E+00 0. -1.
         11   -1    0    0    0    0 -0.00000000000E+00 -0.00000000000E+00 -0.18250000000E+03  0.18250000000E+03  0.00000000000E+00 0.  1.
        -11    1    1    2    0    0  0.12442699468E+01 -0.21314393731E+01  0.18022713767E+03  0.18024403567E+03  0.00000000000E+00 0. -1.
         11    1    1    2    0    0  0.90347018745E+00 -0.55279234801E+01 -0.16118220914E+03  0.16127950502E+03  0.00000000000E+00 0.  1.
        -15    1    1    2    0    0 -0.15568605647E+01 -0.29712042283E+00  0.37123126787E+00  0.24099039437E+01  0.17770000000E+01 0. -1.
         15    1    1    2    0    0 -0.59087956954E+00  0.79564832760E+01 -0.19416159800E+02  0.21066555370E+02  0.17770000000E+01 0. -1.
</event>
<event>
 6    1  0.1378789E-002  0.1895927E+03  0.7546771E-02  0.1062945E+00
        -11   -1    0    0    0    0  0.00000000000E+00  0.00000000000E+00  0.18250000000E+03  0.18250000000E+03  0.00000000000E+00 0. -1.
         11   -1    0    0    0    0 -0.00000000000E+00 -0.00000000000E+00 -0.18250000000E+03  0.18250000000E+03  0.00000000000E+00 0.  1.
        -11    1    1    2    0    0  0.24084588787E+01  0.33893037115E+00  0.17539048084E+03  0.17540734397E+03  0.00000000000E+00 0. -1.
         11    1    1    2    0    0  0.88708161636E+00 -0.34145677455E+01 -0.17057495785E+03  0.17061143699E+03  0.00000000000E+00 0.  1.
        -15    1    1    2    0    0 -0.42663758165E+01  0.97618623584E+01 -0.59027695589E+00  0.10816749752E+02  0.17770000000E+01 0.  1.
         15    1    1    2    0    0  0.97083532140E+00 -0.66862249841E+01 -0.42252460313E+01  0.81644692898E+01  0.17770000000E+01 0. -1.
</event>
<event>
 6    1  0.1378789E-002  0.1892343E+03  0.7546771E-02  0.1063217E+00
        -11   -1    0    0    0    0  0.00000000000E+00  0.00000000000E+00  0.18250000000E+03  0.18250000000E+03  0.00000000000E+00 0.  1.
         11   -1    0    0    0    0 -0.00000000000E+00 -0.00000000000E+00 -0.18250000000E+03  0.18250000000E+03  0.00000000000E+00 0.  1.
        -11    1    1    2    0    0  0.54765344674E+01  0.12530311722E+01  0.17567587088E+03  0.17576567960E+03  0.00000000000E+00 0.  1.
         11    1    1    2    0    0  0.95658159163E+00  0.21085362185E+01 -0.16046095287E+03  0.16047765691E+03  0.00000000000E+00 0.  1.
        -15    1    1    2    0    0 -0.26557331852E+01  0.18129959645E+01  0.57161851106E+01  0.67950257054E+01  0.17770000000E+01 0. -1.
         15    1    1    2    0    0 -0.37773828738E+01 -0.51745633551E+01 -0.20931103120E+02  0.21961637783E+02  0.17770000000E+01 0.  1.
</event>
<event>
 6    1  0.1378789E-002  0.1837849E+03  0.7546771E-02  0.1067437E+00
        -11   -1    0    0    0    0  0.00000000000E+00  0.00000000000E+00  0.18250000000E+03  0.18250000000E+03  0.00000000000E+00 0. -1.
         11   -1    0    0    0    0 -0.00000000000E+00 -0.00000000000E+00 -0.18250000000E+03  0.18250000000E+03  0.00000000000E+00 0. -1.
        -11    1    1    2    0    0 -0.26867788407E+01  0.25122361173E+00  0.13167071160E+03  0.13169836061E+03  0.00000000000E+00 0. -1.
         11    1    1    2    0    0 -0.24834534397E+01 -0.12186447263E+01 -0.18119394258E+03  0.18121505860E+03  0.00000000000E+00 0. -1.
        -15    1    1    2    0    0  0.43252930219E+01  0.70713255010E+00  0.49851069998E+02  0.50074894959E+02  0.17770000000E+01 0. -1.
         15    1    1    2    0    0  0.84493925851E+00  0.26028856451E+00 -0.32783901683E+00  0.20116858374E+01  0.17770000000E+01 0.  1.
</event>
<event>
 6    1  0.1378789E-002  0.1850992E+03  0.7546771E-02  0.1066404E+00
        -11   -1    0    0    0    0  0.00000000000E+00  0.00000000000E+00  0.18250000000E+03  0.18250000000E+03  0.00000000000E+00 0. -1.
         11   -1    0    0    0    0 -0.00000000000E+00 -0.00000000000E+00 -0.18250000000E+03  0.18250000000E+03  0.00000000000E+00 0.  1.
        -11    1    1    2    0    0 -0.23932784369E+01  0.23280489966E+01  0.17986982975E+03  0.17990081503E+03  0.00000000000E+00 0. -1.
         11    1    1    2    0    0  0.12196888213E+01 -0.15682618315E+01 -0.13362714873E+03  0.13364191694E+03  0.00000000000E+00 0.  1.
        -15    1    1    2    0    0 -0.92319337835E+01  0.16046676876E+01 -0.33038734203E+02  0.34387777574E+02  0.17770000000E+01 0.  1.
         15    1    1    2    0    0  0.10405523399E+02 -0.23644548527E+01 -0.13203946813E+02  0.17069490455E+02  0.17770000000E+01 0. -1.
</event>
<event>
 6    1  0.1378789E-002  0.1846290E+03  0.7546771E-02  0.1066773E+00
        -11   -1    0    0    0    0  0.00000000000E+00  0.00000000000E+00  0.18250000000E+03  0.18250000000E+03  0.00000000000E+00 0. -1.
         11   -1    0    0    0    0 -0.00000000000E+00 -0.00000000000E+00 -0.18250000000E+03  0.18250000000E+03  0.00000000000E+00 0. -1.
        -11    1    1    2    0    0  0.10875948165E+02  0.11923599088E+01  0.18003883415E+03  0.18037097819E+03  0.00000000000E+00 0. -1.
         11    1    1    2    0    0  0.22856809942E+01  0.15801516926E+01 -0.11991598458E+03  0.11994817454E+03  0.00000000000E+00 0. -1.
        -15    1    1    2    0    0 -0.14154005834E+02 -0.15108336471E+01 -0.20696068703E+02  0.25181411561E+02  0.17770000000E+01 0. -1.
         15    1    1    2    0    0  0.99237667438E+00 -0.12616779543E+01 -0.39426780871E+02  0.39499435712E+02  0.17770000000E+01 0. -1.
</event>
<event>
 6    1  0.1378789E-002  0.1889342E+03  0.7546771E-02  0.1063446E+00
        -11   -1    0    0    0    0  0.00000000000E+00  0.00000000000E+00  0.18250000000E+03  0.18250000000E+03  0.00000000000E+00 0. -1.
         11   -1    0    0    0    0 -0.00000000000E+00 -0.00000000000E+00 -0.18250000000E+03  0.18250000000E+03  0.00000000000E+00 0.  1.
        -11    1    1    2    0    0 -0.30065832800E+01  0.33620732341E+01  0.13328230162E+03  0.13335859554E+03  0.00000000000E+00 0. -1.
         11    1    1    2    0    0 -0.30230058238E+01  0.18636844848E+01 -0.17603001380E+03  0.17606583327E+03  0.00000000000E+00 0.  1.
        -15    1    1    2    0    0  0.66253025252E+01 -0.41428765274E+01  0.48641347302E+02  0.49297022789E+02  0.17770000000E+01 0. -1.
         15    1    1    2    0    0 -0.59571342139E+00 -0.10828811915E+01 -0.58936351172E+01  0.62785484031E+01  0.17770000000E+01 0.  1.
</event>
<event>
 6    1  0.1378789E-002  0.1970594E+03  0.7546771E-02  0.1057422E+00
        -11   -1    0    0    0    0  0.00000000000E+00  0.00000000000E+00  0.18250000000E+03  0.18250000000E+03  0.00000000000E+00 0.  1.
         11   -1    0    0    0    0 -0.00000000000E+00 -0.00000000000E+00 -0.18250000000E+03  0.18250000000E+03  0.00000000000E+00 0. -1.
        -11    1    1    2    0    0 -0.15485985669E+02 -0.27103442663E+02  0.16501404946E+03  0.16794061115E+03  0.00000000000E+00 0.  1.
         11    1    1    2    0    0 -0.50739834802E+01 -0.46407623210E+01 -0.10926073704E+03  0.10947689547E+03  0.00000000000E+00 0. -1.
        -15    1    1    2    0    0 -0.12946192560E+02  0.20015805548E+02 -0.44126686230E+02  0.50185242255E+02  0.17770000000E+01 0. -1.
         15    1    1    2    0    0  0.33506161709E+02  0.11728399436E+02 -0.11626626182E+02  0.37397251118E+02  0.17770000000E+01 0.  1.
</event>
<event>
 6    1  0.1378789E-002  0.1843344E+03  0.7546771E-02  0.1067004E+00
        -11   -1    0    0    0    0  0.00000000000E+00  0.00000000000E+00  0.18250000000E+03  0.18250000000E+03  0.00000000000E+00 0.  1.
         11   -1    0    0    0    0 -0.00000000000E+00 -0.00000000000E+00 -0.18250000000E+03  0.18250000000E+03  0.00000000000E+00 0.  1.
        -11    1    1    2    0    0  0.19430809928E+01 -0.50127874299E+00  0.14588378665E+03  0.14589758754E+03  0.00000000000E+00 0.  1.
         11    1    1    2    0    0  0.92932539370E-01  0.43716035845E+01 -0.18061266927E+03  0.18066559123E+03  0.00000000000E+00 0.  1.
        -15    1    1    2    0    0  0.59208719388E+01 -0.48967566103E+01  0.12986939641E+02  0.15193856655E+02  0.17770000000E+01 0.  1.
         15    1    1    2    0    0 -0.79568854710E+01  0.10264317688E+01  0.21741942978E+02  0.23242964571E+02  0.17770000000E+01 0. -1.
</event>
<event>
 6    1  0.1378789E-002  0.1856012E+03  0.7546771E-02  0.1066013E+00
        -11   -1    0    0    0    0  0.00000000000E+00  0.00000000000E+00  0.18250000000E+03  0.18250000000E+03  0.00000000000E+00 0. -1.
         11   -1    0    0    0    0 -0.00000000000E+00 -0.00000000000E+00 -0.18250000000E+03  0.18250000000E+03  0.00000000000E+00 0.  1.
        -11    1    1    2    0    0 -0.21021235253E+01  0.47004846641E+01  0.17655904248E+03  0.17663411041E+03  0.00000000000E+00 0. -1.
         11    1    1    2    0    0  0.47300591027E+01 -0.31238441508E+01 -0.17930924889E+03  0.17939882552E+03  0.00000000000E+00 0.  1.
        -15    1    1    2    0    0 -0.47960852209E+01  0.35060610074E+00  0.18215787599E+01  0.54407018171E+01  0.17770000000E+01 0.  1.
         15    1    1    2    0    0  0.21681496435E+01 -0.19272466140E+01  0.92862764618E+00  0.35263622465E+01  0.17770000000E+01 0.  1.
</event>
<event>
 6    1  0.1378789E-002  0.1867189E+03  0.7546771E-02  0.1065145E+00
        -11   -1    0    0    0    0  0.00000000000E+00  0.00000000000E+00  0.18250000000E+03  0.18250000000E+03  0.00000000000E+00 0.  1.
         11   -1    0    0    0    0 -0.00000000000E+00 -0.00000000000E+00 -0.18250000000E+03  0.18250000000E+03  0.00000000000E+00 0. -1.
        -11    1    1    2    0    0  0.18352628778E+01 -0.13434812119E+01  0.15405847037E+03  0.15407525896E+03  0.00000000000E+00 0.  1.
         11    1    1    2    0    0  0.25768799047E+01 -0.45045996049E+00 -0.17826190738E+03  0.17828110065E+03  0.00000000000E+00 0. -1.
        -15    1    1    2    0    0 -0.33892476924E+01 -0.42319256376E+01 -0.17128363647E+01  0.59571580418E+01  0.17770000000E+01 0. -1.
         15    1    1    2    0    0 -0.10228950901E+01  0.60258668100E+01  0.25916273384E+02  0.26686482352E+02  0.17770000000E+01 0.  1.
</event>
<event>
 6    1  0.1378789E-002  0.1825979E+03  0.7546771E-02  0.1068377E+00
        -11   -1    0    0    0    0  0.00000000000E+00  0.00000000000E+00  0.18250000000E+03  0.18250000000E+03  0.00000000000E+00 0. -1.
         11   -1    0    0    0    0 -0.00000000000E+00 -0.00000000000E+00 -0.18250000000E+03  0.18250000000E+03  0.00000000000E+00 0.  1.
        -11    1    1    2    0    0  0.33834945849E+01 -0.26624704276E+00  0.18237047163E+03  0.18240205000E+03  0.00000000000E+00 0. -1.
         11    1    1    2    0    0 -0.62310300301E+00 -0.27331406093E+01 -0.50716111818E+02  0.50793526289E+02  0.00000000000E+00 0.  1.
        -15    1    1    2    0    0 -0.30911814799E+01  0.12673548653E+01 -0.78676392975E+02  0.78767341785E+02  0.17770000000E+01 0.  1.
         15    1    1    2    0    0  0.33078989800E+00  0.17320327868E+01 -0.52977966837E+02  0.53037081921E+02  0.17770000000E+01 0. -1.
</event>
<event>
 6    1  0.1378789E-002  0.1844646E+03  0.7546771E-02  0.1066902E+00
        -11   -1    0    0    0    0  0.00000000000E+00  0.00000000000E+00  0.18250000000E+03  0.18250000000E+03  0.00000000000E+00 0. -1.
         11   -1    0    0    0    0 -0.00000000000E+00 -0.00000000000E+00 -0.18250000000E+03  0.18250000000E+03  0.00000000000E+00 0. -1.
        -11    1    1    2    0    0  0.23268777259E+00 -0.38095166290E+01  0.86852727168E+02  0.86936544543E+02  0.00000000000E+00 0. -1.
         11    1    1    2    0    0  0.91458174529E+00 -0.61769106163E+01 -0.18042741722E+03  0.18053543577E+03  0.00000000000E+00 0. -1.
        -15    1    1    2    0    0  0.13765027253E+00  0.10537193543E+01 -0.11428167594E+01  0.23649590315E+01  0.17770000000E+01 0.  1.
         15    1    1    2    0    0 -0.12849197904E+01  0.89327078909E+01  0.94717506807E+02  0.95163060659E+02  0.17770000000E+01 0. -1.
</event>
<event>
 6    1  0.1378789E-002  0.1850277E+03  0.7546771E-02  0.1066460E+00
        -11   -1    0    0    0    0  0.00000000000E+00  0.00000000000E+00  0.18250000000E+03  0.18250000000E+03  0.00000000000E+00 0. -1.
         11   -1    0    0    0    0 -0.00000000000E+00 -0.00000000000E+00 -0.18250000000E+03  0.18250000000E+03  0.00000000000E+00 0.  1.
        -11    1    1    2    0    0  0.26359716870E+01  0.49304997636E+01  0.17251503521E+03  0.17260560694E+03  0.00000000000E+00 0. -1.
         11    1    1    2    0    0 -0.17575741004E+01 -0.19609283840E+01 -0.17995307456E+03  0.17997234052E+03  0.00000000000E+00 0.  1.
        -15    1    1    2    0    0  0.30929026081E+01 -0.35351891486E+01  0.19298787411E+01  0.53801273047E+01  0.17770000000E+01 0.  1.
         15    1    1    2    0    0 -0.39713001946E+01  0.56561776902E+00  0.55081606094E+01  0.70419252336E+01  0.17770000000E+01 0. -1.
</event>
<event>
 6    1  0.1378789E-002  0.1830936E+03  0.7546771E-02  0.1067983E+00
        -11   -1    0    0    0    0  0.00000000000E+00  0.00000000000E+00  0.18250000000E+03  0.18250000000E+03  0.00000000000E+00 0.  1.
         11   -1    0    0    0    0 -0.00000000000E+00 -0.00000000000E+00 -0.18250000000E+03  0.18250000000E+03  0.00000000000E+00 0. -1.
        -11    1    1    2    0    0 -0.17800583812E+01 -0.19825696806E+01  0.18188689507E+03  0.18190640942E+03  0.00000000000E+00 0.  1.
         11    1    1    2    0    0 -0.18616889446E+01 -0.14314136424E+01 -0.13655463570E+03  0.13657482697E+03  0.00000000000E+00 0. -1.
        -15    1    1    2    0    0  0.46346892155E+01  0.26522060517E+01 -0.13685718650E+02  0.14797674312E+02  0.17770000000E+01 0.  1.
         15    1    1    2    0    0 -0.99294188972E+00  0.76177727122E+00 -0.31646540717E+02  0.31721089303E+02  0.17770000000E+01 0. -1.
</event>
<event>
 6    1  0.1378789E-002  0.1865050E+03  0.7546771E-02  0.1065311E+00
        -11   -1    0    0    0    0  0.00000000000E+00  0.00000000000E+00  0.18250000000E+03  0.18250000000E+03  0.00000000000E+00 0.  1.
         11   -1    0    0    0    0 -0.00000000000E+00 -0.00000000000E+00 -0.18250000000E+03  0.18250000000E+03  0.00000000000E+00 0.  1.
        -11    1    1    2    0    0  0.15175015862E+01  0.56720241737E+01  0.16343176521E+03  0.16353720234E+03  0.00000000000E+00 0.  1.
         11    1    1    2    0    0  0.12217346405E+01 -0.25006514553E+01 -0.17847325114E+03  0.17849495025E+03  0.00000000000E+00 0.  1.
        -15    1    1    2    0    0  0.10829459590E+01 -0.60267685458E+01  0.16485767946E+02  0.17675773953E+02  0.17770000000E+01 0.  1.
         15    1    1    2    0    0 -0.38221821858E+01  0.28553958275E+01 -0.14442820173E+01  0.52920734630E+01  0.17770000000E+01 0.  1.
</event>
<event>
 6    1  0.1378789E-002  0.1833120E+03  0.7546771E-02  0.1067810E+00
        -11   -1    0    0    0    0  0.00000000000E+00  0.00000000000E+00  0.18250000000E+03  0.18250000000E+03  0.00000000000E+00 0.  1.
         11   -1    0    0    0    0 -0.00000000000E+00 -0.00000000000E+00 -0.18250000000E+03  0.18250000000E+03  0.00000000000E+00 0. -1.
        -11    1    1    2    0    0 -0.65123829173E+01 -0.72433315732E-01  0.18157121378E+03  0.18168797993E+03  0.00000000000E+00 0.  1.
         11    1    1    2    0    0  0.51331444113E+01  0.29318892666E+01 -0.83029103711E+02  0.83239276843E+02  0.00000000000E+00 0. -1.
        -15    1    1    2    0    0  0.69371670882E+01 -0.70502558980E+01 -0.64772433999E+02  0.65547359448E+02  0.17770000000E+01 0. -1.
         15    1    1    2    0    0 -0.55579285822E+01  0.41907999471E+01 -0.33769676069E+02  0.34525383779E+02  0.17770000000E+01 0. -1.
</event>
<event>
 6    1  0.1378789E-002  0.1833610E+03  0.7546771E-02  0.1067772E+00
        -11   -1    0    0    0    0  0.00000000000E+00  0.00000000000E+00  0.18250000000E+03  0.18250000000E+03  0.00000000000E+00 0. -1.
         11   -1    0    0    0    0 -0.00000000000E+00 -0.00000000000E+00 -0.18250000000E+03  0.18250000000E+03  0.00000000000E+00 0. -1.
        -11    1    1    2    0    0 -0.14070576767E+01  0.14102180122E+01  0.14479255838E+02  0.14615655160E+02  0.00000000000E+00 0. -1.
         11    1    1    2    0    0  0.29523032225E+00 -0.42199701253E+01 -0.18158977755E+03  0.18163904486E+03  0.00000000000E+00 0. -1.
        -15    1    1    2    0    0 -0.41521880941E+01  0.30482553652E+01  0.15784542572E+03  0.15793944623E+03  0.17770000000E+01 0. -1.
         15    1    1    2    0    0  0.52640154486E+01 -0.23850325210E+00  0.92650959890E+01  0.10805853744E+02  0.17770000000E+01 0.  1.
</event>
<event>
 6    1  0.1378789E-002  0.1829920E+03  0.7546771E-02  0.1068064E+00
        -11   -1    0    0    0    0  0.00000000000E+00  0.00000000000E+00  0.18250000000E+03  0.18250000000E+03  0.00000000000E+00 0. -1.
         11   -1    0    0    0    0 -0.00000000000E+00 -0.00000000000E+00 -0.18250000000E+03  0.18250000000E+03  0.00000000000E+00 0. -1.
        -11    1    1    2    0    0  0.55764584447E-01  0.74320988481E+00  0.32211647729E+02  0.32220268777E+02  0.00000000000E+00 0. -1.
         11    1    1    2    0    0 -0.17730934499E+01  0.36357795413E+01 -0.18196304015E+03  0.18200799634E+03  0.00000000000E+00 0. -1.
        -15    1    1    2    0    0  0.13669723619E+01 -0.54017877609E+00  0.22923563042E+01  0.32516200537E+01  0.17770000000E+01 0.  1.
         15    1    1    2    0    0  0.35035650353E+00 -0.38388106500E+01  0.14745903612E+03  0.14752011482E+03  0.17770000000E+01 0. -1.
</event>
<event>
 6    1  0.1378789E-002  0.1835360E+03  0.7546771E-02  0.1067633E+00
        -11   -1    0    0    0    0  0.00000000000E+00  0.00000000000E+00  0.18250000000E+03  0.18250000000E+03  0.00000000000E+00 0. -1.
         11   -1    0    0    0    0 -0.00000000000E+00 -0.00000000000E+00 -0.18250000000E+03  0.18250000000E+03  0.00000000000E+00 0.  1.
        -11    1    1    2    0    0  0.34880709662E+01 -0.15558309548E+01  0.18142382384E+03  0.18146402152E+03  0.00000000000E+00 0. -1.
         11    1    1    2    0    0  0.29869734024E+01 -0.36248087651E+01 -0.15386314792E+03  0.15393482236E+03  0.00000000000E+00 0.  1.
        -15    1    1    2    0    0 -0.36756962452E+01  0.56273973989E+01 -0.22371573592E+02  0.23426979710E+02  0.17770000000E+01 0.  1.
         15    1    1    2    0    0 -0.27993481234E+01 -0.44675767901E+00 -0.51891023304E+01  0.61741764095E+01  0.17770000000E+01 0. -1.
</event>
<event>
 6    1  0.1378789E-002  0.1872363E+03  0.7546771E-02  0.1064746E+00
        -11   -1    0    0    0    0  0.00000000000E+00  0.00000000000E+00  0.18250000000E+03  0.18250000000E+03  0.00000000000E+00 0.  1.
         11   -1    0    0    0    0 -0.00000000000E+00 -0.00000000000E+00 -0.18250000000E+03  0.18250000000E+03  0.00000000000E+00 0.  1.
        -11    1    1    2    0    0 -0.12053474751E+01  0.20087668174E+01  0.16766275772E+03  0.16767912313E+03  0.00000000000E+00 0.  1.
         11    1    1    2    0    0 -0.27733633421E+01  0.75856880136E+00 -0.17774046670E+03  0.17776372091E+03  0.00000000000E+00 0.  1.
        -15    1    1    2    0    0 -0.33091579207E+01  0.37995609585E+01  0.75898323725E+01  0.92817279676E+01  0.17770000000E+01 0. -1.
         15    1    1    2    0    0  0.72878687379E+01 -0.65668965773E+01  0.24878766066E+01  0.10275427991E+02  0.17770000000E+01 0. -1.
</event>
<event>
 6    1  0.1378789E-002  0.1875915E+03  0.7546771E-02  0.1064473E+00
        -11   -1    0    0    0    0  0.00000000000E+00  0.00000000000E+00  0.18250000000E+03  0.18250000000E+03  0.00000000000E+00 0.  1.
         11   -1    0    0    0    0 -0.00000000000E+00 -0.00000000000E+00 -0.18250000000E+03  0.18250000000E+03  0.00000000000E+00 0. -1.
        -11    1    1    2    0    0  0.19070145527E+02 -0.25164189279E+01  0.17636260265E+03  0.17740848466E+03  0.00000000000E+00 0.  1.
         11    1    1    2    0    0  0.10314727381E+01  0.86862536958E+00 -0.76910303411E+02  0.76922124365E+02  0.00000000000E+00 0. -1.
        -15    1    1    2    0    0  0.48732078212E+01 -0.92809830377E+01 -0.68770941110E+02  0.69587964986E+02  0.17770000000E+01 0. -1.
         15    1    1    2    0    0 -0.24974826086E+02  0.10928776596E+02 -0.30681358130E+02  0.41081425993E+02  0.17770000000E+01 0.  1.
</event>
<event>
 6    1  0.1435824E-002  0.1846369E+03  0.7546771E-02  0.1066766E+00
        -11   -1    0    0    0    0  0.00000000000E+00  0.00000000000E+00  0.18250000000E+03  0.18250000000E+03  0.00000000000E+00 0. -1.
         11   -1    0    0    0    0 -0.00000000000E+00 -0.00000000000E+00 -0.18250000000E+03  0.18250000000E+03  0.00000000000E+00 0.  1.
        -11    1    1    2    0    0  0.20891732700E+01 -0.16671358988E+01  0.14676521834E+03  0.14678955447E+03  0.00000000000E+00 0. -1.
         11    1    1    2    0    0 -0.85844477337E+01  0.31137347399E+01 -0.18013182921E+03  0.18036314474E+03  0.00000000000E+00 0.  1.
        -15    1    1    2    0    0  0.92676417590E+01 -0.72178748559E+00  0.84004042784E+01  0.12654433294E+02  0.17770000000E+01 0.  1.
         15    1    1    2    0    0 -0.27723672952E+01 -0.72481135557E+00  0.24966206595E+02  0.25192867496E+02  0.17770000000E+01 0.  1.
</event>
<event>
 6    1  0.1378789E-002  0.1825821E+03  0.7546771E-02  0.1068390E+00
        -11   -1    0    0    0    0  0.00000000000E+00  0.00000000000E+00  0.18250000000E+03  0.18250000000E+03  0.00000000000E+00 0.  1.
         11   -1    0    0    0    0 -0.00000000000E+00 -0.00000000000E+00 -0.18250000000E+03  0.18250000000E+03  0.00000000000E+00 0. -1.
        -11    1    1    2    0    0  0.70192368219E+00  0.72140856624E+00  0.72956183043E+02  0.72963126107E+02  0.00000000000E+00 0.  1.
         11    1    1    2    0    0  0.27223534740E+01  0.71449193870E+00 -0.18239623472E+03  0.18241794908E+03  0.00000000000E+00 0. -1.
        -15    1    1    2    0    0  0.41238412360E+00 -0.75578726188E+00  0.36007537127E+02  0.36061637983E+02  0.17770000000E+01 0. -1.
         15    1    1    2    0    0 -0.38366612798E+01 -0.68011324307E+00  0.73432514549E+02  0.73557286830E+02  0.17770000000E+01 0.  1.
</event>
<event>
 6    1  0.1378789E-002  0.1827482E+03  0.7546771E-02  0.1068257E+00
        -11   -1    0    0    0    0  0.00000000000E+00  0.00000000000E+00  0.18250000000E+03  0.18250000000E+03  0.00000000000E+00 0.  1.
         11   -1    0    0    0    0 -0.00000000000E+00 -0.00000000000E+00 -0.18250000000E+03  0.18250000000E+03  0.00000000000E+00 0.  1.
        -11    1    1    2    0    0  0.10990930519E+01 -0.15394380665E+01  0.13745958619E+03  0.13747259985E+03  0.00000000000E+00 0.  1.
         11    1    1    2    0    0  0.19576690465E+01 -0.19044511638E+01 -0.18223131810E+03  0.18225178380E+03  0.00000000000E+00 0.  1.
        -15    1    1    2    0    0 -0.15842020457E+01 -0.17954756097E+00  0.13384621083E+02  0.13595872314E+02  0.17770000000E+01 0.  1.
         15    1    1    2    0    0 -0.14725600527E+01  0.36234367912E+01  0.31387110825E+02  0.31679744036E+02  0.17770000000E+01 0. -1.
</event>
<event>
 6    1  0.1378789E-002  0.1830442E+03  0.7546771E-02  0.1068022E+00
        -11   -1    0    0    0    0  0.00000000000E+00  0.00000000000E+00  0.18250000000E+03  0.18250000000E+03  0.00000000000E+00 0. -1.
         11   -1    0    0    0    0 -0.00000000000E+00 -0.00000000000E+00 -0.18250000000E+03  0.18250000000E+03  0.00000000000E+00 0.  1.
        -11    1    1    2    0    0 -0.42422888331E+01  0.61695609422E+00  0.18190525980E+03  0.18195576713E+03  0.00000000000E+00 0. -1.
         11    1    1    2    0    0 -0.23185571271E+01 -0.15690843212E+00 -0.80908983644E+02  0.80942349619E+02  0.00000000000E+00 0.  1.
        -15    1    1    2    0    0  0.54527948161E+01 -0.97042911029E+00 -0.98978803188E+02  0.99149563355E+02  0.17770000000E+01 0. -1.
         15    1    1    2    0    0  0.11080511440E+01  0.51038144818E+00 -0.20174729711E+01  0.29523198928E+01  0.17770000000E+01 0.  1.
</event>
<event>
 6    1  0.1378789E-002  0.1842463E+03  0.7546771E-02  0.1067073E+00
        -11   -1    0    0    0    0  0.00000000000E+00  0.00000000000E+00  0.18250000000E+03  0.18250000000E+03  0.00000000000E+00 0.  1.
         11   -1    0    0    0    0 -0.00000000000E+00 -0.00000000000E+00 -0.18250000000E+03  0.18250000000E+03  0.00000000000E+00 0. -1.
        -11    1    1    2    0    0 -0.45897104380E-01  0.29044120523E+01  0.15495086280E+03  0.15497808748E+03  0.00000000000E+00 0.  1.
         11    1    1    2    0    0  0.64316550217E+01 -0.74251626451E+00 -0.18063773234E+03  0.18075372157E+03  0.00000000000E+00 0. -1.
        -15    1    1    2    0    0 -0.49022622144E+01  0.21771171432E+01  0.37380317565E+01  0.67751475472E+01  0.17770000000E+01 0. -1.
         15    1    1    2    0    0 -0.14834957030E+01 -0.43390129310E+01  0.21948837779E+02  0.22493043404E+02  0.17770000000E+01 0.  1.
</event>
<event>
 6    1  0.1378789E-002  0.1852649E+03  0.7546771E-02  0.1066275E+00
        -11   -1    0    0    0    0  0.00000000000E+00  0.00000000000E+00  0.18250000000E+03  0.18250000000E+03  0.00000000000E+00 0. -1.
         11   -1    0    0    0    0 -0.00000000000E+00 -0.00000000000E+00 -0.18250000000E+03  0.18250000000E+03  0.00000000000E+00 0.  1.
        -11    1    1    2    0    0  0.21868469838E+01  0.36613223542E+01  0.17968447637E+03  0.17973507902E+03  0.00000000000E+00 0. -1.
         11    1    1    2    0    0  0.11643258628E+01 -0.23989699275E+01 -0.17387994363E+03  0.17390038961E+03  0.00000000000E+00 0.  1.
        -15    1    1    2    0    0 -0.55160488619E+00  0.28800014408E+01 -0.49021648968E+01  0.59822759821E+01  0.17770000000E+01 0. -1.
         15    1    1    2    0    0 -0.27995679605E+01 -0.41423538675E+01 -0.90236784931E+00  0.53822553883E+01  0.17770000000E+01 0. -1.
</event>
<event>
 6    1  0.1378789E-002  0.1850729E+03  0.7546771E-02  0.1066425E+00
        -11   -1    0    0    0    0  0.00000000000E+00  0.00000000000E+00  0.18250000000E+03  0.18250000000E+03  0.00000000000E+00 0. -1.
         11   -1    0    0    0    0 -0.00000000000E+00 -0.00000000000E+00 -0.18250000000E+03  0.18250000000E+03  0.00000000000E+00 0.  1.
        -11    1    1    2    0    0  0.84875032342E+00 -0.27672465063E+01  0.17990377964E+03  0.17992706289E+03  0.00000000000E+00 0. -1.
         11    1    1    2    0    0 -0.58460366178E+00 -0.24677207558E+01 -0.17579596313E+03  0.17581425443E+03  0.00000000000E+00 0.  1.
        -15    1    1    2    0    0  0.12077611217E+01  0.67471864812E+00  0.57789170696E+00  0.23249989260E+01  0.17770000000E+01 0.  1.
         15    1    1    2    0    0 -0.14719077833E+01  0.45602486140E+01 -0.46857082190E+01  0.69336837581E+01  0.17770000000E+01 0.  1.
</event>
<event>
 6    1  0.1378789E-002  0.1828300E+03  0.7546771E-02  0.1068192E+00
        -11   -1    0    0    0    0  0.00000000000E+00  0.00000000000E+00  0.18250000000E+03  0.18250000000E+03  0.00000000000E+00 0.  1.
         11   -1    0    0    0    0 -0.00000000000E+00 -0.00000000000E+00 -0.18250000000E+03  0.18250000000E+03  0.00000000000E+00 0.  1.
        -11    1    1    2    0    0 -0.29876029892E+01  0.60525066237E-01  0.18214551529E+03  0.18217002546E+03  0.00000000000E+00 0.  1.
         11    1    1    2    0    0  0.16280596955E+01  0.28488818971E+01 -0.14085967590E+03  0.14089788856E+03  0.00000000000E+00 0.  1.
        -15    1    1    2    0    0 -0.12995146736E+00 -0.28597678773E+01 -0.36031104087E+02  0.36188304055E+02  0.17770000000E+01 0.  1.
         15    1    1    2    0    0  0.14894947610E+01 -0.49639086048E-01 -0.52547353014E+01  0.57437819222E+01  0.17770000000E+01 0. -1.
</event>
<event>
 6    1  0.1378789E-002  0.1832546E+03  0.7546771E-02  0.1067856E+00
        -11   -1    0    0    0    0  0.00000000000E+00  0.00000000000E+00  0.18250000000E+03  0.18250000000E+03  0.00000000000E+00 0.  1.
         11   -1    0    0    0    0 -0.00000000000E+00 -0.00000000000E+00 -0.18250000000E+03  0.18250000000E+03  0.00000000000E+00 0.  1.
        -11    1    1    2    0    0  0.12883734704E+01  0.30035710133E+01  0.15725508349E+03  0.15728904166E+03  0.00000000000E+00 0.  1.
         11    1    1    2    0    0  0.62070647593E+00 -0.40770618413E+01 -0.18169864062E+03  0.18174543657E+03  0.00000000000E+00 0.  1.
        -15    1    1    2    0    0 -0.26017900839E+01 -0.28496848721E+01  0.14446324558E+02  0.15058022372E+02  0.17770000000E+01 0.  1.
         15    1    1    2    0    0  0.69271013757E+00  0.39231757001E+01  0.99972325757E+01  0.10907499396E+02  0.17770000000E+01 0.  1.
</event>
<event>
 6    1  0.1378789E-002  0.1838078E+03  0.7546771E-02  0.1067419E+00
        -11   -1    0    0    0    0  0.00000000000E+00  0.00000000000E+00  0.18250000000E+03  0.18250000000E+03  0.00000000000E+00 0. -1.
         11   -1    0    0    0    0 -0.00000000000E+00 -0.00000000000E+00 -0.18250000000E+03  0.18250000000E+03  0.00000000000E+00 0.  1.
        -11    1    1    2    0    0  0.21130371832E+01 -0.22750026886E+01  0.18116560849E+03  0.18119221358E+03  0.00000000000E+00 0. -1.
         11    1    1    2    0    0 -0.98106074652E+00  0.28126918407E+01 -0.17501307897E+03  0.17503842871E+03  0.00000000000E+00 0.  1.
        -15    1    1    2    0    0 -0.28373531768E+01  0.54526205638E+00 -0.24138095652E+01  0.41631826019E+01  0.17770000000E+01 0. -1.
         15    1    1    2    0    0  0.17053767401E+01 -0.10829512085E+01 -0.37387199577E+01  0.46061751018E+01  0.17770000000E+01 0. -1.
</event>
<event>
 6    1  0.1378789E-002  0.1825764E+03  0.7546771E-02  0.1068394E+00
        -11   -1    0    0    0    0  0.00000000000E+00  0.00000000000E+00  0.18250000000E+03  0.18250000000E+03  0.00000000000E+00 0. -1.
         11   -1    0    0    0    0 -0.00000000000E+00 -0.00000000000E+00 -0.18250000000E+03  0.18250000000E+03  0.00000000000E+00 0.  1.
        -11    1    1    2    0    0 -0.61851998363E+00 -0.10594605947E+01  0.83712550740E+02  0.83721539493E+02  0.00000000000E+00 0. -1.
         11    1    1    2    0    0  0.25246591479E+01 -0.29426146007E+00 -0.18240585926E+03  0.18242356752E+03  0.00000000000E+00 0.  1.
        -15    1    1    2    0    0  0.18391953854E+00  0.11677660375E+01  0.69401457309E+02  0.69434267546E+02  0.17770000000E+01 0.  1.
         15    1    1    2    0    0 -0.20900587028E+01  0.18595601725E+00  0.29291851211E+02  0.29420625442E+02  0.17770000000E+01 0. -1.
</event>
<event>
 6    1  0.1378789E-002  0.1826693E+03  0.7546771E-02  0.1068320E+00
        -11   -1    0    0    0    0  0.00000000000E+00  0.00000000000E+00  0.18250000000E+03  0.18250000000E+03  0.00000000000E+00 0.  1.
         11   -1    0    0    0    0 -0.00000000000E+00 -0.00000000000E+00 -0.18250000000E+03  0.18250000000E+03  0.00000000000E+00 0.  1.
        -11    1    1    2    0    0  0.47860337254E+00 -0.21421467261E+00  0.24144009095E+02  0.24149702364E+02  0.00000000000E+00 0.  1.
         11    1    1    2    0    0  0.18127562193E+01 -0.59848425160E+01 -0.18222340138E+03  0.18233066784E+03  0.00000000000E+00 0.  1.
        -15    1    1    2    0    0 -0.42126835218E-02 -0.10477807256E+01  0.84940679193E+02  0.84965725872E+02  0.17770000000E+01 0.  1.
         15    1    1    2    0    0 -0.22871469083E+01  0.72468379142E+01  0.73138713091E+02  0.73553903923E+02  0.17770000000E+01 0.  1.
</event>
<event>
 6    1  0.1378789E-002  0.1782333E+03  0.7546771E-02  0.1071903E+00
        -11   -1    0    0    0    0  0.00000000000E+00  0.00000000000E+00  0.18250000000E+03  0.18250000000E+03  0.00000000000E+00 0.  1.
         11   -1    0    0    0    0 -0.00000000000E+00 -0.00000000000E+00 -0.18250000000E+03  0.18250000000E+03  0.00000000000E+00 0. -1.
        -11    1    1    2    0    0  0.53312274684E+01 -0.50820008247E+00  0.17757037132E+03  0.17765111040E+03  0.00000000000E+00 0.  1.
         11    1    1    2    0    0 -0.15422774917E+01 -0.29908637092E+01 -0.17882338010E+03  0.17885503950E+03  0.00000000000E+00 0. -1.
        -15    1    1    2    0    0 -0.21903415883E+01  0.29209734918E+01 -0.19100683371E+01  0.44872901027E+01  0.17770000000E+01 0. -1.
         15    1    1    2    0    0 -0.15986083884E+01  0.57809029987E+00  0.31630771145E+01  0.40065599966E+01  0.17770000000E+01 0.  1.
</event>
<event>
 6    1  0.1378789E-002  0.1841142E+03  0.7546771E-02  0.1067177E+00
        -11   -1    0    0    0    0  0.00000000000E+00  0.00000000000E+00  0.18250000000E+03  0.18250000000E+03  0.00000000000E+00 0. -1.
         11   -1    0    0    0    0 -0.00000000000E+00 -0.00000000000E+00 -0.18250000000E+03  0.18250000000E+03  0.00000000000E+00 0.  1.
        -11    1    1    2    0    0  0.34349415710E+01 -0.39520505204E+01  0.14551509905E+03  0.14560927711E+03  0.00000000000E+00 0. -1.
         11    1    1    2    0    0  0.25783485461E+01  0.17390025842E+01 -0.18085902387E+03  0.18088576098E+03  0.00000000000E+00 0.  1.
        -15    1    1    2    0    0  0.17722998040E+01  0.36534138862E+01  0.24836453783E+02  0.25228865316E+02  0.17770000000E+01 0. -1.
         15    1    1    2    0    0 -0.77855899210E+01 -0.14403659500E+01  0.10507471029E+02  0.13276096599E+02  0.17770000000E+01 0.  1.
</event>
<event>
 6    1  0.1378789E-002  0.1849894E+03  0.7546771E-02  0.1066490E+00
        -11   -1    0    0    0    0  0.00000000000E+00  0.00000000000E+00  0.18250000000E+03  0.18250000000E+03  0.00000000000E+00 0. -1.
         11   -1    0    0    0    0 -0.00000000000E+00 -0.00000000000E+00 -0.18250000000E+03  0.18250000000E+03  0.00000000000E+00 0.  1.
        -11    1    1    2    0    0  0.76204254271E+01 -0.23689106555E+01  0.16431319175E+03  0.16450686188E+03  0.00000000000E+00 0. -1.
         11    1    1    2    0    0  0.25026525914E+01 -0.75381125336E+00 -0.17999163981E+03  0.18001061609E+03  0.00000000000E+00 0.  1.
        -15    1    1    2    0    0 -0.15084537375E+01  0.17319267014E+01  0.59172723950E+00  0.29635912173E+01  0.17770000000E+01 0. -1.
         15    1    1    2    0    0 -0.86146242810E+01  0.13907952075E+01  0.15086720822E+02  0.17518930817E+02  0.17770000000E+01 0.  1.
</event>
<event>
 6    1  0.1378789E-002  0.1830764E+03  0.7546771E-02  0.1067997E+00
        -11   -1    0    0    0    0  0.00000000000E+00  0.00000000000E+00  0.18250000000E+03  0.18250000000E+03  0.00000000000E+00 0.  1.
         11   -1    0    0    0    0 -0.00000000000E+00 -0.00000000000E+00 -0.18250000000E+03  0.18250000000E+03  0.00000000000E+00 0. -1.
        -11    1    1    2    0    0  0.45633150976E+01 -0.13458845360E+01  0.18186139245E+03  0.18192361396E+03  0.00000000000E+00 0.  1.
         11    1    1    2    0    0  0.23925934269E+01 -0.31276597462E+00 -0.15223463126E+03  0.15225375293E+03  0.00000000000E+00 0. -1.
        -15    1    1    2    0    0 -0.16056894924E+01 -0.19242046849E+00 -0.60254021090E+01  0.64867914995E+01  0.17770000000E+01 0.  1.
         15    1    1    2    0    0 -0.53502190321E+01  0.18510709791E+01 -0.23601359087E+02  0.24335841617E+02  0.17770000000E+01 0.  1.
</event>
<event>
 6    1  0.1378789E-002  0.1836690E+03  0.7546771E-02  0.1067528E+00
        -11   -1    0    0    0    0  0.00000000000E+00  0.00000000000E+00  0.18250000000E+03  0.18250000000E+03  0.00000000000E+00 0.  1.
         11   -1    0    0    0    0 -0.00000000000E+00 -0.00000000000E+00 -0.18250000000E+03  0.18250000000E+03  0.00000000000E+00 0. -1.
        -11    1    1    2    0    0 -0.44243382803E+01 -0.15075972183E+01  0.18127070095E+03  0.18133095334E+03  0.00000000000E+00 0.  1.
         11    1    1    2    0    0 -0.23296206598E+01  0.27968163779E+01 -0.16830204971E+03  0.16834140682E+03  0.00000000000E+00 0. -1.
        -15    1    1    2    0    0  0.56271221980E+01 -0.49913988522E+00 -0.93332270748E+01  0.11053528915E+02  0.17770000000E+01 0. -1.
         15    1    1    2    0    0  0.11268367421E+01 -0.79007927433E+00 -0.36354241620E+01  0.42741109182E+01  0.17770000000E+01 0.  1.
</event>
<event>
 6    1  0.1378789E-002  0.1911281E+03  0.7546771E-02  0.1061787E+00
        -11   -1    0    0    0    0  0.00000000000E+00  0.00000000000E+00  0.18250000000E+03  0.18250000000E+03  0.00000000000E+00 0. -1.
         11   -1    0    0    0    0 -0.00000000000E+00 -0.00000000000E+00 -0.18250000000E+03  0.18250000000E+03  0.00000000000E+00 0.  1.
        -11    1    1    2    0    0  0.97642278654E+01  0.88033491143E+01  0.17337411284E+03  0.17387185541E+03  0.00000000000E+00 0. -1.
         11    1    1    2    0    0  0.14007625229E+00 -0.61175844269E+01 -0.15046814302E+03  0.15059251815E+03  0.00000000000E+00 0.  1.
        -15    1    1    2    0    0 -0.69949449130E+01 -0.41454399856E+00 -0.30802704561E+02  0.31639618176E+02  0.17770000000E+01 0.  1.
         15    1    1    2    0    0 -0.29093592047E+01 -0.22712206888E+01  0.78967347404E+01  0.88960082599E+01  0.17770000000E+01 0. -1.
</event>
<event>
 6    1  0.1378789E-002  0.1828727E+03  0.7546771E-02  0.1068158E+00
        -11   -1    0    0    0    0  0.00000000000E+00  0.00000000000E+00  0.18250000000E+03  0.18250000000E+03  0.00000000000E+00 0. -1.
         11   -1    0    0    0    0 -0.00000000000E+00 -0.00000000000E+00 -0.18250000000E+03  0.18250000000E+03  0.00000000000E+00 0. -1.
        -11    1    1    2    0    0  0.50139528528E+01 -0.16760910358E+01  0.11099824030E+03  0.11112406740E+03  0.00000000000E+00 0. -1.
         11    1    1    2    0    0 -0.64686891961E+01 -0.55788719690E+00 -0.18201148822E+03  0.18212725502E+03  0.00000000000E+00 0. -1.
        -15    1    1    2    0    0  0.42421604374E+01  0.83394340855E+00  0.17448188423E+02  0.18063454681E+02  0.17770000000E+01 0.  1.
         15    1    1    2    0    0 -0.27874240942E+01  0.14000348242E+01  0.53565059492E+02  0.53685222901E+02  0.17770000000E+01 0. -1.
</event>
<event>
 6    1  0.1378789E-002  0.1958255E+03  0.7546771E-02  0.1058316E+00
        -11   -1    0    0    0    0  0.00000000000E+00  0.00000000000E+00  0.18250000000E+03  0.18250000000E+03  0.00000000000E+00 0. -1.
         11   -1    0    0    0    0 -0.00000000000E+00 -0.00000000000E+00 -0.18250000000E+03  0.18250000000E+03  0.00000000000E+00 0.  1.
        -11    1    1    2    0    0  0.39319147995E+01  0.67856598642E+01  0.13037769257E+03  0.13061335251E+03  0.00000000000E+00 0. -1.
         11    1    1    2    0    0  0.10488883337E+01  0.40807797042E+01 -0.16912206675E+03  0.16917454415E+03  0.00000000000E+00 0.  1.
        -15    1    1    2    0    0 -0.30542040437E+01 -0.40586056899E+01 -0.12417178260E+02  0.13533088614E+02  0.17770000000E+01 0. -1.
         15    1    1    2    0    0 -0.19265990895E+01 -0.68078338785E+01  0.51161552437E+02  0.51679014725E+02  0.17770000000E+01 0.  1.
</event>
<event>
 6    1  0.1378789E-002  0.1773566E+03  0.7546771E-02  0.1072624E+00
        -11   -1    0    0    0    0  0.00000000000E+00  0.00000000000E+00  0.18250000000E+03  0.18250000000E+03  0.00000000000E+00 0.  1.
         11   -1    0    0    0    0 -0.00000000000E+00 -0.00000000000E+00 -0.18250000000E+03  0.18250000000E+03  0.00000000000E+00 0. -1.
        -11    1    1    2    0    0  0.36197261464E+01  0.22083912517E+01  0.17920082772E+03  0.17925098623E+03  0.00000000000E+00 0.  1.
         11    1    1    2    0    0  0.33255995668E+01 -0.14302577564E-01 -0.17552444007E+03  0.17555594230E+03  0.00000000000E+00 0. -1.
        -15    1    1    2    0    0 -0.19747048928E+01 -0.11303151440E+01 -0.38418652463E+01  0.48056975882E+01  0.17770000000E+01 0.  1.
         15    1    1    2    0    0 -0.49706208204E+01 -0.10637735302E+01  0.16547759700E+00  0.53873738778E+01  0.17770000000E+01 0. -1.
</event>
<event>
 6    1  0.1378789E-002  0.1763674E+03  0.7546771E-02  0.1073444E+00
        -11   -1    0    0    0    0  0.00000000000E+00  0.00000000000E+00  0.18250000000E+03  0.18250000000E+03  0.00000000000E+00 0.  1.
         11   -1    0    0    0    0 -0.00000000000E+00 -0.00000000000E+00 -0.18250000000E+03  0.18250000000E+03  0.00000000000E+00 0. -1.
        -11    1    1    2    0    0 -0.51292816132E+01 -0.29216194487E+01  0.17784383675E+03  0.17794177604E+03  0.00000000000E+00 0.  1.
         11    1    1    2    0    0 -0.28376324777E+01  0.13386051220E+01 -0.17487093538E+03  0.17489907965E+03  0.00000000000E+00 0. -1.
        -15    1    1    2    0    0  0.60742104856E+01  0.18431758734E+01 -0.54563446079E+01  0.85570296133E+01  0.17770000000E+01 0. -1.
         15    1    1    2    0    0  0.18927036054E+01 -0.26016154675E+00  0.24834432394E+01  0.36021146971E+01  0.17770000000E+01 0.  1.
</event>
<event>
 6    1  0.1378789E-002  0.1842607E+03  0.7546771E-02  0.1067062E+00
        -11   -1    0    0    0    0  0.00000000000E+00  0.00000000000E+00  0.18250000000E+03  0.18250000000E+03  0.00000000000E+00 0.  1.
         11   -1    0    0    0    0 -0.00000000000E+00 -0.00000000000E+00 -0.18250000000E+03  0.18250000000E+03  0.00000000000E+00 0. -1.
        -11    1    1    2    0    0 -0.87741528563E+01  0.73224113831E+01  0.18037767670E+03  0.18073934192E+03  0.00000000000E+00 0.  1.
         11    1    1    2    0    0  0.54340892128E+00  0.31674508212E+01 -0.11795866514E+03  0.11800243523E+03  0.00000000000E+00 0. -1.
        -15    1    1    2    0    0  0.55224807150E+01 -0.82386209686E+01 -0.11932228064E+02  0.15617569090E+02  0.17770000000E+01 0. -1.
         15    1    1    2    0    0  0.27082632201E+01 -0.22512412357E+01 -0.50486783497E+02  0.50640653764E+02  0.17770000000E+01 0.  1.
</event>
<event>
 6    1  0.1378789E-002  0.1854830E+03  0.7546771E-02  0.1066105E+00
        -11   -1    0    0    0    0  0.00000000000E+00  0.00000000000E+00  0.18250000000E+03  0.18250000000E+03  0.00000000000E+00 0.  1.
         11   -1    0    0    0    0 -0.00000000000E+00 -0.00000000000E+00 -0.18250000000E+03  0.18250000000E+03  0.00000000000E+00 0. -1.
        -11    1    1    2    0    0  0.32951326215E+01 -0.61617763491E+00  0.17948566826E+03  0.17951697047E+03  0.00000000000E+00 0.  1.
         11    1    1    2    0    0 -0.27451013085E+00 -0.75745646633E+01 -0.15847258631E+03  0.15865374247E+03  0.00000000000E+00 0. -1.
        -15    1    1    2    0    0 -0.18594674642E+00  0.27256128670E+01 -0.20093135941E+02  0.20355721128E+02  0.17770000000E+01 0.  1.
         15    1    1    2    0    0 -0.28346757443E+01  0.54651294312E+01 -0.91994600781E+00  0.64735659364E+01  0.17770000000E+01 0. -1.
</event>
<event>
 6    1  0.1378789E-002  0.1828750E+03  0.7546771E-02  0.1068157E+00
        -11   -1    0    0    0    0  0.00000000000E+00  0.00000000000E+00  0.18250000000E+03  0.18250000000E+03  0.00000000000E+00 0. -1.
         11   -1    0    0    0    0 -0.00000000000E+00 -0.00000000000E+00 -0.18250000000E+03  0.18250000000E+03  0.00000000000E+00 0.  1.
        -11    1    1    2    0    0  0.33459300307E+00 -0.57599904065E+00  0.15613375064E+02  0.15627578452E+02  0.00000000000E+00 0. -1.
         11    1    1    2    0    0 -0.57232829946E+01  0.35136254560E+00 -0.18203472955E+03  0.18212501802E+03  0.00000000000E+00 0.  1.
        -15    1    1    2    0    0  0.12242968065E+01 -0.20354037881E+01  0.15075205190E+03  0.15078123442E+03  0.17770000000E+01 0. -1.
         15    1    1    2    0    0  0.41643931850E+01  0.22600402832E+01  0.15669302589E+02  0.16466169114E+02  0.17770000000E+01 0.  1.
</event>
<event>
 6    1  0.1378789E-002  0.1853648E+03  0.7546771E-02  0.1066197E+00
        -11   -1    0    0    0    0  0.00000000000E+00  0.00000000000E+00  0.18250000000E+03  0.18250000000E+03  0.00000000000E+00 0.  1.
         11   -1    0    0    0    0 -0.00000000000E+00 -0.00000000000E+00 -0.18250000000E+03  0.18250000000E+03  0.00000000000E+00 0.  1.
        -11    1    1    2    0    0  0.16628819848E+01  0.27160202980E+01  0.17364955699E+03  0.17367875686E+03  0.00000000000E+00 0.  1.
         11    1    1    2    0    0  0.19530560031E+01 -0.24835016691E+01 -0.17960739039E+03  0.17963517721E+03  0.00000000000E+00 0.  1.
        -15    1    1    2    0    0 -0.97898181046E-01 -0.20974735182E+01  0.67185691226E+01  0.72598814913E+01  0.17770000000E+01 0. -1.
         15    1    1    2    0    0 -0.35180398069E+01  0.18649548892E+01 -0.76073571721E+00  0.44261844351E+01  0.17770000000E+01 0. -1.
</event>
<event>
 6    1  0.1378789E-002  0.1511777E+03  0.7546771E-02  0.1096542E+00
        -11   -1    0    0    0    0  0.00000000000E+00  0.00000000000E+00  0.18250000000E+03  0.18250000000E+03  0.00000000000E+00 0.  1.
         11   -1    0    0    0    0 -0.00000000000E+00 -0.00000000000E+00 -0.18250000000E+03  0.18250000000E+03  0.00000000000E+00 0. -1.
        -11    1    1    2    0    0  0.29374786242E+01 -0.92847082551E+00  0.13390579657E+03  0.13394123037E+03  0.00000000000E+00 0.  1.
         11    1    1    2    0    0 -0.37137962805E+02  0.12224883287E+02 -0.92403343544E+02  0.10033470960E+03  0.00000000000E+00 0. -1.
        -15    1    1    2    0    0  0.25503533053E+02 -0.92473701962E+01  0.40192027886E+02  0.48523199485E+02  0.17770000000E+01 0.  1.
         15    1    1    2    0    0  0.86969511280E+01 -0.20490422652E+01 -0.81694480912E+02  0.82200860541E+02  0.17770000000E+01 0. -1.
</event>
<event>
 6    1  0.1378789E-002  0.1865652E+03  0.7546771E-02  0.1065264E+00
        -11   -1    0    0    0    0  0.00000000000E+00  0.00000000000E+00  0.18250000000E+03  0.18250000000E+03  0.00000000000E+00 0. -1.
         11   -1    0    0    0    0 -0.00000000000E+00 -0.00000000000E+00 -0.18250000000E+03  0.18250000000E+03  0.00000000000E+00 0. -1.
        -11    1    1    2    0    0  0.42474836758E+01 -0.52156374223E+01  0.17830800691E+03  0.17843483214E+03  0.00000000000E+00 0. -1.
         11    1    1    2    0    0 -0.33822779006E+00 -0.20269179488E+01 -0.14774508918E+03  0.14775937930E+03  0.00000000000E+00 0. -1.
        -15    1    1    2    0    0 -0.95382438354E+01  0.11997046811E+02 -0.25098741135E+02  0.29462039359E+02  0.17770000000E+01 0. -1.
         15    1    1    2    0    0  0.56289879497E+01 -0.47544914396E+01 -0.54641765976E+01  0.93437491981E+01  0.17770000000E+01 0.  1.
</event>
<event>
 6    1  0.1378789E-002  0.1840663E+03  0.7546771E-02  0.1067215E+00
        -11   -1    0    0    0    0  0.00000000000E+00  0.00000000000E+00  0.18250000000E+03  0.18250000000E+03  0.00000000000E+00 0. -1.
         11   -1    0    0    0    0 -0.00000000000E+00 -0.00000000000E+00 -0.18250000000E+03  0.18250000000E+03  0.00000000000E+00 0. -1.
        -11    1    1    2    0    0  0.52829480453E+01  0.40728418248E+00  0.18085608359E+03  0.18093368507E+03  0.00000000000E+00 0. -1.
         11    1    1    2    0    0  0.76801578432E+00  0.26070195553E+01 -0.15180971634E+03  0.15183404221E+03  0.00000000000E+00 0. -1.
        -15    1    1    2    0    0 -0.36565698747E+01 -0.67572228249E+01 -0.10824224439E+02  0.13392241308E+02  0.17770000000E+01 0.  1.
         15    1    1    2    0    0 -0.23943939549E+01  0.37429190872E+01 -0.18222142819E+02  0.18840031412E+02  0.17770000000E+01 0. -1.
</event>
<event>
 6    1  0.1378789E-002  0.1857033E+03  0.7546771E-02  0.1065933E+00
        -11   -1    0    0    0    0  0.00000000000E+00  0.00000000000E+00  0.18250000000E+03  0.18250000000E+03  0.00000000000E+00 0. -1.
         11   -1    0    0    0    0 -0.00000000000E+00 -0.00000000000E+00 -0.18250000000E+03  0.18250000000E+03  0.00000000000E+00 0. -1.
        -11    1    1    2    0    0 -0.11190772541E+01  0.30087435713E+01  0.17926794840E+03  0.17929668763E+03  0.00000000000E+00 0. -1.
         11    1    1    2    0    0  0.30099125308E+01  0.12850615805E+01 -0.12008607114E+03  0.12013065986E+03  0.00000000000E+00 0. -1.
        -15    1    1    2    0    0 -0.84419232917E+01  0.30951670647E+01 -0.49425466939E+01  0.10413098715E+02  0.17770000000E+01 0. -1.
         15    1    1    2    0    0  0.65510880151E+01 -0.73889722164E+01 -0.54239330567E+02  0.55159553787E+02  0.17770000000E+01 0.  1.
</event>
<event>
 6    1  0.1378789E-002  0.1838953E+03  0.7546771E-02  0.1067350E+00
        -11   -1    0    0    0    0  0.00000000000E+00  0.00000000000E+00  0.18250000000E+03  0.18250000000E+03  0.00000000000E+00 0.  1.
         11   -1    0    0    0    0 -0.00000000000E+00 -0.00000000000E+00 -0.18250000000E+03  0.18250000000E+03  0.00000000000E+00 0. -1.
        -11    1    1    2    0    0  0.42455734662E+01  0.33708658754E+01  0.16174882994E+03  0.16183964785E+03  0.00000000000E+00 0.  1.
         11    1    1    2    0    0  0.30972190152E+01  0.28252965485E+00 -0.18107800975E+03  0.18110471613E+03  0.00000000000E+00 0. -1.
        -15    1    1    2    0    0 -0.42263638966E+01 -0.45680825851E+01  0.15137825502E+02  0.16463323486E+02  0.17770000000E+01 0. -1.
         15    1    1    2    0    0 -0.31164285848E+01  0.91468705487E+00  0.41913543119E+01  0.55923125360E+01  0.17770000000E+01 0.  1.
</event>
<event>
 6    1  0.1378789E-002  0.1873608E+03  0.7546771E-02  0.1064650E+00
        -11   -1    0    0    0    0  0.00000000000E+00  0.00000000000E+00  0.18250000000E+03  0.18250000000E+03  0.00000000000E+00 0.  1.
         11   -1    0    0    0    0 -0.00000000000E+00 -0.00000000000E+00 -0.18250000000E+03  0.18250000000E+03  0.00000000000E+00 0. -1.
        -11    1    1    2    0    0 -0.28585667262E+01 -0.63740101009E+00  0.17761503981E+03  0.17763918501E+03  0.00000000000E+00 0.  1.
         11    1    1    2    0    0  0.18329667413E+01  0.21546594526E+01 -0.16213261061E+03  0.16215728706E+03  0.00000000000E+00 0. -1.
        -15    1    1    2    0    0  0.36435466859E+01  0.62771762269E+01  0.12503006643E+00  0.74734018594E+01  0.17770000000E+01 0.  1.
         15    1    1    2    0    0 -0.26179467010E+01 -0.77944346694E+01 -0.15607459265E+02  0.17730126070E+02  0.17770000000E+01 0. -1.
</event>
<event>
 6    1  0.1378789E-002  0.1895120E+03  0.7546771E-02  0.1063006E+00
        -11   -1    0    0    0    0  0.00000000000E+00  0.00000000000E+00  0.18250000000E+03  0.18250000000E+03  0.00000000000E+00 0.  1.
         11   -1    0    0    0    0 -0.00000000000E+00 -0.00000000000E+00 -0.18250000000E+03  0.18250000000E+03  0.00000000000E+00 0.  1.
        -11    1    1    2    0    0  0.22644197099E+01 -0.76425532810E+00  0.95980591880E+02  0.96010341633E+02  0.00000000000E+00 0.  1.
         11    1    1    2    0    0  0.31269731845E+01  0.42862800412E+01 -0.17540778395E+03  0.17548800764E+03  0.00000000000E+00 0.  1.
        -15    1    1    2    0    0 -0.17568886453E+02  0.52054525027E+00  0.78557109106E+02  0.80519027929E+02  0.17770000000E+01 0.  1.
         15    1    1    2    0    0  0.12177493558E+02 -0.40425699634E+01  0.87008296081E+00  0.12982622795E+02  0.17770000000E+01 0. -1.
</event>
<event>
 6    1  0.1378789E-002  0.1832477E+03  0.7546771E-02  0.1067861E+00
        -11   -1    0    0    0    0  0.00000000000E+00  0.00000000000E+00  0.18250000000E+03  0.18250000000E+03  0.00000000000E+00 0. -1.
         11   -1    0    0    0    0 -0.00000000000E+00 -0.00000000000E+00 -0.18250000000E+03  0.18250000000E+03  0.00000000000E+00 0.  1.
        -11    1    1    2    0    0 -0.97654519236E+00  0.28853686146E+01  0.12746839067E+03  0.12750478270E+03  0.00000000000E+00 0. -1.
         11    1    1    2    0    0  0.19185041622E+00  0.30163631219E+01 -0.18172720012E+03  0.18175233290E+03  0.00000000000E+00 0.  1.
        -15    1    1    2    0    0  0.40016385024E+01 -0.61774095627E+01  0.46958727783E+02  0.47565253533E+02  0.17770000000E+01 0. -1.
         15    1    1    2    0    0 -0.32169437262E+01  0.27567782614E+00  0.73000816671E+01  0.81776308640E+01  0.17770000000E+01 0.  1.
</event>
<event>
 6    1  0.1378789E-002  0.1831342E+03  0.7546771E-02  0.1067951E+00
        -11   -1    0    0    0    0  0.00000000000E+00  0.00000000000E+00  0.18250000000E+03  0.18250000000E+03  0.00000000000E+00 0. -1.
         11   -1    0    0    0    0 -0.00000000000E+00 -0.00000000000E+00 -0.18250000000E+03  0.18250000000E+03  0.00000000000E+00 0. -1.
        -11    1    1    2    0    0 -0.46011703732E+01  0.49206143419E+01  0.18174095254E+03  0.18186576655E+03  0.00000000000E+00 0. -1.
         11    1    1    2    0    0  0.43396110060E+00  0.25997894457E+01 -0.14062359389E+03  0.14064829322E+03  0.00000000000E+00 0. -1.
        -15    1    1    2    0    0  0.16297958892E+01 -0.52616579566E+01 -0.33062043203E+02  0.33564828450E+02  0.17770000000E+01 0. -1.
         15    1    1    2    0    0  0.25374133835E+01 -0.22587458309E+01 -0.80553154497E+01  0.89211117806E+01  0.17770000000E+01 0.  1.
</event>
<event>
 6    1  0.1378789E-002  0.1671311E+03  0.7546771E-02  0.1081392E+00
        -11   -1    0    0    0    0  0.00000000000E+00  0.00000000000E+00  0.18250000000E+03  0.18250000000E+03  0.00000000000E+00 0.  1.
         11   -1    0    0    0    0 -0.00000000000E+00 -0.00000000000E+00 -0.18250000000E+03  0.18250000000E+03  0.00000000000E+00 0. -1.
        -11    1    1    2    0    0  0.37309757995E+01 -0.20479729901E+01  0.16531380195E+03  0.16536858072E+03  0.00000000000E+00 0.  1.
         11    1    1    2    0    0 -0.26609528685E+01  0.15734173313E+02 -0.16843578781E+03  0.16919001003E+03  0.00000000000E+00 0. -1.
        -15    1    1    2    0    0 -0.74421505555E+01 -0.15247628963E+01  0.11767911282E+02  0.14119205775E+02  0.17770000000E+01 0. -1.
         15    1    1    2    0    0  0.63721276245E+01 -0.12161437427E+02 -0.86459254236E+01  0.16322203472E+02  0.17770000000E+01 0.  1.
</event>
<event>
 6    1  0.1378789E-002  0.1890035E+03  0.7546771E-02  0.1063393E+00
        -11   -1    0    0    0    0  0.00000000000E+00  0.00000000000E+00  0.18250000000E+03  0.18250000000E+03  0.00000000000E+00 0. -1.
         11   -1    0    0    0    0 -0.00000000000E+00 -0.00000000000E+00 -0.18250000000E+03  0.18250000000E+03  0.00000000000E+00 0. -1.
        -11    1    1    2    0    0  0.23375187903E+01  0.29009804607E+01  0.13064184059E+03  0.13069495091E+03  0.00000000000E+00 0. -1.
         11    1    1    2    0    0 -0.23981232174E+01  0.12364546054E+02 -0.17554528355E+03  0.17599653284E+03  0.00000000000E+00 0. -1.
        -15    1    1    2    0    0  0.27427402357E+01  0.38699170769E+01 -0.35024842658E+01  0.61582470894E+01  0.17770000000E+01 0.  1.
         15    1    1    2    0    0 -0.26821358087E+01 -0.19135443591E+02  0.48405927228E+02  0.52150269163E+02  0.17770000000E+01 0. -1.
</event>
<event>
 6    1  0.1378789E-002  0.1874527E+03  0.7546771E-02  0.1064579E+00
        -11   -1    0    0    0    0  0.00000000000E+00  0.00000000000E+00  0.18250000000E+03  0.18250000000E+03  0.00000000000E+00 0. -1.
         11   -1    0    0    0    0 -0.00000000000E+00 -0.00000000000E+00 -0.18250000000E+03  0.18250000000E+03  0.00000000000E+00 0. -1.
        -11    1    1    2    0    0 -0.20105875748E+01  0.47611005966E+01  0.15387892096E+03  0.15396568728E+03  0.00000000000E+00 0. -1.
         11    1    1    2    0    0  0.42771994296E+01 -0.58194606970E+01 -0.17740037918E+03  0.17754733197E+03  0.00000000000E+00 0. -1.
        -15    1    1    2    0    0 -0.46269146684E+01  0.47856711586E+01 -0.22750627086E+01  0.72556617283E+01  0.17770000000E+01 0.  1.
         15    1    1    2    0    0  0.23603028136E+01 -0.37273110582E+01  0.25796520923E+02  0.26231319026E+02  0.17770000000E+01 0. -1.
</event>
<event>
 6    1  0.1378789E-002  0.1838831E+03  0.7546771E-02  0.1067359E+00
        -11   -1    0    0    0    0  0.00000000000E+00  0.00000000000E+00  0.18250000000E+03  0.18250000000E+03  0.00000000000E+00 0.  1.
         11   -1    0    0    0    0 -0.00000000000E+00 -0.00000000000E+00 -0.18250000000E+03  0.18250000000E+03  0.00000000000E+00 0. -1.
        -11    1    1    2    0    0  0.78188036847E+01  0.79258017935E+00  0.18094626714E+03  0.18111685031E+03  0.00000000000E+00 0.  1.
         11    1    1    2    0    0  0.25506664116E+01 -0.36495926058E+01 -0.12563371426E+03  0.12571259119E+03  0.00000000000E+00 0. -1.
        -15    1    1    2    0    0 -0.57880357606E+01  0.49623601141E+01 -0.50086198713E+02  0.50694293628E+02  0.17770000000E+01 0. -1.
         15    1    1    2    0    0 -0.45814343357E+01 -0.21053476877E+01 -0.52263541692E+01  0.74762648669E+01  0.17770000000E+01 0.  1.
</event>
<event>
 6    1  0.1378789E-002  0.1760693E+03  0.7546771E-02  0.1073692E+00
        -11   -1    0    0    0    0  0.00000000000E+00  0.00000000000E+00  0.18250000000E+03  0.18250000000E+03  0.00000000000E+00 0.  1.
         11   -1    0    0    0    0 -0.00000000000E+00 -0.00000000000E+00 -0.18250000000E+03  0.18250000000E+03  0.00000000000E+00 0. -1.
        -11    1    1    2    0    0 -0.75128027469E+01 -0.34131445666E+01  0.17697139277E+03  0.17716366902E+03  0.00000000000E+00 0.  1.
         11    1    1    2    0    0 -0.25841397279E+01  0.33977772061E+01 -0.17507277997E+03  0.17512481536E+03  0.00000000000E+00 0. -1.
        -15    1    1    2    0    0  0.28557003713E+01 -0.19374670059E+01 -0.30262725415E+01  0.49218754053E+01  0.17770000000E+01 0.  1.
         15    1    1    2    0    0  0.72412421036E+01  0.19528343664E+01  0.11276597359E+01  0.77896402192E+01  0.17770000000E+01 0.  1.
</event>
<event>
 6    1  0.1378789E-002  0.1903313E+03  0.7546771E-02  0.1062387E+00
        -11   -1    0    0    0    0  0.00000000000E+00  0.00000000000E+00  0.18250000000E+03  0.18250000000E+03  0.00000000000E+00 0.  1.
         11   -1    0    0    0    0 -0.00000000000E+00 -0.00000000000E+00 -0.18250000000E+03  0.18250000000E+03  0.00000000000E+00 0. -1.
        -11    1    1    2    0    0 -0.21829999849E+01  0.10887382789E+01  0.17465169251E+03  0.17466872799E+03  0.00000000000E+00 0.  1.
         11    1    1    2    0    0 -0.81260423828E+01 -0.15818848325E+01 -0.12502031424E+03  0.12529410958E+03  0.00000000000E+00 0. -1.
        -15    1    1    2    0    0  0.16293606021E+02 -0.71188051271E+01 -0.51937968774E+02  0.54926034929E+02  0.17770000000E+01 0. -1.
         15    1    1    2    0    0 -0.59845636532E+01  0.76119516806E+01  0.23065904969E+01  0.10111127495E+02  0.17770000000E+01 0.  1.
</event>
<event>
 6    1  0.1378789E-002  0.1827936E+03  0.7546771E-02  0.1068221E+00
        -11   -1    0    0    0    0  0.00000000000E+00  0.00000000000E+00  0.18250000000E+03  0.18250000000E+03  0.00000000000E+00 0. -1.
         11   -1    0    0    0    0 -0.00000000000E+00 -0.00000000000E+00 -0.18250000000E+03  0.18250000000E+03  0.00000000000E+00 0.  1.
        -11    1    1    2    0    0  0.31661549388E+01 -0.39173966714E+01  0.23464821256E+02  0.23999341040E+02  0.00000000000E+00 0. -1.
         11    1    1    2    0    0 -0.37671524989E+01  0.41311249466E+01 -0.18212056322E+03  0.18220635877E+03  0.00000000000E+00 0.  1.
        -15    1    1    2    0    0  0.31176569134E+00 -0.26192878663E+01  0.10993303732E+03  0.10997903568E+03  0.17770000000E+01 0. -1.
         15    1    1    2    0    0  0.28923186878E+00  0.24055595912E+01  0.48722704641E+02  0.48815264503E+02  0.17770000000E+01 0. -1.
</event>
<event>
 6    1  0.1378789E-002  0.1825644E+03  0.7546771E-02  0.1068404E+00
        -11   -1    0    0    0    0  0.00000000000E+00  0.00000000000E+00  0.18250000000E+03  0.18250000000E+03  0.00000000000E+00 0. -1.
         11   -1    0    0    0    0 -0.00000000000E+00 -0.00000000000E+00 -0.18250000000E+03  0.18250000000E+03  0.00000000000E+00 0.  1.
        -11    1    1    2    0    0 -0.36814372766E-01 -0.48906061336E+01  0.18237006578E+03  0.18243563325E+03  0.00000000000E+00 0. -1.
         11    1    1    2    0    0 -0.25933856170E+00  0.10809362249E+01 -0.51507910639E+02  0.51519904290E+02  0.00000000000E+00 0.  1.
        -15    1    1    2    0    0  0.14052780842E+01  0.12755751758E+01 -0.25754636684E+02  0.25885535309E+02  0.17770000000E+01 0. -1.
         15    1    1    2    0    0 -0.11091251498E+01  0.25340947330E+01 -0.10510751846E+03  0.10515892716E+03  0.17770000000E+01 0.  1.
</event>
<event>
 6    1  0.1378789E-002  0.1831008E+03  0.7546771E-02  0.1067978E+00
        -11   -1    0    0    0    0  0.00000000000E+00  0.00000000000E+00  0.18250000000E+03  0.18250000000E+03  0.00000000000E+00 0. -1.
         11   -1    0    0    0    0 -0.00000000000E+00 -0.00000000000E+00 -0.18250000000E+03  0.18250000000E+03  0.00000000000E+00 0.  1.
        -11    1    1    2    0    0 -0.46226539354E+01 -0.82350539324E+00  0.16151585033E+03  0.16158408647E+03  0.00000000000E+00 0. -1.
         11    1    1    2    0    0  0.34673962258E+01 -0.28919816052E+01 -0.18184314146E+03  0.18189918772E+03  0.00000000000E+00 0.  1.
        -15    1    1    2    0    0 -0.16873967154E+01  0.18288652290E+01  0.68560267845E+01  0.75069892747E+01  0.17770000000E+01 0.  1.
         15    1    1    2    0    0  0.28426544250E+01  0.18866217695E+01  0.13471264348E+02  0.14009736543E+02  0.17770000000E+01 0. -1.
</event>
<event>
 6    1  0.1378789E-002  0.1725107E+03  0.7546771E-02  0.1076697E+00
        -11   -1    0    0    0    0  0.00000000000E+00  0.00000000000E+00  0.18250000000E+03  0.18250000000E+03  0.00000000000E+00 0. -1.
         11   -1    0    0    0    0 -0.00000000000E+00 -0.00000000000E+00 -0.18250000000E+03  0.18250000000E+03  0.00000000000E+00 0.  1.
        -11    1    1    2    0    0  0.18142466557E+01  0.15872350182E+01  0.17364045702E+03  0.17365718850E+03  0.00000000000E+00 0. -1.
         11    1    1    2    0    0 -0.58603678135E+01  0.96102282957E+01 -0.17120857057E+03  0.17157818928E+03  0.00000000000E+00 0.  1.
        -15    1    1    2    0    0  0.88838397154E+01 -0.11250253367E+02 -0.21399919117E+01  0.14602332118E+02  0.17770000000E+01 0. -1.
         15    1    1    2    0    0 -0.48377185576E+01  0.52790053088E-01 -0.29189453153E+00  0.51622900974E+01  0.17770000000E+01 0.  1.
</event>
<event>
 6    1  0.1378789E-002  0.1826448E+03  0.7546771E-02  0.1068340E+00
        -11   -1    0    0    0    0  0.00000000000E+00  0.00000000000E+00  0.18250000000E+03  0.18250000000E+03  0.00000000000E+00 0. -1.
         11   -1    0    0    0    0 -0.00000000000E+00 -0.00000000000E+00 -0.18250000000E+03  0.18250000000E+03  0.00000000000E+00 0.  1.
        -11    1    1    2    0    0  0.28857150441E+01 -0.19218853765E+01  0.18232226887E+03  0.18235523223E+03  0.00000000000E+00 0. -1.
         11    1    1    2    0    0 -0.14974471383E+00  0.14557770323E+01 -0.84241367931E+02  0.84254078721E+02  0.00000000000E+00 0.  1.
        -15    1    1    2    0    0  0.17131467676E+01  0.12341657010E+01 -0.25815828820E+02  0.25962911691E+02  0.17770000000E+01 0. -1.
         15    1    1    2    0    0 -0.44491170978E+01 -0.76805735677E+00 -0.72265072122E+02  0.72427777357E+02  0.17770000000E+01 0.  1.
</event>
<event>
 6    1  0.1378789E-002  0.1866061E+03  0.7546771E-02  0.1065233E+00
        -11   -1    0    0    0    0  0.00000000000E+00  0.00000000000E+00  0.18250000000E+03  0.18250000000E+03  0.00000000000E+00 0.  1.
         11   -1    0    0    0    0 -0.00000000000E+00 -0.00000000000E+00 -0.18250000000E+03  0.18250000000E+03  0.00000000000E+00 0. -1.
        -11    1    1    2    0    0  0.58179298552E+01  0.32224347549E+01  0.17826983976E+03  0.17839385685E+03  0.00000000000E+00 0.  1.
         11    1    1    2    0    0 -0.23509563382E+01 -0.32517063713E+01 -0.64180285085E+02  0.64305595275E+02  0.00000000000E+00 0. -1.
        -15    1    1    2    0    0  0.13210479334E+01 -0.51380547958E+01  0.20316242324E+01  0.59523105387E+01  0.17770000000E+01 0.  1.
         15    1    1    2    0    0 -0.47880214504E+01  0.51673264122E+01 -0.11612117891E+03  0.11634823734E+03  0.17770000000E+01 0. -1.
</event>
<event>
 6    1  0.1378789E-002  0.1947943E+03  0.7546771E-02  0.1059069E+00
        -11   -1    0    0    0    0  0.00000000000E+00  0.00000000000E+00  0.18250000000E+03  0.18250000000E+03  0.00000000000E+00 0. -1.
         11   -1    0    0    0    0 -0.00000000000E+00 -0.00000000000E+00 -0.18250000000E+03  0.18250000000E+03  0.00000000000E+00 0.  1.
        -11    1    1    2    0    0  0.91295039480E+01  0.11157845036E+02  0.11397575969E+03  0.11488393772E+03  0.00000000000E+00 0. -1.
         11    1    1    2    0    0 -0.10602208468E+02  0.22931810448E+02 -0.16832020081E+03  0.17020565430E+03  0.00000000000E+00 0.  1.
        -15    1    1    2    0    0  0.12032399135E+02 -0.37134645667E+02  0.20182216403E+02  0.43979996882E+02  0.17770000000E+01 0.  1.
         15    1    1    2    0    0 -0.10559694615E+02  0.30449901832E+01  0.34162224715E+02  0.35930411103E+02  0.17770000000E+01 0. -1.
</event>
<event>
 6    1  0.1378789E-002  0.2125068E+03  0.7546771E-02  0.1046799E+00
        -11   -1    0    0    0    0  0.00000000000E+00  0.00000000000E+00  0.18250000000E+03  0.18250000000E+03  0.00000000000E+00 0.  1.
         11   -1    0    0    0    0 -0.00000000000E+00 -0.00000000000E+00 -0.18250000000E+03  0.18250000000E+03  0.00000000000E+00 0.  1.
        -11    1    1    2    0    0 -0.46536166042E+01 -0.15241279905E+02  0.13413758546E+03  0.13508088167E+03  0.00000000000E+00 0.  1.
         11    1    1    2    0    0 -0.28854989014E+01 -0.30940525389E+01 -0.15243451552E+03  0.15249321554E+03  0.00000000000E+00 0.  1.
        -15    1    1    2    0    0  0.64532487582E+01  0.12652959271E+02  0.46462475587E+02  0.48617498543E+02  0.17770000000E+01 0. -1.
         15    1    1    2    0    0  0.10858667474E+01  0.56823731728E+01 -0.28165545522E+02  0.28808404243E+02  0.17770000000E+01 0. -1.
</event>
<event>
 6    1  0.1378789E-002  0.1825991E+03  0.7546771E-02  0.1068376E+00
        -11   -1    0    0    0    0  0.00000000000E+00  0.00000000000E+00  0.18250000000E+03  0.18250000000E+03  0.00000000000E+00 0. -1.
         11   -1    0    0    0    0 -0.00000000000E+00 -0.00000000000E+00 -0.18250000000E+03  0.18250000000E+03  0.00000000000E+00 0.  1.
        -11    1    1    2    0    0 -0.46783223209E+01 -0.46953947528E+01  0.18228040223E+03  0.18240087299E+03  0.00000000000E+00 0. -1.
         11    1    1    2    0    0 -0.30076239007E+00  0.15389630014E+01 -0.36832577353E+02  0.36865941186E+02  0.00000000000E+00 0.  1.
        -15    1    1    2    0    0  0.41699331155E+01 -0.48818546422E+00 -0.54067522934E+02  0.54259390270E+02  0.17770000000E+01 0. -1.
         15    1    1    2    0    0  0.80915159542E+00  0.36446172157E+01 -0.91380301941E+02  0.91473795553E+02  0.17770000000E+01 0.  1.
</event>
<event>
 6    1  0.1378789E-002  0.1827699E+03  0.7546771E-02  0.1068240E+00
        -11   -1    0    0    0    0  0.00000000000E+00  0.00000000000E+00  0.18250000000E+03  0.18250000000E+03  0.00000000000E+00 0. -1.
         11   -1    0    0    0    0 -0.00000000000E+00 -0.00000000000E+00 -0.18250000000E+03  0.18250000000E+03  0.00000000000E+00 0. -1.
        -11    1    1    2    0    0 -0.80522979186E+00  0.53510336209E+01  0.18214972116E+03  0.18223008224E+03  0.00000000000E+00 0. -1.
         11    1    1    2    0    0  0.69207785552E-01 -0.15392838616E+01 -0.90726784076E+02  0.90739867387E+02  0.00000000000E+00 0. -1.
        -15    1    1    2    0    0  0.32022557906E+01 -0.41987175247E+01 -0.28904826297E+02  0.29436888138E+02  0.17770000000E+01 0. -1.
         15    1    1    2    0    0 -0.24662337843E+01  0.38696776537E+00 -0.62518110785E+02  0.62593162233E+02  0.17770000000E+01 0. -1.
</event>
<event>
 6    1  0.1378789E-002  0.1647262E+03  0.7546771E-02  0.1083555E+00
        -11   -1    0    0    0    0  0.00000000000E+00  0.00000000000E+00  0.18250000000E+03  0.18250000000E+03  0.00000000000E+00 0. -1.
         11   -1    0    0    0    0 -0.00000000000E+00 -0.00000000000E+00 -0.18250000000E+03  0.18250000000E+03  0.00000000000E+00 0. -1.
        -11    1    1    2    0    0 -0.13040911437E+02 -0.12613244407E+02  0.16288439215E+03  0.16389168531E+03  0.00000000000E+00 0. -1.
         11    1    1    2    0    0  0.40411836062E+01 -0.82903947791E+01 -0.16610578925E+03  0.16636163931E+03  0.00000000000E+00 0. -1.
        -15    1    1    2    0    0  0.64380759836E+01  0.15613048930E+02  0.14220516666E+02  0.22149423074E+02  0.17770000000E+01 0. -1.
         15    1    1    2    0    0  0.25616518472E+01  0.52905902561E+01 -0.10999119566E+02  0.12597252307E+02  0.17770000000E+01 0.  1.
</event>
<event>
 6    1  0.1378789E-002  0.1827191E+03  0.7546771E-02  0.1068281E+00
        -11   -1    0    0    0    0  0.00000000000E+00  0.00000000000E+00  0.18250000000E+03  0.18250000000E+03  0.00000000000E+00 0. -1.
         11   -1    0    0    0    0 -0.00000000000E+00 -0.00000000000E+00 -0.18250000000E+03  0.18250000000E+03  0.00000000000E+00 0. -1.
        -11    1    1    2    0    0  0.22347735477E+01  0.19119864800E+01  0.18225722061E+03  0.18228094901E+03  0.00000000000E+00 0. -1.
         11    1    1    2    0    0  0.21805542933E+00 -0.26317097543E+01 -0.12720453630E+03  0.12723194371E+03  0.00000000000E+00 0. -1.
        -15    1    1    2    0    0  0.32861973088E+00  0.24864296916E+01 -0.29857886644E+02  0.30015686688E+02  0.17770000000E+01 0. -1.
         15    1    1    2    0    0 -0.27814487080E+01 -0.17667064173E+01 -0.25194797670E+02  0.25471420595E+02  0.17770000000E+01 0. -1.
</event>
<event>
 6    1  0.1378789E-002  0.1666681E+03  0.7546771E-02  0.1081806E+00
        -11   -1    0    0    0    0  0.00000000000E+00  0.00000000000E+00  0.18250000000E+03  0.18250000000E+03  0.00000000000E+00 0.  1.
         11   -1    0    0    0    0 -0.00000000000E+00 -0.00000000000E+00 -0.18250000000E+03  0.18250000000E+03  0.00000000000E+00 0.  1.
        -11    1    1    2    0    0  0.50780293597E+01  0.15676851105E+01  0.16656454138E+03  0.16664930382E+03  0.00000000000E+00 0.  1.
         11    1    1    2    0    0  0.12642209057E+01  0.24239287790E+01 -0.16674871619E+03  0.16677112470E+03  0.00000000000E+00 0.  1.
        -15    1    1    2    0    0 -0.43846393697E+01 -0.13906186030E+01  0.15268990057E+02  0.16045518653E+02  0.17770000000E+01 0. -1.
         15    1    1    2    0    0 -0.19576108956E+01 -0.26009952865E+01 -0.15084815251E+02  0.15534052821E+02  0.17770000000E+01 0.  1.
</event>
<event>
 6    1  0.1378789E-002  0.1856278E+03  0.7546771E-02  0.1065992E+00
        -11   -1    0    0    0    0  0.00000000000E+00  0.00000000000E+00  0.18250000000E+03  0.18250000000E+03  0.00000000000E+00 0.  1.
         11   -1    0    0    0    0 -0.00000000000E+00 -0.00000000000E+00 -0.18250000000E+03  0.18250000000E+03  0.00000000000E+00 0. -1.
        -11    1    1    2    0    0  0.14014027518E+01 -0.22353988887E+01  0.17935281506E+03  0.17937221972E+03  0.00000000000E+00 0.  1.
         11    1    1    2    0    0 -0.16080342411E+01 -0.29686033607E+01 -0.17601859149E+03  0.17605096686E+03  0.00000000000E+00 0. -1.
        -15    1    1    2    0    0 -0.29462515075E+01  0.32523744798E+01 -0.96721966732E+00  0.48323473165E+01  0.17770000000E+01 0. -1.
         15    1    1    2    0    0  0.31528829968E+01  0.19516277696E+01 -0.23670039000E+01  0.47444661033E+01  0.17770000000E+01 0.  1.
</event>
<event>
 6    1  0.3399039E-002  0.1828025E+03  0.7546771E-02  0.1068214E+00
        -11   -1    0    0    0    0  0.00000000000E+00  0.00000000000E+00  0.18250000000E+03  0.18250000000E+03  0.00000000000E+00 0.  1.
         11   -1    0    0    0    0 -0.00000000000E+00 -0.00000000000E+00 -0.18250000000E+03  0.18250000000E+03  0.00000000000E+00 0. -1.
        -11    1    1    2    0    0  0.23269579267E+01 -0.41035411232E+01  0.18213641152E+03  0.18219749225E+03  0.00000000000E+00 0.  1.
         11    1    1    2    0    0  0.80503589525E+00 -0.12639725757E+01 -0.11205442082E+02  0.11305204187E+02  0.00000000000E+00 0. -1.
        -15    1    1    2    0    0 -0.92651549030E+00  0.37262975259E+01 -0.16069418031E+03  0.16074987104E+03  0.17770000000E+01 0. -1.
         15    1    1    2    0    0 -0.22054783316E+01  0.16412161729E+01 -0.10236789122E+02  0.10747432518E+02  0.17770000000E+01 0.  1.
</event>
<event>
 6    1  0.1378789E-002  0.1827808E+03  0.7546771E-02  0.1068231E+00
        -11   -1    0    0    0    0  0.00000000000E+00  0.00000000000E+00  0.18250000000E+03  0.18250000000E+03  0.00000000000E+00 0.  1.
         11   -1    0    0    0    0 -0.00000000000E+00 -0.00000000000E+00 -0.18250000000E+03  0.18250000000E+03  0.00000000000E+00 0. -1.
        -11    1    1    2    0    0 -0.19452878525E+01 -0.22185028028E+01  0.18219527360E+03  0.18221916370E+03  0.00000000000E+00 0.  1.
         11    1    1    2    0    0  0.10915137954E+01 -0.72093097018E+00 -0.50080074295E+02  0.50097155460E+02  0.00000000000E+00 0. -1.
        -15    1    1    2    0    0 -0.32165763407E+01  0.48299211675E+01 -0.10233739242E+03  0.10251718938E+03  0.17770000000E+01 0. -1.
         15    1    1    2    0    0  0.40703503978E+01 -0.18904873945E+01 -0.29777806884E+02  0.30166491456E+02  0.17770000000E+01 0.  1.
</event>
<event>
 6    1  0.1378789E-002  0.1833274E+03  0.7546771E-02  0.1067798E+00
        -11   -1    0    0    0    0  0.00000000000E+00  0.00000000000E+00  0.18250000000E+03  0.18250000000E+03  0.00000000000E+00 0. -1.
         11   -1    0    0    0    0 -0.00000000000E+00 -0.00000000000E+00 -0.18250000000E+03  0.18250000000E+03  0.00000000000E+00 0.  1.
        -11    1    1    2    0    0 -0.23140635712E+01  0.18406959057E+01  0.11078514518E+03  0.11082459765E+03  0.00000000000E+00 0. -1.
         11    1    1    2    0    0  0.16088156331E+01  0.59093670342E+01 -0.18156934523E+03  0.18167260672E+03  0.00000000000E+00 0.  1.
        -15    1    1    2    0    0 -0.80297720676E+00 -0.63563493203E+00  0.93589151779E+00  0.22544236724E+01  0.17770000000E+01 0.  1.
         15    1    1    2    0    0  0.15082251449E+01 -0.71144280079E+01  0.69848308531E+02  0.70248371957E+02  0.17770000000E+01 0. -1.
</event>
<event>
 6    1  0.1378789E-002  0.1831667E+03  0.7546771E-02  0.1067925E+00
        -11   -1    0    0    0    0  0.00000000000E+00  0.00000000000E+00  0.18250000000E+03  0.18250000000E+03  0.00000000000E+00 0.  1.
         11   -1    0    0    0    0 -0.00000000000E+00 -0.00000000000E+00 -0.18250000000E+03  0.18250000000E+03  0.00000000000E+00 0. -1.
        -11    1    1    2    0    0 -0.32732050405E+01  0.43805005710E+01  0.14120339283E+03  0.14130923821E+03  0.00000000000E+00 0.  1.
         11    1    1    2    0    0 -0.15100595649E+00 -0.28910815919E+01 -0.18181020664E+03  0.18183325437E+03  0.00000000000E+00 0. -1.
        -15    1    1    2    0    0 -0.45014278284E+00 -0.24016727813E+01  0.41084901625E+01  0.50998118680E+01  0.17770000000E+01 0. -1.
         15    1    1    2    0    0  0.38743537799E+01  0.91225380214E+00  0.36498323652E+02  0.36757695556E+02  0.17770000000E+01 0.  1.
</event>
<event>
 6    1  0.1378789E-002  0.1848458E+03  0.7546771E-02  0.1066603E+00
        -11   -1    0    0    0    0  0.00000000000E+00  0.00000000000E+00  0.18250000000E+03  0.18250000000E+03  0.00000000000E+00 0.  1.
         11   -1    0    0    0    0 -0.00000000000E+00 -0.00000000000E+00 -0.18250000000E+03  0.18250000000E+03  0.00000000000E+00 0.  1.
        -11    1    1    2    0    0  0.24367870405E+01  0.15876551421E+01  0.18013074740E+03  0.18015422487E+03  0.00000000000E+00 0.  1.
         11    1    1    2    0    0  0.20384502335E+01 -0.15457150216E+01 -0.17045123457E+03  0.17047043111E+03  0.00000000000E+00 0.  1.
        -15    1    1    2    0    0 -0.13025145658E+01 -0.82538731120E+00 -0.10333873713E+02  0.10598324552E+02  0.17770000000E+01 0.  1.
         15    1    1    2    0    0 -0.31727227081E+01  0.78344719075E+00  0.65436088676E+00  0.37770194669E+01  0.17770000000E+01 0.  1.
</event>
<event>
 6    1  0.1378789E-002  0.1842304E+03  0.7546771E-02  0.1067086E+00
        -11   -1    0    0    0    0  0.00000000000E+00  0.00000000000E+00  0.18250000000E+03  0.18250000000E+03  0.00000000000E+00 0. -1.
         11   -1    0    0    0    0 -0.00000000000E+00 -0.00000000000E+00 -0.18250000000E+03  0.18250000000E+03  0.00000000000E+00 0.  1.
        -11    1    1    2    0    0  0.12507923028E+01  0.12672305092E+01  0.11268522454E+03  0.11269929097E+03  0.00000000000E+00 0. -1.
         11    1    1    2    0    0 -0.25420801607E+01  0.36159816382E+00 -0.18075137992E+03  0.18076961656E+03  0.00000000000E+00 0.  1.
        -15    1    1    2    0    0  0.57457519359E+01 -0.53318447436E+01  0.63336969295E+02  0.63844903024E+02  0.17770000000E+01 0.  1.
         15    1    1    2    0    0 -0.44544640781E+01  0.37030160705E+01  0.47291860855E+01  0.76861894507E+01  0.17770000000E+01 0. -1.
</event>
<event>
 6    1  0.1378789E-002  0.1844828E+03  0.7546771E-02  0.1066887E+00
        -11   -1    0    0    0    0  0.00000000000E+00  0.00000000000E+00  0.18250000000E+03  0.18250000000E+03  0.00000000000E+00 0.  1.
         11   -1    0    0    0    0 -0.00000000000E+00 -0.00000000000E+00 -0.18250000000E+03  0.18250000000E+03  0.00000000000E+00 0. -1.
        -11    1    1    2    0    0  0.79091590463E+01  0.36077228845E+01  0.15739626568E+03  0.15763614722E+03  0.00000000000E+00 0.  1.
         11    1    1    2    0    0 -0.40629392784E+01  0.26016730281E+01 -0.18045272533E+03  0.18051720765E+03  0.00000000000E+00 0. -1.
        -15    1    1    2    0    0 -0.33942638739E+01  0.64782241487E+00  0.17232169667E+02  0.17664826678E+02  0.17770000000E+01 0.  1.
         15    1    1    2    0    0 -0.45195589404E+00 -0.68572183276E+01  0.58242899846E+01  0.91818184553E+01  0.17770000000E+01 0. -1.
</event>
<event>
 6    1  0.1378789E-002  0.1961411E+03  0.7546771E-02  0.1058087E+00
        -11   -1    0    0    0    0  0.00000000000E+00  0.00000000000E+00  0.18250000000E+03  0.18250000000E+03  0.00000000000E+00 0.  1.
         11   -1    0    0    0    0 -0.00000000000E+00 -0.00000000000E+00 -0.18250000000E+03  0.18250000000E+03  0.00000000000E+00 0.  1.
        -11    1    1    2    0    0 -0.63861112775E+01 -0.13017289352E+01  0.14943356830E+03  0.14957562719E+03  0.00000000000E+00 0.  1.
         11    1    1    2    0    0 -0.24909493111E+01  0.10638865944E+01 -0.16883718574E+03  0.16885891143E+03  0.00000000000E+00 0.  1.
        -15    1    1    2    0    0  0.13604595086E+02  0.89976742576E+01  0.28551461243E+02  0.32930029117E+02  0.17770000000E+01 0.  1.
         15    1    1    2    0    0 -0.47275344970E+01 -0.87598319168E+01 -0.91478438049E+01  0.13635432260E+02  0.17770000000E+01 0. -1.
</event>
<event>
 6    1  0.1378789E-002  0.1834920E+03  0.7546771E-02  0.1067668E+00
        -11   -1    0    0    0    0  0.00000000000E+00  0.00000000000E+00  0.18250000000E+03  0.18250000000E+03  0.00000000000E+00 0. -1.
         11   -1    0    0    0    0 -0.00000000000E+00 -0.00000000000E+00 -0.18250000000E+03  0.18250000000E+03  0.00000000000E+00 0.  1.
        -11    1    1    2    0    0  0.89066796330E+00  0.40136876125E+01  0.18146144342E+03  0.18150801202E+03  0.00000000000E+00 0. -1.
         11    1    1    2    0    0 -0.77193593806E-01 -0.29159580227E+01 -0.16087632356E+03  0.16090276645E+03  0.00000000000E+00 0.  1.
        -15    1    1    2    0    0 -0.13861091136E+01  0.10875019902E+01 -0.19264200496E+02  0.19426042026E+02  0.17770000000E+01 0. -1.
         15    1    1    2    0    0  0.57263474413E+00 -0.21852315800E+01 -0.13209193673E+01  0.31631795054E+01  0.17770000000E+01 0.  1.
</event>
<event>
 6    1  0.1378789E-002  0.1826143E+03  0.7546771E-02  0.1068364E+00
        -11   -1    0    0    0    0  0.00000000000E+00  0.00000000000E+00  0.18250000000E+03  0.18250000000E+03  0.00000000000E+00 0. -1.
         11   -1    0    0    0    0 -0.00000000000E+00 -0.00000000000E+00 -0.18250000000E+03  0.18250000000E+03  0.00000000000E+00 0.  1.
        -11    1    1    2    0    0 -0.25332322127E+01  0.56292297153E+00  0.10017925692E+03  0.10021286177E+03  0.00000000000E+00 0. -1.
         11    1    1    2    0    0  0.45064964883E+01 -0.59075285275E+01 -0.18223427631E+03  0.18238568712E+03  0.00000000000E+00 0.  1.
        -15    1    1    2    0    0 -0.11711701876E+01  0.45822789935E+00  0.18110320351E+02  0.18240697482E+02  0.17770000000E+01 0.  1.
         15    1    1    2    0    0 -0.80209408802E+00  0.48863776567E+01  0.63944699043E+02  0.64160753629E+02  0.17770000000E+01 0. -1.
</event>
<event>
 6    1  0.1378789E-002  0.1831634E+03  0.7546771E-02  0.1067928E+00
        -11   -1    0    0    0    0  0.00000000000E+00  0.00000000000E+00  0.18250000000E+03  0.18250000000E+03  0.00000000000E+00 0.  1.
         11   -1    0    0    0    0 -0.00000000000E+00 -0.00000000000E+00 -0.18250000000E+03  0.18250000000E+03  0.00000000000E+00 0.  1.
        -11    1    1    2    0    0  0.87245667038E+00  0.33110503935E+01  0.13507015501E+03  0.13511354858E+03  0.00000000000E+00 0.  1.
         11    1    1    2    0    0  0.21978964031E+01 -0.11211503523E+01 -0.18181989264E+03  0.18183663296E+03  0.00000000000E+00 0.  1.
        -15    1    1    2    0    0 -0.18373464035E+01  0.22106005014E+01  0.36826750027E+02  0.36981479729E+02  0.17770000000E+01 0.  1.
         15    1    1    2    0    0 -0.12330066699E+01 -0.44005005426E+01  0.99229875941E+01  0.11068338731E+02  0.17770000000E+01 0. -1.
</event>
<event>
 6    1  0.1378789E-002  0.1834980E+03  0.7546771E-02  0.1067663E+00
        -11   -1    0    0    0    0  0.00000000000E+00  0.00000000000E+00  0.18250000000E+03  0.18250000000E+03  0.00000000000E+00 0. -1.
         11   -1    0    0    0    0 -0.00000000000E+00 -0.00000000000E+00 -0.18250000000E+03  0.18250000000E+03  0.00000000000E+00 0.  1.
        -11    1    1    2    0    0  0.84832152839E+00  0.25534900665E+01  0.59178391905E+02  0.59239530969E+02  0.00000000000E+00 0. -1.
         11    1    1    2    0    0 -0.14470776408E+02 -0.58260660585E+01 -0.18083038077E+03  0.18150199179E+03  0.00000000000E+00 0.  1.
        -15    1    1    2    0    0  0.11725906202E+02  0.41195966764E+01  0.29431462723E+02  0.31997448024E+02  0.17770000000E+01 0. -1.
         15    1    1    2    0    0  0.18965486776E+01 -0.84702068443E+00  0.92220526141E+02  0.92261029214E+02  0.17770000000E+01 0. -1.
</event>
<event>
 6    1  0.1378789E-002  0.1853373E+03  0.7546771E-02  0.1066218E+00
        -11   -1    0    0    0    0  0.00000000000E+00  0.00000000000E+00  0.18250000000E+03  0.18250000000E+03  0.00000000000E+00 0.  1.
         11   -1    0    0    0    0 -0.00000000000E+00 -0.00000000000E+00 -0.18250000000E+03  0.18250000000E+03  0.00000000000E+00 0.  1.
        -11    1    1    2    0    0  0.32435088537E+01 -0.47576650414E+00  0.16974429470E+03  0.16977594732E+03  0.00000000000E+00 0.  1.
         11    1    1    2    0    0 -0.30319353218E+01  0.13511706948E+01 -0.17963202132E+03  0.17966268777E+03  0.00000000000E+00 0.  1.
        -15    1    1    2    0    0 -0.28591016473E+01  0.27701294568E+01  0.97903651900E+01  0.10717138564E+02  0.17770000000E+01 0. -1.
         15    1    1    2    0    0  0.26475281154E+01 -0.36455336474E+01  0.97361425617E-01  0.48442263514E+01  0.17770000000E+01 0.  1.
</event>
<event>
 6    1  0.1378789E-002  0.1844518E+03  0.7546771E-02  0.1066912E+00
        -11   -1    0    0    0    0  0.00000000000E+00  0.00000000000E+00  0.18250000000E+03  0.18250000000E+03  0.00000000000E+00 0.  1.
         11   -1    0    0    0    0 -0.00000000000E+00 -0.00000000000E+00 -0.18250000000E+03  0.18250000000E+03  0.00000000000E+00 0.  1.
        -11    1    1    2    0    0  0.22063930610E+01 -0.33631970032E+01  0.16344956255E+03  0.16349904820E+03  0.00000000000E+00 0.  1.
         11    1    1    2    0    0  0.45618736262E+01  0.16342222445E+00 -0.18049050598E+03  0.18054822111E+03  0.00000000000E+00 0.  1.
        -15    1    1    2    0    0 -0.51398653376E+01  0.28335047492E+01  0.17436047752E+02  0.18482977440E+02  0.17770000000E+01 0.  1.
         15    1    1    2    0    0 -0.16284013495E+01  0.36627002956E+00 -0.39510432247E+00  0.24697532499E+01  0.17770000000E+01 0. -1.
</event>
<event>
 6    1  0.1378789E-002  0.1850492E+03  0.7546771E-02  0.1066444E+00
        -11   -1    0    0    0    0  0.00000000000E+00  0.00000000000E+00  0.18250000000E+03  0.18250000000E+03  0.00000000000E+00 0.  1.
         11   -1    0    0    0    0 -0.00000000000E+00 -0.00000000000E+00 -0.18250000000E+03  0.18250000000E+03  0.00000000000E+00 0.  1.
        -11    1    1    2    0    0 -0.14555427740E+01 -0.38471825309E+01  0.10208894210E+03  0.10217177456E+03  0.00000000000E+00 0.  1.
         11    1    1    2    0    0  0.72275583369E+01 -0.56896237285E+01 -0.17971554137E+03  0.17995078557E+03  0.00000000000E+00 0.  1.
        -15    1    1    2    0    0  0.94993988693E+00  0.43336493522E+01  0.72771385143E+02  0.72928150444E+02  0.17770000000E+01 0.  1.
         15    1    1    2    0    0 -0.67219554499E+01  0.52031569072E+01  0.48552141302E+01  0.99492894279E+01  0.17770000000E+01 0.  1.
</event>
<event>
 6    1  0.1378789E-002  0.1880337E+03  0.7546771E-02  0.1064133E+00
        -11   -1    0    0    0    0  0.00000000000E+00  0.00000000000E+00  0.18250000000E+03  0.18250000000E+03  0.00000000000E+00 0.  1.
         11   -1    0    0    0    0 -0.00000000000E+00 -0.00000000000E+00 -0.18250000000E+03  0.18250000000E+03  0.00000000000E+00 0.  1.
        -11    1    1    2    0    0 -0.12364507241E+01 -0.38876969510E+01  0.15030621112E+03  0.15036156456E+03  0.00000000000E+00 0.  1.
         11    1    1    2    0    0 -0.51448529785E+01  0.46175798599E+01 -0.17683123497E+03  0.17696631662E+03  0.00000000000E+00 0.  1.
        -15    1    1    2    0    0 -0.38443764869E+01  0.88980421377E+01  0.19543138804E+02  0.21887128359E+02  0.17770000000E+01 0. -1.
         15    1    1    2    0    0  0.10225680190E+02 -0.96279250466E+01  0.69818850497E+01  0.15784990462E+02  0.17770000000E+01 0.  1.
</event>
<event>
 6    1  0.1378789E-002  0.1862388E+03  0.7546771E-02  0.1065517E+00
        -11   -1    0    0    0    0  0.00000000000E+00  0.00000000000E+00  0.18250000000E+03  0.18250000000E+03  0.00000000000E+00 0.  1.
         11   -1    0    0    0    0 -0.00000000000E+00 -0.00000000000E+00 -0.18250000000E+03  0.18250000000E+03  0.00000000000E+00 0. -1.
        -11    1    1    2    0    0  0.41796378599E+01 -0.10436179600E+01  0.16880151490E+03  0.16885647735E+03  0.00000000000E+00 0.  1.
         11    1    1    2    0    0 -0.10993337939E+01  0.49081205377E+01 -0.17869041390E+03  0.17876118763E+03  0.00000000000E+00 0. -1.
        -15    1    1    2    0    0 -0.54205963392E+01  0.20538486444E+01  0.75618049461E+00  0.61098851763E+01  0.17770000000E+01 0. -1.
         15    1    1    2    0    0  0.23402922731E+01 -0.59183512222E+01  0.91327185064E+01  0.11272449842E+02  0.17770000000E+01 0.  1.
</event>
<event>
 6    1  0.1378789E-002  0.1878569E+03  0.7546771E-02  0.1064269E+00
        -11   -1    0    0    0    0  0.00000000000E+00  0.00000000000E+00  0.18250000000E+03  0.18250000000E+03  0.00000000000E+00 0.  1.
         11   -1    0    0    0    0 -0.00000000000E+00 -0.00000000000E+00 -0.18250000000E+03  0.18250000000E+03  0.00000000000E+00 0.  1.
        -11    1    1    2    0    0 -0.34332642775E+02  0.17072070469E+00  0.17378414006E+03  0.17714312530E+03  0.00000000000E+00 0.  1.
         11    1    1    2    0    0 -0.17221403498E+01  0.72599301195E+00 -0.53250242423E+02  0.53283028736E+02  0.00000000000E+00 0.  1.
        -15    1    1    2    0    0  0.32114500267E+02 -0.12503605663E+01 -0.30204479699E+02  0.44140376662E+02  0.17770000000E+01 0.  1.
         15    1    1    2    0    0  0.39402828572E+01  0.35364684964E+00 -0.90329417939E+02  0.90433469298E+02  0.17770000000E+01 0. -1.
</event>
<event>
 6    1  0.1378789E-002  0.1837778E+03  0.7546771E-02  0.1067442E+00
        -11   -1    0    0    0    0  0.00000000000E+00  0.00000000000E+00  0.18250000000E+03  0.18250000000E+03  0.00000000000E+00 0.  1.
         11   -1    0    0    0    0 -0.00000000000E+00 -0.00000000000E+00 -0.18250000000E+03  0.18250000000E+03  0.00000000000E+00 0. -1.
        -11    1    1    2    0    0 -0.17558653180E+01 -0.32409422928E+01  0.18118473771E+03  0.18122222807E+03  0.00000000000E+00 0.  1.
         11    1    1    2    0    0  0.23010118126E+01 -0.11722446652E+01 -0.17271593722E+03  0.17273524186E+03  0.00000000000E+00 0. -1.
        -15    1    1    2    0    0 -0.12162448891E+01  0.48283365515E+00 -0.50050546504E+01  0.54699799837E+01  0.17770000000E+01 0. -1.
         15    1    1    2    0    0  0.67109839454E+00  0.39303533029E+01 -0.34637458401E+01  0.55725500792E+01  0.17770000000E+01 0. -1.
</event>
<event>
 6    1  0.1378789E-002  0.1852835E+03  0.7546771E-02  0.1066260E+00
        -11   -1    0    0    0    0  0.00000000000E+00  0.00000000000E+00  0.18250000000E+03  0.18250000000E+03  0.00000000000E+00 0. -1.
         11   -1    0    0    0    0 -0.00000000000E+00 -0.00000000000E+00 -0.18250000000E+03  0.18250000000E+03  0.00000000000E+00 0.  1.
        -11    1    1    2    0    0 -0.54854622138E+01 -0.20062489067E+01  0.17962152220E+03  0.17971646160E+03  0.00000000000E+00 0. -1.
         11    1    1    2    0    0 -0.81785194621E+01 -0.16608073838E+01 -0.11611434805E+03  0.11641386638E+03  0.00000000000E+00 0.  1.
        -15    1    1    2    0    0 -0.16106361224E+01  0.22537754155E+00 -0.42704524969E+02  0.42772410800E+02  0.17770000000E+01 0.  1.
         15    1    1    2    0    0  0.15274617798E+02  0.34416787490E+01 -0.20802649182E+02  0.26097261226E+02  0.17770000000E+01 0. -1.
</event>
<event>
 6    1  0.1378789E-002  0.1825467E+03  0.7546771E-02  0.1068418E+00
        -11   -1    0    0    0    0  0.00000000000E+00  0.00000000000E+00  0.18250000000E+03  0.18250000000E+03  0.00000000000E+00 0. -1.
         11   -1    0    0    0    0 -0.00000000000E+00 -0.00000000000E+00 -0.18250000000E+03  0.18250000000E+03  0.00000000000E+00 0.  1.
        -11    1    1    2    0    0  0.73510330878E+00 -0.11260784325E+01  0.64635113870E+02  0.64649101885E+02  0.00000000000E+00 0. -1.
         11    1    1    2    0    0  0.12088523986E+01  0.42996794886E+01 -0.18239863155E+03  0.18245330734E+03  0.00000000000E+00 0.  1.
        -15    1    1    2    0    0  0.17278581434E+00 -0.74946789613E+00  0.37607354197E+02  0.37657168982E+02  0.17770000000E+01 0. -1.
         15    1    1    2    0    0 -0.21167415218E+01 -0.24241331600E+01  0.80156163483E+02  0.80240421793E+02  0.17770000000E+01 0.  1.
</event>
<event>
 6    1  0.1378789E-002  0.1872432E+03  0.7546771E-02  0.1064741E+00
        -11   -1    0    0    0    0  0.00000000000E+00  0.00000000000E+00  0.18250000000E+03  0.18250000000E+03  0.00000000000E+00 0. -1.
         11   -1    0    0    0    0 -0.00000000000E+00 -0.00000000000E+00 -0.18250000000E+03  0.18250000000E+03  0.00000000000E+00 0.  1.
        -11    1    1    2    0    0 -0.20818276612E+01  0.10588470481E+02  0.16567110756E+03  0.16602218404E+03  0.00000000000E+00 0. -1.
         11    1    1    2    0    0 -0.24773257436E+01 -0.54736564365E+00 -0.17773870928E+03  0.17775681570E+03  0.00000000000E+00 0.  1.
        -15    1    1    2    0    0 -0.38535486057E+01 -0.11511003133E+01  0.60173607232E+01  0.74525987321E+01  0.17770000000E+01 0. -1.
         15    1    1    2    0    0  0.84127020106E+01 -0.88900045240E+01  0.60502409958E+01  0.13768401529E+02  0.17770000000E+01 0. -1.
</event>
<event>
 6    1  0.1378789E-002  0.1445408E+03  0.7546771E-02  0.1103463E+00
        -11   -1    0    0    0    0  0.00000000000E+00  0.00000000000E+00  0.18250000000E+03  0.18250000000E+03  0.00000000000E+00 0. -1.
         11   -1    0    0    0    0 -0.00000000000E+00 -0.00000000000E+00 -0.18250000000E+03  0.18250000000E+03  0.00000000000E+00 0.  1.
        -11    1    1    2    0    0 -0.15170892929E+01  0.18381367607E+01  0.16114327752E+03  0.16116090158E+03  0.00000000000E+00 0. -1.
         11    1    1    2    0    0  0.34652522072E+00 -0.14911044034E+01 -0.44182848825E+02  0.44209361026E+02  0.00000000000E+00 0.  1.
        -15    1    1    2    0    0 -0.38142667340E+01 -0.25826592366E+02  0.11483540852E+02  0.28576055422E+02  0.17770000000E+01 0. -1.
         15    1    1    2    0    0  0.49848308062E+01  0.25479560009E+02 -0.12844396955E+03  0.13105368197E+03  0.17770000000E+01 0.  1.
</event>
<event>
 6    1  0.1378789E-002  0.1842684E+03  0.7546771E-02  0.1067056E+00
        -11   -1    0    0    0    0  0.00000000000E+00  0.00000000000E+00  0.18250000000E+03  0.18250000000E+03  0.00000000000E+00 0.  1.
         11   -1    0    0    0    0 -0.00000000000E+00 -0.00000000000E+00 -0.18250000000E+03  0.18250000000E+03  0.00000000000E+00 0. -1.
        -11    1    1    2    0    0 -0.18612386755E+01  0.24202272573E+01  0.18070579941E+03  0.18073159008E+03  0.00000000000E+00 0.  1.
         11    1    1    2    0    0 -0.22910022036E+01  0.19605505517E+01 -0.17380126025E+03  0.17382741589E+03  0.00000000000E+00 0. -1.
        -15    1    1    2    0    0  0.36739026577E+01 -0.30791589067E+01 -0.62882041285E+01  0.81041977069E+01  0.17770000000E+01 0.  1.
         15    1    1    2    0    0  0.47833822135E+00 -0.13016189023E+01 -0.61633503718E+00  0.23367963323E+01  0.17770000000E+01 0. -1.
</event>
<event>
 6    1  0.1378789E-002  0.1897432E+03  0.7546771E-02  0.1062831E+00
        -11   -1    0    0    0    0  0.00000000000E+00  0.00000000000E+00  0.18250000000E+03  0.18250000000E+03  0.00000000000E+00 0. -1.
         11   -1    0    0    0    0 -0.00000000000E+00 -0.00000000000E+00 -0.18250000000E+03  0.18250000000E+03  0.00000000000E+00 0.  1.
        -11    1    1    2    0    0 -0.44755104740E+01  0.11158857894E+02  0.17484388547E+03  0.17525676760E+03  0.00000000000E+00 0. -1.
         11    1    1    2    0    0  0.18109429579E+01 -0.16068111044E+01 -0.46227144875E+02  0.46290498805E+02  0.00000000000E+00 0.  1.
        -15    1    1    2    0    0  0.10072493409E+02 -0.10192882187E+02  0.16850200238E+00  0.14440778811E+02  0.17770000000E+01 0. -1.
         15    1    1    2    0    0 -0.74079258926E+01  0.64083539768E+00 -0.12878524260E+03  0.12901195478E+03  0.17770000000E+01 0.  1.
</event>
<event>
 6    1  0.1378789E-002  0.1837587E+03  0.7546771E-02  0.1067457E+00
        -11   -1    0    0    0    0  0.00000000000E+00  0.00000000000E+00  0.18250000000E+03  0.18250000000E+03  0.00000000000E+00 0.  1.
         11   -1    0    0    0    0 -0.00000000000E+00 -0.00000000000E+00 -0.18250000000E+03  0.18250000000E+03  0.00000000000E+00 0.  1.
        -11    1    1    2    0    0  0.64002843119E+01 -0.44698970769E+01  0.18107311376E+03  0.18124132020E+03  0.00000000000E+00 0.  1.
         11    1    1    2    0    0  0.40387539426E+00 -0.29382295553E+01 -0.66003127710E+02  0.66069729648E+02  0.00000000000E+00 0.  1.
        -15    1    1    2    0    0  0.16280068415E+01  0.41511363982E+01 -0.40299447768E+01  0.62674176163E+01  0.17770000000E+01 0. -1.
         15    1    1    2    0    0 -0.84321665477E+01  0.32569902340E+01 -0.11104004128E+03  0.11142153254E+03  0.17770000000E+01 0.  1.
</event>
<event>
 6    1  0.1378789E-002  0.1832014E+03  0.7546771E-02  0.1067898E+00
        -11   -1    0    0    0    0  0.00000000000E+00  0.00000000000E+00  0.18250000000E+03  0.18250000000E+03  0.00000000000E+00 0. -1.
         11   -1    0    0    0    0 -0.00000000000E+00 -0.00000000000E+00 -0.18250000000E+03  0.18250000000E+03  0.00000000000E+00 0.  1.
        -11    1    1    2    0    0 -0.31950657899E+01  0.93837716760E+00  0.18176812408E+03  0.18179862466E+03  0.00000000000E+00 0. -1.
         11    1    1    2    0    0  0.34189039465E+00 -0.14903126260E+01 -0.65873377148E+02  0.65891120325E+02  0.00000000000E+00 0.  1.
        -15    1    1    2    0    0 -0.13005724956E+01 -0.21600270990E+01 -0.30343607510E+01  0.43269250111E+01  0.17770000000E+01 0. -1.
         15    1    1    2    0    0  0.41537478909E+01  0.27119625574E+01 -0.11286038618E+03  0.11298333001E+03  0.17770000000E+01 0.  1.
</event>
<event>
 6    1  0.1378789E-002  0.1964808E+03  0.7546771E-02  0.1057841E+00
        -11   -1    0    0    0    0  0.00000000000E+00  0.00000000000E+00  0.18250000000E+03  0.18250000000E+03  0.00000000000E+00 0. -1.
         11   -1    0    0    0    0 -0.00000000000E+00 -0.00000000000E+00 -0.18250000000E+03  0.18250000000E+03  0.00000000000E+00 0. -1.
        -11    1    1    2    0    0 -0.61554354761E+01 -0.41760859033E+01  0.16835499503E+03  0.16851923757E+03  0.00000000000E+00 0. -1.
         11    1    1    2    0    0 -0.26475806947E+01  0.19204071999E+01 -0.82831422826E+02  0.82895972488E+02  0.00000000000E+00 0. -1.
        -15    1    1    2    0    0  0.40403232841E+01  0.40723123430E+01  0.13310935606E+02  0.14602968047E+02  0.17770000000E+01 0.  1.
         15    1    1    2    0    0  0.47626928866E+01 -0.18166336396E+01 -0.98834507814E+02  0.98981821892E+02  0.17770000000E+01 0. -1.
</event>
<event>
 6    1  0.1378789E-002  0.1848992E+03  0.7546771E-02  0.1066561E+00
        -11   -1    0    0    0    0  0.00000000000E+00  0.00000000000E+00  0.18250000000E+03  0.18250000000E+03  0.00000000000E+00 0.  1.
         11   -1    0    0    0    0 -0.00000000000E+00 -0.00000000000E+00 -0.18250000000E+03  0.18250000000E+03  0.00000000000E+00 0. -1.
        -11    1    1    2    0    0 -0.32568300770E+01  0.23254693135E+00  0.18007124373E+03  0.18010084352E+03  0.00000000000E+00 0.  1.
         11    1    1    2    0    0  0.17578497869E+01 -0.96334978429E+00 -0.14507577522E+03  0.14508962276E+03  0.00000000000E+00 0. -1.
        -15    1    1    2    0    0  0.31265590478E+01  0.10885211249E+01  0.87378213474E+00  0.38576513499E+01  0.17770000000E+01 0. -1.
         15    1    1    2    0    0 -0.16275787576E+01 -0.35771827199E+00 -0.35869250644E+02  0.35951882367E+02  0.17770000000E+01 0. -1.
</event>
<event>
 6    1  0.1378789E-002  0.1864289E+03  0.7546771E-02  0.1065370E+00
        -11   -1    0    0    0    0  0.00000000000E+00  0.00000000000E+00  0.18250000000E+03  0.18250000000E+03  0.00000000000E+00 0. -1.
         11   -1    0    0    0    0 -0.00000000000E+00 -0.00000000000E+00 -0.18250000000E+03  0.18250000000E+03  0.00000000000E+00 0.  1.
        -11    1    1    2    0    0 -0.19908634372E+01 -0.22735102357E+01  0.17854553769E+03  0.17857111025E+03  0.00000000000E+00 0. -1.
         11    1    1    2    0    0 -0.71741310213E+01 -0.62554113206E+01 -0.16406228085E+03  0.16433815846E+03  0.00000000000E+00 0.  1.
        -15    1    1    2    0    0 -0.18502395698E+01  0.10979570568E-01 -0.15117499550E+01  0.29776876840E+01  0.17770000000E+01 0. -1.
         15    1    1    2    0    0  0.11015234028E+02  0.85179419857E+01 -0.12971506882E+02  0.19113043613E+02  0.17770000000E+01 0.  1.
</event>
<event>
 6    1  0.1378789E-002  0.1720116E+03  0.7546771E-02  0.1077124E+00
        -11   -1    0    0    0    0  0.00000000000E+00  0.00000000000E+00  0.18250000000E+03  0.18250000000E+03  0.00000000000E+00 0. -1.
         11   -1    0    0    0    0 -0.00000000000E+00 -0.00000000000E+00 -0.18250000000E+03  0.18250000000E+03  0.00000000000E+00 0.  1.
        -11    1    1    2    0    0 -0.30184967087E+01  0.13003654385E+01  0.17939282238E+03  0.17942292772E+03  0.00000000000E+00 0. -1.
         11    1    1    2    0    0  0.47890891981E+01 -0.36455236866E+01 -0.24365578943E+02  0.25097941261E+02  0.00000000000E+00 0.  1.
        -15    1    1    2    0    0  0.31797012731E+01  0.19625520370E+02 -0.11277391620E+03  0.11452678924E+03  0.17770000000E+01 0.  1.
         15    1    1    2    0    0 -0.49502937626E+01 -0.17280362122E+02 -0.42253327230E+02  0.45952341773E+02  0.17770000000E+01 0. -1.
</event>
<event>
 6    1  0.1378789E-002  0.1855981E+03  0.7546771E-02  0.1066015E+00
        -11   -1    0    0    0    0  0.00000000000E+00  0.00000000000E+00  0.18250000000E+03  0.18250000000E+03  0.00000000000E+00 0. -1.
         11   -1    0    0    0    0 -0.00000000000E+00 -0.00000000000E+00 -0.18250000000E+03  0.18250000000E+03  0.00000000000E+00 0. -1.
        -11    1    1    2    0    0 -0.55311751565E+00  0.49809174693E+01  0.17933193399E+03  0.17940194544E+03  0.00000000000E+00 0. -1.
         11    1    1    2    0    0  0.18051947356E+01  0.31264881581E+01 -0.17349858291E+03  0.17353614012E+03  0.00000000000E+00 0. -1.
        -15    1    1    2    0    0  0.67109086230E+00 -0.48225232498E+01 -0.59094330914E+01  0.78604212293E+01  0.17770000000E+01 0.  1.
         15    1    1    2    0    0 -0.19231680822E+01 -0.32848823775E+01  0.76082012896E-01  0.42014932083E+01  0.17770000000E+01 0. -1.
</event>
<event>
 6    1  0.1378789E-002  0.1880887E+03  0.7546771E-02  0.1064091E+00
        -11   -1    0    0    0    0  0.00000000000E+00  0.00000000000E+00  0.18250000000E+03  0.18250000000E+03  0.00000000000E+00 0. -1.
         11   -1    0    0    0    0 -0.00000000000E+00 -0.00000000000E+00 -0.18250000000E+03  0.18250000000E+03  0.00000000000E+00 0. -1.
        -11    1    1    2    0    0  0.10224251772E+01 -0.48546475847E+01  0.17684169633E+03  0.17691127300E+03  0.00000000000E+00 0. -1.
         11    1    1    2    0    0  0.13585609990E+02  0.63225064642E+01 -0.16352519393E+03  0.16421032835E+03  0.00000000000E+00 0. -1.
        -15    1    1    2    0    0 -0.10321259717E+02 -0.68862678341E+01 -0.98794371346E+01  0.15959639530E+02  0.17770000000E+01 0.  1.
         15    1    1    2    0    0 -0.42867754503E+01  0.54184089546E+01 -0.34370652656E+01  0.79187591200E+01  0.17770000000E+01 0. -1.
</event>
<event>
 6    1  0.1378789E-002  0.1987283E+03  0.7546771E-02  0.1056224E+00
        -11   -1    0    0    0    0  0.00000000000E+00  0.00000000000E+00  0.18250000000E+03  0.18250000000E+03  0.00000000000E+00 0. -1.
         11   -1    0    0    0    0 -0.00000000000E+00 -0.00000000000E+00 -0.18250000000E+03  0.18250000000E+03  0.00000000000E+00 0. -1.
        -11    1    1    2    0    0 -0.39682728041E+01 -0.38069623867E-01  0.15240607573E+03  0.15245773368E+03  0.00000000000E+00 0. -1.
         11    1    1    2    0    0  0.24791702595E+01 -0.41190203169E+01 -0.16620216835E+03  0.16627168543E+03  0.00000000000E+00 0. -1.
        -15    1    1    2    0    0  0.10658749727E+01 -0.19171764439E+01  0.29343536518E+02  0.29479018290E+02  0.17770000000E+01 0. -1.
         15    1    1    2    0    0  0.42322757199E+00  0.60742663847E+01 -0.15547443900E+02  0.16791562599E+02  0.17770000000E+01 0. -1.
</event>
<event>
 6    1  0.1378789E-002  0.1840631E+03  0.7546771E-02  0.1067217E+00
        -11   -1    0    0    0    0  0.00000000000E+00  0.00000000000E+00  0.18250000000E+03  0.18250000000E+03  0.00000000000E+00 0. -1.
         11   -1    0    0    0    0 -0.00000000000E+00 -0.00000000000E+00 -0.18250000000E+03  0.18250000000E+03  0.00000000000E+00 0. -1.
        -11    1    1    2    0    0  0.91713048831E+01  0.49834429213E+01  0.18063561321E+03  0.18093692906E+03  0.00000000000E+00 0. -1.
         11    1    1    2    0    0 -0.16770707598E+01 -0.31447840771E+01 -0.16490608349E+03  0.16494459253E+03  0.00000000000E+00 0. -1.
        -15    1    1    2    0    0 -0.76973476912E+01 -0.24078759253E+01 -0.93811012726E+01  0.12498392618E+02  0.17770000000E+01 0.  1.
         15    1    1    2    0    0  0.20311356777E+00  0.56921708107E+00 -0.63484284495E+01  0.66200857989E+01  0.17770000000E+01 0.  1.
</event>
<event>
 6    1  0.1378789E-002  0.1825446E+03  0.7546771E-02  0.1068419E+00
        -11   -1    0    0    0    0  0.00000000000E+00  0.00000000000E+00  0.18250000000E+03  0.18250000000E+03  0.00000000000E+00 0. -1.
         11   -1    0    0    0    0 -0.00000000000E+00 -0.00000000000E+00 -0.18250000000E+03  0.18250000000E+03  0.00000000000E+00 0. -1.
        -11    1    1    2    0    0  0.24369304114E+01  0.17740161007E+01  0.18243045502E+03  0.18245535531E+03  0.00000000000E+00 0. -1.
         11    1    1    2    0    0 -0.73995612006E+00 -0.13340796908E+01 -0.52001659447E+02  0.52024031841E+02  0.00000000000E+00 0. -1.
        -15    1    1    2    0    0 -0.11613267634E+01 -0.77695580663E+00 -0.10400902145E+03  0.10403358406E+03  0.17770000000E+01 0. -1.
         15    1    1    2    0    0 -0.53564752790E+00  0.33701939675E+00 -0.26419774122E+02  0.26487028788E+02  0.17770000000E+01 0.  1.
</event>
<event>
 6    1  0.1378789E-002  0.1830934E+03  0.7546771E-02  0.1067983E+00
        -11   -1    0    0    0    0  0.00000000000E+00  0.00000000000E+00  0.18250000000E+03  0.18250000000E+03  0.00000000000E+00 0.  1.
         11   -1    0    0    0    0 -0.00000000000E+00 -0.00000000000E+00 -0.18250000000E+03  0.18250000000E+03  0.00000000000E+00 0. -1.
        -11    1    1    2    0    0 -0.49647641629E+01  0.29653246203E+01  0.18181467296E+03  0.18190661708E+03  0.00000000000E+00 0.  1.
         11    1    1    2    0    0 -0.21609139545E+01 -0.19862553985E+01 -0.13028286638E+03  0.13031592394E+03  0.00000000000E+00 0. -1.
        -15    1    1    2    0    0  0.64206767396E+01 -0.40387687025E+01 -0.35038620760E+02  0.35894281107E+02  0.17770000000E+01 0. -1.
         15    1    1    2    0    0  0.70500137783E+00  0.30596994807E+01 -0.16493185817E+02  0.16883177877E+02  0.17770000000E+01 0.  1.
</event>
<event>
 6    1  0.1378789E-002  0.1889716E+03  0.7546771E-02  0.1063417E+00
        -11   -1    0    0    0    0  0.00000000000E+00  0.00000000000E+00  0.18250000000E+03  0.18250000000E+03  0.00000000000E+00 0. -1.
         11   -1    0    0    0    0 -0.00000000000E+00 -0.00000000000E+00 -0.18250000000E+03  0.18250000000E+03  0.00000000000E+00 0. -1.
        -11    1    1    2    0    0  0.85781372665E+00  0.81963930328E+01  0.12343391543E+03  0.12370872315E+03  0.00000000000E+00 0. -1.
         11    1    1    2    0    0  0.36923792095E+01  0.68526064737E+01 -0.17585622307E+03  0.17602841552E+03  0.00000000000E+00 0. -1.
        -15    1    1    2    0    0 -0.82715855246E+01 -0.16411679450E+02  0.71774047017E+01  0.19809977706E+02  0.17770000000E+01 0.  1.
         15    1    1    2    0    0  0.37213925884E+01  0.13626799435E+01  0.45244902933E+02  0.45452883625E+02  0.17770000000E+01 0. -1.
</event>
<event>
 6    1  0.1378789E-002  0.1858782E+03  0.7546771E-02  0.1065797E+00
        -11   -1    0    0    0    0  0.00000000000E+00  0.00000000000E+00  0.18250000000E+03  0.18250000000E+03  0.00000000000E+00 0. -1.
         11   -1    0    0    0    0 -0.00000000000E+00 -0.00000000000E+00 -0.18250000000E+03  0.18250000000E+03  0.00000000000E+00 0. -1.
        -11    1    1    2    0    0  0.64211363250E+01  0.47969793155E+01  0.17894235139E+03  0.17912176619E+03  0.00000000000E+00 0. -1.
         11    1    1    2    0    0  0.35999648525E+00 -0.61310625733E+01 -0.17453719352E+03  0.17464521593E+03  0.00000000000E+00 0. -1.
        -15    1    1    2    0    0 -0.29698260008E+01  0.52135805299E+00 -0.57607406550E+01  0.67405891871E+01  0.17770000000E+01 0. -1.
         15    1    1    2    0    0 -0.38113068094E+01  0.81272520480E+00  0.13555827896E+01  0.44924286921E+01  0.17770000000E+01 0.  1.
</event>
<event>
 6    1  0.1378789E-002  0.1829829E+03  0.7546771E-02  0.1068071E+00
        -11   -1    0    0    0    0  0.00000000000E+00  0.00000000000E+00  0.18250000000E+03  0.18250000000E+03  0.00000000000E+00 0.  1.
         11   -1    0    0    0    0 -0.00000000000E+00 -0.00000000000E+00 -0.18250000000E+03  0.18250000000E+03  0.00000000000E+00 0.  1.
        -11    1    1    2    0    0 -0.22938049904E+01  0.41757251203E+00  0.67162419117E+02  0.67202875309E+02  0.00000000000E+00 0.  1.
         11    1    1    2    0    0  0.76904408973E+01  0.85998567828E+01 -0.18165106524E+03  0.18201705942E+03  0.00000000000E+00 0.  1.
        -15    1    1    2    0    0  0.64428951824E+00 -0.24863217243E+01  0.81694071871E+02  0.81753752284E+02  0.17770000000E+01 0.  1.
         15    1    1    2    0    0 -0.60409254252E+01 -0.65311075705E+01  0.32794574251E+02  0.34026312986E+02  0.17770000000E+01 0. -1.
</event>
<event>
 6    1  0.1378789E-002  0.1830065E+03  0.7546771E-02  0.1068052E+00
        -11   -1    0    0    0    0  0.00000000000E+00  0.00000000000E+00  0.18250000000E+03  0.18250000000E+03  0.00000000000E+00 0. -1.
         11   -1    0    0    0    0 -0.00000000000E+00 -0.00000000000E+00 -0.18250000000E+03  0.18250000000E+03  0.00000000000E+00 0. -1.
        -11    1    1    2    0    0  0.76039679837E+01  0.13416602153E+01  0.18182963043E+03  0.18199350231E+03  0.00000000000E+00 0. -1.
         11    1    1    2    0    0 -0.18745013325E+01 -0.71468037154E+00 -0.14137748472E+03  0.14139171726E+03  0.00000000000E+00 0. -1.
        -15    1    1    2    0    0 -0.39799226328E+01  0.11257185475E+01 -0.35608275757E+02  0.35891699009E+02  0.17770000000E+01 0.  1.
         15    1    1    2    0    0 -0.17495440183E+01 -0.17526983913E+01 -0.48438699502E+01  0.57230814267E+01  0.17770000000E+01 0. -1.
</event>
<event>
 6    1  0.1378789E-002  0.1829369E+03  0.7546771E-02  0.1068108E+00
        -11   -1    0    0    0    0  0.00000000000E+00  0.00000000000E+00  0.18250000000E+03  0.18250000000E+03  0.00000000000E+00 0.  1.
         11   -1    0    0    0    0 -0.00000000000E+00 -0.00000000000E+00 -0.18250000000E+03  0.18250000000E+03  0.00000000000E+00 0. -1.
        -11    1    1    2    0    0  0.34867830953E+01  0.33776323218E+01  0.18199838291E+03  0.18206311388E+03  0.00000000000E+00 0.  1.
         11    1    1    2    0    0 -0.36133927746E+01  0.46130489120E+00 -0.79131714762E+02  0.79215514205E+02  0.00000000000E+00 0. -1.
        -15    1    1    2    0    0  0.10432152722E+01 -0.13888131905E+01 -0.34358253771E+01  0.42402506063E+01  0.17770000000E+01 0.  1.
         15    1    1    2    0    0 -0.91660559296E+00 -0.24501240225E+01 -0.99430842768E+02  0.99481121305E+02  0.17770000000E+01 0. -1.
</event>
<event>
 6    1  0.1378789E-002  0.1836077E+03  0.7546771E-02  0.1067576E+00
        -11   -1    0    0    0    0  0.00000000000E+00  0.00000000000E+00  0.18250000000E+03  0.18250000000E+03  0.00000000000E+00 0.  1.
         11   -1    0    0    0    0 -0.00000000000E+00 -0.00000000000E+00 -0.18250000000E+03  0.18250000000E+03  0.00000000000E+00 0.  1.
        -11    1    1    2    0    0 -0.28912092987E+01 -0.32041612916E+01  0.18134095609E+03  0.18139230441E+03  0.00000000000E+00 0.  1.
         11    1    1    2    0    0 -0.13496420634E+00 -0.28805481965E+01 -0.16458600980E+03  0.16461127056E+03  0.00000000000E+00 0.  1.
        -15    1    1    2    0    0  0.18403499794E+01  0.21534720032E+01 -0.28643096400E+01  0.44029908504E+01  0.17770000000E+01 0.  1.
         15    1    1    2    0    0  0.11858235257E+01  0.39312374850E+01 -0.13890636652E+02  0.14593434181E+02  0.17770000000E+01 0. -1.
</event>
<event>
 6    1  0.1378789E-002  0.1825687E+03  0.7546771E-02  0.1068400E+00
        -11   -1    0    0    0    0  0.00000000000E+00  0.00000000000E+00  0.18250000000E+03  0.18250000000E+03  0.00000000000E+00 0.  1.
         11   -1    0    0    0    0 -0.00000000000E+00 -0.00000000000E+00 -0.18250000000E+03  0.18250000000E+03  0.00000000000E+00 0.  1.
        -11    1    1    2    0    0 -0.55748780280E+00 -0.25701349410E+00  0.83153052541E+01  0.83379343998E+01  0.00000000000E+00 0.  1.
         11    1    1    2    0    0 -0.25629696996E+01 -0.12011875585E+01 -0.18240938085E+03  0.18243134020E+03  0.00000000000E+00 0.  1.
        -15    1    1    2    0    0  0.40858959531E+01  0.23717650777E+00  0.10105322090E+03  0.10115167809E+03  0.17770000000E+01 0.  1.
         15    1    1    2    0    0 -0.96543845075E+00  0.12210245448E+01  0.73040854696E+02  0.73079047312E+02  0.17770000000E+01 0.  1.
</event>
<event>
 6    1  0.1378789E-002  0.1826488E+03  0.7546771E-02  0.1068336E+00
        -11   -1    0    0    0    0  0.00000000000E+00  0.00000000000E+00  0.18250000000E+03  0.18250000000E+03  0.00000000000E+00 0. -1.
         11   -1    0    0    0    0 -0.00000000000E+00 -0.00000000000E+00 -0.18250000000E+03  0.18250000000E+03  0.00000000000E+00 0. -1.
        -11    1    1    2    0    0  0.26647661782E+01 -0.22766843840E+00  0.18233160439E+03  0.18235121817E+03  0.00000000000E+00 0. -1.
         11    1    1    2    0    0  0.33494999509E+00  0.16286514473E+01 -0.99804245214E+02  0.99818094852E+02  0.00000000000E+00 0. -1.
        -15    1    1    2    0    0 -0.23408933539E+01 -0.31985779360E+01 -0.43622223838E+02  0.43837960993E+02  0.17770000000E+01 0.  1.
         15    1    1    2    0    0 -0.65882281938E+00  0.17975949271E+01 -0.38905135334E+02  0.38992725981E+02  0.17770000000E+01 0. -1.
</event>
<event>
 6    1  0.1378789E-002  0.1981870E+03  0.7546771E-02  0.1056611E+00
        -11   -1    0    0    0    0  0.00000000000E+00  0.00000000000E+00  0.18250000000E+03  0.18250000000E+03  0.00000000000E+00 0. -1.
         11   -1    0    0    0    0 -0.00000000000E+00 -0.00000000000E+00 -0.18250000000E+03  0.18250000000E+03  0.00000000000E+00 0.  1.
        -11    1    1    2    0    0  0.26733228422E+01 -0.59945709180E-02  0.15298609216E+03  0.15300944769E+03  0.00000000000E+00 0. -1.
         11    1    1    2    0    0 -0.15807800135E+02 -0.13659082629E+02 -0.16549959187E+03  0.16681298509E+03  0.00000000000E+00 0.  1.
        -15    1    1    2    0    0  0.54032864679E+01 -0.13119629352E+02 -0.61247570391E+00  0.14312687885E+02  0.17770000000E+01 0. -1.
         15    1    1    2    0    0  0.77311908245E+01  0.26784706552E+02  0.13125975420E+02  0.30864879336E+02  0.17770000000E+01 0.  1.
</event>
<event>
 6    1  0.1378789E-002  0.1765939E+03  0.7546771E-02  0.1073256E+00
        -11   -1    0    0    0    0  0.00000000000E+00  0.00000000000E+00  0.18250000000E+03  0.18250000000E+03  0.00000000000E+00 0. -1.
         11   -1    0    0    0    0 -0.00000000000E+00 -0.00000000000E+00 -0.18250000000E+03  0.18250000000E+03  0.00000000000E+00 0. -1.
        -11    1    1    2    0    0 -0.27581796518E+00  0.42836003771E+01  0.17732774269E+03  0.17737968778E+03  0.00000000000E+00 0. -1.
         11    1    1    2    0    0 -0.25825543975E+01 -0.11101276884E+01 -0.17581474102E+03  0.17583721202E+03  0.00000000000E+00 0. -1.
        -15    1    1    2    0    0 -0.83720507610E+00 -0.62531957656E+01 -0.97593350782E+00  0.66267295730E+01  0.17770000000E+01 0.  1.
         15    1    1    2    0    0  0.36955774388E+01  0.30797230769E+01 -0.53706816697E+00  0.51563706279E+01  0.17770000000E+01 0.  1.
</event>
<event>
 6    1  0.1378789E-002  0.1928447E+03  0.7546771E-02  0.1060506E+00
        -11   -1    0    0    0    0  0.00000000000E+00  0.00000000000E+00  0.18250000000E+03  0.18250000000E+03  0.00000000000E+00 0.  1.
         11   -1    0    0    0    0 -0.00000000000E+00 -0.00000000000E+00 -0.18250000000E+03  0.18250000000E+03  0.00000000000E+00 0.  1.
        -11    1    1    2    0    0  0.57046376393E+00 -0.59543227605E+01  0.14516378211E+03  0.14528696785E+03  0.00000000000E+00 0.  1.
         11    1    1    2    0    0  0.82819251416E+01 -0.11404384814E+02 -0.17157742342E+03  0.17215534411E+03  0.00000000000E+00 0.  1.
        -15    1    1    2    0    0 -0.72720615933E+01  0.12424498222E+02  0.34708436666E+02  0.37617606791E+02  0.17770000000E+01 0.  1.
         15    1    1    2    0    0 -0.15803273122E+01  0.49342093525E+01 -0.82947953552E+01  0.99400812538E+01  0.17770000000E+01 0. -1.
</event>
<event>
 6    1  0.1378789E-002  0.1841943E+03  0.7546771E-02  0.1067114E+00
        -11   -1    0    0    0    0  0.00000000000E+00  0.00000000000E+00  0.18250000000E+03  0.18250000000E+03  0.00000000000E+00 0. -1.
         11   -1    0    0    0    0 -0.00000000000E+00 -0.00000000000E+00 -0.18250000000E+03  0.18250000000E+03  0.00000000000E+00 0.  1.
        -11    1    1    2    0    0  0.77620826177E-01 -0.24723657680E+01  0.18078879074E+03  0.18080571195E+03  0.00000000000E+00 0. -1.
         11    1    1    2    0    0 -0.11826624896E+01 -0.23539596443E+01 -0.17110954165E+03  0.17112981932E+03  0.00000000000E+00 0.  1.
        -15    1    1    2    0    0 -0.51437864434E+00  0.89661029300E+00  0.29584538108E+00  0.20769566430E+01  0.17770000000E+01 0.  1.
         15    1    1    2    0    0  0.16194203078E+01  0.39297151193E+01 -0.99750944697E+01  0.10987512081E+02  0.17770000000E+01 0. -1.
</event>
<event>
 6    1  0.1378789E-002  0.1891297E+03  0.7546771E-02  0.1063297E+00
        -11   -1    0    0    0    0  0.00000000000E+00  0.00000000000E+00  0.18250000000E+03  0.18250000000E+03  0.00000000000E+00 0. -1.
         11   -1    0    0    0    0 -0.00000000000E+00 -0.00000000000E+00 -0.18250000000E+03  0.18250000000E+03  0.00000000000E+00 0. -1.
        -11    1    1    2    0    0 -0.37655953664E+01  0.10819202038E+02  0.17549684155E+03  0.17587033927E+03  0.00000000000E+00 0. -1.
         11    1    1    2    0    0  0.30429126441E+00 -0.32741376945E+01 -0.15786010469E+03  0.15789434829E+03  0.00000000000E+00 0. -1.
        -15    1    1    2    0    0  0.33518378732E+01  0.27640439063E+01 -0.19971965405E+02  0.20516137233E+02  0.17770000000E+01 0. -1.
         15    1    1    2    0    0  0.10946622880E+00 -0.10309108250E+02  0.23352285426E+01  0.10719175206E+02  0.17770000000E+01 0.  1.
</event>
<event>
 6    1  0.1378789E-002  0.1826519E+03  0.7546771E-02  0.1068334E+00
        -11   -1    0    0    0    0  0.00000000000E+00  0.00000000000E+00  0.18250000000E+03  0.18250000000E+03  0.00000000000E+00 0. -1.
         11   -1    0    0    0    0 -0.00000000000E+00 -0.00000000000E+00 -0.18250000000E+03  0.18250000000E+03  0.00000000000E+00 0. -1.
        -11    1    1    2    0    0  0.17120162064E+01  0.22048885600E+01  0.18232670278E+03  0.18234807123E+03  0.00000000000E+00 0. -1.
         11    1    1    2    0    0  0.76927881558E+00 -0.12321741072E+01 -0.90352702428E+02  0.90364378374E+02  0.00000000000E+00 0. -1.
        -15    1    1    2    0    0  0.40178762020E+00  0.10884368064E+01 -0.10247703608E+02  0.10465146259E+02  0.17770000000E+01 0. -1.
         15    1    1    2    0    0 -0.28830826422E+01 -0.20611512592E+01 -0.81726296747E+02  0.81822404138E+02  0.17770000000E+01 0. -1.
</event>
<event>
 6    1  0.1378789E-002  0.1851457E+03  0.7546771E-02  0.1066368E+00
        -11   -1    0    0    0    0  0.00000000000E+00  0.00000000000E+00  0.18250000000E+03  0.18250000000E+03  0.00000000000E+00 0.  1.
         11   -1    0    0    0    0 -0.00000000000E+00 -0.00000000000E+00 -0.18250000000E+03  0.18250000000E+03  0.00000000000E+00 0. -1.
        -11    1    1    2    0    0 -0.29324917163E+01  0.10463587107E+02  0.17952568639E+03  0.17985426944E+03  0.00000000000E+00 0.  1.
         11    1    1    2    0    0  0.53124082812E+01  0.63342275654E+01 -0.12248640943E+03  0.12276507897E+03  0.00000000000E+00 0. -1.
        -15    1    1    2    0    0 -0.52463261705E+01 -0.14211923234E+02 -0.20277033415E+02  0.25373579042E+02  0.17770000000E+01 0. -1.
         15    1    1    2    0    0  0.28664096055E+01 -0.25858914375E+01 -0.36762243548E+02  0.37007072543E+02  0.17770000000E+01 0.  1.
</event>
<event>
 6    1  0.1378789E-002  0.1945404E+03  0.7546771E-02  0.1059255E+00
        -11   -1    0    0    0    0  0.00000000000E+00  0.00000000000E+00  0.18250000000E+03  0.18250000000E+03  0.00000000000E+00 0.  1.
         11   -1    0    0    0    0 -0.00000000000E+00 -0.00000000000E+00 -0.18250000000E+03  0.18250000000E+03  0.00000000000E+00 0. -1.
        -11    1    1    2    0    0 -0.18102889825E+01 -0.64150351159E+01  0.15767104236E+03  0.15781187351E+03  0.00000000000E+00 0.  1.
         11    1    1    2    0    0  0.89687185138E+01  0.25046917221E+01 -0.17020501620E+03  0.17045955219E+03  0.00000000000E+00 0. -1.
        -15    1    1    2    0    0  0.64977740143E+01  0.58990683426E+01  0.19285529310E+02  0.21262865381E+02  0.17770000000E+01 0.  1.
         15    1    1    2    0    0 -0.13656203546E+02 -0.19887249488E+01 -0.67515554695E+01  0.15465708922E+02  0.17770000000E+01 0. -1.
</event>
<event>
 6    1  0.1378789E-002  0.1909488E+03  0.7546771E-02  0.1061922E+00
        -11   -1    0    0    0    0  0.00000000000E+00  0.00000000000E+00  0.18250000000E+03  0.18250000000E+03  0.00000000000E+00 0.  1.
         11   -1    0    0    0    0 -0.00000000000E+00 -0.00000000000E+00 -0.18250000000E+03  0.18250000000E+03  0.00000000000E+00 0. -1.
        -11    1    1    2    0    0 -0.27745939557E+01 -0.12364737131E+01  0.17402464809E+03  0.17405115737E+03  0.00000000000E+00 0.  1.
         11    1    1    2    0    0  0.19238890565E+00 -0.23547425736E+01 -0.14729369689E+03  0.14731264362E+03  0.00000000000E+00 0. -1.
        -15    1    1    2    0    0 -0.19415072006E+01  0.80363503038E+01 -0.33286220457E+02  0.34343595877E+02  0.17770000000E+01 0.  1.
         15    1    1    2    0    0  0.45237122506E+01 -0.44451340171E+01  0.65552692573E+01  0.92926031333E+01  0.17770000000E+01 0. -1.
</event>
<event>
 6    1  0.1378789E-002  0.1849971E+03  0.7546771E-02  0.1066484E+00
        -11   -1    0    0    0    0  0.00000000000E+00  0.00000000000E+00  0.18250000000E+03  0.18250000000E+03  0.00000000000E+00 0. -1.
         11   -1    0    0    0    0 -0.00000000000E+00 -0.00000000000E+00 -0.18250000000E+03  0.18250000000E+03  0.00000000000E+00 0. -1.
        -11    1    1    2    0    0  0.37874679831E+01 -0.33297605414E+01  0.17926417534E+03  0.17933509634E+03  0.00000000000E+00 0. -1.
         11    1    1    2    0    0 -0.27171372677E+01  0.34040753928E+01 -0.17995019413E+03  0.18000289701E+03  0.00000000000E+00 0. -1.
        -15    1    1    2    0    0  0.54268545866E+00 -0.13857812893E+01 -0.91616717303E+00  0.24923861213E+01  0.17770000000E+01 0.  1.
         15    1    1    2    0    0 -0.16130161741E+01  0.13114664379E+01  0.16021859623E+01  0.31696205220E+01  0.17770000000E+01 0.  1.
</event>
<event>
 6    1  0.1378789E-002  0.1831301E+03  0.7546771E-02  0.1067954E+00
        -11   -1    0    0    0    0  0.00000000000E+00  0.00000000000E+00  0.18250000000E+03  0.18250000000E+03  0.00000000000E+00 0.  1.
         11   -1    0    0    0    0 -0.00000000000E+00 -0.00000000000E+00 -0.18250000000E+03  0.18250000000E+03  0.00000000000E+00 0.  1.
        -11    1    1    2    0    0 -0.40762820233E-01  0.35506220976E+01  0.18183522423E+03  0.18186989127E+03  0.00000000000E+00 0.  1.
         11    1    1    2    0    0  0.25288327905E+00 -0.74980780103E+00 -0.20471859841E+02  0.20487147363E+02  0.00000000000E+00 0.  1.
        -15    1    1    2    0    0 -0.47300471862E+00 -0.64296798307E+01 -0.17679160095E+02  0.18901718093E+02  0.17770000000E+01 0.  1.
         15    1    1    2    0    0  0.26088425980E+00  0.36288655341E+01 -0.14368420429E+03  0.14374124328E+03  0.17770000000E+01 0. -1.
</event>
<event>
 6    1  0.1378789E-002  0.1861204E+03  0.7546771E-02  0.1065609E+00
        -11   -1    0    0    0    0  0.00000000000E+00  0.00000000000E+00  0.18250000000E+03  0.18250000000E+03  0.00000000000E+00 0.  1.
         11   -1    0    0    0    0 -0.00000000000E+00 -0.00000000000E+00 -0.18250000000E+03  0.18250000000E+03  0.00000000000E+00 0.  1.
        -11    1    1    2    0    0 -0.11042844695E+02  0.63713450709E+01  0.17842466094E+03  0.17887956308E+03  0.00000000000E+00 0.  1.
         11    1    1    2    0    0  0.67378430681E+00  0.39677344489E+01 -0.14144544667E+03  0.14150269003E+03  0.00000000000E+00 0.  1.
        -15    1    1    2    0    0  0.15926750884E+02 -0.96738846302E+01 -0.31159318761E+02  0.36349777333E+02  0.17770000000E+01 0.  1.
         15    1    1    2    0    0 -0.55576904962E+01 -0.66519488966E+00 -0.58198955027E+01  0.82679695546E+01  0.17770000000E+01 0. -1.
</event>
<event>
 6    1  0.1378789E-002  0.1867775E+03  0.7546771E-02  0.1065100E+00
        -11   -1    0    0    0    0  0.00000000000E+00  0.00000000000E+00  0.18250000000E+03  0.18250000000E+03  0.00000000000E+00 0. -1.
         11   -1    0    0    0    0 -0.00000000000E+00 -0.00000000000E+00 -0.18250000000E+03  0.18250000000E+03  0.00000000000E+00 0. -1.
        -11    1    1    2    0    0 -0.15214348376E+00 -0.40026945969E+01  0.17817745215E+03  0.17822247099E+03  0.00000000000E+00 0. -1.
         11    1    1    2    0    0 -0.10276983815E+02 -0.79747606333E+01 -0.13583797589E+03  0.13645940385E+03  0.00000000000E+00 0. -1.
        -15    1    1    2    0    0  0.27572633166E+01  0.71771364078E+01 -0.99057026910E+00  0.79531595276E+01  0.17770000000E+01 0.  1.
         15    1    1    2    0    0  0.76718639826E+01  0.48003188224E+01 -0.41348905989E+02  0.42364965635E+02  0.17770000000E+01 0. -1.
</event>
<event>
 6    1  0.1378789E-002  0.1774785E+03  0.7546771E-02  0.1072524E+00
        -11   -1    0    0    0    0  0.00000000000E+00  0.00000000000E+00  0.18250000000E+03  0.18250000000E+03  0.00000000000E+00 0. -1.
         11   -1    0    0    0    0 -0.00000000000E+00 -0.00000000000E+00 -0.18250000000E+03  0.18250000000E+03  0.00000000000E+00 0.  1.
        -11    1    1    2    0    0 -0.19903989574E+01  0.16168857568E+01  0.17793795544E+03  0.17795643285E+03  0.00000000000E+00 0. -1.
         11    1    1    2    0    0 -0.89060403971E+00  0.26047202704E+01 -0.17701705658E+03  0.17703845927E+03  0.00000000000E+00 0.  1.
        -15    1    1    2    0    0  0.46324872391E+00 -0.17934756298E+01  0.33682469543E+01  0.42348519171E+01  0.17770000000E+01 0. -1.
         15    1    1    2    0    0  0.24177542732E+01 -0.24281303974E+01 -0.42891458168E+01  0.57702559553E+01  0.17770000000E+01 0. -1.
</event>
<event>
 6    1  0.1378789E-002  0.1888486E+03  0.7546771E-02  0.1063511E+00
        -11   -1    0    0    0    0  0.00000000000E+00  0.00000000000E+00  0.18250000000E+03  0.18250000000E+03  0.00000000000E+00 0. -1.
         11   -1    0    0    0    0 -0.00000000000E+00 -0.00000000000E+00 -0.18250000000E+03  0.18250000000E+03  0.00000000000E+00 0.  1.
        -11    1    1    2    0    0 -0.13622636230E+01  0.14390056143E+01  0.12430456243E+03  0.12432035529E+03  0.00000000000E+00 0. -1.
         11    1    1    2    0    0  0.73363769313E+01  0.70359754408E+00 -0.17599713249E+03  0.17615137843E+03  0.00000000000E+00 0.  1.
        -15    1    1    2    0    0 -0.31419660793E+01  0.12929702576E+02  0.34284366121E+01  0.13855001485E+02  0.17770000000E+01 0. -1.
         15    1    1    2    0    0 -0.28321472290E+01 -0.15072305734E+02  0.48264133452E+02  0.50673264795E+02  0.17770000000E+01 0.  1.
</event>
<event>
 6    1  0.1378789E-002  0.1866654E+03  0.7546771E-02  0.1065187E+00
        -11   -1    0    0    0    0  0.00000000000E+00  0.00000000000E+00  0.18250000000E+03  0.18250000000E+03  0.00000000000E+00 0. -1.
         11   -1    0    0    0    0 -0.00000000000E+00 -0.00000000000E+00 -0.18250000000E+03  0.18250000000E+03  0.00000000000E+00 0. -1.
        -11    1    1    2    0    0  0.23726877621E+01 -0.95429046812E+00  0.15486421031E+03  0.15488532516E+03  0.00000000000E+00 0. -1.
         11    1    1    2    0    0 -0.22821495114E+01  0.41365052182E+01 -0.17827204759E+03  0.17833463442E+03  0.00000000000E+00 0. -1.
        -15    1    1    2    0    0  0.13616948026E+01 -0.13072418446E+00 -0.37422799652E+01  0.43627617269E+01  0.17770000000E+01 0.  1.
         15    1    1    2    0    0 -0.14522330532E+01 -0.30514905656E+01  0.27150117244E+02  0.27417278692E+02  0.17770000000E+01 0. -1.
</event>
<event>
 6    1  0.2001399E-002  0.1838212E+03  0.7546771E-02  0.1067408E+00
        -11   -1    0    0    0    0  0.00000000000E+00  0.00000000000E+00  0.18250000000E+03  0.18250000000E+03  0.00000000000E+00 0.  1.
         11   -1    0    0    0    0 -0.00000000000E+00 -0.00000000000E+00 -0.18250000000E+03  0.18250000000E+03  0.00000000000E+00 0. -1.
        -11    1    1    2    0    0  0.23524041066E+01 -0.55260110888E+01  0.18107926768E+03  0.18117883923E+03  0.00000000000E+00 0.  1.
         11    1    1    2    0    0 -0.54192059500E+01  0.42085035140E+01 -0.92857704714E+02  0.93110861985E+02  0.00000000000E+00 0. -1.
        -15    1    1    2    0    0  0.31284614897E+01 -0.31213650502E+01 -0.84543610044E+02  0.84677682534E+02  0.17770000000E+01 0. -1.
         15    1    1    2    0    0 -0.61659646346E-01  0.44388726250E+01 -0.36779529204E+01  0.60326162465E+01  0.17770000000E+01 0.  1.
</event>
<event>
 6    1  0.1378789E-002  0.1867897E+03  0.7546771E-02  0.1065091E+00
        -11   -1    0    0    0    0  0.00000000000E+00  0.00000000000E+00  0.18250000000E+03  0.18250000000E+03  0.00000000000E+00 0. -1.
         11   -1    0    0    0    0 -0.00000000000E+00 -0.00000000000E+00 -0.18250000000E+03  0.18250000000E+03  0.00000000000E+00 0.  1.
        -11    1    1    2    0    0  0.17239260444E+01  0.96882157782E+00  0.11917325322E+03  0.11918965903E+03  0.00000000000E+00 0. -1.
         11    1    1    2    0    0 -0.13422334874E+01 -0.37714912821E+01 -0.17816528821E+03  0.17821025689E+03  0.00000000000E+00 0.  1.
        -15    1    1    2    0    0  0.92386053393E+01  0.66851466345E+01  0.55229517212E+02  0.56422516025E+02  0.17770000000E+01 0. -1.
         15    1    1    2    0    0 -0.96202978964E+01 -0.38824769302E+01  0.37625177746E+01  0.11177568060E+02  0.17770000000E+01 0.  1.
</event>
<event>
 6    1  0.1378789E-002  0.1755414E+03  0.7546771E-02  0.1074133E+00
        -11   -1    0    0    0    0  0.00000000000E+00  0.00000000000E+00  0.18250000000E+03  0.18250000000E+03  0.00000000000E+00 0.  1.
         11   -1    0    0    0    0 -0.00000000000E+00 -0.00000000000E+00 -0.18250000000E+03  0.18250000000E+03  0.00000000000E+00 0. -1.
        -11    1    1    2    0    0 -0.18238238657E+01  0.60562852286E+01  0.13448404661E+02  0.14861511101E+02  0.00000000000E+00 0.  1.
         11    1    1    2    0    0  0.14448012590E+01 -0.47304167321E+01 -0.18110222179E+03  0.18116975197E+03  0.00000000000E+00 0. -1.
        -15    1    1    2    0    0  0.96966937494E+01 -0.47636804311E+01  0.86588918347E+02  0.87278388107E+02  0.17770000000E+01 0. -1.
         15    1    1    2    0    0 -0.93176711427E+01  0.34378119346E+01  0.81064898782E+02  0.81690348818E+02  0.17770000000E+01 0.  1.
</event>
<event>
 6    1  0.1378789E-002  0.1861868E+03  0.7546771E-02  0.1065557E+00
        -11   -1    0    0    0    0  0.00000000000E+00  0.00000000000E+00  0.18250000000E+03  0.18250000000E+03  0.00000000000E+00 0.  1.
         11   -1    0    0    0    0 -0.00000000000E+00 -0.00000000000E+00 -0.18250000000E+03  0.18250000000E+03  0.00000000000E+00 0. -1.
        -11    1    1    2    0    0  0.52201023586E+00 -0.27275830424E+01  0.15495636078E+03  0.15498124387E+03  0.00000000000E+00 0.  1.
         11    1    1    2    0    0 -0.10362782744E+01  0.35276921352E+01 -0.17877535115E+03  0.17881315573E+03  0.00000000000E+00 0. -1.
        -15    1    1    2    0    0 -0.19839500352E+01  0.62841381924E+01  0.22322624667E+02  0.23342745160E+02  0.17770000000E+01 0.  1.
         15    1    1    2    0    0  0.24982180737E+01 -0.70842472853E+01  0.14963657003E+01  0.78628552353E+01  0.17770000000E+01 0.  1.
</event>
<event>
 6    1  0.1378789E-002  0.1784015E+03  0.7546771E-02  0.1071765E+00
        -11   -1    0    0    0    0  0.00000000000E+00  0.00000000000E+00  0.18250000000E+03  0.18250000000E+03  0.00000000000E+00 0.  1.
         11   -1    0    0    0    0 -0.00000000000E+00 -0.00000000000E+00 -0.18250000000E+03  0.18250000000E+03  0.00000000000E+00 0.  1.
        -11    1    1    2    0    0 -0.41051361176E+01  0.23443623948E+01  0.17868501340E+03  0.17874753758E+03  0.00000000000E+00 0.  1.
         11    1    1    2    0    0  0.31006815408E+01 -0.99025629152E+00 -0.17803037173E+03  0.17806012493E+03  0.00000000000E+00 0.  1.
        -15    1    1    2    0    0  0.15303820806E+01 -0.21262138516E+01 -0.34941257967E+01  0.47148169358E+01  0.17770000000E+01 0. -1.
         15    1    1    2    0    0 -0.52592750379E+00  0.77210774832E+00  0.28394841247E+01  0.34775205547E+01  0.17770000000E+01 0.  1.
</event>
<event>
 6    1  0.1378789E-002  0.1825659E+03  0.7546771E-02  0.1068402E+00
        -11   -1    0    0    0    0  0.00000000000E+00  0.00000000000E+00  0.18250000000E+03  0.18250000000E+03  0.00000000000E+00 0. -1.
         11   -1    0    0    0    0 -0.00000000000E+00 -0.00000000000E+00 -0.18250000000E+03  0.18250000000E+03  0.00000000000E+00 0. -1.
        -11    1    1    2    0    0  0.31282795270E+00 -0.84558991789E+00  0.22414898874E+02  0.22433024209E+02  0.00000000000E+00 0. -1.
         11    1    1    2    0    0  0.24869554396E+01 -0.47264713074E+01 -0.18235589567E+03  0.18243408992E+03  0.00000000000E+00 0. -1.
        -15    1    1    2    0    0 -0.98035038066E+00  0.41549833209E+01  0.11823761321E+03  0.11832800125E+03  0.17770000000E+01 0. -1.
         15    1    1    2    0    0 -0.18194330116E+01  0.14170779045E+01  0.41703383586E+02  0.41804884616E+02  0.17770000000E+01 0. -1.
</event>
<event>
 6    1  0.1378789E-002  0.1850646E+03  0.7546771E-02  0.1066432E+00
        -11   -1    0    0    0    0  0.00000000000E+00  0.00000000000E+00  0.18250000000E+03  0.18250000000E+03  0.00000000000E+00 0. -1.
         11   -1    0    0    0    0 -0.00000000000E+00 -0.00000000000E+00 -0.18250000000E+03  0.18250000000E+03  0.00000000000E+00 0. -1.
        -11    1    1    2    0    0 -0.47489983727E+01 -0.84941331119E+00  0.13781560248E+03  0.13790001731E+03  0.00000000000E+00 0. -1.
         11    1    1    2    0    0  0.31175211145E+01  0.31409277563E+01 -0.17988099618E+03  0.17993542495E+03  0.00000000000E+00 0. -1.
        -15    1    1    2    0    0 -0.82836344901E+01  0.30517562073E+00  0.30282848303E+02  0.31447104205E+02  0.17770000000E+01 0.  1.
         15    1    1    2    0    0  0.99151117482E+01 -0.25966900658E+01  0.11782545404E+02  0.15717453530E+02  0.17770000000E+01 0. -1.
</event>
<event>
 6    1  0.1378789E-002  0.1837456E+03  0.7546771E-02  0.1067468E+00
        -11   -1    0    0    0    0  0.00000000000E+00  0.00000000000E+00  0.18250000000E+03  0.18250000000E+03  0.00000000000E+00 0. -1.
         11   -1    0    0    0    0 -0.00000000000E+00 -0.00000000000E+00 -0.18250000000E+03  0.18250000000E+03  0.00000000000E+00 0. -1.
        -11    1    1    2    0    0 -0.44531727123E+01  0.55363336819E+00  0.18119887211E+03  0.18125443032E+03  0.00000000000E+00 0. -1.
         11    1    1    2    0    0  0.29554358571E+01  0.83329552005E+01 -0.10957110426E+03  0.10992724700E+03  0.00000000000E+00 0. -1.
        -15    1    1    2    0    0 -0.27029560418E-01 -0.39227062348E+01 -0.37247039499E+01  0.56938127223E+01  0.17770000000E+01 0. -1.
         15    1    1    2    0    0  0.15247664157E+01 -0.49638823339E+01 -0.67903063902E+02  0.68124509956E+02  0.17770000000E+01 0.  1.
</event>
<event>
 6    1  0.1378789E-002  0.1844920E+03  0.7546771E-02  0.1066880E+00
        -11   -1    0    0    0    0  0.00000000000E+00  0.00000000000E+00  0.18250000000E+03  0.18250000000E+03  0.00000000000E+00 0.  1.
         11   -1    0    0    0    0 -0.00000000000E+00 -0.00000000000E+00 -0.18250000000E+03  0.18250000000E+03  0.00000000000E+00 0. -1.
        -11    1    1    2    0    0 -0.25990174283E+01 -0.10168612169E+01  0.18048639050E+03  0.18050796673E+03  0.00000000000E+00 0.  1.
         11    1    1    2    0    0  0.30163212947E+01 -0.27387626456E+01 -0.12330039115E+03  0.12336768407E+03  0.00000000000E+00 0. -1.
        -15    1    1    2    0    0 -0.15324912870E+01 -0.20550246739E+01 -0.54151984170E+02  0.54241743837E+02  0.17770000000E+01 0. -1.
         15    1    1    2    0    0  0.11151874206E+01  0.58106485363E+01 -0.30340151809E+01  0.68826053580E+01  0.17770000000E+01 0.  1.
</event>
<event>
 6    1  0.1378789E-002  0.1867759E+03  0.7546771E-02  0.1065101E+00
        -11   -1    0    0    0    0  0.00000000000E+00  0.00000000000E+00  0.18250000000E+03  0.18250000000E+03  0.00000000000E+00 0.  1.
         11   -1    0    0    0    0 -0.00000000000E+00 -0.00000000000E+00 -0.18250000000E+03  0.18250000000E+03  0.00000000000E+00 0. -1.
        -11    1    1    2    0    0 -0.31400880915E+01 -0.18826401604E+01  0.17818650576E+03  0.17822411544E+03  0.00000000000E+00 0.  1.
         11    1    1    2    0    0  0.54694295299E+01  0.15339497399E+01 -0.12637705216E+03  0.12650465199E+03  0.00000000000E+00 0. -1.
        -15    1    1    2    0    0  0.33479554709E+01  0.10737566905E+02 -0.58962382124E+01  0.12822928797E+02  0.17770000000E+01 0.  1.
         15    1    1    2    0    0 -0.56772969093E+01 -0.10388876485E+02 -0.45913215388E+02  0.47448303774E+02  0.17770000000E+01 0. -1.
</event>
<event>
 6    1  0.1378789E-002  0.1935524E+03  0.7546771E-02  0.1059982E+00
        -11   -1    0    0    0    0  0.00000000000E+00  0.00000000000E+00  0.18250000000E+03  0.18250000000E+03  0.00000000000E+00 0. -1.
         11   -1    0    0    0    0 -0.00000000000E+00 -0.00000000000E+00 -0.18250000000E+03  0.18250000000E+03  0.00000000000E+00 0. -1.
        -11    1    1    2    0    0  0.24673593548E+01  0.66814172061E+00  0.17142850992E+03  0.17144756717E+03  0.00000000000E+00 0. -1.
         11    1    1    2    0    0  0.26853669835E+01 -0.86435610638E+00 -0.16534253419E+03  0.16536659856E+03  0.00000000000E+00 0. -1.
        -15    1    1    2    0    0 -0.96224460123E+01 -0.15002196633E+01 -0.14966855863E+02  0.17944543174E+02  0.17770000000E+01 0.  1.
         15    1    1    2    0    0  0.44697196741E+01  0.16964340491E+01  0.88808801270E+01  0.10241291094E+02  0.17770000000E+01 0. -1.
</event>
<event>
 6    1  0.1378789E-002  0.1862330E+03  0.7546771E-02  0.1065522E+00
        -11   -1    0    0    0    0  0.00000000000E+00  0.00000000000E+00  0.18250000000E+03  0.18250000000E+03  0.00000000000E+00 0.  1.
         11   -1    0    0    0    0 -0.00000000000E+00 -0.00000000000E+00 -0.18250000000E+03  0.18250000000E+03  0.00000000000E+00 0. -1.
        -11    1    1    2    0    0 -0.26677703984E+01  0.50373708018E+01  0.17867609926E+03  0.17876700073E+03  0.00000000000E+00 0.  1.
         11    1    1    2    0    0 -0.71279293548E+01  0.96589959480E+00 -0.11545338819E+03  0.11567724575E+03  0.00000000000E+00 0. -1.
        -15    1    1    2    0    0  0.94259431483E+01 -0.21615690857E+01 -0.65151705088E+02  0.65889477081E+02  0.17770000000E+01 0. -1.
         15    1    1    2    0    0  0.36975660490E+00 -0.38417013109E+01  0.19289940201E+01  0.46662764426E+01  0.17770000000E+01 0.  1.
</event>
<event>
 6    1  0.1378789E-002  0.1900580E+03  0.7546771E-02  0.1062593E+00
        -11   -1    0    0    0    0  0.00000000000E+00  0.00000000000E+00  0.18250000000E+03  0.18250000000E+03  0.00000000000E+00 0. -1.
         11   -1    0    0    0    0 -0.00000000000E+00 -0.00000000000E+00 -0.18250000000E+03  0.18250000000E+03  0.00000000000E+00 0.  1.
        -11    1    1    2    0    0  0.72075596032E+01 -0.26706202295E+01  0.13871571077E+03  0.13892850514E+03  0.00000000000E+00 0. -1.
         11    1    1    2    0    0  0.28519229438E+01 -0.77950044983E+00 -0.17491696958E+03  0.17494195418E+03  0.00000000000E+00 0.  1.
        -15    1    1    2    0    0 -0.20259157689E+02 -0.67043998341E+01  0.18967566602E+02  0.28606096539E+02  0.17770000000E+01 0. -1.
         15    1    1    2    0    0  0.10199675142E+02  0.10154520513E+02  0.17233692207E+02  0.22523444141E+02  0.17770000000E+01 0.  1.
</event>
<event>
 6    1  0.1378789E-002  0.1828544E+03  0.7546771E-02  0.1068173E+00
        -11   -1    0    0    0    0  0.00000000000E+00  0.00000000000E+00  0.18250000000E+03  0.18250000000E+03  0.00000000000E+00 0.  1.
         11   -1    0    0    0    0 -0.00000000000E+00 -0.00000000000E+00 -0.18250000000E+03  0.18250000000E+03  0.00000000000E+00 0.  1.
        -11    1    1    2    0    0 -0.15327979424E+00 -0.26277739503E+01  0.18212659352E+03  0.18214561416E+03  0.00000000000E+00 0.  1.
         11    1    1    2    0    0  0.33719612130E+01  0.28462603822E+01 -0.80387944972E+02  0.80508962342E+02  0.00000000000E+00 0.  1.
        -15    1    1    2    0    0 -0.19148362112E+01 -0.47998798048E+01 -0.68805533115E+02  0.69022203385E+02  0.17770000000E+01 0.  1.
         15    1    1    2    0    0 -0.13038452076E+01  0.45813933730E+01 -0.32933115433E+02  0.33323220113E+02  0.17770000000E+01 0.  1.
</event>
<event>
 6    1  0.1378789E-002  0.1853180E+03  0.7546771E-02  0.1066234E+00
        -11   -1    0    0    0    0  0.00000000000E+00  0.00000000000E+00  0.18250000000E+03  0.18250000000E+03  0.00000000000E+00 0. -1.
         11   -1    0    0    0    0 -0.00000000000E+00 -0.00000000000E+00 -0.18250000000E+03  0.18250000000E+03  0.00000000000E+00 0.  1.
        -11    1    1    2    0    0 -0.27275400594E+00  0.28726957132E+01  0.17089123868E+03  0.17091559973E+03  0.00000000000E+00 0. -1.
         11    1    1    2    0    0  0.19659524458E+01  0.31403868962E+01 -0.17964376312E+03  0.17968196523E+03  0.00000000000E+00 0.  1.
        -15    1    1    2    0    0 -0.28793920620E+01 -0.76051720217E+01  0.81935017792E+01  0.11679928961E+02  0.17770000000E+01 0. -1.
         15    1    1    2    0    0  0.11861936221E+01  0.15920894122E+01  0.55902266514E+00  0.27225060782E+01  0.17770000000E+01 0. -1.
</event>
<event>
 6    1  0.2395828E-002  0.1636572E+03  0.7546771E-02  0.1084529E+00
        -11   -1    0    0    0    0  0.00000000000E+00  0.00000000000E+00  0.18250000000E+03  0.18250000000E+03  0.00000000000E+00 0.  1.
         11   -1    0    0    0    0 -0.00000000000E+00 -0.00000000000E+00 -0.18250000000E+03  0.18250000000E+03  0.00000000000E+00 0.  1.
        -11    1    1    2    0    0  0.38273695649E+00 -0.75520828714E+01  0.16413678283E+03  0.16431087584E+03  0.00000000000E+00 0.  1.
         11    1    1    2    0    0 -0.35373311579E+01 -0.14896019137E+02 -0.16307210286E+03  0.16378923905E+03  0.00000000000E+00 0.  1.
        -15    1    1    2    0    0  0.44213339562E+01  0.20007702563E+02 -0.13128168020E+02  0.24400059023E+02  0.17770000000E+01 0.  1.
         15    1    1    2    0    0 -0.12667397548E+01  0.24403994461E+01  0.12063488055E+02  0.12499826084E+02  0.17770000000E+01 0. -1.
</event>
<event>
 6    1  0.1378789E-002  0.1830532E+03  0.7546771E-02  0.1068015E+00
        -11   -1    0    0    0    0  0.00000000000E+00  0.00000000000E+00  0.18250000000E+03  0.18250000000E+03  0.00000000000E+00 0. -1.
         11   -1    0    0    0    0 -0.00000000000E+00 -0.00000000000E+00 -0.18250000000E+03  0.18250000000E+03  0.00000000000E+00 0.  1.
        -11    1    1    2    0    0 -0.20031547620E+01  0.40000565182E+01  0.18189181114E+03  0.18194681652E+03  0.00000000000E+00 0. -1.
         11    1    1    2    0    0  0.14491433781E+01  0.14321612870E+01 -0.10406448087E+03  0.10408442381E+03  0.00000000000E+00 0.  1.
        -15    1    1    2    0    0  0.39886170067E+00 -0.40405100516E+01 -0.75804289698E+02  0.75933740049E+02  0.17770000000E+01 0.  1.
         15    1    1    2    0    0  0.15514968318E+00 -0.13917077535E+01 -0.20230405778E+01  0.30350196169E+01  0.17770000000E+01 0. -1.
</event>
<event>
 6    1  0.1378789E-002  0.1874640E+03  0.7546771E-02  0.1064571E+00
        -11   -1    0    0    0    0  0.00000000000E+00  0.00000000000E+00  0.18250000000E+03  0.18250000000E+03  0.00000000000E+00 0. -1.
         11   -1    0    0    0    0 -0.00000000000E+00 -0.00000000000E+00 -0.18250000000E+03  0.18250000000E+03  0.00000000000E+00 0.  1.
        -11    1    1    2    0    0 -0.27613427087E+01 -0.42168363919E+01  0.15568629904E+03  0.15576787356E+03  0.00000000000E+00 0. -1.
         11    1    1    2    0    0 -0.87495778864E+00  0.75245720121E+01 -0.17737430374E+03  0.17753599174E+03  0.00000000000E+00 0.  1.
        -15    1    1    2    0    0 -0.31312515748E+01 -0.24033630258E+01 -0.34823761769E+01  0.55556784551E+01  0.17770000000E+01 0.  1.
         15    1    1    2    0    0  0.67675520721E+01 -0.90437259446E+00  0.25170380872E+02  0.26140456253E+02  0.17770000000E+01 0. -1.
</event>
<event>
 6    1  0.1378789E-002  0.1825593E+03  0.7546771E-02  0.1068408E+00
        -11   -1    0    0    0    0  0.00000000000E+00  0.00000000000E+00  0.18250000000E+03  0.18250000000E+03  0.00000000000E+00 0. -1.
         11   -1    0    0    0    0 -0.00000000000E+00 -0.00000000000E+00 -0.18250000000E+03  0.18250000000E+03  0.00000000000E+00 0.  1.
        -11    1    1    2    0    0  0.25602936524E+01 -0.37095433581E+01  0.18238501883E+03  0.18244070519E+03  0.00000000000E+00 0. -1.
         11    1    1    2    0    0  0.67104817469E+00  0.69098386876E+00 -0.69454790179E+02  0.69461468766E+02  0.00000000000E+00 0.  1.
        -15    1    1    2    0    0 -0.36799892391E+00  0.18082688569E+01 -0.43612808226E+02  0.43687984960E+02  0.17770000000E+01 0. -1.
         15    1    1    2    0    0 -0.28633429032E+01  0.12102906324E+01 -0.69317420426E+02  0.69409841086E+02  0.17770000000E+01 0.  1.
</event>
<event>
 6    1  0.1378789E-002  0.1734659E+03  0.7546771E-02  0.1075882E+00
        -11   -1    0    0    0    0  0.00000000000E+00  0.00000000000E+00  0.18250000000E+03  0.18250000000E+03  0.00000000000E+00 0.  1.
         11   -1    0    0    0    0 -0.00000000000E+00 -0.00000000000E+00 -0.18250000000E+03  0.18250000000E+03  0.00000000000E+00 0.  1.
        -11    1    1    2    0    0 -0.24412246368E+01 -0.74997726468E+01  0.17268378142E+03  0.17286380342E+03  0.00000000000E+00 0.  1.
         11    1    1    2    0    0  0.16585313356E+01 -0.17057909585E+01 -0.17417791265E+03  0.17419416093E+03  0.00000000000E+00 0.  1.
        -15    1    1    2    0    0 -0.49005311405E+01  0.99781153598E+01  0.31932051619E+01  0.11701806690E+02  0.17770000000E+01 0.  1.
         15    1    1    2    0    0  0.56832244417E+01 -0.77255175447E+00 -0.16990739300E+01  0.62402289611E+01  0.17770000000E+01 0. -1.
</event>
<event>
 6    1  0.1378789E-002  0.1858173E+03  0.7546771E-02  0.1065844E+00
        -11   -1    0    0    0    0  0.00000000000E+00  0.00000000000E+00  0.18250000000E+03  0.18250000000E+03  0.00000000000E+00 0. -1.
         11   -1    0    0    0    0 -0.00000000000E+00 -0.00000000000E+00 -0.18250000000E+03  0.18250000000E+03  0.00000000000E+00 0.  1.
        -11    1    1    2    0    0 -0.38206985240E+01 -0.96330893036E+00  0.16967953312E+03  0.16972527702E+03  0.00000000000E+00 0. -1.
         11    1    1    2    0    0 -0.15289104315E+01 -0.26745648801E+01 -0.17915617626E+03  0.17918266198E+03  0.00000000000E+00 0.  1.
        -15    1    1    2    0    0  0.49170979832E+01  0.65698681307E+01  0.94433340383E+01  0.12636269489E+02  0.17770000000E+01 0. -1.
         15    1    1    2    0    0  0.43251097225E+00 -0.29319943203E+01  0.33309098253E-01  0.34557915058E+01  0.17770000000E+01 0.  1.
</event>
<event>
 6    1  0.1378789E-002  0.1769671E+03  0.7546771E-02  0.1072946E+00
        -11   -1    0    0    0    0  0.00000000000E+00  0.00000000000E+00  0.18250000000E+03  0.18250000000E+03  0.00000000000E+00 0. -1.
         11   -1    0    0    0    0 -0.00000000000E+00 -0.00000000000E+00 -0.18250000000E+03  0.18250000000E+03  0.00000000000E+00 0. -1.
        -11    1    1    2    0    0 -0.24558804917E+01 -0.82328968082E+00  0.17601785862E+03  0.17603691575E+03  0.00000000000E+00 0. -1.
         11    1    1    2    0    0 -0.51548979898E+01  0.20814841517E+00 -0.17790994883E+03  0.17798473584E+03  0.00000000000E+00 0. -1.
        -15    1    1    2    0    0  0.58602979303E+01  0.28981331286E+01 -0.56501988920E+00  0.67984736476E+01  0.17770000000E+01 0.  1.
         15    1    1    2    0    0  0.17504805513E+01 -0.22829918630E+01  0.24571100973E+01  0.41798747633E+01  0.17770000000E+01 0. -1.
</event>
<event>
 6    1  0.1378789E-002  0.1818609E+03  0.7546771E-02  0.1068965E+00
        -11   -1    0    0    0    0  0.00000000000E+00  0.00000000000E+00  0.18250000000E+03  0.18250000000E+03  0.00000000000E+00 0. -1.
         11   -1    0    0    0    0 -0.00000000000E+00 -0.00000000000E+00 -0.18250000000E+03  0.18250000000E+03  0.00000000000E+00 0. -1.
        -11    1    1    2    0    0 -0.26178867481E+01 -0.32097423037E+01  0.18205146251E+03  0.18209857434E+03  0.00000000000E+00 0. -1.
         11    1    1    2    0    0 -0.69267656511E+00 -0.92644310461E+00 -0.96219668448E+00  0.15046328820E+01  0.00000000000E+00 0. -1.
        -15    1    1    2    0    0  0.26007055960E+01 -0.85125995974E+00 -0.12754191751E+03  0.12758364615E+03  0.17770000000E+01 0. -1.
         15    1    1    2    0    0  0.70985771717E+00  0.49874453680E+01 -0.53547348315E+02  0.53813146627E+02  0.17770000000E+01 0. -1.
</event>
<event>
 6    1  0.1378789E-002  0.1841070E+03  0.7546771E-02  0.1067183E+00
        -11   -1    0    0    0    0  0.00000000000E+00  0.00000000000E+00  0.18250000000E+03  0.18250000000E+03  0.00000000000E+00 0. -1.
         11   -1    0    0    0    0 -0.00000000000E+00 -0.00000000000E+00 -0.18250000000E+03  0.18250000000E+03  0.00000000000E+00 0. -1.
        -11    1    1    2    0    0 -0.20064845355E+01  0.25215060551E+01  0.18086433002E+03  0.18089303427E+03  0.00000000000E+00 0. -1.
         11    1    1    2    0    0  0.40498022219E+01  0.22958745148E+01 -0.16440770073E+03  0.16447359666E+03  0.00000000000E+00 0. -1.
        -15    1    1    2    0    0  0.19563269197E+01 -0.47808278477E+01 -0.51435401581E+01  0.75031502906E+01  0.17770000000E+01 0. -1.
         15    1    1    2    0    0 -0.39996446061E+01 -0.36552722227E-01 -0.11313089131E+02  0.12130218785E+02  0.17770000000E+01 0.  1.
</event>
<event>
 6    1  0.1378789E-002  0.1899499E+03  0.7546771E-02  0.1062675E+00
        -11   -1    0    0    0    0  0.00000000000E+00  0.00000000000E+00  0.18250000000E+03  0.18250000000E+03  0.00000000000E+00 0. -1.
         11   -1    0    0    0    0 -0.00000000000E+00 -0.00000000000E+00 -0.18250000000E+03  0.18250000000E+03  0.00000000000E+00 0. -1.
        -11    1    1    2    0    0  0.19207672337E+01  0.10598399758E+01  0.14340471050E+03  0.14342148933E+03  0.00000000000E+00 0. -1.
         11    1    1    2    0    0  0.12836424000E+02 -0.19939746098E+02 -0.17343638099E+03  0.17505012284E+03  0.00000000000E+00 0. -1.
        -15    1    1    2    0    0 -0.14089882629E+02  0.21919615736E+02  0.13095454645E+02  0.29217169745E+02  0.17770000000E+01 0. -1.
         15    1    1    2    0    0 -0.66730860453E+00 -0.30397096140E+01  0.16936215845E+02  0.17311218081E+02  0.17770000000E+01 0. -1.
</event>
<event>
 6    1  0.1378789E-002  0.1833261E+03  0.7546771E-02  0.1067799E+00
        -11   -1    0    0    0    0  0.00000000000E+00  0.00000000000E+00  0.18250000000E+03  0.18250000000E+03  0.00000000000E+00 0. -1.
         11   -1    0    0    0    0 -0.00000000000E+00 -0.00000000000E+00 -0.18250000000E+03  0.18250000000E+03  0.00000000000E+00 0.  1.
        -11    1    1    2    0    0 -0.11758342122E+01 -0.40033888821E+01  0.14377486500E+03  0.14383539729E+03  0.00000000000E+00 0. -1.
         11    1    1    2    0    0 -0.80014469339E+00 -0.24584283590E+01 -0.18165549543E+03  0.18167389224E+03  0.00000000000E+00 0.  1.
        -15    1    1    2    0    0 -0.44481345610E+00  0.72287663393E+01  0.20032980142E+02  0.21375943117E+02  0.17770000000E+01 0. -1.
         15    1    1    2    0    0  0.24207923617E+01 -0.76694909825E+00  0.17847650283E+02  0.18114767352E+02  0.17770000000E+01 0. -1.
</event>
<event>
 6    1  0.1378789E-002  0.1795549E+03  0.7546771E-02  0.1070824E+00
        -11   -1    0    0    0    0  0.00000000000E+00  0.00000000000E+00  0.18250000000E+03  0.18250000000E+03  0.00000000000E+00 0.  1.
         11   -1    0    0    0    0 -0.00000000000E+00 -0.00000000000E+00 -0.18250000000E+03  0.18250000000E+03  0.00000000000E+00 0.  1.
        -11    1    1    2    0    0  0.14422099626E+01  0.24953237681E+01  0.17896777075E+03  0.17899097625E+03  0.00000000000E+00 0.  1.
         11    1    1    2    0    0 -0.31445965936E+01  0.20896922489E+00 -0.18010720750E+03  0.18013477829E+03  0.00000000000E+00 0.  1.
        -15    1    1    2    0    0 -0.27179780047E+00 -0.20216020686E+01  0.15238869106E+01  0.31049491597E+01  0.17770000000E+01 0. -1.
         15    1    1    2    0    0  0.19741844315E+01 -0.68269092440E+00 -0.38445016063E+00  0.27692962994E+01  0.17770000000E+01 0. -1.
</event>
<event>
 6    1  0.1378789E-002  0.1850853E+03  0.7546771E-02  0.1066415E+00
        -11   -1    0    0    0    0  0.00000000000E+00  0.00000000000E+00  0.18250000000E+03  0.18250000000E+03  0.00000000000E+00 0.  1.
         11   -1    0    0    0    0 -0.00000000000E+00 -0.00000000000E+00 -0.18250000000E+03  0.18250000000E+03  0.00000000000E+00 0. -1.
        -11    1    1    2    0    0 -0.14150801236E+01 -0.40581550310E+01  0.75109000528E+02  0.75231861829E+02  0.00000000000E+00 0.  1.
         11    1    1    2    0    0  0.68334506014E+01 -0.13220959253E+01 -0.17977998131E+03  0.17991466217E+03  0.00000000000E+00 0. -1.
        -15    1    1    2    0    0 -0.38979522241E+01  0.16409405173E+01  0.10529872202E+03  0.10539860201E+03  0.17770000000E+01 0. -1.
         15    1    1    2    0    0 -0.15204182536E+01  0.37393104390E+01 -0.62774123626E+00  0.44548739920E+01  0.17770000000E+01 0.  1.
</event>
<event>
 6    1  0.1378789E-002  0.1720990E+03  0.7546771E-02  0.1077049E+00
        -11   -1    0    0    0    0  0.00000000000E+00  0.00000000000E+00  0.18250000000E+03  0.18250000000E+03  0.00000000000E+00 0.  1.
         11   -1    0    0    0    0 -0.00000000000E+00 -0.00000000000E+00 -0.18250000000E+03  0.18250000000E+03  0.00000000000E+00 0.  1.
        -11    1    1    2    0    0  0.96819245875E-01 -0.44068821990E+01  0.17356011577E+03  0.17361608154E+03  0.00000000000E+00 0.  1.
         11    1    1    2    0    0 -0.21457027551E+01 -0.58583414842E+01 -0.17063939068E+03  0.17075340658E+03  0.00000000000E+00 0.  1.
        -15    1    1    2    0    0  0.66326975423E+01  0.82812783430E+01  0.43738747676E+01  0.11612956435E+02  0.17770000000E+01 0.  1.
         15    1    1    2    0    0 -0.45838140331E+01  0.19839453402E+01 -0.72945998513E+01  0.90175554444E+01  0.17770000000E+01 0. -1.
</event>
<event>
 6    1  0.1378789E-002  0.1866323E+03  0.7546771E-02  0.1065212E+00
        -11   -1    0    0    0    0  0.00000000000E+00  0.00000000000E+00  0.18250000000E+03  0.18250000000E+03  0.00000000000E+00 0.  1.
         11   -1    0    0    0    0 -0.00000000000E+00 -0.00000000000E+00 -0.18250000000E+03  0.18250000000E+03  0.00000000000E+00 0. -1.
        -11    1    1    2    0    0  0.38353619195E+01  0.37971960469E+01  0.17346263738E+03  0.17354657952E+03  0.00000000000E+00 0.  1.
         11    1    1    2    0    0  0.33547909561E+01 -0.72461993146E+01 -0.17818886345E+03  0.17836769070E+03  0.00000000000E+00 0. -1.
        -15    1    1    2    0    0 -0.14369544830E+01 -0.27393805004E+01  0.14382791696E+01  0.38464814678E+01  0.17770000000E+01 0.  1.
         15    1    1    2    0    0 -0.57531983926E+01  0.61883837680E+01  0.32879469084E+01  0.92392483070E+01  0.17770000000E+01 0.  1.
</event>
<event>
 6    1  0.1378789E-002  0.1843346E+03  0.7546771E-02  0.1067004E+00
        -11   -1    0    0    0    0  0.00000000000E+00  0.00000000000E+00  0.18250000000E+03  0.18250000000E+03  0.00000000000E+00 0. -1.
         11   -1    0    0    0    0 -0.00000000000E+00 -0.00000000000E+00 -0.18250000000E+03  0.18250000000E+03  0.00000000000E+00 0. -1.
        -11    1    1    2    0    0  0.60724682910E+01  0.70913090713E+01  0.15466370251E+03  0.15494522390E+03  0.00000000000E+00 0. -1.
         11    1    1    2    0    0  0.14923740048E+01 -0.43102173020E+01 -0.18060780216E+03  0.18066539058E+03  0.00000000000E+00 0. -1.
        -15    1    1    2    0    0 -0.49044381802E+00 -0.56051976735E+01  0.95669676006E+01  0.11240256855E+02  0.17770000000E+01 0. -1.
         15    1    1    2    0    0 -0.70743984778E+01  0.28241059042E+01  0.16377132049E+02  0.18149128660E+02  0.17770000000E+01 0. -1.
</event>
<event>
 6    1  0.1378789E-002  0.1826048E+03  0.7546771E-02  0.1068371E+00
        -11   -1    0    0    0    0  0.00000000000E+00  0.00000000000E+00  0.18250000000E+03  0.18250000000E+03  0.00000000000E+00 0.  1.
         11   -1    0    0    0    0 -0.00000000000E+00 -0.00000000000E+00 -0.18250000000E+03  0.18250000000E+03  0.00000000000E+00 0.  1.
        -11    1    1    2    0    0  0.67503404341E+00 -0.79215247452E+00  0.74678776673E+02  0.74686028559E+02  0.00000000000E+00 0.  1.
         11    1    1    2    0    0 -0.20541673632E+01  0.14183815744E+01 -0.18237814820E+03  0.18239523117E+03  0.00000000000E+00 0.  1.
        -15    1    1    2    0    0  0.20006891242E+01 -0.17714257189E+01  0.92978305854E+02  0.93033670219E+02  0.17770000000E+01 0. -1.
         15    1    1    2    0    0 -0.62155580447E+00  0.11451966190E+01  0.14721065677E+02  0.14885070056E+02  0.17770000000E+01 0. -1.
</event>
<event>
 6    1  0.1378789E-002  0.1911911E+03  0.7546771E-02  0.1061740E+00
        -11   -1    0    0    0    0  0.00000000000E+00  0.00000000000E+00  0.18250000000E+03  0.18250000000E+03  0.00000000000E+00 0.  1.
         11   -1    0    0    0    0 -0.00000000000E+00 -0.00000000000E+00 -0.18250000000E+03  0.18250000000E+03  0.00000000000E+00 0. -1.
        -11    1    1    2    0    0 -0.30194091365E+01 -0.86091245579E+01  0.17356928065E+03  0.17380888655E+03  0.00000000000E+00 0.  1.
         11    1    1    2    0    0 -0.24611016169E+01  0.21874943028E+01 -0.14162874922E+03  0.14166702071E+03  0.00000000000E+00 0. -1.
        -15    1    1    2    0    0  0.32540460759E+01  0.25464966289E+00 -0.39319275963E+02  0.39494516753E+02  0.17770000000E+01 0. -1.
         15    1    1    2    0    0  0.22264646775E+01  0.61669805922E+01  0.73787445324E+01  0.10029575986E+02  0.17770000000E+01 0.  1.
</event>
<event>
 6    1  0.2556093E-002  0.1140576E+03  0.7546771E-02  0.1141507E+00
        -11   -1    0    0    0    0  0.00000000000E+00  0.00000000000E+00  0.18250000000E+03  0.18250000000E+03  0.00000000000E+00 0.  1.
         11   -1    0    0    0    0 -0.00000000000E+00 -0.00000000000E+00 -0.18250000000E+03  0.18250000000E+03  0.00000000000E+00 0.  1.
        -11    1    1    2    0    0 -0.27786030400E+02 -0.35546961425E+02  0.11993104346E+03  0.12813705607E+03  0.00000000000E+00 0.  1.
         11    1    1    2    0    0  0.21008356444E+01  0.28403633267E+01 -0.64748955924E+02  0.64845265575E+02  0.00000000000E+00 0.  1.
        -15    1    1    2    0    0 -0.16336900006E-01 -0.30086178845E+01 -0.10526749111E+03  0.10532546920E+03  0.17770000000E+01 0.  1.
         15    1    1    2    0    0  0.25701531656E+02  0.35715215983E+02  0.50085403572E+02  0.66692209157E+02  0.17770000000E+01 0.  1.
</event>
<event>
 6    1  0.1378789E-002  0.1739842E+03  0.7546771E-02  0.1075443E+00
        -11   -1    0    0    0    0  0.00000000000E+00  0.00000000000E+00  0.18250000000E+03  0.18250000000E+03  0.00000000000E+00 0. -1.
         11   -1    0    0    0    0 -0.00000000000E+00 -0.00000000000E+00 -0.18250000000E+03  0.18250000000E+03  0.00000000000E+00 0.  1.
        -11    1    1    2    0    0  0.28076445716E+01 -0.39696438930E+01  0.17195626473E+03  0.17202499214E+03  0.00000000000E+00 0. -1.
         11    1    1    2    0    0  0.28752991719E+01  0.89723839284E+01 -0.17579455406E+03  0.17604685812E+03  0.00000000000E+00 0.  1.
        -15    1    1    2    0    0 -0.71379768811E+00 -0.71313674262E+01 -0.30537079609E+01  0.79905425234E+01  0.17770000000E+01 0. -1.
         15    1    1    2    0    0 -0.49691460554E+01  0.21286273909E+01  0.68919972875E+01  0.89376072133E+01  0.17770000000E+01 0.  1.
</event>
<event>
 6    1  0.1378789E-002  0.1851066E+03  0.7546771E-02  0.1066399E+00
        -11   -1    0    0    0    0  0.00000000000E+00  0.00000000000E+00  0.18250000000E+03  0.18250000000E+03  0.00000000000E+00 0.  1.
         11   -1    0    0    0    0 -0.00000000000E+00 -0.00000000000E+00 -0.18250000000E+03  0.18250000000E+03  0.00000000000E+00 0.  1.
        -11    1    1    2    0    0 -0.60569594766E+00 -0.37686614042E+01  0.16781481846E+03  0.16785822282E+03  0.00000000000E+00 0.  1.
         11    1    1    2    0    0  0.18181866043E+01  0.23388808314E+01 -0.17986904239E+03  0.17989343672E+03  0.00000000000E+00 0.  1.
        -15    1    1    2    0    0 -0.62134176592E+01  0.23174861429E+01  0.77820990409E+01  0.10377672933E+02  0.17770000000E+01 0. -1.
         15    1    1    2    0    0  0.50009270025E+01 -0.88770557011E+00  0.42721248915E+01  0.68706675187E+01  0.17770000000E+01 0.  1.
</event>
<event>
 6    1  0.1378789E-002  0.1833244E+03  0.7546771E-02  0.1067800E+00
        -11   -1    0    0    0    0  0.00000000000E+00  0.00000000000E+00  0.18250000000E+03  0.18250000000E+03  0.00000000000E+00 0.  1.
         11   -1    0    0    0    0 -0.00000000000E+00 -0.00000000000E+00 -0.18250000000E+03  0.18250000000E+03  0.00000000000E+00 0. -1.
        -11    1    1    2    0    0 -0.71707745889E+01 -0.27153760336E+01  0.18151375019E+03  0.18167563068E+03  0.00000000000E+00 0.  1.
         11    1    1    2    0    0  0.58572577613E-01 -0.11559988432E+01 -0.16443484621E+02  0.16484172729E+02  0.00000000000E+00 0. -1.
        -15    1    1    2    0    0  0.69968768222E+01 -0.56622976103E+00 -0.15874957023E+03  0.15891463331E+03  0.17770000000E+01 0. -1.
         15    1    1    2    0    0  0.11532518909E+00  0.44376046379E+01 -0.63206953386E+01  0.79255632850E+01  0.17770000000E+01 0.  1.
</event>
<event>
 6    1  0.1378789E-002  0.1886011E+03  0.7546771E-02  0.1063699E+00
        -11   -1    0    0    0    0  0.00000000000E+00  0.00000000000E+00  0.18250000000E+03  0.18250000000E+03  0.00000000000E+00 0. -1.
         11   -1    0    0    0    0 -0.00000000000E+00 -0.00000000000E+00 -0.18250000000E+03  0.18250000000E+03  0.00000000000E+00 0. -1.
        -11    1    1    2    0    0 -0.24911403667E+01  0.21232738598E+01  0.17636851258E+03  0.17639888407E+03  0.00000000000E+00 0. -1.
         11    1    1    2    0    0  0.61568258831E+01 -0.29247257763E+01 -0.16978490715E+03  0.16992167378E+03  0.00000000000E+00 0. -1.
        -15    1    1    2    0    0  0.49966562909E+01 -0.39270033847E+01 -0.55057235992E+01  0.85941055977E+01  0.17770000000E+01 0.  1.
         15    1    1    2    0    0 -0.86623418073E+01  0.47284553012E+01 -0.10778818296E+01  0.10085336552E+02  0.17770000000E+01 0. -1.
</event>
<event>
 6    1  0.1378789E-002  0.1840491E+03  0.7546771E-02  0.1067228E+00
        -11   -1    0    0    0    0  0.00000000000E+00  0.00000000000E+00  0.18250000000E+03  0.18250000000E+03  0.00000000000E+00 0.  1.
         11   -1    0    0    0    0 -0.00000000000E+00 -0.00000000000E+00 -0.18250000000E+03  0.18250000000E+03  0.00000000000E+00 0.  1.
        -11    1    1    2    0    0  0.14000045688E+01 -0.24696510614E+01  0.18092859712E+03  0.18095086749E+03  0.00000000000E+00 0.  1.
         11    1    1    2    0    0  0.47034967845E+01  0.38082397644E+01 -0.11614689828E+03  0.11630446059E+03  0.00000000000E+00 0.  1.
        -15    1    1    2    0    0 -0.10034122320E+02 -0.49206743061E+01 -0.57235268043E+02  0.58343211116E+02  0.17770000000E+01 0. -1.
         15    1    1    2    0    0  0.39306209668E+01  0.35820856031E+01 -0.75464307966E+01  0.94014608024E+01  0.17770000000E+01 0.  1.
</event>
<event>
 6    1  0.1378789E-002  0.1860813E+03  0.7546771E-02  0.1065639E+00
        -11   -1    0    0    0    0  0.00000000000E+00  0.00000000000E+00  0.18250000000E+03  0.18250000000E+03  0.00000000000E+00 0.  1.
         11   -1    0    0    0    0 -0.00000000000E+00 -0.00000000000E+00 -0.18250000000E+03  0.18250000000E+03  0.00000000000E+00 0. -1.
        -11    1    1    2    0    0  0.17357614448E+00 -0.27558750111E+01  0.17889743480E+03  0.17891874456E+03  0.00000000000E+00 0.  1.
         11    1    1    2    0    0  0.25824680607E+01 -0.41379220502E+01 -0.16404969474E+03  0.16412219193E+03  0.00000000000E+00 0. -1.
        -15    1    1    2    0    0 -0.72375023162E+01  0.66042254326E+01 -0.13799382132E+02  0.17016988852E+02  0.17770000000E+01 0.  1.
         15    1    1    2    0    0  0.44814581111E+01  0.28957162869E+00 -0.10483579280E+01  0.49420746529E+01  0.17770000000E+01 0. -1.
</event>
<event>
 6    1  0.1378789E-002  0.1776604E+03  0.7546771E-02  0.1072374E+00
        -11   -1    0    0    0    0  0.00000000000E+00  0.00000000000E+00  0.18250000000E+03  0.18250000000E+03  0.00000000000E+00 0.  1.
         11   -1    0    0    0    0 -0.00000000000E+00 -0.00000000000E+00 -0.18250000000E+03  0.18250000000E+03  0.00000000000E+00 0. -1.
        -11    1    1    2    0    0 -0.19394291134E+00  0.30131014587E+01  0.17883471758E+03  0.17886020408E+03  0.00000000000E+00 0.  1.
         11    1    1    2    0    0 -0.25190755659E+01  0.97943593977E-01 -0.17647436379E+03  0.17649236926E+03  0.00000000000E+00 0. -1.
        -15    1    1    2    0    0  0.35044569133E+01 -0.24478313683E+01  0.18317970385E+01  0.49785847442E+01  0.17770000000E+01 0. -1.
         15    1    1    2    0    0 -0.79143843596E+00 -0.66321368438E+00 -0.41921508282E+01  0.46688419073E+01  0.17770000000E+01 0.  1.
</event>
<event>
 6    1  0.1378789E-002  0.1856146E+03  0.7546771E-02  0.1066002E+00
        -11   -1    0    0    0    0  0.00000000000E+00  0.00000000000E+00  0.18250000000E+03  0.18250000000E+03  0.00000000000E+00 0.  1.
         11   -1    0    0    0    0 -0.00000000000E+00 -0.00000000000E+00 -0.18250000000E+03  0.18250000000E+03  0.00000000000E+00 0. -1.
        -11    1    1    2    0    0  0.10376320008E+01 -0.10159904289E+02  0.17909442133E+03  0.17938537311E+03  0.00000000000E+00 0.  1.
         11    1    1    2    0    0 -0.25642377470E+01  0.11123312541E+01 -0.47265739154E+02  0.47348312471E+02  0.00000000000E+00 0. -1.
        -15    1    1    2    0    0  0.16090571845E+02  0.17892696896E+02 -0.67011541221E+02  0.71223307213E+02  0.17770000000E+01 0.  1.
         15    1    1    2    0    0 -0.14563966099E+02 -0.88451238609E+01 -0.64817140953E+02  0.67043007204E+02  0.17770000000E+01 0. -1.
</event>
<event>
 6    1  0.1378789E-002  0.1879898E+03  0.7546771E-02  0.1064167E+00
        -11   -1    0    0    0    0  0.00000000000E+00  0.00000000000E+00  0.18250000000E+03  0.18250000000E+03  0.00000000000E+00 0.  1.
         11   -1    0    0    0    0 -0.00000000000E+00 -0.00000000000E+00 -0.18250000000E+03  0.18250000000E+03  0.00000000000E+00 0.  1.
        -11    1    1    2    0    0  0.66069818811E+01 -0.84517511742E+01  0.17668484804E+03  0.17701022522E+03  0.00000000000E+00 0.  1.
         11    1    1    2    0    0  0.31731027900E+01 -0.16709743644E+00 -0.16812948553E+03  0.16815950882E+03  0.00000000000E+00 0.  1.
        -15    1    1    2    0    0 -0.32425418995E+01 -0.84786849417E+00 -0.71638558591E+01  0.81062641656E+01  0.17770000000E+01 0. -1.
         15    1    1    2    0    0 -0.65375427715E+01  0.94667171048E+01 -0.13915066494E+01  0.11724001791E+02  0.17770000000E+01 0. -1.
</event>
<event>
 6    1  0.1378789E-002  0.1831168E+03  0.7546771E-02  0.1067965E+00
        -11   -1    0    0    0    0  0.00000000000E+00  0.00000000000E+00  0.18250000000E+03  0.18250000000E+03  0.00000000000E+00 0.  1.
         11   -1    0    0    0    0 -0.00000000000E+00 -0.00000000000E+00 -0.18250000000E+03  0.18250000000E+03  0.00000000000E+00 0. -1.
        -11    1    1    2    0    0 -0.30208612091E+01 -0.17058182483E+01  0.18185015372E+03  0.18188324229E+03  0.00000000000E+00 0.  1.
         11    1    1    2    0    0  0.51483836060E+00  0.13604188558E+01 -0.90892049890E+02  0.90903688215E+02  0.00000000000E+00 0. -1.
        -15    1    1    2    0    0 -0.38108501605E+01 -0.19606979867E+01 -0.69524733640E+02  0.69679360160E+02  0.17770000000E+01 0.  1.
         15    1    1    2    0    0  0.63168730089E+01  0.23060973792E+01 -0.21433370189E+02  0.22533709335E+02  0.17770000000E+01 0. -1.
</event>
<event>
 6    1  0.1378789E-002  0.1829091E+03  0.7546771E-02  0.1068130E+00
        -11   -1    0    0    0    0  0.00000000000E+00  0.00000000000E+00  0.18250000000E+03  0.18250000000E+03  0.00000000000E+00 0. -1.
         11   -1    0    0    0    0 -0.00000000000E+00 -0.00000000000E+00 -0.18250000000E+03  0.18250000000E+03  0.00000000000E+00 0. -1.
        -11    1    1    2    0    0  0.20005087155E+01 -0.81497090752E+00  0.78111668662E+02  0.78141531811E+02  0.00000000000E+00 0. -1.
         11    1    1    2    0    0  0.13184402625E+01  0.29987400068E+01 -0.18206138257E+03  0.18209085026E+03  0.00000000000E+00 0. -1.
        -15    1    1    2    0    0 -0.19505136993E+01  0.82905155620E+00  0.95269389546E+02  0.95309528085E+02  0.17770000000E+01 0. -1.
         15    1    1    2    0    0 -0.13684352788E+01 -0.30128206555E+01  0.86803243617E+01  0.94580898409E+01  0.17770000000E+01 0. -1.
</event>
<event>
 6    1  0.1378789E-002  0.1883431E+03  0.7546771E-02  0.1063897E+00
        -11   -1    0    0    0    0  0.00000000000E+00  0.00000000000E+00  0.18250000000E+03  0.18250000000E+03  0.00000000000E+00 0.  1.
         11   -1    0    0    0    0 -0.00000000000E+00 -0.00000000000E+00 -0.18250000000E+03  0.18250000000E+03  0.00000000000E+00 0.  1.
        -11    1    1    2    0    0 -0.58166548040E+01 -0.33980872938E+01  0.16044368877E+03  0.16058504829E+03  0.00000000000E+00 0.  1.
         11    1    1    2    0    0  0.23977891262E+01  0.14477637848E+01 -0.17663469996E+03  0.17665690658E+03  0.00000000000E+00 0.  1.
        -15    1    1    2    0    0  0.16335287406E+00 -0.57709106989E+00 -0.53943127704E+01  0.57110469731E+01  0.17770000000E+01 0. -1.
         15    1    1    2    0    0  0.32555128037E+01  0.25274145790E+01  0.21585323963E+02  0.22046998155E+02  0.17770000000E+01 0.  1.
</event>
<event>
 6    1  0.1378789E-002  0.1828877E+03  0.7546771E-02  0.1068147E+00
        -11   -1    0    0    0    0  0.00000000000E+00  0.00000000000E+00  0.18250000000E+03  0.18250000000E+03  0.00000000000E+00 0.  1.
         11   -1    0    0    0    0 -0.00000000000E+00 -0.00000000000E+00 -0.18250000000E+03  0.18250000000E+03  0.00000000000E+00 0.  1.
        -11    1    1    2    0    0  0.77309998781E+00  0.85576868143E+00  0.29882556674E+02  0.29904802574E+02  0.00000000000E+00 0.  1.
         11    1    1    2    0    0 -0.11379915159E+01  0.51096986247E+01 -0.18203704855E+03  0.18211230351E+03  0.00000000000E+00 0.  1.
        -15    1    1    2    0    0  0.26732374295E+01  0.41448577527E+01  0.41654540151E+02  0.41983145288E+02  0.17770000000E+01 0. -1.
         15    1    1    2    0    0 -0.23083459014E+01 -0.10110325059E+02  0.11049995173E+03  0.11099974862E+03  0.17770000000E+01 0.  1.
</event>
<event>
 6    1  0.1378789E-002  0.1862497E+03  0.7546771E-02  0.1065509E+00
        -11   -1    0    0    0    0  0.00000000000E+00  0.00000000000E+00  0.18250000000E+03  0.18250000000E+03  0.00000000000E+00 0. -1.
         11   -1    0    0    0    0 -0.00000000000E+00 -0.00000000000E+00 -0.18250000000E+03  0.18250000000E+03  0.00000000000E+00 0.  1.
        -11    1    1    2    0    0  0.12261369681E+00 -0.25491597228E+01  0.14323583485E+03  0.14325856915E+03  0.00000000000E+00 0. -1.
         11    1    1    2    0    0 -0.33020606430E+01 -0.23821934049E+00 -0.17871960796E+03  0.17875026887E+03  0.00000000000E+00 0.  1.
        -15    1    1    2    0    0  0.44664419092E+01  0.11166178724E+02  0.89965291326E+01  0.15123753372E+02  0.17770000000E+01 0. -1.
         15    1    1    2    0    0 -0.12869949630E+01 -0.83787996603E+01  0.26487243982E+02  0.27867408608E+02  0.17770000000E+01 0.  1.
</event>
<event>
 6    1  0.1378789E-002  0.1904066E+03  0.7546771E-02  0.1062330E+00
        -11   -1    0    0    0    0  0.00000000000E+00  0.00000000000E+00  0.18250000000E+03  0.18250000000E+03  0.00000000000E+00 0. -1.
         11   -1    0    0    0    0 -0.00000000000E+00 -0.00000000000E+00 -0.18250000000E+03  0.18250000000E+03  0.00000000000E+00 0.  1.
        -11    1    1    2    0    0  0.19713263302E+01  0.51795679618E+01  0.17450538392E+03  0.17459336491E+03  0.00000000000E+00 0. -1.
         11    1    1    2    0    0 -0.86526603915E+01  0.80581880357E+00 -0.13973262573E+03  0.14000258772E+03  0.00000000000E+00 0.  1.
        -15    1    1    2    0    0 -0.37718149285E+01 -0.84580273879E+01  0.39173703010E+01  0.10211186720E+02  0.17770000000E+01 0. -1.
         15    1    1    2    0    0  0.10453148990E+02  0.24726406226E+01 -0.38690128494E+02  0.40192860651E+02  0.17770000000E+01 0. -1.
</event>
<event>
 6    1  0.1378789E-002  0.1870588E+03  0.7546771E-02  0.1064883E+00
        -11   -1    0    0    0    0  0.00000000000E+00  0.00000000000E+00  0.18250000000E+03  0.18250000000E+03  0.00000000000E+00 0. -1.
         11   -1    0    0    0    0 -0.00000000000E+00 -0.00000000000E+00 -0.18250000000E+03  0.18250000000E+03  0.00000000000E+00 0. -1.
        -11    1    1    2    0    0  0.39126320928E+01  0.19595967696E-01  0.12251597844E+03  0.12257844038E+03  0.00000000000E+00 0. -1.
         11    1    1    2    0    0 -0.11662885804E+01  0.23124987076E+01 -0.17792235759E+03  0.17794120717E+03  0.00000000000E+00 0. -1.
        -15    1    1    2    0    0 -0.10109970753E+01  0.20474023973E+01  0.58499710214E+02  0.58571219859E+02  0.17770000000E+01 0.  1.
         15    1    1    2    0    0 -0.17353464371E+01 -0.43794970726E+01 -0.30933310642E+01  0.59091325877E+01  0.17770000000E+01 0.  1.
</event>
<event>
 6    1  0.1378789E-002  0.1838929E+03  0.7546771E-02  0.1067351E+00
        -11   -1    0    0    0    0  0.00000000000E+00  0.00000000000E+00  0.18250000000E+03  0.18250000000E+03  0.00000000000E+00 0.  1.
         11   -1    0    0    0    0 -0.00000000000E+00 -0.00000000000E+00 -0.18250000000E+03  0.18250000000E+03  0.00000000000E+00 0.  1.
        -11    1    1    2    0    0 -0.35008293330E+01 -0.19188469258E+01  0.16890332414E+03  0.16895049773E+03  0.00000000000E+00 0.  1.
         11    1    1    2    0    0  0.25615609244E+01 -0.22503080562E+01 -0.18107504056E+03  0.18110713899E+03  0.00000000000E+00 0.  1.
        -15    1    1    2    0    0 -0.13002256011E+01  0.37263032083E+01  0.11000415533E+02  0.11821285595E+02  0.17770000000E+01 0. -1.
         15    1    1    2    0    0  0.22394940097E+01  0.44285177369E+00  0.11713008861E+01  0.31210776791E+01  0.17770000000E+01 0. -1.
</event>
<event>
 6    1  0.1378789E-002  0.1884283E+03  0.7546771E-02  0.1063831E+00
        -11   -1    0    0    0    0  0.00000000000E+00  0.00000000000E+00  0.18250000000E+03  0.18250000000E+03  0.00000000000E+00 0. -1.
         11   -1    0    0    0    0 -0.00000000000E+00 -0.00000000000E+00 -0.18250000000E+03  0.18250000000E+03  0.00000000000E+00 0.  1.
        -11    1    1    2    0    0  0.47401889122E+01  0.68322407075E+01  0.17637575684E+03  0.17657167526E+03  0.00000000000E+00 0. -1.
         11    1    1    2    0    0  0.21589473246E+01 -0.18743381725E+01 -0.16288884555E+03  0.16291393496E+03  0.00000000000E+00 0.  1.
        -15    1    1    2    0    0  0.17410734645E+01  0.70679809672E+00 -0.14732101947E+02  0.14957388045E+02  0.17770000000E+01 0.  1.
         15    1    1    2    0    0 -0.86402097013E+01 -0.56647006318E+01  0.12451906652E+01  0.10557001739E+02  0.17770000000E+01 0. -1.
</event>
<event>
 6    1  0.1378789E-002  0.1828329E+03  0.7546771E-02  0.1068190E+00
        -11   -1    0    0    0    0  0.00000000000E+00  0.00000000000E+00  0.18250000000E+03  0.18250000000E+03  0.00000000000E+00 0. -1.
         11   -1    0    0    0    0 -0.00000000000E+00 -0.00000000000E+00 -0.18250000000E+03  0.18250000000E+03  0.00000000000E+00 0. -1.
        -11    1    1    2    0    0 -0.21842948353E+01 -0.16092227688E+01  0.18214693046E+03  0.18216713484E+03  0.00000000000E+00 0. -1.
         11    1    1    2    0    0 -0.16621937515E+01  0.15605841364E+01 -0.94945484316E+02  0.94972855611E+02  0.00000000000E+00 0. -1.
        -15    1    1    2    0    0  0.66293241296E+00  0.10525104318E+01 -0.38201948939E+01  0.43930485566E+01  0.17770000000E+01 0.  1.
         15    1    1    2    0    0  0.31835561738E+01 -0.10038717993E+01 -0.83381251247E+02  0.83466960990E+02  0.17770000000E+01 0. -1.
</event>
<event>
 6    1  0.1378789E-002  0.1848426E+03  0.7546771E-02  0.1066605E+00
        -11   -1    0    0    0    0  0.00000000000E+00  0.00000000000E+00  0.18250000000E+03  0.18250000000E+03  0.00000000000E+00 0. -1.
         11   -1    0    0    0    0 -0.00000000000E+00 -0.00000000000E+00 -0.18250000000E+03  0.18250000000E+03  0.00000000000E+00 0.  1.
        -11    1    1    2    0    0  0.13742166663E+02 -0.12958668863E+01  0.11679571632E+03  0.11760852760E+03  0.00000000000E+00 0. -1.
         11    1    1    2    0    0  0.20634884375E+01  0.19614939936E+01 -0.18013492220E+03  0.18015741905E+03  0.00000000000E+00 0.  1.
        -15    1    1    2    0    0 -0.12697970091E+02  0.64445699708E+01  0.45243671121E+02  0.47464917909E+02  0.17770000000E+01 0.  1.
         15    1    1    2    0    0 -0.31076850097E+01 -0.71101970781E+01  0.18095534762E+02  0.19769135437E+02  0.17770000000E+01 0.  1.
</event>
<event>
 6    1  0.1378789E-002  0.1790540E+03  0.7546771E-02  0.1071231E+00
        -11   -1    0    0    0    0  0.00000000000E+00  0.00000000000E+00  0.18250000000E+03  0.18250000000E+03  0.00000000000E+00 0.  1.
         11   -1    0    0    0    0 -0.00000000000E+00 -0.00000000000E+00 -0.18250000000E+03  0.18250000000E+03  0.00000000000E+00 0. -1.
        -11    1    1    2    0    0 -0.37490411540E+01 -0.12038975733E+01  0.17932733662E+03  0.17937056151E+03  0.00000000000E+00 0.  1.
         11    1    1    2    0    0 -0.84667890517E+00  0.23614008087E+01 -0.17875158422E+03  0.17876918621E+03  0.00000000000E+00 0. -1.
        -15    1    1    2    0    0  0.12425511087E+01 -0.10884319715E+01  0.11569372824E+01  0.26879081625E+01  0.17770000000E+01 0.  1.
         15    1    1    2    0    0  0.33531689504E+01 -0.69071263887E-01 -0.17326896852E+01  0.41723441127E+01  0.17770000000E+01 0. -1.
</event>
<event>
 6    1  0.1378789E-002  0.1835036E+03  0.7546771E-02  0.1067659E+00
        -11   -1    0    0    0    0  0.00000000000E+00  0.00000000000E+00  0.18250000000E+03  0.18250000000E+03  0.00000000000E+00 0.  1.
         11   -1    0    0    0    0 -0.00000000000E+00 -0.00000000000E+00 -0.18250000000E+03  0.18250000000E+03  0.00000000000E+00 0.  1.
        -11    1    1    2    0    0  0.27047320364E+01 -0.40838513026E+01  0.12250049513E+03  0.12259838793E+03  0.00000000000E+00 0.  1.
         11    1    1    2    0    0 -0.11899547860E+02 -0.99729318830E+00 -0.18110314806E+03  0.18149640236E+03  0.00000000000E+00 0.  1.
        -15    1    1    2    0    0  0.11141788151E+02  0.12164184760E+01  0.33485590064E+02  0.35356210035E+02  0.17770000000E+01 0.  1.
         15    1    1    2    0    0 -0.19469723268E+01  0.38647260149E+01  0.25117062865E+02  0.25548999675E+02  0.17770000000E+01 0. -1.
</event>
<event>
 6    1  0.1378789E-002  0.1831103E+03  0.7546771E-02  0.1067970E+00
        -11   -1    0    0    0    0  0.00000000000E+00  0.00000000000E+00  0.18250000000E+03  0.18250000000E+03  0.00000000000E+00 0. -1.
         11   -1    0    0    0    0 -0.00000000000E+00 -0.00000000000E+00 -0.18250000000E+03  0.18250000000E+03  0.00000000000E+00 0.  1.
        -11    1    1    2    0    0 -0.49227926054E+00 -0.24788867599E+01  0.18187218756E+03  0.18188974635E+03  0.00000000000E+00 0. -1.
         11    1    1    2    0    0 -0.11056037929E+01  0.28179270158E+01 -0.94789165684E+02  0.94837487332E+02  0.00000000000E+00 0.  1.
        -15    1    1    2    0    0  0.34229927699E+01 -0.32790770105E+01 -0.80253955111E+02  0.80413458237E+02  0.17770000000E+01 0. -1.
         15    1    1    2    0    0 -0.18251097165E+01  0.29400367547E+01 -0.68290667678E+01  0.78593080812E+01  0.17770000000E+01 0.  1.
</event>
<event>
 6    1  0.1378789E-002  0.1847526E+03  0.7546771E-02  0.1066676E+00
        -11   -1    0    0    0    0  0.00000000000E+00  0.00000000000E+00  0.18250000000E+03  0.18250000000E+03  0.00000000000E+00 0. -1.
         11   -1    0    0    0    0 -0.00000000000E+00 -0.00000000000E+00 -0.18250000000E+03  0.18250000000E+03  0.00000000000E+00 0.  1.
        -11    1    1    2    0    0  0.81925965248E+00  0.39840595575E+01  0.14615777825E+03  0.14621436338E+03  0.00000000000E+00 0. -1.
         11    1    1    2    0    0 -0.56086708854E+01 -0.33719562325E+01 -0.18012855254E+03  0.18024739309E+03  0.00000000000E+00 0.  1.
        -15    1    1    2    0    0 -0.49791522049E+01 -0.15342517231E+01  0.23267126469E+02  0.23909470679E+02  0.17770000000E+01 0. -1.
         15    1    1    2    0    0  0.97685634379E+01  0.92214839809E+00  0.10703647820E+02  0.14628772846E+02  0.17770000000E+01 0.  1.
</event>
<event>
 6    1  0.1378789E-002  0.1870005E+03  0.7546771E-02  0.1064928E+00
        -11   -1    0    0    0    0  0.00000000000E+00  0.00000000000E+00  0.18250000000E+03  0.18250000000E+03  0.00000000000E+00 0.  1.
         11   -1    0    0    0    0 -0.00000000000E+00 -0.00000000000E+00 -0.18250000000E+03  0.18250000000E+03  0.00000000000E+00 0.  1.
        -11    1    1    2    0    0 -0.22665653037E+01  0.30514462756E+01  0.17795890390E+03  0.17799949472E+03  0.00000000000E+00 0.  1.
         11    1    1    2    0    0  0.18748376704E+01  0.18643974986E+01 -0.16669941419E+03  0.16672038173E+03  0.00000000000E+00 0.  1.
        -15    1    1    2    0    0  0.98509467943E+00 -0.20732278104E+01  0.38331540706E+01  0.48082724767E+01  0.17770000000E+01 0. -1.
         15    1    1    2    0    0 -0.59336704620E+00 -0.28426159638E+01 -0.15092643785E+02  0.15471851066E+02  0.17770000000E+01 0. -1.
</event>
<event>
 6    1  0.1378789E-002  0.1958303E+03  0.7546771E-02  0.1058313E+00
        -11   -1    0    0    0    0  0.00000000000E+00  0.00000000000E+00  0.18250000000E+03  0.18250000000E+03  0.00000000000E+00 0. -1.
         11   -1    0    0    0    0 -0.00000000000E+00 -0.00000000000E+00 -0.18250000000E+03  0.18250000000E+03  0.00000000000E+00 0. -1.
        -11    1    1    2    0    0 -0.32590154625E+01 -0.12882003570E+02  0.94771856767E+02  0.95698861189E+02  0.00000000000E+00 0. -1.
         11    1    1    2    0    0 -0.23685913199E+01 -0.26771420146E+00 -0.16915289024E+03  0.16916968456E+03  0.00000000000E+00 0. -1.
        -15    1    1    2    0    0 -0.11976019060E+01  0.95964939749E+01  0.85737241885E+02  0.86299242882E+02  0.17770000000E+01 0. -1.
         15    1    1    2    0    0  0.68252086884E+01  0.35532237970E+01 -0.11356208409E+02  0.13832211371E+02  0.17770000000E+01 0.  1.
</event>
<event>
 6    1  0.1378789E-002  0.1900834E+03  0.7546771E-02  0.1062574E+00
        -11   -1    0    0    0    0  0.00000000000E+00  0.00000000000E+00  0.18250000000E+03  0.18250000000E+03  0.00000000000E+00 0.  1.
         11   -1    0    0    0    0 -0.00000000000E+00 -0.00000000000E+00 -0.18250000000E+03  0.18250000000E+03  0.00000000000E+00 0. -1.
        -11    1    1    2    0    0 -0.52308593658E+00 -0.45514666151E+01  0.17485658172E+03  0.17491659052E+03  0.00000000000E+00 0.  1.
         11    1    1    2    0    0  0.59470859593E+01 -0.44129581109E+01 -0.16649260932E+03  0.16665722603E+03  0.00000000000E+00 0. -1.
        -15    1    1    2    0    0 -0.48367332276E+01 -0.40308360166E+01 -0.79427108822E+01  0.10290092928E+02  0.17770000000E+01 0.  1.
         15    1    1    2    0    0 -0.58726679510E+00  0.12995260743E+02 -0.42126152242E+00  0.13136090527E+02  0.17770000000E+01 0. -1.
</event>
<event>
 6    1  0.1378789E-002  0.1826485E+03  0.7546771E-02  0.1068337E+00
        -11   -1    0    0    0    0  0.00000000000E+00  0.00000000000E+00  0.18250000000E+03  0.18250000000E+03  0.00000000000E+00 0.  1.
         11   -1    0    0    0    0 -0.00000000000E+00 -0.00000000000E+00 -0.18250000000E+03  0.18250000000E+03  0.00000000000E+00 0. -1.
        -11    1    1    2    0    0 -0.37521032798E+01 -0.32295436755E+01  0.18228428503E+03  0.18235149794E+03  0.00000000000E+00 0.  1.
         11    1    1    2    0    0 -0.16261457518E+01  0.30995680663E+00 -0.77909887906E+02  0.77927473055E+02  0.00000000000E+00 0. -1.
        -15    1    1    2    0    0  0.20287054598E+01  0.12207806313E+01 -0.74533580837E+02  0.74592347815E+02  0.17770000000E+01 0. -1.
         15    1    1    2    0    0  0.33495435718E+01  0.16988062376E+01 -0.29840816287E+02  0.30128681193E+02  0.17770000000E+01 0.  1.
</event>
<event>
 6    1  0.1378789E-002  0.1770530E+03  0.7546771E-02  0.1072875E+00
        -11   -1    0    0    0    0  0.00000000000E+00  0.00000000000E+00  0.18250000000E+03  0.18250000000E+03  0.00000000000E+00 0.  1.
         11   -1    0    0    0    0 -0.00000000000E+00 -0.00000000000E+00 -0.18250000000E+03  0.18250000000E+03  0.00000000000E+00 0.  1.
        -11    1    1    2    0    0 -0.16197754689E+01 -0.37251868295E+01  0.17662897214E+03  0.17667567600E+03  0.00000000000E+00 0.  1.
         11    1    1    2    0    0  0.22398762567E+01 -0.25380710038E+01 -0.17745490463E+03  0.17748718835E+03  0.00000000000E+00 0.  1.
        -15    1    1    2    0    0 -0.33135494987E+01  0.29805127732E+01  0.30904300790E+01  0.57071493536E+01  0.17770000000E+01 0.  1.
         15    1    1    2    0    0  0.26934487108E+01  0.32827450601E+01 -0.22644975942E+01  0.51299863003E+01  0.17770000000E+01 0. -1.
</event>
<event>
 6    1  0.1378789E-002  0.1853375E+03  0.7546771E-02  0.1066218E+00
        -11   -1    0    0    0    0  0.00000000000E+00  0.00000000000E+00  0.18250000000E+03  0.18250000000E+03  0.00000000000E+00 0. -1.
         11   -1    0    0    0    0 -0.00000000000E+00 -0.00000000000E+00 -0.18250000000E+03  0.18250000000E+03  0.00000000000E+00 0. -1.
        -11    1    1    2    0    0  0.33886319984E+01  0.34609353759E+00  0.17963022046E+03  0.17966251336E+03  0.00000000000E+00 0. -1.
         11    1    1    2    0    0  0.40725057182E+01 -0.22202244146E+01 -0.16321386325E+03  0.16327975949E+03  0.00000000000E+00 0. -1.
        -15    1    1    2    0    0 -0.62786736816E+01  0.37128647735E+01 -0.17497500599E+02  0.19040151371E+02  0.17770000000E+01 0. -1.
         15    1    1    2    0    0 -0.11824640351E+01 -0.18387338965E+01  0.10811433978E+01  0.30175757791E+01  0.17770000000E+01 0.  1.
</event>
<event>
 6    1  0.1378789E-002  0.1795124E+03  0.7546771E-02  0.1070858E+00
        -11   -1    0    0    0    0  0.00000000000E+00  0.00000000000E+00  0.18250000000E+03  0.18250000000E+03  0.00000000000E+00 0.  1.
         11   -1    0    0    0    0 -0.00000000000E+00 -0.00000000000E+00 -0.18250000000E+03  0.18250000000E+03  0.00000000000E+00 0.  1.
        -11    1    1    2    0    0 -0.80906126982E+00  0.40713149040E+01  0.18167607601E+03  0.18172348989E+03  0.00000000000E+00 0.  1.
         11    1    1    2    0    0 -0.85078082881E+00 -0.31505617827E+01 -0.57758406897E+01  0.66340186342E+01  0.00000000000E+00 0.  1.
        -15    1    1    2    0    0  0.41842758379E+01  0.64225805023E+01 -0.69369540641E+02  0.69814386786E+02  0.17770000000E+01 0.  1.
         15    1    1    2    0    0 -0.25244337393E+01 -0.73433336236E+01 -0.10653069468E+03  0.10682810469E+03  0.17770000000E+01 0. -1.
</event>
<event>
 6    1  0.1378789E-002  0.1828593E+03  0.7546771E-02  0.1068169E+00
        -11   -1    0    0    0    0  0.00000000000E+00  0.00000000000E+00  0.18250000000E+03  0.18250000000E+03  0.00000000000E+00 0. -1.
         11   -1    0    0    0    0 -0.00000000000E+00 -0.00000000000E+00 -0.18250000000E+03  0.18250000000E+03  0.00000000000E+00 0.  1.
        -11    1    1    2    0    0 -0.20033943470E+01  0.25176189550E+01  0.18211223159E+03  0.18214065139E+03  0.00000000000E+00 0. -1.
         11    1    1    2    0    0 -0.15330664048E+01  0.15921460662E+01 -0.14915024767E+03  0.14916662362E+03  0.00000000000E+00 0.  1.
        -15    1    1    2    0    0  0.26206465341E+01 -0.29126539575E+01 -0.15876592651E+02  0.16449172153E+02  0.17770000000E+01 0.  1.
         15    1    1    2    0    0  0.91581421765E+00 -0.11971110637E+01 -0.17085391270E+02  0.17243552836E+02  0.17770000000E+01 0.  1.
</event>
<event>
 6    1  0.1378789E-002  0.1839661E+03  0.7546771E-02  0.1067294E+00
        -11   -1    0    0    0    0  0.00000000000E+00  0.00000000000E+00  0.18250000000E+03  0.18250000000E+03  0.00000000000E+00 0.  1.
         11   -1    0    0    0    0 -0.00000000000E+00 -0.00000000000E+00 -0.18250000000E+03  0.18250000000E+03  0.00000000000E+00 0. -1.
        -11    1    1    2    0    0 -0.22210677389E+01 -0.12089613718E+01  0.16595330300E+03  0.16597256853E+03  0.00000000000E+00 0.  1.
         11    1    1    2    0    0 -0.24354977092E+01  0.31274253597E+01 -0.18099054126E+03  0.18103394285E+03  0.00000000000E+00 0. -1.
        -15    1    1    2    0    0  0.57504650375E+01 -0.36561614330E+01  0.12046342180E+02  0.13953761267E+02  0.17770000000E+01 0. -1.
         15    1    1    2    0    0 -0.10938995895E+01  0.17376974451E+01  0.29908960780E+01  0.40397273512E+01  0.17770000000E+01 0. -1.
</event>
<event>
 6    1  0.1378789E-002  0.1827460E+03  0.7546771E-02  0.1068259E+00
        -11   -1    0    0    0    0  0.00000000000E+00  0.00000000000E+00  0.18250000000E+03  0.18250000000E+03  0.00000000000E+00 0. -1.
         11   -1    0    0    0    0 -0.00000000000E+00 -0.00000000000E+00 -0.18250000000E+03  0.18250000000E+03  0.00000000000E+00 0.  1.
        -11    1    1    2    0    0  0.93865063734E+00  0.29588384423E+01  0.18222755004E+03  0.18225398701E+03  0.00000000000E+00 0. -1.
         11    1    1    2    0    0 -0.30915149215E+01 -0.23254135398E+00 -0.10914032663E+03  0.10918435069E+03  0.00000000000E+00 0.  1.
        -15    1    1    2    0    0  0.62844094132E+00 -0.38346139246E+01 -0.22134529802E+02  0.22543166160E+02  0.17770000000E+01 0.  1.
         15    1    1    2    0    0  0.15244233428E+01  0.11083168362E+01 -0.50952693609E+02  0.51018496134E+02  0.17770000000E+01 0.  1.
</event>
<event>
 6    1  0.1378789E-002  0.1237897E+03  0.7546771E-02  0.1128056E+00
        -11   -1    0    0    0    0  0.00000000000E+00  0.00000000000E+00  0.18250000000E+03  0.18250000000E+03  0.00000000000E+00 0. -1.
         11   -1    0    0    0    0 -0.00000000000E+00 -0.00000000000E+00 -0.18250000000E+03  0.18250000000E+03  0.00000000000E+00 0. -1.
        -11    1    1    2    0    0 -0.88658335881E+00 -0.78901440664E+00  0.60224530893E+02  0.60236224110E+02  0.00000000000E+00 0. -1.
         11    1    1    2    0    0 -0.26805779253E+02 -0.17299074281E+02 -0.44146575600E+02  0.54467677659E+02  0.00000000000E+00 0. -1.
        -15    1    1    2    0    0  0.84880313960E+02  0.23202809118E+02 -0.10958572897E+03  0.14055329158E+03  0.17770000000E+01 0. -1.
         15    1    1    2    0    0 -0.57187951349E+02 -0.51147204304E+01  0.93507773682E+02  0.10974280665E+03  0.17770000000E+01 0.  1.
</event>
<event>
 6    1  0.1378789E-002  0.1967139E+03  0.7546771E-02  0.1057672E+00
        -11   -1    0    0    0    0  0.00000000000E+00  0.00000000000E+00  0.18250000000E+03  0.18250000000E+03  0.00000000000E+00 0.  1.
         11   -1    0    0    0    0 -0.00000000000E+00 -0.00000000000E+00 -0.18250000000E+03  0.18250000000E+03  0.00000000000E+00 0.  1.
        -11    1    1    2    0    0 -0.23818822481E+01  0.32451811380E+01  0.16823791008E+03  0.16828606285E+03  0.00000000000E+00 0.  1.
         11    1    1    2    0    0  0.57568357223E+01  0.40595563024E+00 -0.14994256057E+03  0.15005358185E+03  0.00000000000E+00 0.  1.
        -15    1    1    2    0    0  0.26551658349E+01  0.80204716379E+00 -0.31338922790E+02  0.31511569239E+02  0.17770000000E+01 0. -1.
         15    1    1    2    0    0 -0.60301193091E+01 -0.44531839320E+01  0.13043573281E+02  0.15148786055E+02  0.17770000000E+01 0.  1.
</event>
<event>
 6    1  0.1378789E-002  0.1866442E+03  0.7546771E-02  0.1065203E+00
        -11   -1    0    0    0    0  0.00000000000E+00  0.00000000000E+00  0.18250000000E+03  0.18250000000E+03  0.00000000000E+00 0.  1.
         11   -1    0    0    0    0 -0.00000000000E+00 -0.00000000000E+00 -0.18250000000E+03  0.18250000000E+03  0.00000000000E+00 0.  1.
        -11    1    1    2    0    0  0.35352004041E+01 -0.25053662383E+00  0.17832059802E+03  0.17835581316E+03  0.00000000000E+00 0.  1.
         11    1    1    2    0    0 -0.19565991000E+01  0.15553308933E+01 -0.17682656737E+03  0.17684423164E+03  0.00000000000E+00 0.  1.
        -15    1    1    2    0    0  0.12130522666E+01 -0.25928535633E+01 -0.41645143137E+01  0.53567988456E+01  0.17770000000E+01 0. -1.
         15    1    1    2    0    0 -0.27916535708E+01  0.12880592939E+01  0.26704836654E+01  0.44431563568E+01  0.17770000000E+01 0. -1.
</event>
<event>
 6    1  0.1378789E-002  0.1835329E+03  0.7546771E-02  0.1067636E+00
        -11   -1    0    0    0    0  0.00000000000E+00  0.00000000000E+00  0.18250000000E+03  0.18250000000E+03  0.00000000000E+00 0. -1.
         11   -1    0    0    0    0 -0.00000000000E+00 -0.00000000000E+00 -0.18250000000E+03  0.18250000000E+03  0.00000000000E+00 0.  1.
        -11    1    1    2    0    0 -0.68943320651E+00  0.55670851363E+00  0.37483225467E+02  0.37493698589E+02  0.00000000000E+00 0. -1.
         11    1    1    2    0    0  0.28444766856E+01  0.46413610347E+01 -0.18138540969E+03  0.18146707726E+03  0.00000000000E+00 0.  1.
        -15    1    1    2    0    0  0.24676189011E+01 -0.95750065057E+01  0.24852885578E+02  0.26806595143E+02  0.17770000000E+01 0.  1.
         15    1    1    2    0    0 -0.46226623802E+01  0.43769369573E+01  0.11904929864E+03  0.11923262901E+03  0.17770000000E+01 0. -1.
</event>
<event>
 6    1  0.1378789E-002  0.1842064E+03  0.7546771E-02  0.1067105E+00
        -11   -1    0    0    0    0  0.00000000000E+00  0.00000000000E+00  0.18250000000E+03  0.18250000000E+03  0.00000000000E+00 0.  1.
         11   -1    0    0    0    0 -0.00000000000E+00 -0.00000000000E+00 -0.18250000000E+03  0.18250000000E+03  0.00000000000E+00 0. -1.
        -11    1    1    2    0    0  0.27600116977E+01 -0.98727079226E+00  0.18076981503E+03  0.18079357951E+03  0.00000000000E+00 0.  1.
         11    1    1    2    0    0 -0.52858147225E+01  0.54272958938E+00 -0.17588049574E+03  0.17596074328E+03  0.00000000000E+00 0. -1.
        -15    1    1    2    0    0 -0.11352674674E+01 -0.98055885860E+00 -0.16092704233E+01  0.28280396378E+01  0.17770000000E+01 0.  1.
         15    1    1    2    0    0  0.36610704922E+01  0.14251000615E+01 -0.32800488593E+01  0.54176375712E+01  0.17770000000E+01 0. -1.
</event>
<event>
 6    1  0.1378789E-002  0.1943572E+03  0.7546771E-02  0.1059390E+00
        -11   -1    0    0    0    0  0.00000000000E+00  0.00000000000E+00  0.18250000000E+03  0.18250000000E+03  0.00000000000E+00 0. -1.
         11   -1    0    0    0    0 -0.00000000000E+00 -0.00000000000E+00 -0.18250000000E+03  0.18250000000E+03  0.00000000000E+00 0. -1.
        -11    1    1    2    0    0  0.49076437500E+00 -0.34106789394E+01  0.17060802602E+03  0.17064282031E+03  0.00000000000E+00 0. -1.
         11    1    1    2    0    0 -0.71311901635E-01 -0.33990858170E+01 -0.15304466188E+03  0.15308242028E+03  0.00000000000E+00 0. -1.
        -15    1    1    2    0    0 -0.89583451625E+01  0.67462745423E+01  0.82451473477E+01  0.14032261116E+02  0.17770000000E+01 0. -1.
         15    1    1    2    0    0  0.85388926891E+01  0.63490214136E-01 -0.25808511487E+02  0.27242498299E+02  0.17770000000E+01 0.  1.
</event>
<event>
 6    1  0.1378789E-002  0.1827150E+03  0.7546771E-02  0.1068284E+00
        -11   -1    0    0    0    0  0.00000000000E+00  0.00000000000E+00  0.18250000000E+03  0.18250000000E+03  0.00000000000E+00 0.  1.
         11   -1    0    0    0    0 -0.00000000000E+00 -0.00000000000E+00 -0.18250000000E+03  0.18250000000E+03  0.00000000000E+00 0. -1.
        -11    1    1    2    0    0 -0.35043206087E+01  0.14756006207E+01  0.18224530895E+03  0.18228497002E+03  0.00000000000E+00 0.  1.
         11    1    1    2    0    0  0.31050707371E+01  0.23781786260E+01 -0.10355954625E+03  0.10363337695E+03  0.00000000000E+00 0. -1.
        -15    1    1    2    0    0 -0.17292601328E+01 -0.56819930179E+00 -0.12489214351E+02  0.12745642203E+02  0.17770000000E+01 0. -1.
         15    1    1    2    0    0  0.21285100044E+01 -0.32855799448E+01 -0.66196548349E+02  0.66336010829E+02  0.17770000000E+01 0. -1.
</event>
<event>
 6    1  0.1378789E-002  0.1835104E+03  0.7546771E-02  0.1067653E+00
        -11   -1    0    0    0    0  0.00000000000E+00  0.00000000000E+00  0.18250000000E+03  0.18250000000E+03  0.00000000000E+00 0.  1.
         11   -1    0    0    0    0 -0.00000000000E+00 -0.00000000000E+00 -0.18250000000E+03  0.18250000000E+03  0.00000000000E+00 0.  1.
        -11    1    1    2    0    0 -0.42889545413E+01 -0.67416795025E+00  0.18143764273E+03  0.18148958051E+03  0.00000000000E+00 0.  1.
         11    1    1    2    0    0 -0.82737161158E+00 -0.23986857592E+01 -0.74497765167E+02  0.74540963584E+02  0.00000000000E+00 0.  1.
        -15    1    1    2    0    0  0.10300791834E+01 -0.41927085974E+00 -0.99961487842E+02  0.99983466792E+02  0.17770000000E+01 0.  1.
         15    1    1    2    0    0  0.40862469695E+01  0.34921245692E+01 -0.69783897206E+01  0.89859891161E+01  0.17770000000E+01 0. -1.
</event>
<event>
 6    1  0.1378789E-002  0.1917468E+03  0.7546771E-02  0.1061324E+00
        -11   -1    0    0    0    0  0.00000000000E+00  0.00000000000E+00  0.18250000000E+03  0.18250000000E+03  0.00000000000E+00 0. -1.
         11   -1    0    0    0    0 -0.00000000000E+00 -0.00000000000E+00 -0.18250000000E+03  0.18250000000E+03  0.00000000000E+00 0. -1.
        -11    1    1    2    0    0 -0.26995269379E-01  0.69338556497E+00  0.36370522508E+02  0.36377141446E+02  0.00000000000E+00 0. -1.
         11    1    1    2    0    0  0.80008634780E+01 -0.94035783436E+01 -0.17281265721E+03  0.17325315464E+03  0.00000000000E+00 0. -1.
        -15    1    1    2    0    0 -0.26277035141E+01  0.11347041900E+02 -0.57021368414E+01  0.13089395677E+02  0.17770000000E+01 0.  1.
         15    1    1    2    0    0 -0.53461646945E+01 -0.26368491215E+01  0.14214427154E+03  0.14228030823E+03  0.17770000000E+01 0. -1.
</event>
<event>
 6    1  0.1378789E-002  0.1845333E+03  0.7546771E-02  0.1066848E+00
        -11   -1    0    0    0    0  0.00000000000E+00  0.00000000000E+00  0.18250000000E+03  0.18250000000E+03  0.00000000000E+00 0.  1.
         11   -1    0    0    0    0 -0.00000000000E+00 -0.00000000000E+00 -0.18250000000E+03  0.18250000000E+03  0.00000000000E+00 0. -1.
        -11    1    1    2    0    0 -0.11923980431E+01 -0.21751438568E+01  0.18044967456E+03  0.18046672300E+03  0.00000000000E+00 0.  1.
         11    1    1    2    0    0 -0.85201154431E+01  0.51586460676E+01 -0.11482326512E+03  0.11525444117E+03  0.00000000000E+00 0. -1.
        -15    1    1    2    0    0 -0.30063531500E+00 -0.63283114354E+01 -0.67106320897E+01  0.93983093830E+01  0.17770000000E+01 0.  1.
         15    1    1    2    0    0  0.10013148801E+02  0.33448092245E+01 -0.58915777346E+02  0.59880526442E+02  0.17770000000E+01 0. -1.
</event>
<event>
 6    1  0.1378789E-002  0.1832326E+03  0.7546771E-02  0.1067873E+00
        -11   -1    0    0    0    0  0.00000000000E+00  0.00000000000E+00  0.18250000000E+03  0.18250000000E+03  0.00000000000E+00 0.  1.
         11   -1    0    0    0    0 -0.00000000000E+00 -0.00000000000E+00 -0.18250000000E+03  0.18250000000E+03  0.00000000000E+00 0. -1.
        -11    1    1    2    0    0  0.14112293945E+01 -0.26559097838E+01  0.54713114468E+02  0.54795714431E+02  0.00000000000E+00 0.  1.
         11    1    1    2    0    0 -0.32050790918E+01  0.44331975908E+01 -0.18168504212E+03  0.18176737965E+03  0.00000000000E+00 0. -1.
        -15    1    1    2    0    0  0.25490596484E+01  0.53562189922E+01  0.10636132608E+03  0.10654142950E+03  0.17770000000E+01 0.  1.
         15    1    1    2    0    0 -0.75520995104E+00 -0.71335067992E+01  0.20610601576E+02  0.21895476420E+02  0.17770000000E+01 0. -1.
</event>
<event>
 6    1  0.1378789E-002  0.1888614E+03  0.7546771E-02  0.1063501E+00
        -11   -1    0    0    0    0  0.00000000000E+00  0.00000000000E+00  0.18250000000E+03  0.18250000000E+03  0.00000000000E+00 0.  1.
         11   -1    0    0    0    0 -0.00000000000E+00 -0.00000000000E+00 -0.18250000000E+03  0.18250000000E+03  0.00000000000E+00 0. -1.
        -11    1    1    2    0    0  0.27235632026E+01  0.75181507640E+01  0.17595696767E+03  0.17613856721E+03  0.00000000000E+00 0.  1.
         11    1    1    2    0    0 -0.11666280338E+01  0.40596879010E+01 -0.13162023405E+03  0.13168799527E+03  0.00000000000E+00 0. -1.
        -15    1    1    2    0    0  0.29847347126E+01  0.44783431556E+00 -0.44054408511E+02  0.44193413934E+02  0.17770000000E+01 0.  1.
         15    1    1    2    0    0 -0.45416698814E+01 -0.12025672981E+02 -0.28232510851E+00  0.12980023591E+02  0.17770000000E+01 0. -1.
</event>
<event>
 6    1  0.1378789E-002  0.1723372E+03  0.7546771E-02  0.1076845E+00
        -11   -1    0    0    0    0  0.00000000000E+00  0.00000000000E+00  0.18250000000E+03  0.18250000000E+03  0.00000000000E+00 0.  1.
         11   -1    0    0    0    0 -0.00000000000E+00 -0.00000000000E+00 -0.18250000000E+03  0.18250000000E+03  0.00000000000E+00 0.  1.
        -11    1    1    2    0    0  0.11067402781E+02 -0.11612444168E+00  0.17479244057E+03  0.17514250818E+03  0.00000000000E+00 0.  1.
         11    1    1    2    0    0 -0.61275805703E+00  0.27194564962E+01 -0.16971463746E+03  0.16973752998E+03  0.00000000000E+00 0.  1.
        -15    1    1    2    0    0  0.19879320499E+01  0.36063549046E+01  0.13693795595E+01  0.46894134933E+01  0.17770000000E+01 0. -1.
         15    1    1    2    0    0 -0.12442576774E+02 -0.62096869592E+01 -0.64471826766E+01  0.15430548350E+02  0.17770000000E+01 0.  1.
</event>
<event>
 6    1  0.1378789E-002  0.1841764E+03  0.7546771E-02  0.1067128E+00
        -11   -1    0    0    0    0  0.00000000000E+00  0.00000000000E+00  0.18250000000E+03  0.18250000000E+03  0.00000000000E+00 0.  1.
         11   -1    0    0    0    0 -0.00000000000E+00 -0.00000000000E+00 -0.18250000000E+03  0.18250000000E+03  0.00000000000E+00 0.  1.
        -11    1    1    2    0    0  0.21329877109E+01 -0.26917212058E+01  0.17415596372E+03  0.17418982375E+03  0.00000000000E+00 0.  1.
         11    1    1    2    0    0  0.32208170200E+01  0.15930857198E+01 -0.18078784757E+03  0.18082355326E+03  0.00000000000E+00 0.  1.
        -15    1    1    2    0    0 -0.74074657146E+00 -0.26736541136E+00  0.52808466156E+00  0.20141479976E+01  0.17770000000E+01 0. -1.
         15    1    1    2    0    0 -0.46130581594E+01  0.13660008973E+01  0.61037991842E+01  0.79724749930E+01  0.17770000000E+01 0.  1.
</event>
<event>
 6    1  0.1378789E-002  0.1849754E+03  0.7546771E-02  0.1066501E+00
        -11   -1    0    0    0    0  0.00000000000E+00  0.00000000000E+00  0.18250000000E+03  0.18250000000E+03  0.00000000000E+00 0.  1.
         11   -1    0    0    0    0 -0.00000000000E+00 -0.00000000000E+00 -0.18250000000E+03  0.18250000000E+03  0.00000000000E+00 0.  1.
        -11    1    1    2    0    0 -0.27473516194E+01  0.35587638588E+01  0.17382813385E+03  0.17388626415E+03  0.00000000000E+00 0.  1.
         11    1    1    2    0    0  0.55126472716E+00  0.30593164686E+01 -0.17999775046E+03  0.18002459132E+03  0.00000000000E+00 0.  1.
        -15    1    1    2    0    0 -0.86279072900E+00 -0.48618264914E+01  0.31849872315E+01  0.61386999715E+01  0.17770000000E+01 0.  1.
         15    1    1    2    0    0  0.30588776212E+01 -0.17562538360E+01  0.29846293762E+01  0.49504445610E+01  0.17770000000E+01 0. -1.
</event>
<event>
 6    1  0.1378789E-002  0.1861706E+03  0.7546771E-02  0.1065570E+00
        -11   -1    0    0    0    0  0.00000000000E+00  0.00000000000E+00  0.18250000000E+03  0.18250000000E+03  0.00000000000E+00 0. -1.
         11   -1    0    0    0    0 -0.00000000000E+00 -0.00000000000E+00 -0.18250000000E+03  0.18250000000E+03  0.00000000000E+00 0.  1.
        -11    1    1    2    0    0 -0.69123523529E+01 -0.87062818039E+01  0.17848357056E+03  0.17882942967E+03  0.00000000000E+00 0. -1.
         11    1    1    2    0    0  0.94108753969E+00  0.23571630606E+01 -0.13335445800E+03  0.13337860897E+03  0.00000000000E+00 0.  1.
        -15    1    1    2    0    0  0.80364062739E+01  0.44005206184E+01 -0.20152265423E+01  0.95481555564E+01  0.17770000000E+01 0.  1.
         15    1    1    2    0    0 -0.20651414606E+01  0.19485981248E+01 -0.43113886017E+02  0.43243805804E+02  0.17770000000E+01 0. -1.
</event>
<event>
 6    1  0.1378789E-002  0.2222617E+03  0.7546771E-02  0.1040583E+00
        -11   -1    0    0    0    0  0.00000000000E+00  0.00000000000E+00  0.18250000000E+03  0.18250000000E+03  0.00000000000E+00 0. -1.
         11   -1    0    0    0    0 -0.00000000000E+00 -0.00000000000E+00 -0.18250000000E+03  0.18250000000E+03  0.00000000000E+00 0.  1.
        -11    1    1    2    0    0  0.56291768724E-01  0.35379259731E+01  0.92488742746E+02  0.92556402392E+02  0.00000000000E+00 0. -1.
         11    1    1    2    0    0 -0.39731206772E+01  0.93332839134E+01 -0.14237738296E+03  0.14273827467E+03  0.00000000000E+00 0.  1.
        -15    1    1    2    0    0 -0.16953069776E+02 -0.67459225540E+01 -0.36370028753E+02  0.40728991719E+02  0.17770000000E+01 0.  1.
         15    1    1    2    0    0  0.20869898685E+02 -0.61252873325E+01  0.86258668969E+02  0.88976331220E+02  0.17770000000E+01 0. -1.
</event>
<event>
 6    1  0.1378789E-002  0.1817592E+03  0.7546771E-02  0.1069046E+00
        -11   -1    0    0    0    0  0.00000000000E+00  0.00000000000E+00  0.18250000000E+03  0.18250000000E+03  0.00000000000E+00 0. -1.
         11   -1    0    0    0    0 -0.00000000000E+00 -0.00000000000E+00 -0.18250000000E+03  0.18250000000E+03  0.00000000000E+00 0.  1.
        -11    1    1    2    0    0  0.59949210794E+00 -0.64614705053E+00  0.28800201371E+01  0.30118786145E+01  0.00000000000E+00 0. -1.
         11    1    1    2    0    0  0.13474956196E+01  0.22661225819E+01 -0.18163798946E+03  0.18165712282E+03  0.00000000000E+00 0.  1.
        -15    1    1    2    0    0 -0.30350923871E+01 -0.75668326845E+01  0.16486229964E+03  0.16507333011E+03  0.17770000000E+01 0. -1.
         15    1    1    2    0    0  0.10881046596E+01  0.59468571531E+01  0.13895669682E+02  0.15257668454E+02  0.17770000000E+01 0.  1.
</event>
<event>
 6    1  0.1378789E-002  0.1827297E+03  0.7546771E-02  0.1068272E+00
        -11   -1    0    0    0    0  0.00000000000E+00  0.00000000000E+00  0.18250000000E+03  0.18250000000E+03  0.00000000000E+00 0. -1.
         11   -1    0    0    0    0 -0.00000000000E+00 -0.00000000000E+00 -0.18250000000E+03  0.18250000000E+03  0.00000000000E+00 0. -1.
        -11    1    1    2    0    0  0.15169982487E+01 -0.35932230815E+01  0.18222860960E+03  0.18227034507E+03  0.00000000000E+00 0. -1.
         11    1    1    2    0    0 -0.93353878698E+00 -0.16991053181E+01 -0.12391673827E+03  0.12393190258E+03  0.00000000000E+00 0. -1.
        -15    1    1    2    0    0 -0.69102624878E+00  0.30441297076E+01 -0.46664851263E+02  0.46802887896E+02  0.17770000000E+01 0.  1.
         15    1    1    2    0    0  0.10756678708E+00  0.22481986919E+01 -0.11647020066E+02  0.11994864459E+02  0.17770000000E+01 0. -1.
</event>
<event>
 6    1  0.1378789E-002  0.1829362E+03  0.7546771E-02  0.1068108E+00
        -11   -1    0    0    0    0  0.00000000000E+00  0.00000000000E+00  0.18250000000E+03  0.18250000000E+03  0.00000000000E+00 0.  1.
         11   -1    0    0    0    0 -0.00000000000E+00 -0.00000000000E+00 -0.18250000000E+03  0.18250000000E+03  0.00000000000E+00 0. -1.
        -11    1    1    2    0    0  0.30649057054E+01 -0.14308020909E+00  0.18203792532E+03  0.18206378106E+03  0.00000000000E+00 0.  1.
         11    1    1    2    0    0  0.12466637221E+01  0.61234004105E+00 -0.61723178341E+02  0.61738803643E+02  0.00000000000E+00 0. -1.
        -15    1    1    2    0    0 -0.88858180803E+00 -0.65859464650E+01 -0.43187534701E+02  0.43731969439E+02  0.17770000000E+01 0.  1.
         15    1    1    2    0    0 -0.34229876196E+01  0.61166866330E+01 -0.77127212277E+02  0.77465445860E+02  0.17770000000E+01 0. -1.
</event>
<event>
 6    1  0.1378789E-002  0.1859893E+03  0.7546771E-02  0.1065711E+00
        -11   -1    0    0    0    0  0.00000000000E+00  0.00000000000E+00  0.18250000000E+03  0.18250000000E+03  0.00000000000E+00 0. -1.
         11   -1    0    0    0    0 -0.00000000000E+00 -0.00000000000E+00 -0.18250000000E+03  0.18250000000E+03  0.00000000000E+00 0.  1.
        -11    1    1    2    0    0  0.62719675407E+01  0.33721920395E+01  0.17886896098E+03  0.17901065459E+03  0.00000000000E+00 0. -1.
         11    1    1    2    0    0  0.11404941040E+01 -0.47272342354E+01 -0.14463447910E+03  0.14471620509E+03  0.00000000000E+00 0.  1.
        -15    1    1    2    0    0 -0.10178734340E+02 -0.72951609342E+01 -0.25881425156E+02  0.28806803067E+02  0.17770000000E+01 0. -1.
         15    1    1    2    0    0  0.27662726952E+01  0.86502031301E+01 -0.83530567218E+01  0.12466337249E+02  0.17770000000E+01 0. -1.
</event>
<event>
 6    1  0.1378789E-002  0.1714276E+03  0.7546771E-02  0.1077627E+00
        -11   -1    0    0    0    0  0.00000000000E+00  0.00000000000E+00  0.18250000000E+03  0.18250000000E+03  0.00000000000E+00 0.  1.
         11   -1    0    0    0    0 -0.00000000000E+00 -0.00000000000E+00 -0.18250000000E+03  0.18250000000E+03  0.00000000000E+00 0.  1.
        -11    1    1    2    0    0  0.21694567589E+01  0.54456377066E+01  0.17003253817E+03  0.17013355209E+03  0.00000000000E+00 0.  1.
         11    1    1    2    0    0  0.68079301648E+01  0.47681516883E+01 -0.17280258285E+03  0.17300235786E+03  0.00000000000E+00 0.  1.
        -15    1    1    2    0    0 -0.99238827042E+00 -0.98438524982E+01 -0.44066806971E+01  0.10975556034E+02  0.17770000000E+01 0. -1.
         15    1    1    2    0    0 -0.79849986533E+01 -0.36993689661E+00  0.71767253819E+01  0.10888534016E+02  0.17770000000E+01 0.  1.
</event>
<event>
 6    1  0.1378789E-002  0.1788930E+03  0.7546771E-02  0.1071363E+00
        -11   -1    0    0    0    0  0.00000000000E+00  0.00000000000E+00  0.18250000000E+03  0.18250000000E+03  0.00000000000E+00 0.  1.
         11   -1    0    0    0    0 -0.00000000000E+00 -0.00000000000E+00 -0.18250000000E+03  0.18250000000E+03  0.00000000000E+00 0. -1.
        -11    1    1    2    0    0  0.25023658795E+01  0.27884375022E+01  0.17883555959E+03  0.17887480145E+03  0.00000000000E+00 0.  1.
         11    1    1    2    0    0 -0.52023509261E+01 -0.22595373980E+01 -0.17883188801E+03  0.17892181011E+03  0.00000000000E+00 0. -1.
        -15    1    1    2    0    0  0.40814537119E+01  0.86724966580E+00  0.25337802156E+00  0.45422809036E+01  0.17770000000E+01 0. -1.
         15    1    1    2    0    0 -0.13814686653E+01 -0.13961497700E+01 -0.25704960639E+00  0.26611075427E+01  0.17770000000E+01 0.  1.
</event>
<event>
 6    1  0.1378789E-002  0.1898939E+03  0.7546771E-02  0.1062717E+00
        -11   -1    0    0    0    0  0.00000000000E+00  0.00000000000E+00  0.18250000000E+03  0.18250000000E+03  0.00000000000E+00 0.  1.
         11   -1    0    0    0    0 -0.00000000000E+00 -0.00000000000E+00 -0.18250000000E+03  0.18250000000E+03  0.00000000000E+00 0. -1.
        -11    1    1    2    0    0  0.29281090367E+01  0.50830974169E+00  0.15083223110E+03  0.15086150648E+03  0.00000000000E+00 0.  1.
         11    1    1    2    0    0  0.81508826487E+00  0.96218193594E+01 -0.17483968347E+03  0.17510613551E+03  0.00000000000E+00 0. -1.
        -15    1    1    2    0    0  0.38026518016E+01 -0.62178546127E+01 -0.48256777387E+01  0.89200208154E+01  0.17770000000E+01 0. -1.
         15    1    1    2    0    0 -0.75458491032E+01 -0.39122744884E+01  0.28833130110E+02  0.30112337194E+02  0.17770000000E+01 0. -1.
</event>
<event>
 6    1  0.1378789E-002  0.1760658E+03  0.7546771E-02  0.1073695E+00
        -11   -1    0    0    0    0  0.00000000000E+00  0.00000000000E+00  0.18250000000E+03  0.18250000000E+03  0.00000000000E+00 0.  1.
         11   -1    0    0    0    0 -0.00000000000E+00 -0.00000000000E+00 -0.18250000000E+03  0.18250000000E+03  0.00000000000E+00 0. -1.
        -11    1    1    2    0    0  0.24591808392E+01 -0.10361383803E+01  0.17703619452E+03  0.17705630551E+03  0.00000000000E+00 0.  1.
         11    1    1    2    0    0 -0.11259517432E+01 -0.22404639723E+01 -0.17508062661E+03  0.17509858155E+03  0.00000000000E+00 0. -1.
        -15    1    1    2    0    0 -0.49230630408E+01 -0.23130126108E+01 -0.10261380668E+00  0.57231840469E+01  0.17770000000E+01 0. -1.
         15    1    1    2    0    0  0.35898339449E+01  0.55896149634E+01 -0.18529540949E+01  0.71219288868E+01  0.17770000000E+01 0. -1.
</event>
<event>
 6    1  0.1378789E-002  0.1868860E+03  0.7546771E-02  0.1065016E+00
        -11   -1    0    0    0    0  0.00000000000E+00  0.00000000000E+00  0.18250000000E+03  0.18250000000E+03  0.00000000000E+00 0.  1.
         11   -1    0    0    0    0 -0.00000000000E+00 -0.00000000000E+00 -0.18250000000E+03  0.18250000000E+03  0.00000000000E+00 0. -1.
        -11    1    1    2    0    0 -0.39599384475E+01 -0.21706380839E+01  0.17261436553E+03  0.17267342578E+03  0.00000000000E+00 0.  1.
         11    1    1    2    0    0 -0.27527243639E+01  0.64079941392E+00 -0.17809158564E+03  0.17811401121E+03  0.00000000000E+00 0. -1.
        -15    1    1    2    0    0  0.19838633001E+01  0.20524114841E+00  0.79844633489E+01  0.84194549404E+01  0.17770000000E+01 0. -1.
         15    1    1    2    0    0  0.47287995112E+01  0.13245975216E+01 -0.25072432413E+01  0.57931080676E+01  0.17770000000E+01 0.  1.
</event>
<event>
 6    1  0.1378789E-002  0.1836185E+03  0.7546771E-02  0.1067568E+00
        -11   -1    0    0    0    0  0.00000000000E+00  0.00000000000E+00  0.18250000000E+03  0.18250000000E+03  0.00000000000E+00 0. -1.
         11   -1    0    0    0    0 -0.00000000000E+00 -0.00000000000E+00 -0.18250000000E+03  0.18250000000E+03  0.00000000000E+00 0. -1.
        -11    1    1    2    0    0  0.15786109294E+01  0.52035098378E+01  0.52528317399E+02  0.52809020592E+02  0.00000000000E+00 0. -1.
         11    1    1    2    0    0 -0.30373431491E+01 -0.56894556954E+01 -0.18126683358E+03  0.18138153245E+03  0.00000000000E+00 0. -1.
        -15    1    1    2    0    0 -0.45646876595E+01 -0.39293196836E+01  0.11416535538E+03  0.11433792908E+03  0.17770000000E+01 0. -1.
         15    1    1    2    0    0  0.60234198792E+01  0.44152655412E+01  0.14573160792E+02  0.16471517881E+02  0.17770000000E+01 0.  1.
</event>
<event>
 6    1  0.1378789E-002  0.1844928E+03  0.7546771E-02  0.1066880E+00
        -11   -1    0    0    0    0  0.00000000000E+00  0.00000000000E+00  0.18250000000E+03  0.18250000000E+03  0.00000000000E+00 0. -1.
         11   -1    0    0    0    0 -0.00000000000E+00 -0.00000000000E+00 -0.18250000000E+03  0.18250000000E+03  0.00000000000E+00 0.  1.
        -11    1    1    2    0    0  0.68266101116E+01 -0.10099764745E+01  0.15122877331E+03  0.15138614380E+03  0.00000000000E+00 0. -1.
         11    1    1    2    0    0  0.24449186340E+01  0.99958061558E-01 -0.18049060004E+03  0.18050718635E+03  0.00000000000E+00 0.  1.
        -15    1    1    2    0    0  0.79875407023E+00 -0.13382966012E+01  0.39074367141E+00  0.23957160671E+01  0.17770000000E+01 0.  1.
         15    1    1    2    0    0 -0.10070282816E+02  0.22483150141E+01  0.28871083058E+02  0.30710953784E+02  0.17770000000E+01 0. -1.
</event>
<event>
 6    1  0.1378789E-002  0.1838810E+03  0.7546771E-02  0.1067361E+00
        -11   -1    0    0    0    0  0.00000000000E+00  0.00000000000E+00  0.18250000000E+03  0.18250000000E+03  0.00000000000E+00 0. -1.
         11   -1    0    0    0    0 -0.00000000000E+00 -0.00000000000E+00 -0.18250000000E+03  0.18250000000E+03  0.00000000000E+00 0. -1.
        -11    1    1    2    0    0  0.19335721328E+01 -0.19328920467E+01  0.15582998448E+03  0.15585396638E+03  0.00000000000E+00 0. -1.
         11    1    1    2    0    0  0.12943463814E+01 -0.24619206319E+01 -0.18109768705E+03  0.18111904550E+03  0.00000000000E+00 0. -1.
        -15    1    1    2    0    0 -0.65379513928E+01  0.34768349041E+01  0.20616623712E+02  0.21978082074E+02  0.17770000000E+01 0.  1.
         15    1    1    2    0    0  0.33100328786E+01  0.91797777444E+00  0.46510788555E+01  0.60489060476E+01  0.17770000000E+01 0. -1.
</event>
<event>
 6    1  0.1378789E-002  0.1853599E+03  0.7546771E-02  0.1066201E+00
        -11   -1    0    0    0    0  0.00000000000E+00  0.00000000000E+00  0.18250000000E+03  0.18250000000E+03  0.00000000000E+00 0.  1.
         11   -1    0    0    0    0 -0.00000000000E+00 -0.00000000000E+00 -0.18250000000E+03  0.18250000000E+03  0.00000000000E+00 0. -1.
        -11    1    1    2    0    0 -0.20114100374E+01 -0.13474911180E+01  0.16326014405E+03  0.16327809448E+03  0.00000000000E+00 0.  1.
         11    1    1    2    0    0  0.26199047844E+01 -0.38599871513E+01 -0.17957954056E+03  0.17964012578E+03  0.00000000000E+00 0. -1.
        -15    1    1    2    0    0  0.35880030796E+01  0.82613705546E+00 -0.49511031957E+00  0.41181466416E+01  0.17770000000E+01 0. -1.
         15    1    1    2    0    0 -0.41964978266E+01  0.43813412138E+01  0.16814506833E+02  0.17963633092E+02  0.17770000000E+01 0. -1.
</event>
<event>
 6    1  0.1378789E-002  0.1835860E+03  0.7546771E-02  0.1067594E+00
        -11   -1    0    0    0    0  0.00000000000E+00  0.00000000000E+00  0.18250000000E+03  0.18250000000E+03  0.00000000000E+00 0. -1.
         11   -1    0    0    0    0 -0.00000000000E+00 -0.00000000000E+00 -0.18250000000E+03  0.18250000000E+03  0.00000000000E+00 0. -1.
        -11    1    1    2    0    0 -0.15216565554E+01  0.15698686174E+01  0.54764963183E+02  0.54808586176E+02  0.00000000000E+00 0. -1.
         11    1    1    2    0    0  0.12912523209E+02  0.19615998649E+01 -0.18094325960E+03  0.18141401358E+03  0.00000000000E+00 0. -1.
        -15    1    1    2    0    0  0.20675201185E+01 -0.11678036569E+01  0.90228973006E+02  0.90277703247E+02  0.17770000000E+01 0. -1.
         15    1    1    2    0    0 -0.13458386772E+02 -0.23636648254E+01  0.35949323411E+02  0.38499696994E+02  0.17770000000E+01 0. -1.
</event>
<event>
 6    1  0.1378789E-002  0.1657130E+03  0.7546771E-02  0.1082663E+00
        -11   -1    0    0    0    0  0.00000000000E+00  0.00000000000E+00  0.18250000000E+03  0.18250000000E+03  0.00000000000E+00 0.  1.
         11   -1    0    0    0    0 -0.00000000000E+00 -0.00000000000E+00 -0.18250000000E+03  0.18250000000E+03  0.00000000000E+00 0. -1.
        -11    1    1    2    0    0  0.13312140593E+02 -0.12247161162E+02  0.16926066329E+03  0.17022449348E+03  0.00000000000E+00 0.  1.
         11    1    1    2    0    0 -0.41568795408E+01 -0.31628688080E+00 -0.16160046574E+03  0.16165423041E+03  0.00000000000E+00 0. -1.
        -15    1    1    2    0    0  0.85375764230E+00  0.10020857801E+02 -0.16504658507E+02  0.19408966346E+02  0.17770000000E+01 0. -1.
         15    1    1    2    0    0 -0.10009018694E+02  0.25425902414E+01  0.88444609550E+01  0.13712309760E+02  0.17770000000E+01 0.  1.
</event>
<event>
 6    1  0.1378789E-002  0.1828587E+03  0.7546771E-02  0.1068170E+00
        -11   -1    0    0    0    0  0.00000000000E+00  0.00000000000E+00  0.18250000000E+03  0.18250000000E+03  0.00000000000E+00 0.  1.
         11   -1    0    0    0    0 -0.00000000000E+00 -0.00000000000E+00 -0.18250000000E+03  0.18250000000E+03  0.00000000000E+00 0.  1.
        -11    1    1    2    0    0  0.28517835272E+01 -0.12801322443E+01  0.15340459979E+03  0.15343644497E+03  0.00000000000E+00 0.  1.
         11    1    1    2    0    0 -0.16290098844E+01  0.21593294847E+01 -0.18212116631E+03  0.18214125177E+03  0.00000000000E+00 0.  1.
        -15    1    1    2    0    0  0.10725345152E+01 -0.18744153529E+01  0.78925442077E+01  0.83733951460E+01  0.17770000000E+01 0. -1.
         15    1    1    2    0    0 -0.22953081580E+01  0.99521811260E+00  0.20824022310E+02  0.21048908114E+02  0.17770000000E+01 0.  1.
</event>
<event>
 6    1  0.1378789E-002  0.1746858E+03  0.7546771E-02  0.1074851E+00
        -11   -1    0    0    0    0  0.00000000000E+00  0.00000000000E+00  0.18250000000E+03  0.18250000000E+03  0.00000000000E+00 0.  1.
         11   -1    0    0    0    0 -0.00000000000E+00 -0.00000000000E+00 -0.18250000000E+03  0.18250000000E+03  0.00000000000E+00 0. -1.
        -11    1    1    2    0    0 -0.72527965623E+01 -0.23326110500E+01  0.17360500427E+03  0.17377209684E+03  0.00000000000E+00 0.  1.
         11    1    1    2    0    0 -0.49954884173E+01  0.57289519993E+00 -0.17575326795E+03  0.17582518110E+03  0.00000000000E+00 0. -1.
        -15    1    1    2    0    0  0.10542133331E+02  0.38940406626E+01  0.34551938532E+01  0.11891014314E+02  0.17770000000E+01 0.  1.
         15    1    1    2    0    0  0.17061516487E+01 -0.21343248125E+01 -0.13069301684E+01  0.35117077496E+01  0.17770000000E+01 0. -1.
</event>
<event>
 6    1  0.1378789E-002  0.1835124E+03  0.7546771E-02  0.1067652E+00
        -11   -1    0    0    0    0  0.00000000000E+00  0.00000000000E+00  0.18250000000E+03  0.18250000000E+03  0.00000000000E+00 0. -1.
         11   -1    0    0    0    0 -0.00000000000E+00 -0.00000000000E+00 -0.18250000000E+03  0.18250000000E+03  0.00000000000E+00 0. -1.
        -11    1    1    2    0    0 -0.34300464593E+01 -0.18763717059E+01  0.12526370408E+03  0.12532470447E+03  0.00000000000E+00 0. -1.
         11    1    1    2    0    0 -0.23821536648E+01 -0.11823617014E+01 -0.18146810618E+03  0.18148759240E+03  0.00000000000E+00 0. -1.
        -15    1    1    2    0    0  0.45952949632E+01  0.37134682000E+00  0.56074429506E+01  0.74736724375E+01  0.17770000000E+01 0.  1.
         15    1    1    2    0    0  0.12169051609E+01  0.26873865873E+01  0.50596959147E+02  0.50714030689E+02  0.17770000000E+01 0.  1.
</event>
<event>
 6    1  0.1378789E-002  0.1837128E+03  0.7546771E-02  0.1067493E+00
        -11   -1    0    0    0    0  0.00000000000E+00  0.00000000000E+00  0.18250000000E+03  0.18250000000E+03  0.00000000000E+00 0.  1.
         11   -1    0    0    0    0 -0.00000000000E+00 -0.00000000000E+00 -0.18250000000E+03  0.18250000000E+03  0.00000000000E+00 0.  1.
        -11    1    1    2    0    0 -0.33746012283E+01 -0.52031274286E-01  0.18125577092E+03  0.18128718965E+03  0.00000000000E+00 0.  1.
         11    1    1    2    0    0  0.10647715120E+01  0.25028080177E+01 -0.17169048181E+03  0.17171202442E+03  0.00000000000E+00 0.  1.
        -15    1    1    2    0    0  0.18480196409E+01 -0.40603313968E+01 -0.61582046362E+01  0.78091408610E+01  0.17770000000E+01 0.  1.
         15    1    1    2    0    0  0.46181007533E+00  0.16095546534E+01 -0.34070844717E+01  0.41916450620E+01  0.17770000000E+01 0. -1.
</event>
<event>
 6    1  0.1378789E-002  0.1839920E+03  0.7546771E-02  0.1067273E+00
        -11   -1    0    0    0    0  0.00000000000E+00  0.00000000000E+00  0.18250000000E+03  0.18250000000E+03  0.00000000000E+00 0. -1.
         11   -1    0    0    0    0 -0.00000000000E+00 -0.00000000000E+00 -0.18250000000E+03  0.18250000000E+03  0.00000000000E+00 0.  1.
        -11    1    1    2    0    0 -0.51553533234E+01 -0.58366525902E+01  0.18084041241E+03  0.18100800795E+03  0.00000000000E+00 0. -1.
         11    1    1    2    0    0 -0.62651061316E+00  0.39716156894E+01 -0.16231530485E+03  0.16236509611E+03  0.00000000000E+00 0.  1.
        -15    1    1    2    0    0  0.43209354936E+01  0.40612178559E+01 -0.57056331460E+01  0.84187856969E+01  0.17770000000E+01 0. -1.
         15    1    1    2    0    0  0.14609284430E+01 -0.21961809551E+01 -0.12819474422E+02  0.13208110242E+02  0.17770000000E+01 0. -1.
</event>
<event>
 6    1  0.1378789E-002  0.1836270E+03  0.7546771E-02  0.1067561E+00
        -11   -1    0    0    0    0  0.00000000000E+00  0.00000000000E+00  0.18250000000E+03  0.18250000000E+03  0.00000000000E+00 0. -1.
         11   -1    0    0    0    0 -0.00000000000E+00 -0.00000000000E+00 -0.18250000000E+03  0.18250000000E+03  0.00000000000E+00 0.  1.
        -11    1    1    2    0    0 -0.16359410003E+01 -0.12801088305E+01  0.13695991161E+03  0.13697566342E+03  0.00000000000E+00 0. -1.
         11    1    1    2    0    0  0.36175583210E+01 -0.52459411744E+01 -0.18126100957E+03  0.18137298646E+03  0.00000000000E+00 0.  1.
        -15    1    1    2    0    0  0.13863042790E+01  0.69513403957E+01  0.40837839972E+02  0.41486502329E+02  0.17770000000E+01 0.  1.
         15    1    1    2    0    0 -0.33679215997E+01 -0.42529039083E+00  0.34632579893E+01  0.51648477924E+01  0.17770000000E+01 0. -1.
</event>
<event>
 6    1  0.1378789E-002  0.1830904E+03  0.7546771E-02  0.1067986E+00
        -11   -1    0    0    0    0  0.00000000000E+00  0.00000000000E+00  0.18250000000E+03  0.18250000000E+03  0.00000000000E+00 0.  1.
         11   -1    0    0    0    0 -0.00000000000E+00 -0.00000000000E+00 -0.18250000000E+03  0.18250000000E+03  0.00000000000E+00 0.  1.
        -11    1    1    2    0    0  0.29399991916E+01 -0.30776258691E+01  0.34983947950E+02  0.35241906737E+02  0.00000000000E+00 0.  1.
         11    1    1    2    0    0  0.44961801548E+01 -0.18535197257E+01 -0.18184458472E+03  0.18190960437E+03  0.00000000000E+00 0.  1.
        -15    1    1    2    0    0 -0.34736318808E+01 -0.22105515568E+01  0.10827959775E+03  0.10837242119E+03  0.17770000000E+01 0.  1.
         15    1    1    2    0    0 -0.39625474657E+01  0.71416971517E+01  0.38581039020E+02  0.39476067706E+02  0.17770000000E+01 0. -1.
</event>
<event>
 6    1  0.1378789E-002  0.1839133E+03  0.7546771E-02  0.1067335E+00
        -11   -1    0    0    0    0  0.00000000000E+00  0.00000000000E+00  0.18250000000E+03  0.18250000000E+03  0.00000000000E+00 0. -1.
         11   -1    0    0    0    0 -0.00000000000E+00 -0.00000000000E+00 -0.18250000000E+03  0.18250000000E+03  0.00000000000E+00 0.  1.
        -11    1    1    2    0    0 -0.74364256698E+01 -0.94011672434E+01  0.18068954266E+03  0.18108670078E+03  0.00000000000E+00 0. -1.
         11    1    1    2    0    0 -0.31726593566E+00  0.13225420497E+01 -0.49940973395E+02  0.49959489577E+02  0.00000000000E+00 0.  1.
        -15    1    1    2    0    0  0.10236562256E+02  0.10517417115E+02 -0.12869124059E+03  0.12953762544E+03  0.17770000000E+01 0.  1.
         15    1    1    2    0    0 -0.24828706507E+01 -0.24387919213E+01 -0.20573286699E+01  0.44161842081E+01  0.17770000000E+01 0. -1.
</event>
<event>
 6    1  0.1378789E-002  0.1827445E+03  0.7546771E-02  0.1068260E+00
        -11   -1    0    0    0    0  0.00000000000E+00  0.00000000000E+00  0.18250000000E+03  0.18250000000E+03  0.00000000000E+00 0.  1.
         11   -1    0    0    0    0 -0.00000000000E+00 -0.00000000000E+00 -0.18250000000E+03  0.18250000000E+03  0.00000000000E+00 0.  1.
        -11    1    1    2    0    0  0.34811762905E+01  0.13039156058E+01  0.18221754909E+03  0.18225546352E+03  0.00000000000E+00 0.  1.
         11    1    1    2    0    0  0.11245557235E+01 -0.13201665375E+01 -0.10946429415E+03  0.10947803048E+03  0.00000000000E+00 0.  1.
        -15    1    1    2    0    0 -0.40643341367E+01 -0.14029415422E+01 -0.23405344153E+02  0.23863254616E+02  0.17770000000E+01 0. -1.
         15    1    1    2    0    0 -0.54139787727E+00  0.14191924739E+01 -0.49347910792E+02  0.49403251385E+02  0.17770000000E+01 0. -1.
</event>
<event>
 6    1  0.1378789E-002  0.1834493E+03  0.7546771E-02  0.1067702E+00
        -11   -1    0    0    0    0  0.00000000000E+00  0.00000000000E+00  0.18250000000E+03  0.18250000000E+03  0.00000000000E+00 0.  1.
         11   -1    0    0    0    0 -0.00000000000E+00 -0.00000000000E+00 -0.18250000000E+03  0.18250000000E+03  0.00000000000E+00 0.  1.
        -11    1    1    2    0    0  0.23386637938E+00 -0.10404639602E+01  0.43806359927E+02  0.43819338525E+02  0.00000000000E+00 0.  1.
         11    1    1    2    0    0 -0.16237148418E+01 -0.23254560336E+01 -0.18152851746E+03  0.18155067295E+03  0.00000000000E+00 0.  1.
        -15    1    1    2    0    0 -0.30773670757E+01 -0.67731085742E+01  0.99531640598E+02  0.99825099033E+02  0.17770000000E+01 0.  1.
         15    1    1    2    0    0  0.44672155381E+01  0.10139028568E+02  0.38190516936E+02  0.39804889496E+02  0.17770000000E+01 0. -1.
</event>
<event>
 6    1  0.1378789E-002  0.1858124E+03  0.7546771E-02  0.1065848E+00
        -11   -1    0    0    0    0  0.00000000000E+00  0.00000000000E+00  0.18250000000E+03  0.18250000000E+03  0.00000000000E+00 0.  1.
         11   -1    0    0    0    0 -0.00000000000E+00 -0.00000000000E+00 -0.18250000000E+03  0.18250000000E+03  0.00000000000E+00 0. -1.
        -11    1    1    2    0    0  0.10412266198E+01  0.21374206387E+01  0.16411634062E+03  0.16413356140E+03  0.00000000000E+00 0.  1.
         11    1    1    2    0    0 -0.12574071032E+01 -0.21236028272E+01 -0.17917057569E+03  0.17918757199E+03  0.00000000000E+00 0. -1.
        -15    1    1    2    0    0  0.50608676657E+00  0.29297939730E+01  0.17246413410E+02  0.17590802172E+02  0.17770000000E+01 0.  1.
         15    1    1    2    0    0 -0.28990628311E+00 -0.29436117844E+01 -0.21921783402E+01  0.40880644400E+01  0.17770000000E+01 0. -1.
</event>
<event>
 6    1  0.1378789E-002  0.1827604E+03  0.7546771E-02  0.1068248E+00
        -11   -1    0    0    0    0  0.00000000000E+00  0.00000000000E+00  0.18250000000E+03  0.18250000000E+03  0.00000000000E+00 0. -1.
         11   -1    0    0    0    0 -0.00000000000E+00 -0.00000000000E+00 -0.18250000000E+03  0.18250000000E+03  0.00000000000E+00 0.  1.
        -11    1    1    2    0    0  0.72336945474E+00 -0.19157259746E+01  0.12711408423E+03  0.12713057728E+03  0.00000000000E+00 0. -1.
         11    1    1    2    0    0 -0.36425591454E+01 -0.73271535054E+00 -0.18220175077E+03  0.18223963096E+03  0.00000000000E+00 0.  1.
        -15    1    1    2    0    0  0.45419034556E+00  0.39820247207E+01  0.34269565989E+02  0.34548859487E+02  0.17770000000E+01 0. -1.
         15    1    1    2    0    0  0.24649993451E+01 -0.13335833955E+01  0.20818100546E+02  0.21080932280E+02  0.17770000000E+01 0.  1.
</event>
<event>
 6    1  0.1378789E-002  0.1835075E+03  0.7546771E-02  0.1067656E+00
        -11   -1    0    0    0    0  0.00000000000E+00  0.00000000000E+00  0.18250000000E+03  0.18250000000E+03  0.00000000000E+00 0.  1.
         11   -1    0    0    0    0 -0.00000000000E+00 -0.00000000000E+00 -0.18250000000E+03  0.18250000000E+03  0.00000000000E+00 0. -1.
        -11    1    1    2    0    0  0.24751171222E+01 -0.15091385230E+01  0.18146932527E+03  0.18149247840E+03  0.00000000000E+00 0.  1.
         11    1    1    2    0    0  0.40915892507E+01  0.19028894676E+01 -0.15554217090E+03  0.15560761234E+03  0.00000000000E+00 0. -1.
        -15    1    1    2    0    0 -0.63482510172E+01  0.78944005018E+00 -0.24343931729E+02  0.25233078440E+02  0.17770000000E+01 0.  1.
         15    1    1    2    0    0 -0.21845535576E+00 -0.11831909949E+01 -0.15832226433E+01  0.26668308178E+01  0.17770000000E+01 0. -1.
</event>
<event>
 6    1  0.1378789E-002  0.1843202E+03  0.7546771E-02  0.1067015E+00
        -11   -1    0    0    0    0  0.00000000000E+00  0.00000000000E+00  0.18250000000E+03  0.18250000000E+03  0.00000000000E+00 0. -1.
         11   -1    0    0    0    0 -0.00000000000E+00 -0.00000000000E+00 -0.18250000000E+03  0.18250000000E+03  0.00000000000E+00 0.  1.
        -11    1    1    2    0    0 -0.70735134172E+00 -0.33390764912E+01  0.16557311973E+03  0.16560829616E+03  0.00000000000E+00 0. -1.
         11    1    1    2    0    0 -0.60295534455E+01 -0.78076241243E+00 -0.18057749688E+03  0.18067982036E+03  0.00000000000E+00 0.  1.
        -15    1    1    2    0    0  0.62117031725E+01  0.26953708846E+01  0.54391111523E+01  0.88652095088E+01  0.17770000000E+01 0. -1.
         15    1    1    2    0    0  0.52520161473E+00  0.14244680190E+01  0.95652659953E+01  0.98466739783E+01  0.17770000000E+01 0. -1.
</event>
<event>
 6    1  0.1378789E-002  0.1829710E+03  0.7546771E-02  0.1068080E+00
        -11   -1    0    0    0    0  0.00000000000E+00  0.00000000000E+00  0.18250000000E+03  0.18250000000E+03  0.00000000000E+00 0.  1.
         11   -1    0    0    0    0 -0.00000000000E+00 -0.00000000000E+00 -0.18250000000E+03  0.18250000000E+03  0.00000000000E+00 0.  1.
        -11    1    1    2    0    0  0.10733233794E+01  0.23067817712E+01  0.15589278293E+03  0.15591354346E+03  0.00000000000E+00 0.  1.
         11    1    1    2    0    0  0.18624240006E+01 -0.49514377371E+01 -0.18195208320E+03  0.18202897006E+03  0.00000000000E+00 0.  1.
        -15    1    1    2    0    0 -0.28577514790E+01 -0.38094606912E+00  0.84802391328E+01  0.91314866354E+01  0.17770000000E+01 0.  1.
         15    1    1    2    0    0 -0.77995901049E-01  0.30256020350E+01  0.17579061135E+02  0.17925999844E+02  0.17770000000E+01 0. -1.
</event>
<event>
 6    1  0.1378789E-002  0.1911629E+03  0.7546771E-02  0.1061761E+00
        -11   -1    0    0    0    0  0.00000000000E+00  0.00000000000E+00  0.18250000000E+03  0.18250000000E+03  0.00000000000E+00 0. -1.
         11   -1    0    0    0    0 -0.00000000000E+00 -0.00000000000E+00 -0.18250000000E+03  0.18250000000E+03  0.00000000000E+00 0. -1.
        -11    1    1    2    0    0 -0.85224347074E+01 -0.81392800396E+01  0.17343719601E+03  0.17383710977E+03  0.00000000000E+00 0. -1.
         11    1    1    2    0    0  0.35228687366E+01 -0.84729815828E+01 -0.76529670679E+02  0.77077834137E+02  0.00000000000E+00 0. -1.
        -15    1    1    2    0    0  0.70085651604E+01  0.15121947386E+02  0.36361125509E+00  0.16765536690E+02  0.17770000000E+01 0.  1.
         15    1    1    2    0    0 -0.20089991896E+01  0.14903142364E+01 -0.97271136589E+02  0.97319519402E+02  0.17770000000E+01 0. -1.
</event>
<event>
 6    1  0.1378789E-002  0.1832648E+03  0.7546771E-02  0.1067848E+00
        -11   -1    0    0    0    0  0.00000000000E+00  0.00000000000E+00  0.18250000000E+03  0.18250000000E+03  0.00000000000E+00 0.  1.
         11   -1    0    0    0    0 -0.00000000000E+00 -0.00000000000E+00 -0.18250000000E+03  0.18250000000E+03  0.00000000000E+00 0.  1.
        -11    1    1    2    0    0  0.50114054888E+00  0.67985364763E+01  0.12681058793E+03  0.12699368666E+03  0.00000000000E+00 0.  1.
         11    1    1    2    0    0  0.30227549400E+01 -0.29947333051E+01 -0.18168542164E+03  0.18173524125E+03  0.00000000000E+00 0.  1.
        -15    1    1    2    0    0  0.62446566868E+00  0.56622412806E-01  0.42532859272E+02  0.42574581740E+02  0.17770000000E+01 0. -1.
         15    1    1    2    0    0 -0.41483611576E+01 -0.38604255840E+01  0.12341974434E+02  0.13696490350E+02  0.17770000000E+01 0.  1.
</event>
<event>
 6    1  0.1378789E-002  0.1889157E+03  0.7546771E-02  0.1063460E+00
        -11   -1    0    0    0    0  0.00000000000E+00  0.00000000000E+00  0.18250000000E+03  0.18250000000E+03  0.00000000000E+00 0. -1.
         11   -1    0    0    0    0 -0.00000000000E+00 -0.00000000000E+00 -0.18250000000E+03  0.18250000000E+03  0.00000000000E+00 0. -1.
        -11    1    1    2    0    0  0.53468718263E+01 -0.22472063663E+01  0.17598872921E+03  0.17608427466E+03  0.00000000000E+00 0. -1.
         11    1    1    2    0    0 -0.60737135583E+01  0.12144368463E+01 -0.15745860214E+03  0.15758038026E+03  0.00000000000E+00 0. -1.
        -15    1    1    2    0    0  0.31607638891E+01  0.90543076092E+01  0.11979203966E+01  0.98266808700E+01  0.17770000000E+01 0.  1.
         15    1    1    2    0    0 -0.24339221571E+01 -0.80215380892E+01 -0.19728047463E+02  0.21508664210E+02  0.17770000000E+01 0. -1.
</event>
<event>
 6    1  0.1378789E-002  0.1876202E+03  0.7546771E-02  0.1064451E+00
        -11   -1    0    0    0    0  0.00000000000E+00  0.00000000000E+00  0.18250000000E+03  0.18250000000E+03  0.00000000000E+00 0.  1.
         11   -1    0    0    0    0 -0.00000000000E+00 -0.00000000000E+00 -0.18250000000E+03  0.18250000000E+03  0.00000000000E+00 0. -1.
        -11    1    1    2    0    0 -0.50031604929E+01  0.14874132424E+02  0.17668420618E+03  0.17737976250E+03  0.00000000000E+00 0.  1.
         11    1    1    2    0    0 -0.43692902574E+01  0.21585344354E+00 -0.13390597364E+03  0.13397741253E+03  0.00000000000E+00 0. -1.
        -15    1    1    2    0    0 -0.63064335002E+00  0.33283434943E+01 -0.27200122603E+02  0.27467798966E+02  0.17770000000E+01 0.  1.
         15    1    1    2    0    0  0.10003094100E+02 -0.18418329362E+02 -0.15578109937E+02  0.26175026003E+02  0.17770000000E+01 0.  1.
</event>
<event>
 6    1  0.1378789E-002  0.1874270E+03  0.7546771E-02  0.1064599E+00
        -11   -1    0    0    0    0  0.00000000000E+00  0.00000000000E+00  0.18250000000E+03  0.18250000000E+03  0.00000000000E+00 0.  1.
         11   -1    0    0    0    0 -0.00000000000E+00 -0.00000000000E+00 -0.18250000000E+03  0.18250000000E+03  0.00000000000E+00 0.  1.
        -11    1    1    2    0    0 -0.13497675644E+01 -0.33149919909E+01  0.16130558924E+03  0.16134529483E+03  0.00000000000E+00 0.  1.
         11    1    1    2    0    0 -0.88257859987E+01 -0.34882414212E+01 -0.17731927074E+03  0.17757304441E+03  0.00000000000E+00 0.  1.
        -15    1    1    2    0    0  0.80744807118E+01  0.35950401826E+01 -0.50614476061E+00  0.90296990093E+01  0.17770000000E+01 0.  1.
         15    1    1    2    0    0  0.21010728513E+01  0.32081932295E+01  0.16519826255E+02  0.17051961747E+02  0.17770000000E+01 0.  1.
</event>
<event>
 6    1  0.1378789E-002  0.1844772E+03  0.7546771E-02  0.1066892E+00
        -11   -1    0    0    0    0  0.00000000000E+00  0.00000000000E+00  0.18250000000E+03  0.18250000000E+03  0.00000000000E+00 0. -1.
         11   -1    0    0    0    0 -0.00000000000E+00 -0.00000000000E+00 -0.18250000000E+03  0.18250000000E+03  0.00000000000E+00 0. -1.
        -11    1    1    2    0    0  0.16015588221E+01 -0.43321820638E+01  0.18046374390E+03  0.18052283971E+03  0.00000000000E+00 0. -1.
         11    1    1    2    0    0  0.21046004026E+01 -0.13149269152E+01 -0.16840864572E+03  0.16842692875E+03  0.00000000000E+00 0. -1.
        -15    1    1    2    0    0 -0.52857312224E+00  0.18198938664E+01  0.29819940726E+00  0.26149675174E+01  0.17770000000E+01 0. -1.
         15    1    1    2    0    0 -0.31775861024E+01  0.38272151126E+01 -0.12353297592E+02  0.13435264023E+02  0.17770000000E+01 0.  1.
</event>
<event>
 6    1  0.1378789E-002  0.1887857E+03  0.7546771E-02  0.1063559E+00
        -11   -1    0    0    0    0  0.00000000000E+00  0.00000000000E+00  0.18250000000E+03  0.18250000000E+03  0.00000000000E+00 0. -1.
         11   -1    0    0    0    0 -0.00000000000E+00 -0.00000000000E+00 -0.18250000000E+03  0.18250000000E+03  0.00000000000E+00 0.  1.
        -11    1    1    2    0    0  0.19396262164E+01  0.94770602435E+01  0.30204963615E+02  0.31716189048E+02  0.00000000000E+00 0. -1.
         11    1    1    2    0    0  0.18230511577E+01 -0.24579725314E+01 -0.17618768141E+03  0.17621425659E+03  0.00000000000E+00 0.  1.
        -15    1    1    2    0    0  0.68078855490E+01  0.19311654128E+01 -0.26647694315E+01  0.77675884690E+01  0.17770000000E+01 0.  1.
         15    1    1    2    0    0 -0.10570562923E+02 -0.89502531249E+01  0.14864748723E+03  0.14930196589E+03  0.17770000000E+01 0. -1.
</event>
<event>
 6    1  0.1378789E-002  0.1827053E+03  0.7546771E-02  0.1068292E+00
        -11   -1    0    0    0    0  0.00000000000E+00  0.00000000000E+00  0.18250000000E+03  0.18250000000E+03  0.00000000000E+00 0.  1.
         11   -1    0    0    0    0 -0.00000000000E+00 -0.00000000000E+00 -0.18250000000E+03  0.18250000000E+03  0.00000000000E+00 0.  1.
        -11    1    1    2    0    0  0.96254534893E+00  0.28241078004E+00  0.44631129252E+02  0.44642400783E+02  0.00000000000E+00 0.  1.
         11    1    1    2    0    0  0.52266998047E+01  0.32642068537E+01 -0.18219056279E+03  0.18229474652E+03  0.00000000000E+00 0.  1.
        -15    1    1    2    0    0 -0.39393476356E+01 -0.38665967249E+01  0.36129659187E+02  0.36592062418E+02  0.17770000000E+01 0.  1.
         15    1    1    2    0    0 -0.22498975180E+01  0.31997909108E+00  0.10142977435E+03  0.10147079028E+03  0.17770000000E+01 0. -1.
</event>
<event>
 6    1  0.1378789E-002  0.1753835E+03  0.7546771E-02  0.1074265E+00
        -11   -1    0    0    0    0  0.00000000000E+00  0.00000000000E+00  0.18250000000E+03  0.18250000000E+03  0.00000000000E+00 0.  1.
         11   -1    0    0    0    0 -0.00000000000E+00 -0.00000000000E+00 -0.18250000000E+03  0.18250000000E+03  0.00000000000E+00 0.  1.
        -11    1    1    2    0    0  0.28717587441E+01  0.53765940272E+01  0.17616182970E+03  0.17626725449E+03  0.00000000000E+00 0.  1.
         11    1    1    2    0    0  0.19926718869E+01 -0.23877150846E+01 -0.17452232178E+03  0.17455002929E+03  0.00000000000E+00 0.  1.
        -15    1    1    2    0    0  0.27435478878E+00  0.43605626826E+01 -0.17747105382E+01  0.50395539439E+01  0.17770000000E+01 0. -1.
         15    1    1    2    0    0 -0.51387854198E+01 -0.73494416252E+01  0.13520262050E+00  0.91431622835E+01  0.17770000000E+01 0.  1.
</event>
<event>
 6    1  0.1378789E-002  0.1827882E+03  0.7546771E-02  0.1068226E+00
        -11   -1    0    0    0    0  0.00000000000E+00  0.00000000000E+00  0.18250000000E+03  0.18250000000E+03  0.00000000000E+00 0. -1.
         11   -1    0    0    0    0 -0.00000000000E+00 -0.00000000000E+00 -0.18250000000E+03  0.18250000000E+03  0.00000000000E+00 0. -1.
        -11    1    1    2    0    0  0.15803645857E+01  0.29585684577E+00  0.97408220360E+02  0.97421488785E+02  0.00000000000E+00 0. -1.
         11    1    1    2    0    0  0.34340992867E+01 -0.32182484603E+00 -0.18217911078E+03  0.18221175871E+03  0.00000000000E+00 0. -1.
        -15    1    1    2    0    0 -0.46559317384E+01  0.26352993615E+01  0.31447932516E+02  0.31949220517E+02  0.17770000000E+01 0. -1.
         15    1    1    2    0    0 -0.35853213400E+00 -0.26093313613E+01  0.53322957900E+02  0.53417531988E+02  0.17770000000E+01 0. -1.
</event>
<event>
 6    1  0.1378789E-002  0.1840818E+03  0.7546771E-02  0.1067203E+00
        -11   -1    0    0    0    0  0.00000000000E+00  0.00000000000E+00  0.18250000000E+03  0.18250000000E+03  0.00000000000E+00 0.  1.
         11   -1    0    0    0    0 -0.00000000000E+00 -0.00000000000E+00 -0.18250000000E+03  0.18250000000E+03  0.00000000000E+00 0. -1.
        -11    1    1    2    0    0 -0.22566237647E+01 -0.25100784503E+01  0.18088667731E+03  0.18091816623E+03  0.00000000000E+00 0.  1.
         11    1    1    2    0    0  0.20496169616E+01 -0.17840964760E+01 -0.17700884006E+03  0.17702969635E+03  0.00000000000E+00 0. -1.
        -15    1    1    2    0    0 -0.25034684138E+00  0.33680789482E+01 -0.22499386620E+01  0.44301898746E+01  0.17770000000E+01 0. -1.
         15    1    1    2    0    0  0.45735364449E+00  0.92609597798E+00 -0.16278985868E+01  0.26219475444E+01  0.17770000000E+01 0. -1.
</event>
<event>
 6    1  0.1378789E-002  0.1848119E+03  0.7546771E-02  0.1066629E+00
        -11   -1    0    0    0    0  0.00000000000E+00  0.00000000000E+00  0.18250000000E+03  0.18250000000E+03  0.00000000000E+00 0.  1.
         11   -1    0    0    0    0 -0.00000000000E+00 -0.00000000000E+00 -0.18250000000E+03  0.18250000000E+03  0.00000000000E+00 0. -1.
        -11    1    1    2    0    0 -0.35238969507E+01 -0.61639849458E+00  0.18015263220E+03  0.18018814801E+03  0.00000000000E+00 0.  1.
         11    1    1    2    0    0 -0.33655062861E+01 -0.14327128553E+01 -0.17183935025E+03  0.17187827551E+03  0.00000000000E+00 0. -1.
        -15    1    1    2    0    0  0.69217196647E+01  0.35036127400E-01 -0.67251310611E+01  0.98130804255E+01  0.17770000000E+01 0.  1.
         15    1    1    2    0    0 -0.32316428004E-01  0.20140752225E+01 -0.15881508873E+01  0.31204960494E+01  0.17770000000E+01 0. -1.
</event>
<event>
 6    1  0.1378789E-002  0.1653710E+03  0.7546771E-02  0.1082971E+00
        -11   -1    0    0    0    0  0.00000000000E+00  0.00000000000E+00  0.18250000000E+03  0.18250000000E+03  0.00000000000E+00 0.  1.
         11   -1    0    0    0    0 -0.00000000000E+00 -0.00000000000E+00 -0.18250000000E+03  0.18250000000E+03  0.00000000000E+00 0. -1.
        -11    1    1    2    0    0 -0.46801521829E+01  0.20854755223E+01  0.16728363013E+03  0.16736208036E+03  0.00000000000E+00 0.  1.
         11    1    1    2    0    0 -0.24785962329E+01 -0.16034808923E+01 -0.16345318004E+03  0.16347983562E+03  0.00000000000E+00 0. -1.
        -15    1    1    2    0    0 -0.31945841250E+01 -0.15326752348E+02 -0.16986411892E+01  0.15847959369E+02  0.17770000000E+01 0. -1.
         15    1    1    2    0    0  0.10353332541E+02  0.14844757718E+02 -0.21318088996E+01  0.18310124647E+02  0.17770000000E+01 0.  1.
</event>
<event>
 6    1  0.1378789E-002  0.1927218E+03  0.7546771E-02  0.1060597E+00
        -11   -1    0    0    0    0  0.00000000000E+00  0.00000000000E+00  0.18250000000E+03  0.18250000000E+03  0.00000000000E+00 0. -1.
         11   -1    0    0    0    0 -0.00000000000E+00 -0.00000000000E+00 -0.18250000000E+03  0.18250000000E+03  0.00000000000E+00 0.  1.
        -11    1    1    2    0    0  0.11668217219E+02 -0.33710694945E+01  0.13367764829E+03  0.13422825729E+03  0.00000000000E+00 0. -1.
         11    1    1    2    0    0 -0.26984065389E+01 -0.20675254236E+01 -0.17224468044E+03  0.17227822265E+03  0.00000000000E+00 0.  1.
        -15    1    1    2    0    0 -0.13913551415E+02  0.10040989302E+02 -0.19672539915E+01  0.17361917994E+02  0.17770000000E+01 0.  1.
         15    1    1    2    0    0  0.49437407351E+01 -0.46023943844E+01  0.40534286142E+02  0.41131602067E+02  0.17770000000E+01 0. -1.
</event>
<event>
 6    1  0.1378789E-002  0.1836493E+03  0.7546771E-02  0.1067544E+00
        -11   -1    0    0    0    0  0.00000000000E+00  0.00000000000E+00  0.18250000000E+03  0.18250000000E+03  0.00000000000E+00 0. -1.
         11   -1    0    0    0    0 -0.00000000000E+00 -0.00000000000E+00 -0.18250000000E+03  0.18250000000E+03  0.00000000000E+00 0. -1.
        -11    1    1    2    0    0  0.18948573911E+01  0.45307730296E+01  0.14538763165E+03  0.14547055313E+03  0.00000000000E+00 0. -1.
         11    1    1    2    0    0 -0.42249077998E+00 -0.25790761800E+01 -0.18133190767E+03  0.18135073993E+03  0.00000000000E+00 0. -1.
        -15    1    1    2    0    0 -0.39347569308E+01 -0.46569137052E+01  0.95222432003E+01  0.11445523226E+02  0.17770000000E+01 0. -1.
         15    1    1    2    0    0  0.24623903197E+01  0.27052168556E+01  0.26422032820E+02  0.26733183717E+02  0.17770000000E+01 0.  1.
</event>
<event>
 6    1  0.1378789E-002  0.1867429E+03  0.7546771E-02  0.1065127E+00
        -11   -1    0    0    0    0  0.00000000000E+00  0.00000000000E+00  0.18250000000E+03  0.18250000000E+03  0.00000000000E+00 0. -1.
         11   -1    0    0    0    0 -0.00000000000E+00 -0.00000000000E+00 -0.18250000000E+03  0.18250000000E+03  0.00000000000E+00 0. -1.
        -11    1    1    2    0    0 -0.53395430732E+00  0.14212611406E+01  0.10877234050E+03  0.10878293593E+03  0.00000000000E+00 0. -1.
         11    1    1    2    0    0 -0.59392497232E+00 -0.81963850524E+01 -0.17806756806E+03  0.17825709599E+03  0.00000000000E+00 0. -1.
        -15    1    1    2    0    0 -0.39824873652E+01  0.15076688959E+02  0.11848733512E+02  0.19665120656E+02  0.17770000000E+01 0.  1.
         15    1    1    2    0    0  0.51103666448E+01 -0.83015650469E+01  0.57446494047E+02  0.58294847429E+02  0.17770000000E+01 0. -1.
</event>
<event>
 6    1  0.1378789E-002  0.1827729E+03  0.7546771E-02  0.1068238E+00
        -11   -1    0    0    0    0  0.00000000000E+00  0.00000000000E+00  0.18250000000E+03  0.18250000000E+03  0.00000000000E+00 0.  1.
         11   -1    0    0    0    0 -0.00000000000E+00 -0.00000000000E+00 -0.18250000000E+03  0.18250000000E+03  0.00000000000E+00 0. -1.
        -11    1    1    2    0    0 -0.57608669803E+00 -0.15748650145E+01  0.54546959079E+02  0.54572729641E+02  0.00000000000E+00 0.  1.
         11    1    1    2    0    0  0.54328984988E+01 -0.58433155406E+01 -0.18205237270E+03  0.18222713060E+03  0.00000000000E+00 0. -1.
        -15    1    1    2    0    0  0.12287643687E+01  0.57222084189E-01  0.75854833448E+01  0.78873584180E+01  0.17770000000E+01 0.  1.
         15    1    1    2    0    0 -0.60855761695E+01  0.73609584709E+01  0.11991993028E+03  0.12031278134E+03  0.17770000000E+01 0.  1.
</event>
<event>
 6    1  0.1378789E-002  0.1844891E+03  0.7546771E-02  0.1066882E+00
        -11   -1    0    0    0    0  0.00000000000E+00  0.00000000000E+00  0.18250000000E+03  0.18250000000E+03  0.00000000000E+00 0.  1.
         11   -1    0    0    0    0 -0.00000000000E+00 -0.00000000000E+00 -0.18250000000E+03  0.18250000000E+03  0.00000000000E+00 0. -1.
        -11    1    1    2    0    0  0.35322383232E+01  0.13388197216E+01  0.18047134519E+03  0.18051087385E+03  0.00000000000E+00 0.  1.
         11    1    1    2    0    0 -0.49286326309E+01  0.20916734599E+00 -0.13792566351E+03  0.13801385375E+03  0.00000000000E+00 0. -1.
        -15    1    1    2    0    0 -0.38029737746E+01 -0.11758823410E+01 -0.87997542682E+00  0.44471782696E+01  0.17770000000E+01 0. -1.
         15    1    1    2    0    0  0.51993680823E+01 -0.37210472663E+00 -0.41665706247E+02  0.42028094133E+02  0.17770000000E+01 0. -1.
</event>
<event>
 6    1  0.1378789E-002  0.1749218E+03  0.7546771E-02  0.1074652E+00
        -11   -1    0    0    0    0  0.00000000000E+00  0.00000000000E+00  0.18250000000E+03  0.18250000000E+03  0.00000000000E+00 0. -1.
         11   -1    0    0    0    0 -0.00000000000E+00 -0.00000000000E+00 -0.18250000000E+03  0.18250000000E+03  0.00000000000E+00 0. -1.
        -11    1    1    2    0    0 -0.56901530982E+01  0.10577408234E+01  0.17453442381E+03  0.17463035748E+03  0.00000000000E+00 0. -1.
         11    1    1    2    0    0 -0.20676030831E+01 -0.17608710785E+01 -0.17527962408E+03  0.17530066249E+03  0.00000000000E+00 0. -1.
        -15    1    1    2    0    0  0.14453457062E+01 -0.43100947182E+01  0.38841415824E+01  0.62378061465E+01  0.17770000000E+01 0.  1.
         15    1    1    2    0    0  0.63124104751E+01  0.50132249732E+01 -0.31389413125E+01  0.88311738858E+01  0.17770000000E+01 0. -1.
</event>
<event>
 6    1  0.1378789E-002  0.1840740E+03  0.7546771E-02  0.1067209E+00
        -11   -1    0    0    0    0  0.00000000000E+00  0.00000000000E+00  0.18250000000E+03  0.18250000000E+03  0.00000000000E+00 0. -1.
         11   -1    0    0    0    0 -0.00000000000E+00 -0.00000000000E+00 -0.18250000000E+03  0.18250000000E+03  0.00000000000E+00 0. -1.
        -11    1    1    2    0    0 -0.44364332065E+00 -0.31098290910E+01  0.16324152918E+03  0.16327175109E+03  0.00000000000E+00 0. -1.
         11    1    1    2    0    0  0.60637651586E+01 -0.15334459825E+01 -0.18081790219E+03  0.18092604692E+03  0.00000000000E+00 0. -1.
        -15    1    1    2    0    0  0.12870952809E+01  0.30846108319E+00  0.69223203305E+01  0.72682879868E+01  0.17770000000E+01 0. -1.
         15    1    1    2    0    0 -0.69072171188E+01  0.43348139903E+01  0.10654052679E+02  0.13533913999E+02  0.17770000000E+01 0.  1.
</event>
<event>
 6    1  0.1378789E-002  0.1840834E+03  0.7546771E-02  0.1067201E+00
        -11   -1    0    0    0    0  0.00000000000E+00  0.00000000000E+00  0.18250000000E+03  0.18250000000E+03  0.00000000000E+00 0.  1.
         11   -1    0    0    0    0 -0.00000000000E+00 -0.00000000000E+00 -0.18250000000E+03  0.18250000000E+03  0.00000000000E+00 0. -1.
        -11    1    1    2    0    0 -0.68051421331E+01  0.43061897307E+01  0.18073722848E+03  0.18091655256E+03  0.00000000000E+00 0.  1.
         11    1    1    2    0    0  0.35160036477E+01 -0.32478092804E-01 -0.15775140043E+03  0.15779058170E+03  0.00000000000E+00 0. -1.
        -15    1    1    2    0    0 -0.23248331370E+01 -0.36855183678E+01 -0.33284735388E+01  0.57640575859E+01  0.17770000000E+01 0.  1.
         15    1    1    2    0    0  0.56139716224E+01 -0.58819327012E+00 -0.19657354516E+02  0.20528808155E+02  0.17770000000E+01 0. -1.
</event>
<event>
 6    1  0.1378789E-002  0.1864321E+03  0.7546771E-02  0.1065367E+00
        -11   -1    0    0    0    0  0.00000000000E+00  0.00000000000E+00  0.18250000000E+03  0.18250000000E+03  0.00000000000E+00 0.  1.
         11   -1    0    0    0    0 -0.00000000000E+00 -0.00000000000E+00 -0.18250000000E+03  0.18250000000E+03  0.00000000000E+00 0. -1.
        -11    1    1    2    0    0  0.23573715692E+01 -0.26245666094E+01  0.12258647360E+03  0.12263722543E+03  0.00000000000E+00 0.  1.
         11    1    1    2    0    0  0.45216911228E+01  0.21326645348E+01 -0.17849792425E+03  0.17856792240E+03  0.00000000000E+00 0. -1.
        -15    1    1    2    0    0 -0.10897664985E+02  0.33919939083E+01  0.57216481807E+02  0.58370782453E+02  0.17770000000E+01 0.  1.
         15    1    1    2    0    0  0.40186022932E+01 -0.29000918337E+01 -0.13050311625E+01  0.54240697239E+01  0.17770000000E+01 0. -1.
</event>
<event>
 6    1  0.1378789E-002  0.1826712E+03  0.7546771E-02  0.1068319E+00
        -11   -1    0    0    0    0  0.00000000000E+00  0.00000000000E+00  0.18250000000E+03  0.18250000000E+03  0.00000000000E+00 0. -1.
         11   -1    0    0    0    0 -0.00000000000E+00 -0.00000000000E+00 -0.18250000000E+03  0.18250000000E+03  0.00000000000E+00 0.  1.
        -11    1    1    2    0    0  0.16496984503E+01  0.36006258665E+01  0.18228575683E+03  0.18232877764E+03  0.00000000000E+00 0. -1.
         11    1    1    2    0    0  0.24095107903E+01  0.97028155052E+00 -0.74366997574E+02  0.74412347878E+02  0.00000000000E+00 0.  1.
        -15    1    1    2    0    0 -0.53721377438E+00 -0.35169131134E+01 -0.71798080683E+02  0.71908131635E+02  0.17770000000E+01 0.  1.
         15    1    1    2    0    0 -0.35219954663E+01 -0.10539943036E+01 -0.36120678574E+02  0.36350742849E+02  0.17770000000E+01 0. -1.
</event>
<event>
 6    1  0.1378789E-002  0.1827677E+03  0.7546771E-02  0.1068242E+00
        -11   -1    0    0    0    0  0.00000000000E+00  0.00000000000E+00  0.18250000000E+03  0.18250000000E+03  0.00000000000E+00 0.  1.
         11   -1    0    0    0    0 -0.00000000000E+00 -0.00000000000E+00 -0.18250000000E+03  0.18250000000E+03  0.00000000000E+00 0.  1.
        -11    1    1    2    0    0 -0.25561711256E+01 -0.34740439945E+01  0.18218121518E+03  0.18223226432E+03  0.00000000000E+00 0.  1.
         11    1    1    2    0    0  0.18266728015E+00 -0.11968999563E+01 -0.83152228607E+02  0.83161042918E+02  0.00000000000E+00 0.  1.
        -15    1    1    2    0    0  0.31878452869E+01 -0.16254304306E+01 -0.44983745638E+02  0.45160817999E+02  0.17770000000E+01 0.  1.
         15    1    1    2    0    0 -0.81434144146E+00  0.62963743814E+01 -0.54045240937E+02  0.54445874768E+02  0.17770000000E+01 0. -1.
</event>
<event>
 6    1  0.1378789E-002  0.1837153E+03  0.7546771E-02  0.1067492E+00
        -11   -1    0    0    0    0  0.00000000000E+00  0.00000000000E+00  0.18250000000E+03  0.18250000000E+03  0.00000000000E+00 0. -1.
         11   -1    0    0    0    0 -0.00000000000E+00 -0.00000000000E+00 -0.18250000000E+03  0.18250000000E+03  0.00000000000E+00 0.  1.
        -11    1    1    2    0    0 -0.23587420253E+01  0.11029404371E+01  0.18126603356E+03  0.18128473478E+03  0.00000000000E+00 0. -1.
         11    1    1    2    0    0 -0.19237882656E+01 -0.26857120739E+01 -0.15036669558E+03  0.15040298251E+03  0.00000000000E+00 0.  1.
        -15    1    1    2    0    0  0.61685442163E+01  0.12391266634E+01 -0.83165346674E+01  0.10578697959E+02  0.17770000000E+01 0.  1.
         15    1    1    2    0    0 -0.18860139254E+01  0.34364497340E+00 -0.22582803321E+02  0.22733584742E+02  0.17770000000E+01 0. -1.
</event>
<event>
 6    1  0.1378789E-002  0.1898809E+03  0.7546771E-02  0.1062727E+00
        -11   -1    0    0    0    0  0.00000000000E+00  0.00000000000E+00  0.18250000000E+03  0.18250000000E+03  0.00000000000E+00 0. -1.
         11   -1    0    0    0    0 -0.00000000000E+00 -0.00000000000E+00 -0.18250000000E+03  0.18250000000E+03  0.00000000000E+00 0. -1.
        -11    1    1    2    0    0  0.29614739173E+00 -0.32308742809E+01  0.14472722125E+03  0.14476358252E+03  0.00000000000E+00 0. -1.
         11    1    1    2    0    0  0.34103827938E+01 -0.12080293604E+01 -0.17508172808E+03  0.17511910676E+03  0.00000000000E+00 0. -1.
        -15    1    1    2    0    0 -0.52952524525E+01 -0.13840950711E+02  0.14343384486E+02  0.20700290400E+02  0.17770000000E+01 0.  1.
         15    1    1    2    0    0  0.15887222670E+01  0.18279854352E+02  0.16011122341E+02  0.24417020317E+02  0.17770000000E+01 0. -1.
</event>
<event>
 6    1  0.1378789E-002  0.1721981E+03  0.7546771E-02  0.1076964E+00
        -11   -1    0    0    0    0  0.00000000000E+00  0.00000000000E+00  0.18250000000E+03  0.18250000000E+03  0.00000000000E+00 0. -1.
         11   -1    0    0    0    0 -0.00000000000E+00 -0.00000000000E+00 -0.18250000000E+03  0.18250000000E+03  0.00000000000E+00 0.  1.
        -11    1    1    2    0    0  0.54888616670E+01 -0.68974118886E+01  0.17257498434E+03  0.17279996271E+03  0.00000000000E+00 0. -1.
         11    1    1    2    0    0 -0.31347508718E+01  0.18617695414E+01 -0.17160372705E+03  0.17164245392E+03  0.00000000000E+00 0.  1.
        -15    1    1    2    0    0  0.44641713177E+01  0.25023061445E+01 -0.84094718938E+01  0.10003364840E+02  0.17770000000E+01 0. -1.
         15    1    1    2    0    0 -0.68182821129E+01  0.25333362028E+01  0.74382146024E+01  0.10554218529E+02  0.17770000000E+01 0. -1.
</event>
<event>
 6    1  0.1378789E-002  0.1829364E+03  0.7546771E-02  0.1068108E+00
        -11   -1    0    0    0    0  0.00000000000E+00  0.00000000000E+00  0.18250000000E+03  0.18250000000E+03  0.00000000000E+00 0. -1.
         11   -1    0    0    0    0 -0.00000000000E+00 -0.00000000000E+00 -0.18250000000E+03  0.18250000000E+03  0.00000000000E+00 0. -1.
        -11    1    1    2    0    0  0.13400152429E+01 -0.31858425155E+01  0.18203083108E+03  0.18206363914E+03  0.00000000000E+00 0. -1.
         11    1    1    2    0    0  0.22551544441E+01  0.61117616279E+00 -0.15827352934E+03  0.15829077467E+03  0.00000000000E+00 0. -1.
        -15    1    1    2    0    0 -0.28622239579E+01  0.33088551985E-01 -0.12457300042E+02  0.12904862424E+02  0.17770000000E+01 0. -1.
         15    1    1    2    0    0 -0.73294572903E+00  0.25415778008E+01 -0.11300001699E+02  0.11740723766E+02  0.17770000000E+01 0.  1.
</event>
<event>
 6    1  0.1378789E-002  0.1852961E+03  0.7546771E-02  0.1066251E+00
        -11   -1    0    0    0    0  0.00000000000E+00  0.00000000000E+00  0.18250000000E+03  0.18250000000E+03  0.00000000000E+00 0. -1.
         11   -1    0    0    0    0 -0.00000000000E+00 -0.00000000000E+00 -0.18250000000E+03  0.18250000000E+03  0.00000000000E+00 0.  1.
        -11    1    1    2    0    0  0.45592988646E+00  0.28820934463E+01  0.16009473856E+03  0.16012132791E+03  0.00000000000E+00 0. -1.
         11    1    1    2    0    0 -0.31069644487E+00 -0.24151817383E+01 -0.17968742316E+03  0.17970392226E+03  0.00000000000E+00 0.  1.
        -15    1    1    2    0    0  0.11575645181E+01  0.29403781388E-01  0.21866908586E+02  0.21969529815E+02  0.17770000000E+01 0. -1.
         15    1    1    2    0    0 -0.13027979597E+01 -0.49631548938E+00 -0.22742239931E+01  0.32052200173E+01  0.17770000000E+01 0. -1.
</event>
<event>
 6    1  0.1378789E-002  0.1834638E+03  0.7546771E-02  0.1067690E+00
        -11   -1    0    0    0    0  0.00000000000E+00  0.00000000000E+00  0.18250000000E+03  0.18250000000E+03  0.00000000000E+00 0. -1.
         11   -1    0    0    0    0 -0.00000000000E+00 -0.00000000000E+00 -0.18250000000E+03  0.18250000000E+03  0.00000000000E+00 0.  1.
        -11    1    1    2    0    0  0.20282546761E+01  0.44514055867E+00  0.29133176428E+02  0.29207087084E+02  0.00000000000E+00 0. -1.
         11    1    1    2    0    0  0.70143652553E+01 -0.22012302386E+01 -0.18138732560E+03  0.18153624603E+03  0.00000000000E+00 0.  1.
        -15    1    1    2    0    0 -0.12507929792E+01 -0.17253708311E+00  0.13622218317E+03  0.13623962408E+03  0.17770000000E+01 0. -1.
         15    1    1    2    0    0 -0.77918269522E+01  0.19286267630E+01  0.16031966001E+02  0.18017042801E+02  0.17770000000E+01 0. -1.
</event>
<event>
 6    1  0.1378789E-002  0.1842099E+03  0.7546771E-02  0.1067102E+00
        -11   -1    0    0    0    0  0.00000000000E+00  0.00000000000E+00  0.18250000000E+03  0.18250000000E+03  0.00000000000E+00 0.  1.
         11   -1    0    0    0    0 -0.00000000000E+00 -0.00000000000E+00 -0.18250000000E+03  0.18250000000E+03  0.00000000000E+00 0.  1.
        -11    1    1    2    0    0  0.25995603588E+01  0.40853036892E+01  0.18072520896E+03  0.18079006769E+03  0.00000000000E+00 0.  1.
         11    1    1    2    0    0  0.33953923606E+01 -0.66265899823E+00 -0.14496306816E+03  0.14500434109E+03  0.00000000000E+00 0.  1.
        -15    1    1    2    0    0 -0.51992177695E+01 -0.68786094973E+01 -0.10815743426E+02  0.13945793949E+02  0.17770000000E+01 0. -1.
         15    1    1    2    0    0 -0.79573494994E+00  0.34559648064E+01 -0.24946397382E+02  0.25259797271E+02  0.17770000000E+01 0.  1.
</event>
<event>
 6    1  0.1378789E-002  0.1839123E+03  0.7546771E-02  0.1067336E+00
        -11   -1    0    0    0    0  0.00000000000E+00  0.00000000000E+00  0.18250000000E+03  0.18250000000E+03  0.00000000000E+00 0.  1.
         11   -1    0    0    0    0 -0.00000000000E+00 -0.00000000000E+00 -0.18250000000E+03  0.18250000000E+03  0.00000000000E+00 0.  1.
        -11    1    1    2    0    0  0.28801567912E+01  0.24133342296E+01  0.15923646756E+03  0.15928079635E+03  0.00000000000E+00 0.  1.
         11    1    1    2    0    0 -0.43521499889E+00  0.44063834989E+01 -0.18103360247E+03  0.18108774352E+03  0.00000000000E+00 0.  1.
        -15    1    1    2    0    0 -0.16770700281E+01 -0.68828553904E+00  0.15232376642E+02  0.15442452137E+02  0.17770000000E+01 0. -1.
         15    1    1    2    0    0 -0.76787176421E+00 -0.61314321894E+01  0.65647582706E+01  0.91890079928E+01  0.17770000000E+01 0.  1.
</event>
<event>
 6    1  0.1378789E-002  0.1831064E+03  0.7546771E-02  0.1067973E+00
        -11   -1    0    0    0    0  0.00000000000E+00  0.00000000000E+00  0.18250000000E+03  0.18250000000E+03  0.00000000000E+00 0.  1.
         11   -1    0    0    0    0 -0.00000000000E+00 -0.00000000000E+00 -0.18250000000E+03  0.18250000000E+03  0.00000000000E+00 0. -1.
        -11    1    1    2    0    0 -0.36617501671E+01 -0.23434805489E+01  0.18184165573E+03  0.18189361746E+03  0.00000000000E+00 0.  1.
         11    1    1    2    0    0  0.32893127657E+01  0.15275344891E+01 -0.81411441612E+01  0.89124165264E+01  0.00000000000E+00 0. -1.
        -15    1    1    2    0    0 -0.17619851231E+01  0.47117938135E+01 -0.34394535266E+02  0.34805852636E+02  0.17770000000E+01 0.  1.
         15    1    1    2    0    0  0.21344225244E+01 -0.38958477537E+01 -0.13930597630E+03  0.13938811338E+03  0.17770000000E+01 0. -1.
</event>
<event>
 6    1  0.1378789E-002  0.1848708E+03  0.7546771E-02  0.1066583E+00
        -11   -1    0    0    0    0  0.00000000000E+00  0.00000000000E+00  0.18250000000E+03  0.18250000000E+03  0.00000000000E+00 0. -1.
         11   -1    0    0    0    0 -0.00000000000E+00 -0.00000000000E+00 -0.18250000000E+03  0.18250000000E+03  0.00000000000E+00 0.  1.
        -11    1    1    2    0    0  0.80097930000E+00 -0.19344164024E+01  0.88931620320E+02  0.88956262441E+02  0.00000000000E+00 0. -1.
         11    1    1    2    0    0  0.73114913103E+00  0.35414138453E+01 -0.18009291731E+03  0.18012921766E+03  0.00000000000E+00 0.  1.
        -15    1    1    2    0    0  0.76911619690E+01 -0.49820971916E+01  0.81468875945E+02  0.82001894744E+02  0.17770000000E+01 0.  1.
         15    1    1    2    0    0 -0.92232904000E+01  0.33750997486E+01  0.96924210398E+01  0.13912625156E+02  0.17770000000E+01 0. -1.
</event>
<event>
 6    1  0.1378789E-002  0.1828802E+03  0.7546771E-02  0.1068153E+00
        -11   -1    0    0    0    0  0.00000000000E+00  0.00000000000E+00  0.18250000000E+03  0.18250000000E+03  0.00000000000E+00 0. -1.
         11   -1    0    0    0    0 -0.00000000000E+00 -0.00000000000E+00 -0.18250000000E+03  0.18250000000E+03  0.00000000000E+00 0. -1.
        -11    1    1    2    0    0 -0.14914989439E+01 -0.13229342082E+01  0.11835749458E+03  0.11837428457E+03  0.00000000000E+00 0. -1.
         11    1    1    2    0    0 -0.92035423503E+00  0.27361241435E+01 -0.18209690538E+03  0.18211978579E+03  0.00000000000E+00 0. -1.
        -15    1    1    2    0    0  0.16343509092E+01 -0.36967364029E+01  0.14076266622E+02  0.14752490432E+02  0.17770000000E+01 0.  1.
         15    1    1    2    0    0  0.77750226979E+00  0.22835464675E+01  0.49663144181E+02  0.49753439210E+02  0.17770000000E+01 0.  1.
</event>
<event>
 6    1  0.1378789E-002  0.1851415E+03  0.7546771E-02  0.1066371E+00
        -11   -1    0    0    0    0  0.00000000000E+00  0.00000000000E+00  0.18250000000E+03  0.18250000000E+03  0.00000000000E+00 0.  1.
         11   -1    0    0    0    0 -0.00000000000E+00 -0.00000000000E+00 -0.18250000000E+03  0.18250000000E+03  0.00000000000E+00 0. -1.
        -11    1    1    2    0    0  0.28271935820E+01  0.11017858097E+01  0.17306825531E+03  0.17309485247E+03  0.00000000000E+00 0.  1.
         11    1    1    2    0    0  0.80596757017E+00  0.48055729145E+01 -0.17979245036E+03  0.17985846747E+03  0.00000000000E+00 0. -1.
        -15    1    1    2    0    0 -0.44767158504E+01 -0.48849558604E+01  0.70137896013E+01  0.98109506234E+01  0.17770000000E+01 0.  1.
         15    1    1    2    0    0  0.84355469827E+00 -0.10224028639E+01 -0.28959455177E+00  0.22357294446E+01  0.17770000000E+01 0. -1.
</event>
<event>
 6    1  0.1378789E-002  0.1845919E+03  0.7546771E-02  0.1066802E+00
        -11   -1    0    0    0    0  0.00000000000E+00  0.00000000000E+00  0.18250000000E+03  0.18250000000E+03  0.00000000000E+00 0.  1.
         11   -1    0    0    0    0 -0.00000000000E+00 -0.00000000000E+00 -0.18250000000E+03  0.18250000000E+03  0.00000000000E+00 0. -1.
        -11    1    1    2    0    0  0.56558328621E+00 -0.59541048456E+01  0.18030898288E+03  0.18040814992E+03  0.00000000000E+00 0.  1.
         11    1    1    2    0    0  0.98074116008E+00 -0.60508250978E+00 -0.73353991921E+02  0.73363043209E+02  0.00000000000E+00 0. -1.
        -15    1    1    2    0    0  0.28393383054E+01 -0.36101131096E+00  0.53605429533E+00  0.34113420214E+01  0.17770000000E+01 0.  1.
         15    1    1    2    0    0 -0.43856627517E+01  0.69201986664E+01 -0.10749104526E+03  0.10781746485E+03  0.17770000000E+01 0. -1.
</event>
<event>
 6    1  0.1378789E-002  0.1830227E+03  0.7546771E-02  0.1068039E+00
        -11   -1    0    0    0    0  0.00000000000E+00  0.00000000000E+00  0.18250000000E+03  0.18250000000E+03  0.00000000000E+00 0.  1.
         11   -1    0    0    0    0 -0.00000000000E+00 -0.00000000000E+00 -0.18250000000E+03  0.18250000000E+03  0.00000000000E+00 0. -1.
        -11    1    1    2    0    0 -0.20843442314E+01 -0.20284804630E+01  0.18195402756E+03  0.18197727157E+03  0.00000000000E+00 0.  1.
         11    1    1    2    0    0  0.34178783028E+01 -0.11624778835E+01 -0.15137464246E+03  0.15141768597E+03  0.00000000000E+00 0. -1.
        -15    1    1    2    0    0 -0.29136715128E+01  0.18346944675E+01 -0.25863986033E+02  0.26152611495E+02  0.17770000000E+01 0. -1.
         15    1    1    2    0    0  0.15801374414E+01  0.13562638790E+01 -0.47153990664E+01  0.54524309623E+01  0.17770000000E+01 0.  1.
</event>
<event>
 6    1  0.1378789E-002  0.1868594E+03  0.7546771E-02  0.1065037E+00
        -11   -1    0    0    0    0  0.00000000000E+00  0.00000000000E+00  0.18250000000E+03  0.18250000000E+03  0.00000000000E+00 0. -1.
         11   -1    0    0    0    0 -0.00000000000E+00 -0.00000000000E+00 -0.18250000000E+03  0.18250000000E+03  0.00000000000E+00 0.  1.
        -11    1    1    2    0    0  0.13154983735E+01 -0.33023753150E+01  0.17810508121E+03  0.17814055173E+03  0.00000000000E+00 0. -1.
         11    1    1    2    0    0  0.22985675841E+01 -0.29163377155E+00 -0.13711364016E+03  0.13713321545E+03  0.00000000000E+00 0.  1.
        -15    1    1    2    0    0  0.71075594148E+01  0.50388175800E+01 -0.18551497979E+01  0.90833029902E+01  0.17770000000E+01 0. -1.
         15    1    1    2    0    0 -0.10721625372E+02 -0.14448084935E+01 -0.39136291257E+02  0.40642929822E+02  0.17770000000E+01 0.  1.
</event>
<event>
 6    1  0.1378789E-002  0.1826471E+03  0.7546771E-02  0.1068338E+00
        -11   -1    0    0    0    0  0.00000000000E+00  0.00000000000E+00  0.18250000000E+03  0.18250000000E+03  0.00000000000E+00 0.  1.
         11   -1    0    0    0    0 -0.00000000000E+00 -0.00000000000E+00 -0.18250000000E+03  0.18250000000E+03  0.00000000000E+00 0. -1.
        -11    1    1    2    0    0  0.32680838757E+01  0.70269528573E+00  0.18232226850E+03  0.18235290989E+03  0.00000000000E+00 0.  1.
         11    1    1    2    0    0 -0.25197559885E+00  0.79612204463E+00 -0.30664192743E+02  0.30675560608E+02  0.00000000000E+00 0. -1.
        -15    1    1    2    0    0  0.26356935510E+01 -0.51750023881E+00 -0.31687703393E+02  0.31850949158E+02  0.17770000000E+01 0. -1.
         15    1    1    2    0    0 -0.56518018278E+01 -0.98131709155E+00 -0.11997037237E+03  0.12012058034E+03  0.17770000000E+01 0. -1.
</event>
<event>
 6    1  0.1378789E-002  0.1856309E+03  0.7546771E-02  0.1065990E+00
        -11   -1    0    0    0    0  0.00000000000E+00  0.00000000000E+00  0.18250000000E+03  0.18250000000E+03  0.00000000000E+00 0.  1.
         11   -1    0    0    0    0 -0.00000000000E+00 -0.00000000000E+00 -0.18250000000E+03  0.18250000000E+03  0.00000000000E+00 0. -1.
        -11    1    1    2    0    0 -0.42373408595E+01  0.28066241698E+01  0.16830883239E+03  0.16838555537E+03  0.00000000000E+00 0.  1.
         11    1    1    2    0    0  0.34886324619E+01  0.52599080882E+01 -0.17925799528E+03  0.17936907777E+03  0.00000000000E+00 0. -1.
        -15    1    1    2    0    0  0.24466274770E+01 -0.89636832162E+01  0.11148685843E+02  0.14621372296E+02  0.17770000000E+01 0. -1.
         15    1    1    2    0    0 -0.16979190795E+01  0.89715095826E+00 -0.19952295720E+00  0.26239945604E+01  0.17770000000E+01 0.  1.
</event>
<event>
 6    1  0.1378789E-002  0.1856037E+03  0.7546771E-02  0.1066011E+00
        -11   -1    0    0    0    0  0.00000000000E+00  0.00000000000E+00  0.18250000000E+03  0.18250000000E+03  0.00000000000E+00 0.  1.
         11   -1    0    0    0    0 -0.00000000000E+00 -0.00000000000E+00 -0.18250000000E+03  0.18250000000E+03  0.00000000000E+00 0.  1.
        -11    1    1    2    0    0  0.30920472767E+01 -0.29242539394E+00  0.12121258487E+03  0.12125236905E+03  0.00000000000E+00 0.  1.
         11    1    1    2    0    0  0.22601683803E+01 -0.82720018984E+01 -0.17919125079E+03  0.17939631751E+03  0.00000000000E+00 0.  1.
        -15    1    1    2    0    0  0.74233441900E+01  0.11700945519E+02  0.22660774089E+02  0.26621167824E+02  0.17770000000E+01 0.  1.
         15    1    1    2    0    0 -0.12775559847E+02 -0.31365182271E+01  0.35317891830E+02  0.37730145618E+02  0.17770000000E+01 0. -1.
</event>
<event>
 6    1  0.1378789E-002  0.2005848E+03  0.7546771E-02  0.1054906E+00
        -11   -1    0    0    0    0  0.00000000000E+00  0.00000000000E+00  0.18250000000E+03  0.18250000000E+03  0.00000000000E+00 0. -1.
         11   -1    0    0    0    0 -0.00000000000E+00 -0.00000000000E+00 -0.18250000000E+03  0.18250000000E+03  0.00000000000E+00 0.  1.
        -11    1    1    2    0    0 -0.51252585708E+00  0.25223775544E+01  0.16439503834E+03  0.16441518696E+03  0.00000000000E+00 0. -1.
         11    1    1    2    0    0 -0.14348841174E+02 -0.27883618528E+02 -0.13688491374E+03  0.14043099741E+03  0.00000000000E+00 0.  1.
        -15    1    1    2    0    0  0.43364401276E+01 -0.39496212800E+01  0.97769927995E+01  0.11539130749E+02  0.17770000000E+01 0. -1.
         15    1    1    2    0    0  0.10524926904E+02  0.29310862254E+02 -0.37287117403E+02  0.48614684876E+02  0.17770000000E+01 0.  1.
</event>
<event>
 6    1  0.1378789E-002  0.1848140E+03  0.7546771E-02  0.1066628E+00
        -11   -1    0    0    0    0  0.00000000000E+00  0.00000000000E+00  0.18250000000E+03  0.18250000000E+03  0.00000000000E+00 0. -1.
         11   -1    0    0    0    0 -0.00000000000E+00 -0.00000000000E+00 -0.18250000000E+03  0.18250000000E+03  0.00000000000E+00 0.  1.
        -11    1    1    2    0    0  0.19515715351E+01 -0.23920446770E+01  0.18015958512E+03  0.18018603336E+03  0.00000000000E+00 0. -1.
         11    1    1    2    0    0 -0.16397845281E+01 -0.27115712060E+01 -0.16569611596E+03  0.16572641418E+03  0.00000000000E+00 0.  1.
        -15    1    1    2    0    0  0.12563488873E+01  0.55122168219E+01 -0.15404445688E+02  0.16505078696E+02  0.17770000000E+01 0.  1.
         15    1    1    2    0    0 -0.15681358942E+01 -0.40860093890E+00  0.94097653311E+00  0.25824737648E+01  0.17770000000E+01 0. -1.
</event>
<event>
 6    1  0.1378789E-002  0.1840706E+03  0.7546771E-02  0.1067211E+00
        -11   -1    0    0    0    0  0.00000000000E+00  0.00000000000E+00  0.18250000000E+03  0.18250000000E+03  0.00000000000E+00 0. -1.
         11   -1    0    0    0    0 -0.00000000000E+00 -0.00000000000E+00 -0.18250000000E+03  0.18250000000E+03  0.00000000000E+00 0.  1.
        -11    1    1    2    0    0  0.12832584643E+01 -0.40234074438E+01  0.16543898663E+03  0.16549287857E+03  0.00000000000E+00 0. -1.
         11    1    1    2    0    0 -0.10624727389E+01 -0.29984687892E+01 -0.18090146374E+03  0.18092943167E+03  0.00000000000E+00 0.  1.
        -15    1    1    2    0    0 -0.34429588744E+00  0.20641259605E+01  0.60129917246E+00  0.28104172882E+01  0.17770000000E+01 0.  1.
         15    1    1    2    0    0  0.12351016211E+00  0.49577502725E+01  0.14861177931E+02  0.15767272466E+02  0.17770000000E+01 0. -1.
</event>
<event>
 6    1  0.1378789E-002  0.1832198E+03  0.7546771E-02  0.1067883E+00
        -11   -1    0    0    0    0  0.00000000000E+00  0.00000000000E+00  0.18250000000E+03  0.18250000000E+03  0.00000000000E+00 0.  1.
         11   -1    0    0    0    0 -0.00000000000E+00 -0.00000000000E+00 -0.18250000000E+03  0.18250000000E+03  0.00000000000E+00 0. -1.
        -11    1    1    2    0    0 -0.27062435108E+01  0.12802977349E+01  0.18175558141E+03  0.18178023624E+03  0.00000000000E+00 0.  1.
         11    1    1    2    0    0  0.21197613839E+01 -0.24930987963E+00 -0.14147094448E+03  0.14148704420E+03  0.00000000000E+00 0. -1.
        -15    1    1    2    0    0  0.29168407811E+01 -0.13568464627E+01 -0.37491437806E+02  0.37671137894E+02  0.17770000000E+01 0. -1.
         15    1    1    2    0    0 -0.23303586542E+01  0.32585860737E+00 -0.27931991185E+01  0.40615816630E+01  0.17770000000E+01 0. -1.
</event>
<event>
 6    1  0.1378789E-002  0.1752309E+03  0.7546771E-02  0.1074393E+00
        -11   -1    0    0    0    0  0.00000000000E+00  0.00000000000E+00  0.18250000000E+03  0.18250000000E+03  0.00000000000E+00 0.  1.
         11   -1    0    0    0    0 -0.00000000000E+00 -0.00000000000E+00 -0.18250000000E+03  0.18250000000E+03  0.00000000000E+00 0.  1.
        -11    1    1    2    0    0 -0.13079658791E+01  0.37830061345E+01  0.17617355519E+03  0.17621902127E+03  0.00000000000E+00 0.  1.
         11    1    1    2    0    0  0.17142783793E+01  0.22151275877E+01 -0.17427691742E+03  0.17429942480E+03  0.00000000000E+00 0.  1.
        -15    1    1    2    0    0  0.47748473528E-01  0.23717126275E+01 -0.46214860055E+01  0.54902789185E+01  0.17770000000E+01 0. -1.
         15    1    1    2    0    0 -0.45406097380E+00 -0.83698463498E+01  0.27248482394E+01  0.89912750049E+01  0.17770000000E+01 0. -1.
</event>
<event>
 6    1  0.1378789E-002  0.1847351E+03  0.7546771E-02  0.1066689E+00
        -11   -1    0    0    0    0  0.00000000000E+00  0.00000000000E+00  0.18250000000E+03  0.18250000000E+03  0.00000000000E+00 0. -1.
         11   -1    0    0    0    0 -0.00000000000E+00 -0.00000000000E+00 -0.18250000000E+03  0.18250000000E+03  0.00000000000E+00 0.  1.
        -11    1    1    2    0    0  0.21514481752E+01 -0.18232464744E+01  0.15815937964E+03  0.15818451987E+03  0.00000000000E+00 0. -1.
         11    1    1    2    0    0 -0.50869007224E+01 -0.24084655552E+01 -0.18017697890E+03  0.18026486344E+03  0.00000000000E+00 0.  1.
        -15    1    1    2    0    0  0.75863146103E+01  0.55969225516E+01  0.12950190515E+02  0.16116540410E+02  0.17770000000E+01 0. -1.
         15    1    1    2    0    0 -0.46508620631E+01 -0.13652105221E+01  0.90674087406E+01  0.10434076287E+02  0.17770000000E+01 0. -1.
</event>
<event>
 6    1  0.1378789E-002  0.1828548E+03  0.7546771E-02  0.1068173E+00
        -11   -1    0    0    0    0  0.00000000000E+00  0.00000000000E+00  0.18250000000E+03  0.18250000000E+03  0.00000000000E+00 0. -1.
         11   -1    0    0    0    0 -0.00000000000E+00 -0.00000000000E+00 -0.18250000000E+03  0.18250000000E+03  0.00000000000E+00 0. -1.
        -11    1    1    2    0    0  0.47435858465E+00  0.31524911086E+01  0.18211726996E+03  0.18214517076E+03  0.00000000000E+00 0. -1.
         11    1    1    2    0    0 -0.69307874037E+00 -0.20933566208E+01 -0.11633665378E+03  0.11635755031E+03  0.00000000000E+00 0. -1.
        -15    1    1    2    0    0  0.28218899736E+01  0.18148618007E+01 -0.50199261246E+02  0.50342629501E+02  0.17770000000E+01 0.  1.
         15    1    1    2    0    0 -0.26031698179E+01 -0.28739962885E+01 -0.15581354927E+02  0.16154649428E+02  0.17770000000E+01 0. -1.
</event>
<event>
 6    1  0.1378789E-002  0.1838867E+03  0.7546771E-02  0.1067356E+00
        -11   -1    0    0    0    0  0.00000000000E+00  0.00000000000E+00  0.18250000000E+03  0.18250000000E+03  0.00000000000E+00 0.  1.
         11   -1    0    0    0    0 -0.00000000000E+00 -0.00000000000E+00 -0.18250000000E+03  0.18250000000E+03  0.00000000000E+00 0.  1.
        -11    1    1    2    0    0  0.27250762893E+01  0.18967045865E+00  0.18109268467E+03  0.18111328625E+03  0.00000000000E+00 0.  1.
         11    1    1    2    0    0  0.11518980912E+01 -0.22253071143E+01 -0.17381165128E+03  0.17382971260E+03  0.00000000000E+00 0.  1.
        -15    1    1    2    0    0 -0.13570091117E+01 -0.41128308622E+00 -0.50360493282E+01  0.55254094276E+01  0.17770000000E+01 0.  1.
         15    1    1    2    0    0 -0.25199652688E+01  0.24469197419E+01 -0.22449840587E+01  0.45315917295E+01  0.17770000000E+01 0. -1.
</event>
<event>
 6    1  0.1378789E-002  0.1828053E+03  0.7546771E-02  0.1068212E+00
        -11   -1    0    0    0    0  0.00000000000E+00  0.00000000000E+00  0.18250000000E+03  0.18250000000E+03  0.00000000000E+00 0.  1.
         11   -1    0    0    0    0 -0.00000000000E+00 -0.00000000000E+00 -0.18250000000E+03  0.18250000000E+03  0.00000000000E+00 0.  1.
        -11    1    1    2    0    0 -0.12114151031E+01  0.67857966064E+01  0.18206424979E+03  0.18219469150E+03  0.00000000000E+00 0.  1.
         11    1    1    2    0    0  0.29487116936E+01 -0.15689972759E+01 -0.38730997861E+02  0.38874758500E+02  0.00000000000E+00 0.  1.
        -15    1    1    2    0    0  0.30787485704E+00 -0.84095255046E+01 -0.10991351871E+03  0.11024950898E+03  0.17770000000E+01 0.  1.
         15    1    1    2    0    0 -0.20451714475E+01  0.31927261741E+01 -0.33419733214E+02  0.33681041013E+02  0.17770000000E+01 0.  1.
</event>
<event>
 6    1  0.1378789E-002  0.1939926E+03  0.7546771E-02  0.1059658E+00
        -11   -1    0    0    0    0  0.00000000000E+00  0.00000000000E+00  0.18250000000E+03  0.18250000000E+03  0.00000000000E+00 0.  1.
         11   -1    0    0    0    0 -0.00000000000E+00 -0.00000000000E+00 -0.18250000000E+03  0.18250000000E+03  0.00000000000E+00 0.  1.
        -11    1    1    2    0    0 -0.50642836000E+01  0.34231515345E+01  0.17089812336E+03  0.17100740774E+03  0.00000000000E+00 0.  1.
         11    1    1    2    0    0 -0.10943080840E+00  0.13462796322E+01 -0.38973637956E+02  0.38997037060E+02  0.00000000000E+00 0.  1.
        -15    1    1    2    0    0 -0.31795410775E+01 -0.19105231861E+02 -0.13635136109E+03  0.13773151697E+03  0.17770000000E+01 0.  1.
         15    1    1    2    0    0  0.83532554859E+01  0.14335800694E+02  0.44268756893E+01  0.17264038233E+02  0.17770000000E+01 0. -1.
</event>
<event>
 6    1  0.1378789E-002  0.2101510E+03  0.7546771E-02  0.1048354E+00
        -11   -1    0    0    0    0  0.00000000000E+00  0.00000000000E+00  0.18250000000E+03  0.18250000000E+03  0.00000000000E+00 0.  1.
         11   -1    0    0    0    0 -0.00000000000E+00 -0.00000000000E+00 -0.18250000000E+03  0.18250000000E+03  0.00000000000E+00 0.  1.
        -11    1    1    2    0    0 -0.31576877245E+01 -0.22810650396E+02  0.15312710588E+03  0.15484898229E+03  0.00000000000E+00 0.  1.
         11    1    1    2    0    0  0.12373251192E+01 -0.86413564748E+01 -0.11711354286E+03  0.11743843466E+03  0.00000000000E+00 0.  1.
        -15    1    1    2    0    0  0.64627320177E+01  0.14497316027E+02  0.24740892258E+02  0.29448404979E+02  0.17770000000E+01 0. -1.
         15    1    1    2    0    0 -0.45423694124E+01  0.16954690844E+02 -0.60754455278E+02  0.63264178068E+02  0.17770000000E+01 0.  1.
</event>
<event>
 6    1  0.1378789E-002  0.1847196E+03  0.7546771E-02  0.1066702E+00
        -11   -1    0    0    0    0  0.00000000000E+00  0.00000000000E+00  0.18250000000E+03  0.18250000000E+03  0.00000000000E+00 0.  1.
         11   -1    0    0    0    0 -0.00000000000E+00 -0.00000000000E+00 -0.18250000000E+03  0.18250000000E+03  0.00000000000E+00 0.  1.
        -11    1    1    2    0    0  0.17547131196E+00 -0.18174242940E+01  0.39619554971E+02  0.39661605582E+02  0.00000000000E+00 0.  1.
         11    1    1    2    0    0 -0.40470235553E+01 -0.16192361641E+02 -0.17950608658E+03  0.18028035416E+03  0.00000000000E+00 0.  1.
        -15    1    1    2    0    0 -0.87302184620E+00  0.29262471711E+01  0.11771373834E+03  0.11776674833E+03  0.17770000000E+01 0.  1.
         15    1    1    2    0    0  0.47445740895E+01  0.15083538764E+02  0.22172793268E+02  0.27291291931E+02  0.17770000000E+01 0.  1.
</event>
<event>
 6    1  0.1378789E-002  0.1856399E+03  0.7546771E-02  0.1065983E+00
        -11   -1    0    0    0    0  0.00000000000E+00  0.00000000000E+00  0.18250000000E+03  0.18250000000E+03  0.00000000000E+00 0. -1.
         11   -1    0    0    0    0 -0.00000000000E+00 -0.00000000000E+00 -0.18250000000E+03  0.18250000000E+03  0.00000000000E+00 0. -1.
        -11    1    1    2    0    0  0.22505937898E+00 -0.24281288739E+01  0.17934348296E+03  0.17936006061E+03  0.00000000000E+00 0. -1.
         11    1    1    2    0    0 -0.27180376627E+00 -0.22495143281E+01 -0.15760403583E+03  0.15762032325E+03  0.00000000000E+00 0. -1.
        -15    1    1    2    0    0  0.46658471405E+00  0.12903451545E+01  0.25671049507E+01  0.34103443728E+01  0.17770000000E+01 0. -1.
         15    1    1    2    0    0 -0.41984032677E+00  0.33872980475E+01 -0.24306552084E+02  0.24609271772E+02  0.17770000000E+01 0. -1.
</event>
<event>
 6    1  0.1378789E-002  0.1874876E+03  0.7546771E-02  0.1064553E+00
        -11   -1    0    0    0    0  0.00000000000E+00  0.00000000000E+00  0.18250000000E+03  0.18250000000E+03  0.00000000000E+00 0.  1.
         11   -1    0    0    0    0 -0.00000000000E+00 -0.00000000000E+00 -0.18250000000E+03  0.18250000000E+03  0.00000000000E+00 0. -1.
        -11    1    1    2    0    0 -0.15276847027E+01 -0.25415511116E+01  0.17376025937E+03  0.17378556050E+03  0.00000000000E+00 0.  1.
         11    1    1    2    0    0 -0.44968598067E+01  0.17021506413E+01 -0.17744729244E+03  0.17751242396E+03  0.00000000000E+00 0. -1.
        -15    1    1    2    0    0  0.47716197057E+00  0.68056377804E+00  0.68126333619E+01  0.70894677463E+01  0.17770000000E+01 0. -1.
         15    1    1    2    0    0  0.55473825388E+01  0.15883669226E+00 -0.31256002915E+01  0.66125477926E+01  0.17770000000E+01 0.  1.
</event>
<event>
 6    1  0.1378789E-002  0.1839054E+03  0.7546771E-02  0.1067342E+00
        -11   -1    0    0    0    0  0.00000000000E+00  0.00000000000E+00  0.18250000000E+03  0.18250000000E+03  0.00000000000E+00 0. -1.
         11   -1    0    0    0    0 -0.00000000000E+00 -0.00000000000E+00 -0.18250000000E+03  0.18250000000E+03  0.00000000000E+00 0. -1.
        -11    1    1    2    0    0 -0.34647797374E+01 -0.66606474990E+00  0.18106018400E+03  0.18109455699E+03  0.00000000000E+00 0. -1.
         11    1    1    2    0    0  0.13546464431E+00  0.62770508503E+00 -0.32756012397E+02  0.32762306275E+02  0.00000000000E+00 0. -1.
        -15    1    1    2    0    0  0.70356376843E+01  0.86923006689E+01 -0.24740026611E+02  0.27208140956E+02  0.17770000000E+01 0.  1.
         15    1    1    2    0    0 -0.37063225912E+01 -0.86539410041E+01 -0.12356414499E+03  0.12393499578E+03  0.17770000000E+01 0. -1.
</event>
<event>
 6    1  0.1378789E-002  0.1896240E+03  0.7546771E-02  0.1062921E+00
        -11   -1    0    0    0    0  0.00000000000E+00  0.00000000000E+00  0.18250000000E+03  0.18250000000E+03  0.00000000000E+00 0. -1.
         11   -1    0    0    0    0 -0.00000000000E+00 -0.00000000000E+00 -0.18250000000E+03  0.18250000000E+03  0.00000000000E+00 0.  1.
        -11    1    1    2    0    0  0.29456599843E+01  0.29660576048E+01  0.14853435338E+03  0.14859316453E+03  0.00000000000E+00 0. -1.
         11    1    1    2    0    0 -0.79797368519E+01  0.27899599655E+01 -0.17517215196E+03  0.17537600434E+03  0.00000000000E+00 0.  1.
        -15    1    1    2    0    0 -0.31395917419E+01 -0.26250435369E+01  0.30839443079E+02  0.31160501734E+02  0.17770000000E+01 0.  1.
         15    1    1    2    0    0  0.81736686095E+01 -0.31309740335E+01 -0.42016445002E+01  0.98703293989E+01  0.17770000000E+01 0.  1.
</event>
<event>
 6    1  0.1378789E-002  0.1837666E+03  0.7546771E-02  0.1067451E+00
        -11   -1    0    0    0    0  0.00000000000E+00  0.00000000000E+00  0.18250000000E+03  0.18250000000E+03  0.00000000000E+00 0. -1.
         11   -1    0    0    0    0 -0.00000000000E+00 -0.00000000000E+00 -0.18250000000E+03  0.18250000000E+03  0.00000000000E+00 0.  1.
        -11    1    1    2    0    0  0.29936303072E+01 -0.74483186434E+01  0.14153648315E+03  0.14176394229E+03  0.00000000000E+00 0. -1.
         11    1    1    2    0    0  0.22217004602E+01  0.12878343266E+01 -0.18121515611E+03  0.18123335034E+03  0.00000000000E+00 0.  1.
        -15    1    1    2    0    0 -0.18521919247E+01 -0.18662407870E+00  0.12371211627E+01  0.28554581496E+01  0.17770000000E+01 0. -1.
         15    1    1    2    0    0 -0.33631388426E+01  0.63471083955E+01  0.38441551801E+02  0.39147249223E+02  0.17770000000E+01 0.  1.
</event>
<event>
 6    1  0.1378789E-002  0.1851605E+03  0.7546771E-02  0.1066357E+00
        -11   -1    0    0    0    0  0.00000000000E+00  0.00000000000E+00  0.18250000000E+03  0.18250000000E+03  0.00000000000E+00 0.  1.
         11   -1    0    0    0    0 -0.00000000000E+00 -0.00000000000E+00 -0.18250000000E+03  0.18250000000E+03  0.00000000000E+00 0.  1.
        -11    1    1    2    0    0 -0.62790962228E+01  0.30880344299E+01  0.15796397424E+03  0.15811887984E+03  0.00000000000E+00 0.  1.
         11    1    1    2    0    0  0.24944665644E+01 -0.63071900070E+01 -0.17971159482E+03  0.17983954048E+03  0.00000000000E+00 0.  1.
        -15    1    1    2    0    0  0.20037636078E+01  0.24007171929E+01  0.23561152210E+02  0.23834096041E+02  0.17770000000E+01 0.  1.
         15    1    1    2    0    0  0.17808660506E+01  0.81843838426E+00 -0.18135316293E+01  0.32074836320E+01  0.17770000000E+01 0. -1.
</event>
<event>
 6    1  0.1378789E-002  0.1826374E+03  0.7546771E-02  0.1068345E+00
        -11   -1    0    0    0    0  0.00000000000E+00  0.00000000000E+00  0.18250000000E+03  0.18250000000E+03  0.00000000000E+00 0.  1.
         11   -1    0    0    0    0 -0.00000000000E+00 -0.00000000000E+00 -0.18250000000E+03  0.18250000000E+03  0.00000000000E+00 0. -1.
        -11    1    1    2    0    0 -0.19699567348E+00 -0.20450744289E+01  0.94722025284E+02  0.94744304370E+02  0.00000000000E+00 0.  1.
         11    1    1    2    0    0  0.48529166690E+00  0.28974699030E+01 -0.18233892585E+03  0.18236259133E+03  0.00000000000E+00 0. -1.
        -15    1    1    2    0    0 -0.22048163834E+01  0.16858312589E+01  0.45242581851E+02  0.45362453460E+02  0.17770000000E+01 0.  1.
         15    1    1    2    0    0  0.19165203900E+01 -0.25382267330E+01  0.42374318710E+02  0.42530650835E+02  0.17770000000E+01 0. -1.
</event>
<event>
 6    1  0.1378789E-002  0.1840879E+03  0.7546771E-02  0.1067198E+00
        -11   -1    0    0    0    0  0.00000000000E+00  0.00000000000E+00  0.18250000000E+03  0.18250000000E+03  0.00000000000E+00 0.  1.
         11   -1    0    0    0    0 -0.00000000000E+00 -0.00000000000E+00 -0.18250000000E+03  0.18250000000E+03  0.00000000000E+00 0. -1.
        -11    1    1    2    0    0 -0.51884243715E+00 -0.30321545066E+01  0.18088596558E+03  0.18091212149E+03  0.00000000000E+00 0.  1.
         11    1    1    2    0    0  0.42351014053E+00  0.56764679150E+01 -0.15945366135E+03  0.15955523109E+03  0.00000000000E+00 0. -1.
        -15    1    1    2    0    0 -0.10765978813E+01  0.42402994658E+01 -0.80095632336E+01  0.92978510824E+01  0.17770000000E+01 0. -1.
         15    1    1    2    0    0  0.11719301779E+01 -0.68846128742E+01 -0.13422740991E+02  0.15234796339E+02  0.17770000000E+01 0.  1.
</event>
<event>
 6    1  0.1378789E-002  0.1828484E+03  0.7546771E-02  0.1068178E+00
        -11   -1    0    0    0    0  0.00000000000E+00  0.00000000000E+00  0.18250000000E+03  0.18250000000E+03  0.00000000000E+00 0. -1.
         11   -1    0    0    0    0 -0.00000000000E+00 -0.00000000000E+00 -0.18250000000E+03  0.18250000000E+03  0.00000000000E+00 0.  1.
        -11    1    1    2    0    0 -0.25594933506E+01 -0.36262563794E+00  0.18213323690E+03  0.18215158107E+03  0.00000000000E+00 0. -1.
         11    1    1    2    0    0 -0.11931940597E+01  0.36749995755E+00 -0.52553985553E+02  0.52568813624E+02  0.00000000000E+00 0.  1.
        -15    1    1    2    0    0  0.37474788977E+01 -0.57035355134E+01 -0.86782701236E+02  0.87068759485E+02  0.17770000000E+01 0.  1.
         15    1    1    2    0    0  0.52085126330E-02  0.56986611938E+01 -0.42796550108E+02  0.43210845822E+02  0.17770000000E+01 0. -1.
</event>
<event>
 6    1  0.1378789E-002  0.1846078E+03  0.7546771E-02  0.1066789E+00
        -11   -1    0    0    0    0  0.00000000000E+00  0.00000000000E+00  0.18250000000E+03  0.18250000000E+03  0.00000000000E+00 0.  1.
         11   -1    0    0    0    0 -0.00000000000E+00 -0.00000000000E+00 -0.18250000000E+03  0.18250000000E+03  0.00000000000E+00 0. -1.
        -11    1    1    2    0    0  0.32074458868E+01  0.55777896009E+01  0.16425347321E+03  0.16437944794E+03  0.00000000000E+00 0.  1.
         11    1    1    2    0    0 -0.40720005571E+01  0.26712307490E+01 -0.18032644953E+03  0.18039219790E+03  0.00000000000E+00 0. -1.
        -15    1    1    2    0    0 -0.73742788554E+00 -0.59556221339E+01  0.15689884783E+02  0.16892112017E+02  0.17770000000E+01 0. -1.
         15    1    1    2    0    0  0.16019825559E+01 -0.22933982160E+01  0.38309154314E+00  0.33362421400E+01  0.17770000000E+01 0.  1.
</event>
<event>
 6    1  0.1378789E-002  0.1833753E+03  0.7546771E-02  0.1067760E+00
        -11   -1    0    0    0    0  0.00000000000E+00  0.00000000000E+00  0.18250000000E+03  0.18250000000E+03  0.00000000000E+00 0. -1.
         11   -1    0    0    0    0 -0.00000000000E+00 -0.00000000000E+00 -0.18250000000E+03  0.18250000000E+03  0.00000000000E+00 0.  1.
        -11    1    1    2    0    0  0.88153338255E+00 -0.43550619413E+01  0.18157037179E+03  0.18162473284E+03  0.00000000000E+00 0. -1.
         11    1    1    2    0    0 -0.17737520654E+01 -0.15494159755E+01 -0.16791471748E+03  0.16793123364E+03  0.00000000000E+00 0.  1.
        -15    1    1    2    0    0  0.11026062586E+01  0.21295573085E+01 -0.47968296103E+01  0.56496069069E+01  0.17770000000E+01 0. -1.
         15    1    1    2    0    0 -0.21038757572E+00  0.37749206083E+01 -0.88588247037E+01  0.97944266122E+01  0.17770000000E+01 0.  1.
</event>
<event>
 6    1  0.1378789E-002  0.1972328E+03  0.7546771E-02  0.1057297E+00
        -11   -1    0    0    0    0  0.00000000000E+00  0.00000000000E+00  0.18250000000E+03  0.18250000000E+03  0.00000000000E+00 0. -1.
         11   -1    0    0    0    0 -0.00000000000E+00 -0.00000000000E+00 -0.18250000000E+03  0.18250000000E+03  0.00000000000E+00 0. -1.
        -11    1    1    2    0    0 -0.89874587301E+01  0.11596736643E+01  0.10172998154E+03  0.10213279788E+03  0.00000000000E+00 0. -1.
         11    1    1    2    0    0  0.24186129892E+01  0.44143737621E+01 -0.16769167497E+03  0.16776720251E+03  0.00000000000E+00 0. -1.
        -15    1    1    2    0    0  0.74200020544E+01  0.11223926231E+01  0.79497315953E+02  0.79870502493E+02  0.17770000000E+01 0. -1.
         15    1    1    2    0    0 -0.85115631358E+00 -0.66964400495E+01 -0.13535622529E+02  0.15229497124E+02  0.17770000000E+01 0.  1.
</event>
<event>
 6    1  0.1378789E-002  0.1754819E+03  0.7546771E-02  0.1074183E+00
        -11   -1    0    0    0    0  0.00000000000E+00  0.00000000000E+00  0.18250000000E+03  0.18250000000E+03  0.00000000000E+00 0.  1.
         11   -1    0    0    0    0 -0.00000000000E+00 -0.00000000000E+00 -0.18250000000E+03  0.18250000000E+03  0.00000000000E+00 0.  1.
        -11    1    1    2    0    0  0.20023347758E+02  0.26322762214E+02  0.17738887612E+03  0.18044565840E+03  0.00000000000E+00 0.  1.
         11    1    1    2    0    0 -0.68871276397E+00 -0.34821322681E+00 -0.17305651886E+02  0.17322850946E+02  0.00000000000E+00 0.  1.
        -15    1    1    2    0    0 -0.19792275915E+02 -0.20349124644E+02 -0.54436092198E+02  0.61418783140E+02  0.17770000000E+01 0.  1.
         15    1    1    2    0    0  0.45764092116E+00 -0.56254243435E+01 -0.10564713204E+03  0.10581270751E+03  0.17770000000E+01 0.  1.
</event>
<event>
 6    1  0.1378789E-002  0.1851899E+03  0.7546771E-02  0.1066334E+00
        -11   -1    0    0    0    0  0.00000000000E+00  0.00000000000E+00  0.18250000000E+03  0.18250000000E+03  0.00000000000E+00 0.  1.
         11   -1    0    0    0    0 -0.00000000000E+00 -0.00000000000E+00 -0.18250000000E+03  0.18250000000E+03  0.00000000000E+00 0. -1.
        -11    1    1    2    0    0 -0.27553196853E+01  0.13720586597E+01  0.10924629677E+03  0.10928965042E+03  0.00000000000E+00 0.  1.
         11    1    1    2    0    0 -0.17763247824E+01 -0.49267606167E+01 -0.17973386252E+03  0.17981014887E+03  0.00000000000E+00 0. -1.
        -15    1    1    2    0    0 -0.75134262737E+00  0.98804470321E+00  0.69676757476E+02  0.69710465566E+02  0.17770000000E+01 0.  1.
         15    1    1    2    0    0  0.52829870951E+01  0.25666572538E+01  0.81080826810E+00  0.61897351440E+01  0.17770000000E+01 0. -1.
</event>
<event>
 6    1  0.1378789E-002  0.1953384E+03  0.7546771E-02  0.1058671E+00
        -11   -1    0    0    0    0  0.00000000000E+00  0.00000000000E+00  0.18250000000E+03  0.18250000000E+03  0.00000000000E+00 0.  1.
         11   -1    0    0    0    0 -0.00000000000E+00 -0.00000000000E+00 -0.18250000000E+03  0.18250000000E+03  0.00000000000E+00 0. -1.
        -11    1    1    2    0    0 -0.57650488412E+01  0.81907017551E+01  0.16936563513E+03  0.16966155058E+03  0.00000000000E+00 0.  1.
         11    1    1    2    0    0 -0.69517730072E+01 -0.44380502293E+01 -0.12096209611E+03  0.12124294673E+03  0.00000000000E+00 0. -1.
        -15    1    1    2    0    0  0.15344748140E+01 -0.48943112125E+01  0.11713843876E+02  0.12910490407E+02  0.17770000000E+01 0.  1.
         15    1    1    2    0    0  0.11182347034E+02  0.11416596867E+01 -0.60117382895E+02  0.61185012276E+02  0.17770000000E+01 0. -1.
</event>
<event>
 6    1  0.1378789E-002  0.1946241E+03  0.7546771E-02  0.1059194E+00
        -11   -1    0    0    0    0  0.00000000000E+00  0.00000000000E+00  0.18250000000E+03  0.18250000000E+03  0.00000000000E+00 0.  1.
         11   -1    0    0    0    0 -0.00000000000E+00 -0.00000000000E+00 -0.18250000000E+03  0.18250000000E+03  0.00000000000E+00 0. -1.
        -11    1    1    2    0    0 -0.36479023430E+01  0.75367126411E+00  0.16671194905E+03  0.16675355818E+03  0.00000000000E+00 0.  1.
         11    1    1    2    0    0  0.10268883992E+01 -0.39944913461E+01 -0.17032601159E+03  0.17037593927E+03  0.00000000000E+00 0. -1.
        -15    1    1    2    0    0 -0.19801922104E+01  0.63129916027E+01 -0.10539576556E+02  0.12570418734E+02  0.17770000000E+01 0. -1.
         15    1    1    2    0    0  0.46012061542E+01 -0.30721715206E+01  0.14153639094E+02  0.15300083808E+02  0.17770000000E+01 0. -1.
</event>
<event>
 6    1  0.1378789E-002  0.1825874E+03  0.7546771E-02  0.1068385E+00
        -11   -1    0    0    0    0  0.00000000000E+00  0.00000000000E+00  0.18250000000E+03  0.18250000000E+03  0.00000000000E+00 0. -1.
         11   -1    0    0    0    0 -0.00000000000E+00 -0.00000000000E+00 -0.18250000000E+03  0.18250000000E+03  0.00000000000E+00 0.  1.
        -11    1    1    2    0    0 -0.39439937015E+01 -0.27675965465E+01  0.18234897621E+03  0.18241261964E+03  0.00000000000E+00 0. -1.
         11    1    1    2    0    0 -0.10681884089E+00  0.11630280676E+01 -0.84060101689E+02  0.84068214805E+02  0.00000000000E+00 0.  1.
        -15    1    1    2    0    0  0.20886469269E+01  0.12991704090E+01 -0.25248130245E+02  0.25429826968E+02  0.17770000000E+01 0. -1.
         15    1    1    2    0    0  0.19621656155E+01  0.30539806995E+00 -0.73040744278E+02  0.73089338591E+02  0.17770000000E+01 0.  1.
</event>
<event>
 6    1  0.1378789E-002  0.1830647E+03  0.7546771E-02  0.1068006E+00
        -11   -1    0    0    0    0  0.00000000000E+00  0.00000000000E+00  0.18250000000E+03  0.18250000000E+03  0.00000000000E+00 0. -1.
         11   -1    0    0    0    0 -0.00000000000E+00 -0.00000000000E+00 -0.18250000000E+03  0.18250000000E+03  0.00000000000E+00 0.  1.
        -11    1    1    2    0    0  0.42001453472E+01  0.26522788366E+00  0.11225304399E+03  0.11233190754E+03  0.00000000000E+00 0. -1.
         11    1    1    2    0    0  0.23832726608E+01 -0.41601340432E+01 -0.18187211440E+03  0.18193529811E+03  0.00000000000E+00 0.  1.
        -15    1    1    2    0    0 -0.21157434373E+01 -0.25417001790E+01  0.34643744277E+02  0.34846568793E+02  0.17770000000E+01 0. -1.
         15    1    1    2    0    0 -0.44676745707E+01  0.64366063385E+01  0.34975326130E+02  0.35886225548E+02  0.17770000000E+01 0. -1.
</event>
<event>
 6    1  0.1378789E-002  0.1861707E+03  0.7546771E-02  0.1065570E+00
        -11   -1    0    0    0    0  0.00000000000E+00  0.00000000000E+00  0.18250000000E+03  0.18250000000E+03  0.00000000000E+00 0.  1.
         11   -1    0    0    0    0 -0.00000000000E+00 -0.00000000000E+00 -0.18250000000E+03  0.18250000000E+03  0.00000000000E+00 0.  1.
        -11    1    1    2    0    0  0.27302215257E+01  0.14360115235E+01  0.17880265920E+03  0.17882926823E+03  0.00000000000E+00 0.  1.
         11    1    1    2    0    0  0.82866487660E+00 -0.25265505112E+01 -0.14970396230E+03  0.14972757419E+03  0.00000000000E+00 0.  1.
        -15    1    1    2    0    0 -0.33950567726E+01  0.10220176523E+02 -0.22593377414E+02  0.25091768583E+02  0.17770000000E+01 0.  1.
         15    1    1    2    0    0 -0.16382962973E+00 -0.91296375354E+01 -0.65053194828E+01  0.11351389001E+02  0.17770000000E+01 0. -1.
</event>
<event>
 6    1  0.1378789E-002  0.1883892E+03  0.7546771E-02  0.1063861E+00
        -11   -1    0    0    0    0  0.00000000000E+00  0.00000000000E+00  0.18250000000E+03  0.18250000000E+03  0.00000000000E+00 0. -1.
         11   -1    0    0    0    0 -0.00000000000E+00 -0.00000000000E+00 -0.18250000000E+03  0.18250000000E+03  0.00000000000E+00 0. -1.
        -11    1    1    2    0    0  0.30706483105E+01  0.61908551974E+01  0.17647557758E+03  0.17661082937E+03  0.00000000000E+00 0. -1.
         11    1    1    2    0    0  0.35822004913E+01  0.66931070387E+01 -0.16306883741E+03  0.16324544581E+03  0.00000000000E+00 0. -1.
        -15    1    1    2    0    0 -0.59594158925E+01  0.15311269054E+01 -0.62046960293E+01  0.89171166414E+01  0.17770000000E+01 0.  1.
         15    1    1    2    0    0 -0.69343290924E+00 -0.14415089142E+02 -0.72020441413E+01  0.16226608178E+02  0.17770000000E+01 0. -1.
</event>
<event>
 6    1  0.1378789E-002  0.1850528E+03  0.7546771E-02  0.1066441E+00
        -11   -1    0    0    0    0  0.00000000000E+00  0.00000000000E+00  0.18250000000E+03  0.18250000000E+03  0.00000000000E+00 0.  1.
         11   -1    0    0    0    0 -0.00000000000E+00 -0.00000000000E+00 -0.18250000000E+03  0.18250000000E+03  0.00000000000E+00 0.  1.
        -11    1    1    2    0    0  0.54820393967E+01 -0.56563789364E+01  0.17977472941E+03  0.17994721646E+03  0.00000000000E+00 0.  1.
         11    1    1    2    0    0 -0.28967207087E+01 -0.37271302064E+00 -0.50088711261E+02  0.50173786998E+02  0.00000000000E+00 0.  1.
        -15    1    1    2    0    0 -0.71026459697E+01  0.65917345716E+01 -0.69754706058E+01  0.12071183190E+02  0.17770000000E+01 0.  1.
         15    1    1    2    0    0  0.45173272817E+01 -0.56264261455E+00 -0.12271054754E+03  0.12280781335E+03  0.17770000000E+01 0.  1.
</event>
<event>
 6    1  0.1378789E-002  0.1613270E+03  0.7546771E-02  0.1086681E+00
        -11   -1    0    0    0    0  0.00000000000E+00  0.00000000000E+00  0.18250000000E+03  0.18250000000E+03  0.00000000000E+00 0.  1.
         11   -1    0    0    0    0 -0.00000000000E+00 -0.00000000000E+00 -0.18250000000E+03  0.18250000000E+03  0.00000000000E+00 0. -1.
        -11    1    1    2    0    0  0.91935566020E+01 -0.36497186931E+01  0.16172597475E+03  0.16202818532E+03  0.00000000000E+00 0.  1.
         11    1    1    2    0    0 -0.60482466204E+01  0.43147554793E+01 -0.16047241197E+03  0.16064430711E+03  0.00000000000E+00 0. -1.
        -15    1    1    2    0    0 -0.10158508085E+02 -0.94320222942E+01  0.16264963116E+02  0.21444465142E+02  0.17770000000E+01 0.  1.
         15    1    1    2    0    0  0.70131981035E+01  0.87669855080E+01 -0.17518525896E+02  0.20883042429E+02  0.17770000000E+01 0. -1.
</event>
<event>
 6    1  0.1718608E-002  0.1863800E+03  0.7546771E-02  0.1065408E+00
        -11   -1    0    0    0    0  0.00000000000E+00  0.00000000000E+00  0.18250000000E+03  0.18250000000E+03  0.00000000000E+00 0. -1.
         11   -1    0    0    0    0 -0.00000000000E+00 -0.00000000000E+00 -0.18250000000E+03  0.18250000000E+03  0.00000000000E+00 0.  1.
        -11    1    1    2    0    0 -0.12200707741E+01  0.17556062566E+01  0.15524975139E+03  0.15526447125E+03  0.00000000000E+00 0. -1.
         11    1    1    2    0    0  0.56154160639E+01  0.13186752165E+00 -0.17853169795E+03  0.17862003655E+03  0.00000000000E+00 0.  1.
        -15    1    1    2    0    0 -0.50468782953E+01  0.12545151459E+01 -0.17875412595E+01  0.57790848353E+01  0.17770000000E+01 0. -1.
         15    1    1    2    0    0  0.65153300555E+00 -0.31419889242E+01  0.25069487814E+02  0.25336407360E+02  0.17770000000E+01 0. -1.
</event>
<event>
 6    1  0.1378789E-002  0.1828328E+03  0.7546771E-02  0.1068190E+00
        -11   -1    0    0    0    0  0.00000000000E+00  0.00000000000E+00  0.18250000000E+03  0.18250000000E+03  0.00000000000E+00 0. -1.
         11   -1    0    0    0    0 -0.00000000000E+00 -0.00000000000E+00 -0.18250000000E+03  0.18250000000E+03  0.00000000000E+00 0. -1.
        -11    1    1    2    0    0  0.26029558379E+01 -0.86240213966E+00  0.18214656702E+03  0.18216720614E+03  0.00000000000E+00 0. -1.
         11    1    1    2    0    0 -0.24390762030E+01 -0.56592829604E+01 -0.68075106116E+02  0.68353468449E+02  0.00000000000E+00 0. -1.
        -15    1    1    2    0    0  0.29746613659E+00  0.17988848986E+01 -0.11310648706E+02  0.11593661033E+02  0.17770000000E+01 0.  1.
         15    1    1    2    0    0 -0.46134577145E+00  0.47228002014E+01 -0.10276081220E+03  0.10288566438E+03  0.17770000000E+01 0. -1.
</event>
<event>
 6    1  0.1606614E-002  0.1883054E+03  0.7546771E-02  0.1063925E+00
        -11   -1    0    0    0    0  0.00000000000E+00  0.00000000000E+00  0.18250000000E+03  0.18250000000E+03  0.00000000000E+00 0.  1.
         11   -1    0    0    0    0 -0.00000000000E+00 -0.00000000000E+00 -0.18250000000E+03  0.18250000000E+03  0.00000000000E+00 0. -1.
        -11    1    1    2    0    0  0.45174412842E+01  0.32104979442E+01  0.17660770245E+03  0.17669463811E+03  0.00000000000E+00 0.  1.
         11    1    1    2    0    0  0.14911764551E+02  0.41847525824E+01 -0.12132954561E+03  0.12231406915E+03  0.00000000000E+00 0. -1.
        -15    1    1    2    0    0  0.29364881552E+00 -0.26516430022E+01  0.29184432738E+01  0.43350294555E+01  0.17770000000E+01 0. -1.
         15    1    1    2    0    0 -0.19722854651E+02 -0.47436075245E+01 -0.58196600115E+02  0.61656263282E+02  0.17770000000E+01 0.  1.
</event>
<event>
 6    1  0.1378789E-002  0.1759872E+03  0.7546771E-02  0.1073761E+00
        -11   -1    0    0    0    0  0.00000000000E+00  0.00000000000E+00  0.18250000000E+03  0.18250000000E+03  0.00000000000E+00 0.  1.
         11   -1    0    0    0    0 -0.00000000000E+00 -0.00000000000E+00 -0.18250000000E+03  0.18250000000E+03  0.00000000000E+00 0.  1.
        -11    1    1    2    0    0 -0.36326673640E+01  0.19413870723E+01  0.17612336194E+03  0.17617151835E+03  0.00000000000E+00 0.  1.
         11    1    1    2    0    0  0.55872093779E+00 -0.31955925306E+01 -0.17578870727E+03  0.17581863833E+03  0.00000000000E+00 0.  1.
        -15    1    1    2    0    0  0.22823468289E+01 -0.32895116730E+01  0.43690263286E+01  0.61867692824E+01  0.17770000000E+01 0.  1.
         15    1    1    2    0    0  0.79159959729E+00  0.45437171313E+01 -0.47036809999E+01  0.68230740316E+01  0.17770000000E+01 0.  1.
</event>
<event>
 6    1  0.1378789E-002  0.1863057E+03  0.7546771E-02  0.1065465E+00
        -11   -1    0    0    0    0  0.00000000000E+00  0.00000000000E+00  0.18250000000E+03  0.18250000000E+03  0.00000000000E+00 0. -1.
         11   -1    0    0    0    0 -0.00000000000E+00 -0.00000000000E+00 -0.18250000000E+03  0.18250000000E+03  0.00000000000E+00 0.  1.
        -11    1    1    2    0    0  0.16143110013E+01  0.24841329997E+01  0.17866975755E+03  0.17869431770E+03  0.00000000000E+00 0. -1.
         11    1    1    2    0    0  0.35403568129E+01 -0.17021737957E+01 -0.17280874758E+03  0.17285339095E+03  0.00000000000E+00 0.  1.
        -15    1    1    2    0    0 -0.48476924591E+01 -0.41224443520E+01 -0.16730551253E+00  0.66091141424E+01  0.17770000000E+01 0.  1.
         15    1    1    2    0    0 -0.30697535508E+00  0.33404851480E+01 -0.56937044561E+01  0.68431772099E+01  0.17770000000E+01 0.  1.
</event>
<event>
 6    1  0.1378789E-002  0.1889048E+03  0.7546771E-02  0.1063468E+00
        -11   -1    0    0    0    0  0.00000000000E+00  0.00000000000E+00  0.18250000000E+03  0.18250000000E+03  0.00000000000E+00 0. -1.
         11   -1    0    0    0    0 -0.00000000000E+00 -0.00000000000E+00 -0.18250000000E+03  0.18250000000E+03  0.00000000000E+00 0. -1.
        -11    1    1    2    0    0  0.38405337328E+01 -0.18506079826E+01  0.17604357943E+03  0.17609519104E+03  0.00000000000E+00 0. -1.
         11    1    1    2    0    0  0.90485005893E+00 -0.49222187909E+01 -0.16429107068E+03  0.16436728049E+03  0.00000000000E+00 0. -1.
        -15    1    1    2    0    0 -0.96811546766E+00 -0.29801063414E+01  0.41032181296E+01  0.54600741189E+01  0.17770000000E+01 0. -1.
         15    1    1    2    0    0 -0.37772683241E+01  0.97529331149E+01 -0.15855726882E+02  0.19077454345E+02  0.17770000000E+01 0.  1.
</event>
<event>
 6    1  0.1378789E-002  0.1833541E+03  0.7546771E-02  0.1067777E+00
        -11   -1    0    0    0    0  0.00000000000E+00  0.00000000000E+00  0.18250000000E+03  0.18250000000E+03  0.00000000000E+00 0. -1.
         11   -1    0    0    0    0 -0.00000000000E+00 -0.00000000000E+00 -0.18250000000E+03  0.18250000000E+03  0.00000000000E+00 0.  1.
        -11    1    1    2    0    0 -0.41540301323E+01  0.31613170953E+01  0.18157088867E+03  0.18164591244E+03  0.00000000000E+00 0. -1.
         11    1    1    2    0    0  0.32123601841E+01 -0.44655498761E+01 -0.91410656046E+02  0.91576025424E+02  0.00000000000E+00 0.  1.
        -15    1    1    2    0    0  0.47026833512E+01  0.47768027701E+01 -0.16229345192E+02  0.17648865396E+02  0.17770000000E+01 0.  1.
         15    1    1    2    0    0 -0.37610134030E+01 -0.34725699893E+01 -0.73930887433E+02  0.74129196743E+02  0.17770000000E+01 0. -1.
</event>
<event>
 6    1  0.1378789E-002  0.1826791E+03  0.7546771E-02  0.1068312E+00
        -11   -1    0    0    0    0  0.00000000000E+00  0.00000000000E+00  0.18250000000E+03  0.18250000000E+03  0.00000000000E+00 0. -1.
         11   -1    0    0    0    0 -0.00000000000E+00 -0.00000000000E+00 -0.18250000000E+03  0.18250000000E+03  0.00000000000E+00 0.  1.
        -11    1    1    2    0    0  0.13850795938E+01 -0.37924083749E+00  0.65762576147E+02  0.65778253933E+02  0.00000000000E+00 0. -1.
         11    1    1    2    0    0  0.39996142363E+01  0.12788732815E+01 -0.18227257600E+03  0.18232093789E+03  0.00000000000E+00 0.  1.
        -15    1    1    2    0    0 -0.82319160794E+00  0.40910134998E-01  0.67711679803E+01  0.70488128703E+01  0.17770000000E+01 0.  1.
         15    1    1    2    0    0 -0.45615022221E+01 -0.94054257905E+00  0.10973883187E+03  0.10985199531E+03  0.17770000000E+01 0. -1.
</event>
<event>
 6    1  0.1378789E-002  0.1841616E+03  0.7546771E-02  0.1067140E+00
        -11   -1    0    0    0    0  0.00000000000E+00  0.00000000000E+00  0.18250000000E+03  0.18250000000E+03  0.00000000000E+00 0. -1.
         11   -1    0    0    0    0 -0.00000000000E+00 -0.00000000000E+00 -0.18250000000E+03  0.18250000000E+03  0.00000000000E+00 0.  1.
        -11    1    1    2    0    0 -0.27723474748E+01 -0.39512134978E+01  0.75968523262E+02  0.76121708633E+02  0.00000000000E+00 0. -1.
         11    1    1    2    0    0 -0.78190048317E+01  0.74900039455E+01 -0.18051397442E+03  0.18083841394E+03  0.00000000000E+00 0.  1.
        -15    1    1    2    0    0  0.48806396157E+01  0.94258781981E+00  0.27161397417E+01  0.59366875404E+01  0.17770000000E+01 0.  1.
         15    1    1    2    0    0  0.57107126908E+01 -0.44813782675E+01  0.10182931142E+03  0.10210318988E+03  0.17770000000E+01 0. -1.
</event>
<event>
 6    1  0.1378789E-002  0.1895222E+03  0.7546771E-02  0.1062999E+00
        -11   -1    0    0    0    0  0.00000000000E+00  0.00000000000E+00  0.18250000000E+03  0.18250000000E+03  0.00000000000E+00 0.  1.
         11   -1    0    0    0    0 -0.00000000000E+00 -0.00000000000E+00 -0.18250000000E+03  0.18250000000E+03  0.00000000000E+00 0.  1.
        -11    1    1    2    0    0 -0.20915730194E+01  0.37052615551E+01  0.17542625613E+03  0.17547784755E+03  0.00000000000E+00 0.  1.
         11    1    1    2    0    0 -0.41458359785E+01 -0.85163466030E+00 -0.17102801967E+03  0.17108038097E+03  0.00000000000E+00 0.  1.
        -15    1    1    2    0    0  0.34979875437E+01 -0.96686362086E+00 -0.10510059855E+02  0.11260098991E+02  0.17770000000E+01 0. -1.
         15    1    1    2    0    0  0.27394214542E+01 -0.18867632739E+01  0.61118233996E+01  0.71816724948E+01  0.17770000000E+01 0. -1.
</event>
<event>
 6    1  0.1378789E-002  0.1844175E+03  0.7546771E-02  0.1066939E+00
        -11   -1    0    0    0    0  0.00000000000E+00  0.00000000000E+00  0.18250000000E+03  0.18250000000E+03  0.00000000000E+00 0. -1.
         11   -1    0    0    0    0 -0.00000000000E+00 -0.00000000000E+00 -0.18250000000E+03  0.18250000000E+03  0.00000000000E+00 0.  1.
        -11    1    1    2    0    0  0.19795888960E+01 -0.11307657461E+01  0.71325983954E+02  0.71362408804E+02  0.00000000000E+00 0. -1.
         11    1    1    2    0    0  0.44470339784E+01  0.28149122897E+01 -0.18050577031E+03  0.18058248242E+03  0.00000000000E+00 0.  1.
        -15    1    1    2    0    0 -0.82531484218E+01  0.43543934397E+00  0.10940665263E+03  0.10973275461E+03  0.17770000000E+01 0. -1.
         15    1    1    2    0    0  0.18265255474E+01 -0.21195858877E+01 -0.22686627159E+00  0.33223541677E+01  0.17770000000E+01 0.  1.
</event>
<event>
 6    1  0.1378789E-002  0.1235471E+03  0.7546771E-02  0.1128374E+00
        -11   -1    0    0    0    0  0.00000000000E+00  0.00000000000E+00  0.18250000000E+03  0.18250000000E+03  0.00000000000E+00 0.  1.
         11   -1    0    0    0    0 -0.00000000000E+00 -0.00000000000E+00 -0.18250000000E+03  0.18250000000E+03  0.00000000000E+00 0. -1.
        -11    1    1    2    0    0  0.14335386182E+01  0.12597638638E+01  0.80472538153E+02  0.80495164046E+02  0.00000000000E+00 0.  1.
         11    1    1    2    0    0 -0.38033240747E+01  0.17969169289E+02 -0.24136461076E+02  0.30330266603E+02  0.00000000000E+00 0. -1.
        -15    1    1    2    0    0  0.66681339036E+02 -0.41703904052E+02 -0.13117499690E+03  0.15295637983E+03  0.17770000000E+01 0. -1.
         15    1    1    2    0    0 -0.64311553579E+02  0.22474970900E+02  0.74838919825E+02  0.10121818952E+03  0.17770000000E+01 0.  1.
</event>
<event>
 6    1  0.1378789E-002  0.1764732E+03  0.7546771E-02  0.1073356E+00
        -11   -1    0    0    0    0  0.00000000000E+00  0.00000000000E+00  0.18250000000E+03  0.18250000000E+03  0.00000000000E+00 0. -1.
         11   -1    0    0    0    0 -0.00000000000E+00 -0.00000000000E+00 -0.18250000000E+03  0.18250000000E+03  0.00000000000E+00 0.  1.
        -11    1    1    2    0    0  0.22888114688E+01  0.57738756821E+01  0.17576598347E+03  0.17587568690E+03  0.00000000000E+00 0. -1.
         11    1    1    2    0    0 -0.40845754841E+01  0.14278010942E+01 -0.17709832106E+03  0.17715117187E+03  0.00000000000E+00 0.  1.
        -15    1    1    2    0    0 -0.17619628260E+01 -0.73086174177E+01  0.18978859194E+01  0.79548791016E+01  0.17770000000E+01 0.  1.
         15    1    1    2    0    0  0.35577268412E+01  0.10694064145E+00 -0.56554832825E+00  0.40182621230E+01  0.17770000000E+01 0. -1.
</event>
<event>
 6    1  0.1378789E-002  0.1745977E+03  0.7546771E-02  0.1074925E+00
        -11   -1    0    0    0    0  0.00000000000E+00  0.00000000000E+00  0.18250000000E+03  0.18250000000E+03  0.00000000000E+00 0. -1.
         11   -1    0    0    0    0 -0.00000000000E+00 -0.00000000000E+00 -0.18250000000E+03  0.18250000000E+03  0.00000000000E+00 0. -1.
        -11    1    1    2    0    0 -0.30530348576E+01  0.13529565107E+01  0.17375030112E+03  0.17378238879E+03  0.00000000000E+00 0. -1.
         11    1    1    2    0    0 -0.22695905379E+01  0.16460890060E+01 -0.17544820717E+03  0.17547060736E+03  0.00000000000E+00 0. -1.
        -15    1    1    2    0    0  0.87307306803E+01  0.29103585554E+00 -0.24048416667E+01  0.92331658993E+01  0.17770000000E+01 0.  1.
         15    1    1    2    0    0 -0.34081052849E+01 -0.32900813722E+01  0.41027477081E+01  0.65138379489E+01  0.17770000000E+01 0. -1.
</event>
<event>
 6    1  0.1378789E-002  0.1736538E+03  0.7546771E-02  0.1075723E+00
        -11   -1    0    0    0    0  0.00000000000E+00  0.00000000000E+00  0.18250000000E+03  0.18250000000E+03  0.00000000000E+00 0.  1.
         11   -1    0    0    0    0 -0.00000000000E+00 -0.00000000000E+00 -0.18250000000E+03  0.18250000000E+03  0.00000000000E+00 0.  1.
        -11    1    1    2    0    0 -0.26747952022E+01 -0.17964220628E+01  0.17459991862E+03  0.17462964595E+03  0.00000000000E+00 0.  1.
         11    1    1    2    0    0 -0.69200404227E+01  0.78422522618E+01 -0.17255235912E+03  0.17286903863E+03  0.00000000000E+00 0.  1.
        -15    1    1    2    0    0  0.68969019033E+01 -0.26229707016E+01  0.49549604655E+01  0.90640274371E+01  0.17770000000E+01 0.  1.
         15    1    1    2    0    0  0.26979337216E+01 -0.34228594974E+01 -0.70025199707E+01  0.84372879793E+01  0.17770000000E+01 0. -1.
</event>
<event>
 6    1  0.1378789E-002  0.1834756E+03  0.7546771E-02  0.1067681E+00
        -11   -1    0    0    0    0  0.00000000000E+00  0.00000000000E+00  0.18250000000E+03  0.18250000000E+03  0.00000000000E+00 0. -1.
         11   -1    0    0    0    0 -0.00000000000E+00 -0.00000000000E+00 -0.18250000000E+03  0.18250000000E+03  0.00000000000E+00 0.  1.
        -11    1    1    2    0    0 -0.28520479978E+01 -0.25545303447E-01  0.16356645362E+03  0.16359131878E+03  0.00000000000E+00 0. -1.
         11    1    1    2    0    0  0.60981160577E+00 -0.25395994017E+01 -0.18150562627E+03  0.18152441654E+03  0.00000000000E+00 0.  1.
        -15    1    1    2    0    0 -0.11322728618E+01  0.15613187564E+01  0.15914959087E+01  0.30676287780E+01  0.17770000000E+01 0.  1.
         15    1    1    2    0    0  0.33745092538E+01  0.10038259488E+01  0.16347676736E+02  0.16816635897E+02  0.17770000000E+01 0. -1.
</event>
<event>
 6    1  0.1378789E-002  0.1828326E+03  0.7546771E-02  0.1068190E+00
        -11   -1    0    0    0    0  0.00000000000E+00  0.00000000000E+00  0.18250000000E+03  0.18250000000E+03  0.00000000000E+00 0.  1.
         11   -1    0    0    0    0 -0.00000000000E+00 -0.00000000000E+00 -0.18250000000E+03  0.18250000000E+03  0.00000000000E+00 0.  1.
        -11    1    1    2    0    0 -0.21459960350E+00 -0.44413202065E+01  0.18211309141E+03  0.18216736657E+03  0.00000000000E+00 0.  1.
         11    1    1    2    0    0 -0.38000242024E+01 -0.12621412079E+00 -0.96517455542E+02  0.96592315110E+02  0.00000000000E+00 0.  1.
        -15    1    1    2    0    0 -0.11737200846E+01 -0.79418684518E+00 -0.34213246666E+02  0.34288661800E+02  0.17770000000E+01 0.  1.
         15    1    1    2    0    0  0.51883438905E+01  0.53617211724E+01 -0.51382389204E+02  0.51951656524E+02  0.17770000000E+01 0. -1.
</event>
<event>
 6    1  0.1378789E-002  0.1949059E+03  0.7546771E-02  0.1058987E+00
        -11   -1    0    0    0    0  0.00000000000E+00  0.00000000000E+00  0.18250000000E+03  0.18250000000E+03  0.00000000000E+00 0.  1.
         11   -1    0    0    0    0 -0.00000000000E+00 -0.00000000000E+00 -0.18250000000E+03  0.18250000000E+03  0.00000000000E+00 0.  1.
        -11    1    1    2    0    0  0.35705872621E+01 -0.17568689807E+01  0.12217636400E+03  0.12224115348E+03  0.00000000000E+00 0.  1.
         11    1    1    2    0    0  0.20843211301E+01  0.56420483940E+01 -0.16998771432E+03  0.17009409197E+03  0.00000000000E+00 0.  1.
        -15    1    1    2    0    0 -0.13520414443E+02 -0.21106287774E+01  0.57960938095E+02  0.59580906626E+02  0.17770000000E+01 0.  1.
         15    1    1    2    0    0  0.78655060503E+01 -0.17745506360E+01 -0.10149587783E+02  0.13083847926E+02  0.17770000000E+01 0. -1.
</event>
<event>
 6    1  0.1378789E-002  0.1826442E+03  0.7546771E-02  0.1068340E+00
        -11   -1    0    0    0    0  0.00000000000E+00  0.00000000000E+00  0.18250000000E+03  0.18250000000E+03  0.00000000000E+00 0.  1.
         11   -1    0    0    0    0 -0.00000000000E+00 -0.00000000000E+00 -0.18250000000E+03  0.18250000000E+03  0.00000000000E+00 0. -1.
        -11    1    1    2    0    0 -0.81316971108E+00 -0.91338610833E+00  0.13059255922E+02  0.13116389915E+02  0.00000000000E+00 0.  1.
         11    1    1    2    0    0 -0.50264689933E+00  0.37556896653E+01 -0.18231642115E+03  0.18235579311E+03  0.00000000000E+00 0. -1.
        -15    1    1    2    0    0  0.61121328155E+00 -0.16321766646E+01  0.12050437364E+02  0.12304810116E+02  0.17770000000E+01 0. -1.
         15    1    1    2    0    0  0.70460332886E+00 -0.12101268923E+01  0.15720672786E+03  0.15722300686E+03  0.17770000000E+01 0.  1.
</event>
<event>
 6    1  0.1378789E-002  0.1856702E+03  0.7546771E-02  0.1065959E+00
        -11   -1    0    0    0    0  0.00000000000E+00  0.00000000000E+00  0.18250000000E+03  0.18250000000E+03  0.00000000000E+00 0. -1.
         11   -1    0    0    0    0 -0.00000000000E+00 -0.00000000000E+00 -0.18250000000E+03  0.18250000000E+03  0.00000000000E+00 0.  1.
        -11    1    1    2    0    0 -0.32706776901E-01 -0.26103932913E+01  0.16207158887E+03  0.16209261285E+03  0.00000000000E+00 0. -1.
         11    1    1    2    0    0 -0.25108514748E+01  0.17013557672E+01 -0.17930419952E+03  0.17932984959E+03  0.00000000000E+00 0.  1.
        -15    1    1    2    0    0  0.27137244626E+01  0.46993777311E+01 -0.13494682171E+00  0.57117765330E+01  0.17770000000E+01 0. -1.
         15    1    1    2    0    0 -0.17016621088E+00 -0.37903402070E+01  0.17367557477E+02  0.17865761029E+02  0.17770000000E+01 0.  1.
</event>
<event>
 6    1  0.1378789E-002  0.1851641E+03  0.7546771E-02  0.1066354E+00
        -11   -1    0    0    0    0  0.00000000000E+00  0.00000000000E+00  0.18250000000E+03  0.18250000000E+03  0.00000000000E+00 0.  1.
         11   -1    0    0    0    0 -0.00000000000E+00 -0.00000000000E+00 -0.18250000000E+03  0.18250000000E+03  0.00000000000E+00 0. -1.
        -11    1    1    2    0    0 -0.43479912372E+01 -0.76102838062E+01  0.79484243495E+02  0.79966032860E+02  0.00000000000E+00 0.  1.
         11    1    1    2    0    0 -0.28844388036E+01 -0.26469536735E+00 -0.17981252693E+03  0.17983585541E+03  0.00000000000E+00 0. -1.
        -15    1    1    2    0    0  0.10618880634E+02  0.15159199471E+02  0.90455630603E+02  0.92346850468E+02  0.17770000000E+01 0.  1.
         15    1    1    2    0    0 -0.33864505934E+01 -0.72842202976E+01  0.98726528335E+01  0.12851261259E+02  0.17770000000E+01 0. -1.
</event>
<event>
 6    1  0.1378789E-002  0.1843878E+03  0.7546771E-02  0.1066962E+00
        -11   -1    0    0    0    0  0.00000000000E+00  0.00000000000E+00  0.18250000000E+03  0.18250000000E+03  0.00000000000E+00 0. -1.
         11   -1    0    0    0    0 -0.00000000000E+00 -0.00000000000E+00 -0.18250000000E+03  0.18250000000E+03  0.00000000000E+00 0. -1.
        -11    1    1    2    0    0 -0.13389816338E+01  0.24233647445E+01  0.18059097392E+03  0.18061219623E+03  0.00000000000E+00 0. -1.
         11    1    1    2    0    0  0.12009756878E+01  0.30808821740E+01 -0.17376139830E+03  0.17379285865E+03  0.00000000000E+00 0. -1.
        -15    1    1    2    0    0  0.18956108891E+01 -0.48632595355E+01 -0.44624113905E+01  0.70933404240E+01  0.17770000000E+01 0. -1.
         15    1    1    2    0    0 -0.17576049431E+01 -0.64098738303E+00 -0.23671642231E+01  0.35016046922E+01  0.17770000000E+01 0. -1.
</event>
<event>
 6    1  0.1378789E-002  0.1846241E+03  0.7546771E-02  0.1066776E+00
        -11   -1    0    0    0    0  0.00000000000E+00  0.00000000000E+00  0.18250000000E+03  0.18250000000E+03  0.00000000000E+00 0. -1.
         11   -1    0    0    0    0 -0.00000000000E+00 -0.00000000000E+00 -0.18250000000E+03  0.18250000000E+03  0.00000000000E+00 0.  1.
        -11    1    1    2    0    0  0.11043149529E+01 -0.26998786882E+01  0.14042067240E+03  0.14045096687E+03  0.00000000000E+00 0. -1.
         11    1    1    2    0    0  0.32976949621E+01 -0.22716511834E+01 -0.18033144256E+03  0.18037589741E+03  0.00000000000E+00 0.  1.
        -15    1    1    2    0    0 -0.14674677526E+01  0.17974810046E+01  0.39358512420E+02  0.39466880147E+02  0.17770000000E+01 0. -1.
         15    1    1    2    0    0 -0.29345421623E+01  0.31740488670E+01  0.55225774056E+00  0.47062555736E+01  0.17770000000E+01 0.  1.
</event>
<event>
 6    1  0.1378789E-002  0.1827438E+03  0.7546771E-02  0.1068261E+00
        -11   -1    0    0    0    0  0.00000000000E+00  0.00000000000E+00  0.18250000000E+03  0.18250000000E+03  0.00000000000E+00 0.  1.
         11   -1    0    0    0    0 -0.00000000000E+00 -0.00000000000E+00 -0.18250000000E+03  0.18250000000E+03  0.00000000000E+00 0. -1.
        -11    1    1    2    0    0  0.50223350393E+00  0.73646273962E+00  0.21199944600E+02  0.21218677313E+02  0.00000000000E+00 0.  1.
         11    1    1    2    0    0 -0.61618923154E+01  0.25108736304E+01 -0.18213467412E+03  0.18225617389E+03  0.00000000000E+00 0. -1.
        -15    1    1    2    0    0 -0.30479203409E+01  0.13444243052E+01  0.40391115441E+02  0.40567194020E+02  0.17770000000E+01 0. -1.
         15    1    1    2    0    0  0.87075791524E+01 -0.45917606751E+01  0.12054361408E+03  0.12095795478E+03  0.17770000000E+01 0.  1.
</event>
<event>
 6    1  0.1378789E-002  0.1841382E+03  0.7546771E-02  0.1067158E+00
        -11   -1    0    0    0    0  0.00000000000E+00  0.00000000000E+00  0.18250000000E+03  0.18250000000E+03  0.00000000000E+00 0. -1.
         11   -1    0    0    0    0 -0.00000000000E+00 -0.00000000000E+00 -0.18250000000E+03  0.18250000000E+03  0.00000000000E+00 0. -1.
        -11    1    1    2    0    0  0.70916182981E+01 -0.34915653872E+01  0.18068897056E+03  0.18086178745E+03  0.00000000000E+00 0. -1.
         11    1    1    2    0    0  0.98690387305E+00  0.10152200635E+01 -0.62458694208E+02  0.62474739961E+02  0.00000000000E+00 0. -1.
        -15    1    1    2    0    0 -0.15884413614E+02  0.82438982523E+01 -0.61268423069E+02  0.63853377739E+02  0.17770000000E+01 0.  1.
         15    1    1    2    0    0  0.78058914428E+01 -0.57675529286E+01 -0.56961853282E+02  0.57810094848E+02  0.17770000000E+01 0. -1.
</event>
<event>
 6    1  0.1378789E-002  0.1765596E+03  0.7546771E-02  0.1073284E+00
        -11   -1    0    0    0    0  0.00000000000E+00  0.00000000000E+00  0.18250000000E+03  0.18250000000E+03  0.00000000000E+00 0.  1.
         11   -1    0    0    0    0 -0.00000000000E+00 -0.00000000000E+00 -0.18250000000E+03  0.18250000000E+03  0.00000000000E+00 0. -1.
        -11    1    1    2    0    0  0.24604765923E+00 -0.59365864980E+01  0.17582110028E+03  0.17592146800E+03  0.00000000000E+00 0.  1.
         11    1    1    2    0    0 -0.24129984894E+01  0.58365373914E+00 -0.17723036732E+03  0.17724775405E+03  0.00000000000E+00 0. -1.
        -15    1    1    2    0    0  0.16585630471E+00 -0.24721298546E+01 -0.10136269326E+01  0.32131142044E+01  0.17770000000E+01 0.  1.
         15    1    1    2    0    0  0.20010945255E+01  0.78250626135E+01  0.24228939730E+01  0.86176637443E+01  0.17770000000E+01 0. -1.
</event>
<event>
 6    1  0.1378789E-002  0.1832031E+03  0.7546771E-02  0.1067897E+00
        -11   -1    0    0    0    0  0.00000000000E+00  0.00000000000E+00  0.18250000000E+03  0.18250000000E+03  0.00000000000E+00 0. -1.
         11   -1    0    0    0    0 -0.00000000000E+00 -0.00000000000E+00 -0.18250000000E+03  0.18250000000E+03  0.00000000000E+00 0.  1.
        -11    1    1    2    0    0  0.19472414836E+01  0.26026483156E+01  0.18176784882E+03  0.18179690974E+03  0.00000000000E+00 0. -1.
         11    1    1    2    0    0 -0.23562932515E+01  0.24307303357E+01 -0.16081656468E+03  0.16085219315E+03  0.00000000000E+00 0.  1.
        -15    1    1    2    0    0 -0.14254385885E+00 -0.35165290671E+01 -0.58156991429E+01  0.70261213306E+01  0.17770000000E+01 0.  1.
         15    1    1    2    0    0  0.55159562672E+00 -0.15168495843E+01 -0.15135584998E+02  0.15324775778E+02  0.17770000000E+01 0. -1.
</event>
<event>
 6    1  0.1378789E-002  0.1829317E+03  0.7546771E-02  0.1068112E+00
        -11   -1    0    0    0    0  0.00000000000E+00  0.00000000000E+00  0.18250000000E+03  0.18250000000E+03  0.00000000000E+00 0.  1.
         11   -1    0    0    0    0 -0.00000000000E+00 -0.00000000000E+00 -0.18250000000E+03  0.18250000000E+03  0.00000000000E+00 0. -1.
        -11    1    1    2    0    0 -0.35440218848E+01  0.17940258029E+01  0.10790168250E+03  0.10797477347E+03  0.00000000000E+00 0.  1.
         11    1    1    2    0    0  0.40787540825E+01  0.84365337480E+00 -0.18202064807E+03  0.18206829573E+03  0.00000000000E+00 0. -1.
        -15    1    1    2    0    0 -0.32366717350E+01  0.33930663338E+00  0.96432802902E+01  0.10331590229E+02  0.17770000000E+01 0. -1.
         15    1    1    2    0    0  0.27019395373E+01 -0.29769858111E+01  0.64475685280E+02  0.64625340564E+02  0.17770000000E+01 0.  1.
</event>
<event>
 6    1  0.1378789E-002  0.1915665E+03  0.7546771E-02  0.1061459E+00
        -11   -1    0    0    0    0  0.00000000000E+00  0.00000000000E+00  0.18250000000E+03  0.18250000000E+03  0.00000000000E+00 0. -1.
         11   -1    0    0    0    0 -0.00000000000E+00 -0.00000000000E+00 -0.18250000000E+03  0.18250000000E+03  0.00000000000E+00 0. -1.
        -11    1    1    2    0    0 -0.48690382107E+01 -0.10801506697E+02  0.17302831492E+03  0.17343349690E+03  0.00000000000E+00 0. -1.
         11    1    1    2    0    0  0.35370638056E+01  0.64947179063E+01 -0.16970289614E+03  0.16986396068E+03  0.00000000000E+00 0. -1.
        -15    1    1    2    0    0  0.55503466021E+01  0.62685004553E+01  0.64596344865E+01  0.10723108321E+02  0.17770000000E+01 0. -1.
         15    1    1    2    0    0 -0.42183721971E+01 -0.19617116651E+01 -0.97850532708E+01  0.10979434100E+02  0.17770000000E+01 0.  1.
</event>
<event>
 6    1  0.1378789E-002  0.1777531E+03  0.7546771E-02  0.1072297E+00
        -11   -1    0    0    0    0  0.00000000000E+00  0.00000000000E+00  0.18250000000E+03  0.18250000000E+03  0.00000000000E+00 0. -1.
         11   -1    0    0    0    0 -0.00000000000E+00 -0.00000000000E+00 -0.18250000000E+03  0.18250000000E+03  0.00000000000E+00 0. -1.
        -11    1    1    2    0    0 -0.44299340817E-01 -0.32817590808E+01  0.17685148812E+03  0.17688194016E+03  0.00000000000E+00 0. -1.
         11    1    1    2    0    0 -0.25114248106E+01 -0.31333447933E+01 -0.17865076385E+03  0.17869588839E+03  0.00000000000E+00 0. -1.
        -15    1    1    2    0    0 -0.93295255883E+00  0.55174064260E+00 -0.20743736355E+00  0.20917881044E+01  0.17770000000E+01 0.  1.
         15    1    1    2    0    0  0.34886767102E+01  0.58633632315E+01  0.20067130953E+01  0.73303833474E+01  0.17770000000E+01 0. -1.
</event>
<event>
 6    1  0.1378789E-002  0.1837717E+03  0.7546771E-02  0.1067447E+00
        -11   -1    0    0    0    0  0.00000000000E+00  0.00000000000E+00  0.18250000000E+03  0.18250000000E+03  0.00000000000E+00 0.  1.
         11   -1    0    0    0    0 -0.00000000000E+00 -0.00000000000E+00 -0.18250000000E+03  0.18250000000E+03  0.00000000000E+00 0.  1.
        -11    1    1    2    0    0 -0.13177158512E+00  0.30547872980E+01  0.31542407545E+02  0.31690259748E+02  0.00000000000E+00 0.  1.
         11    1    1    2    0    0 -0.13325204099E+02  0.10427809954E+01 -0.18073477357E+03  0.18122832790E+03  0.00000000000E+00 0.  1.
        -15    1    1    2    0    0  0.61307500863E+01  0.42506436450E+01  0.12671312910E+03  0.12694498369E+03  0.17770000000E+01 0.  1.
         15    1    1    2    0    0  0.73262255979E+01 -0.83482119384E+01  0.22479236927E+02  0.25136428662E+02  0.17770000000E+01 0. -1.
</event>
<event>
 6    1  0.1378789E-002  0.1839539E+03  0.7546771E-02  0.1067303E+00
        -11   -1    0    0    0    0  0.00000000000E+00  0.00000000000E+00  0.18250000000E+03  0.18250000000E+03  0.00000000000E+00 0. -1.
         11   -1    0    0    0    0 -0.00000000000E+00 -0.00000000000E+00 -0.18250000000E+03  0.18250000000E+03  0.00000000000E+00 0.  1.
        -11    1    1    2    0    0  0.35603450159E+00 -0.36821348135E+01  0.71572314751E+02  0.71667852738E+02  0.00000000000E+00 0. -1.
         11    1    1    2    0    0  0.63885688167E+01  0.83193832007E+01 -0.18074197100E+03  0.18104608814E+03  0.00000000000E+00 0.  1.
        -15    1    1    2    0    0 -0.79277025326E+01 -0.26295532944E+01  0.10328390500E+02  0.13401358039E+02  0.17770000000E+01 0.  1.
         15    1    1    2    0    0  0.11830992142E+01 -0.20076950928E+01  0.98841265754E+02  0.98884701083E+02  0.17770000000E+01 0. -1.
</event>
<event>
 6    1  0.1378789E-002  0.1899645E+03  0.7546771E-02  0.1062664E+00
        -11   -1    0    0    0    0  0.00000000000E+00  0.00000000000E+00  0.18250000000E+03  0.18250000000E+03  0.00000000000E+00 0.  1.
         11   -1    0    0    0    0 -0.00000000000E+00 -0.00000000000E+00 -0.18250000000E+03  0.18250000000E+03  0.00000000000E+00 0. -1.
        -11    1    1    2    0    0 -0.56508766609E+01  0.27506250207E+01  0.17492263352E+03  0.17503549944E+03  0.00000000000E+00 0.  1.
         11    1    1    2    0    0  0.11536139174E+01  0.18895978267E+01 -0.16303906021E+03  0.16305409090E+03  0.00000000000E+00 0. -1.
        -15    1    1    2    0    0  0.43417812254E+01  0.18806461106E+01 -0.17441209791E+02  0.18158783604E+02  0.17770000000E+01 0. -1.
         15    1    1    2    0    0  0.15548151813E+00 -0.65208689580E+01  0.55576364747E+01  0.87516260578E+01  0.17770000000E+01 0. -1.
</event>
<event>
 6    1  0.1378789E-002  0.1902197E+03  0.7546771E-02  0.1062471E+00
        -11   -1    0    0    0    0  0.00000000000E+00  0.00000000000E+00  0.18250000000E+03  0.18250000000E+03  0.00000000000E+00 0.  1.
         11   -1    0    0    0    0 -0.00000000000E+00 -0.00000000000E+00 -0.18250000000E+03  0.18250000000E+03  0.00000000000E+00 0. -1.
        -11    1    1    2    0    0  0.52701365361E-01  0.47557566895E+01  0.14822619885E+03  0.14830248152E+03  0.00000000000E+00 0.  1.
         11    1    1    2    0    0 -0.38659708929E+01 -0.26946390570E+01 -0.17471675774E+03  0.17478029707E+03  0.00000000000E+00 0. -1.
        -15    1    1    2    0    0  0.22478221261E+00 -0.98719610153E+01  0.30616383828E+02  0.32218423751E+02  0.17770000000E+01 0. -1.
         15    1    1    2    0    0  0.35884873150E+01  0.78108433828E+01 -0.41258249405E+01  0.96987976575E+01  0.17770000000E+01 0.  1.
</event>
<event>
 6    1  0.1378789E-002  0.1907125E+03  0.7546771E-02  0.1062099E+00
        -11   -1    0    0    0    0  0.00000000000E+00  0.00000000000E+00  0.18250000000E+03  0.18250000000E+03  0.00000000000E+00 0. -1.
         11   -1    0    0    0    0 -0.00000000000E+00 -0.00000000000E+00 -0.18250000000E+03  0.18250000000E+03  0.00000000000E+00 0. -1.
        -11    1    1    2    0    0  0.15278920218E+02  0.32113502498E+01  0.15163345329E+03  0.15243510859E+03  0.00000000000E+00 0. -1.
         11    1    1    2    0    0  0.36895572575E+01 -0.16353185639E+01 -0.17424072594E+03  0.17428745702E+03  0.00000000000E+00 0. -1.
        -15    1    1    2    0    0 -0.16583206645E+02 -0.19973530563E+01  0.27682297129E+02  0.32379923798E+02  0.17770000000E+01 0. -1.
         15    1    1    2    0    0 -0.23852708304E+01  0.42132137043E+00 -0.50750244809E+01  0.58975105861E+01  0.17770000000E+01 0. -1.
</event>
<event>
 6    1  0.1378789E-002  0.1854186E+03  0.7546771E-02  0.1066155E+00
        -11   -1    0    0    0    0  0.00000000000E+00  0.00000000000E+00  0.18250000000E+03  0.18250000000E+03  0.00000000000E+00 0.  1.
         11   -1    0    0    0    0 -0.00000000000E+00 -0.00000000000E+00 -0.18250000000E+03  0.18250000000E+03  0.00000000000E+00 0. -1.
        -11    1    1    2    0    0  0.33182635831E+01 -0.50211753071E+01  0.17948049446E+03  0.17958137700E+03  0.00000000000E+00 0.  1.
         11    1    1    2    0    0  0.52869526151E+01  0.48742310077E+01 -0.16861989368E+03  0.16877315705E+03  0.00000000000E+00 0. -1.
        -15    1    1    2    0    0  0.56974736395E+00 -0.16990467693E+01 -0.45984835878E+01  0.52454887561E+01  0.17770000000E+01 0. -1.
         15    1    1    2    0    0 -0.91749635621E+01  0.18459910688E+01 -0.62621171904E+01  0.11399977197E+02  0.17770000000E+01 0.  1.
</event>
<event>
 6    1  0.1378789E-002  0.1830429E+03  0.7546771E-02  0.1068023E+00
        -11   -1    0    0    0    0  0.00000000000E+00  0.00000000000E+00  0.18250000000E+03  0.18250000000E+03  0.00000000000E+00 0.  1.
         11   -1    0    0    0    0 -0.00000000000E+00 -0.00000000000E+00 -0.18250000000E+03  0.18250000000E+03  0.00000000000E+00 0.  1.
        -11    1    1    2    0    0 -0.65296119596E+01 -0.57668608041E+01  0.18174844547E+03  0.18195711019E+03  0.00000000000E+00 0.  1.
         11    1    1    2    0    0 -0.42591325743E+01  0.57483872852E+01 -0.84047321659E+02  0.84351268187E+02  0.00000000000E+00 0.  1.
        -15    1    1    2    0    0  0.10954076868E+02  0.11353363641E+01 -0.67350302049E+02  0.68267867286E+02  0.17770000000E+01 0.  1.
         15    1    1    2    0    0 -0.16533233386E+00 -0.11168628452E+01 -0.30350821764E+02  0.30423754340E+02  0.17770000000E+01 0. -1.
</event>
<event>
 6    1  0.1378789E-002  0.1769846E+03  0.7546771E-02  0.1072932E+00
        -11   -1    0    0    0    0  0.00000000000E+00  0.00000000000E+00  0.18250000000E+03  0.18250000000E+03  0.00000000000E+00 0.  1.
         11   -1    0    0    0    0 -0.00000000000E+00 -0.00000000000E+00 -0.18250000000E+03  0.18250000000E+03  0.00000000000E+00 0. -1.
        -11    1    1    2    0    0  0.29009465143E+00 -0.29852946672E+01  0.17550348542E+03  0.17552911307E+03  0.00000000000E+00 0.  1.
         11    1    1    2    0    0  0.28295559421E+01 -0.49846613289E+01 -0.17846388684E+03  0.17855590761E+03  0.00000000000E+00 0. -1.
        -15    1    1    2    0    0 -0.20772985212E+01  0.79486810759E+01  0.27498480612E+01  0.88439862817E+01  0.17770000000E+01 0. -1.
         15    1    1    2    0    0 -0.10423520724E+01  0.21274920282E-01  0.21055336005E+00  0.20709930426E+01  0.17770000000E+01 0.  1.
</event>
<event>
 6    1  0.1378789E-002  0.1858378E+03  0.7546771E-02  0.1065829E+00
        -11   -1    0    0    0    0  0.00000000000E+00  0.00000000000E+00  0.18250000000E+03  0.18250000000E+03  0.00000000000E+00 0.  1.
         11   -1    0    0    0    0 -0.00000000000E+00 -0.00000000000E+00 -0.18250000000E+03  0.18250000000E+03  0.00000000000E+00 0. -1.
        -11    1    1    2    0    0  0.39277332649E+01 -0.43073846953E+01  0.17906735925E+03  0.17916221644E+03  0.00000000000E+00 0.  1.
         11    1    1    2    0    0  0.15427847607E+01  0.25995239282E+01 -0.17009556177E+03  0.17012242017E+03  0.00000000000E+00 0. -1.
        -15    1    1    2    0    0 -0.59908438839E+01  0.54291183009E+01 -0.38788275763E+01  0.91415845636E+01  0.17770000000E+01 0.  1.
         15    1    1    2    0    0  0.52032585834E+00 -0.37212575338E+01 -0.50929698989E+01  0.65737788237E+01  0.17770000000E+01 0. -1.
</event>
<event>
 6    1  0.1378789E-002  0.1833937E+03  0.7546771E-02  0.1067746E+00
        -11   -1    0    0    0    0  0.00000000000E+00  0.00000000000E+00  0.18250000000E+03  0.18250000000E+03  0.00000000000E+00 0.  1.
         11   -1    0    0    0    0 -0.00000000000E+00 -0.00000000000E+00 -0.18250000000E+03  0.18250000000E+03  0.00000000000E+00 0. -1.
        -11    1    1    2    0    0  0.28241189509E+01 -0.11907272613E+01  0.16675113068E+03  0.16677929446E+03  0.00000000000E+00 0.  1.
         11    1    1    2    0    0  0.13126575591E+01 -0.23323579703E+01 -0.18158655775E+03  0.18160627995E+03  0.00000000000E+00 0. -1.
        -15    1    1    2    0    0 -0.42163094355E+01  0.15788966512E+01  0.98800267876E+01  0.11001947019E+02  0.17770000000E+01 0.  1.
         15    1    1    2    0    0  0.79532925605E-01  0.19441885804E+01  0.49554002813E+01  0.56124785675E+01  0.17770000000E+01 0. -1.
</event>
<event>
 6    1  0.1378789E-002  0.1828506E+03  0.7546771E-02  0.1068176E+00
        -11   -1    0    0    0    0  0.00000000000E+00  0.00000000000E+00  0.18250000000E+03  0.18250000000E+03  0.00000000000E+00 0. -1.
         11   -1    0    0    0    0 -0.00000000000E+00 -0.00000000000E+00 -0.18250000000E+03  0.18250000000E+03  0.00000000000E+00 0. -1.
        -11    1    1    2    0    0 -0.32055590028E+01 -0.19300135221E+01  0.18211095375E+03  0.18214938934E+03  0.00000000000E+00 0. -1.
         11    1    1    2    0    0  0.29466628016E+01  0.26574047247E+01 -0.16437908435E+03  0.16442696857E+03  0.00000000000E+00 0. -1.
        -15    1    1    2    0    0  0.13322259037E+01  0.52286101746E+00 -0.55082411706E+01  0.59621019193E+01  0.17770000000E+01 0.  1.
         15    1    1    2    0    0 -0.10733297024E+01 -0.12502522201E+01 -0.12223628236E+02  0.12461540174E+02  0.17770000000E+01 0. -1.
</event>
<event>
 6    1  0.1378789E-002  0.1915146E+03  0.7546771E-02  0.1061497E+00
        -11   -1    0    0    0    0  0.00000000000E+00  0.00000000000E+00  0.18250000000E+03  0.18250000000E+03  0.00000000000E+00 0.  1.
         11   -1    0    0    0    0 -0.00000000000E+00 -0.00000000000E+00 -0.18250000000E+03  0.18250000000E+03  0.00000000000E+00 0. -1.
        -11    1    1    2    0    0  0.49202207113E-01  0.34196603270E+01  0.17345167265E+03  0.17348538625E+03  0.00000000000E+00 0.  1.
         11    1    1    2    0    0  0.24084997783E+01 -0.68484207347E+01 -0.16999290759E+03  0.17014784856E+03  0.00000000000E+00 0. -1.
        -15    1    1    2    0    0 -0.59510332698E+01  0.38578776179E+01 -0.10795134251E+02  0.13038046986E+02  0.17770000000E+01 0.  1.
         15    1    1    2    0    0  0.34933312844E+01 -0.42911721015E+00  0.73363691967E+01  0.83287182107E+01  0.17770000000E+01 0.  1.
</event>
<event>
 6    1  0.1378789E-002  0.1828494E+03  0.7546771E-02  0.1068177E+00
        -11   -1    0    0    0    0  0.00000000000E+00  0.00000000000E+00  0.18250000000E+03  0.18250000000E+03  0.00000000000E+00 0.  1.
         11   -1    0    0    0    0 -0.00000000000E+00 -0.00000000000E+00 -0.18250000000E+03  0.18250000000E+03  0.00000000000E+00 0. -1.
        -11    1    1    2    0    0 -0.26941121267E+01 -0.40087577647E+01  0.18208652004E+03  0.18215056727E+03  0.00000000000E+00 0.  1.
         11    1    1    2    0    0 -0.26391993433E+01  0.11787911170E+01 -0.12210213722E+03  0.12213634527E+03  0.00000000000E+00 0. -1.
        -15    1    1    2    0    0 -0.91739327253E-01  0.13626666820E+01 -0.59487910129E+01  0.63569741313E+01  0.17770000000E+01 0.  1.
         15    1    1    2    0    0  0.54250507973E+01  0.14672999657E+01 -0.54035591802E+02  0.54356113325E+02  0.17770000000E+01 0. -1.
</event>
<event>
 6    1  0.1378789E-002  0.1827897E+03  0.7546771E-02  0.1068224E+00
        -11   -1    0    0    0    0  0.00000000000E+00  0.00000000000E+00  0.18250000000E+03  0.18250000000E+03  0.00000000000E+00 0. -1.
         11   -1    0    0    0    0 -0.00000000000E+00 -0.00000000000E+00 -0.18250000000E+03  0.18250000000E+03  0.00000000000E+00 0. -1.
        -11    1    1    2    0    0  0.18975138860E+00 -0.75496454130E+00  0.46887802767E+02  0.46894264312E+02  0.00000000000E+00 0. -1.
         11    1    1    2    0    0 -0.26135696983E+01  0.15442847972E+01 -0.18218499946E+03  0.18221028947E+03  0.00000000000E+00 0. -1.
        -15    1    1    2    0    0  0.50585262810E+01  0.52115902897E+00  0.26398622132E+02  0.26942629314E+02  0.17770000000E+01 0.  1.
         15    1    1    2    0    0 -0.26347079712E+01 -0.13104792848E+01  0.10889857456E+03  0.10895281690E+03  0.17770000000E+01 0.  1.
</event>
<event>
 6    1  0.1378789E-002  0.1836002E+03  0.7546771E-02  0.1067582E+00
        -11   -1    0    0    0    0  0.00000000000E+00  0.00000000000E+00  0.18250000000E+03  0.18250000000E+03  0.00000000000E+00 0. -1.
         11   -1    0    0    0    0 -0.00000000000E+00 -0.00000000000E+00 -0.18250000000E+03  0.18250000000E+03  0.00000000000E+00 0. -1.
        -11    1    1    2    0    0 -0.29765400899E+01  0.17393026057E+01  0.18136699801E+03  0.18139976001E+03  0.00000000000E+00 0. -1.
         11    1    1    2    0    0  0.85006460083E-02  0.37932023873E+01 -0.16863107468E+03  0.16867373181E+03  0.00000000000E+00 0. -1.
        -15    1    1    2    0    0  0.36031334236E-01 -0.17987301919E+01 -0.58750701003E+01  0.63961634003E+01  0.17770000000E+01 0. -1.
         15    1    1    2    0    0  0.29320081097E+01 -0.37337748010E+01 -0.68608532354E+01  0.85303447725E+01  0.17770000000E+01 0.  1.
</event>
<event>
 6    1  0.1378789E-002  0.1856279E+03  0.7546771E-02  0.1065992E+00
        -11   -1    0    0    0    0  0.00000000000E+00  0.00000000000E+00  0.18250000000E+03  0.18250000000E+03  0.00000000000E+00 0. -1.
         11   -1    0    0    0    0 -0.00000000000E+00 -0.00000000000E+00 -0.18250000000E+03  0.18250000000E+03  0.00000000000E+00 0. -1.
        -11    1    1    2    0    0 -0.31494953433E+01 -0.12894182377E+01  0.17933981015E+03  0.17937209768E+03  0.00000000000E+00 0. -1.
         11    1    1    2    0    0  0.99468619961E+00  0.63095724936E+01 -0.16609526014E+03  0.16621803616E+03  0.00000000000E+00 0. -1.
        -15    1    1    2    0    0  0.72033173234E+01 -0.98641244974E+00 -0.71652181590E+01  0.10361412560E+02  0.17770000000E+01 0. -1.
         15    1    1    2    0    0 -0.50485081797E+01 -0.40337418062E+01 -0.60793318537E+01  0.90484536020E+01  0.17770000000E+01 0.  1.
</event>
<event>
 6    1  0.1378789E-002  0.1882197E+03  0.7546771E-02  0.1063991E+00
        -11   -1    0    0    0    0  0.00000000000E+00  0.00000000000E+00  0.18250000000E+03  0.18250000000E+03  0.00000000000E+00 0.  1.
         11   -1    0    0    0    0 -0.00000000000E+00 -0.00000000000E+00 -0.18250000000E+03  0.18250000000E+03  0.00000000000E+00 0.  1.
        -11    1    1    2    0    0 -0.24485726521E+01 -0.58750119081E+01  0.17666567415E+03  0.17678029216E+03  0.00000000000E+00 0.  1.
         11    1    1    2    0    0 -0.13659819727E+01 -0.29439302454E+01 -0.14142309452E+03  0.14146032764E+03  0.00000000000E+00 0.  1.
        -15    1    1    2    0    0  0.19727393048E+01  0.30775076535E+01 -0.39148337378E+02  0.39358770334E+02  0.17770000000E+01 0.  1.
         15    1    1    2    0    0  0.18418153200E+01  0.57414345000E+01  0.39057577506E+01  0.74006098666E+01  0.17770000000E+01 0.  1.
</event>
<event>
 6    1  0.1378789E-002  0.1834597E+03  0.7546771E-02  0.1067693E+00
        -11   -1    0    0    0    0  0.00000000000E+00  0.00000000000E+00  0.18250000000E+03  0.18250000000E+03  0.00000000000E+00 0. -1.
         11   -1    0    0    0    0 -0.00000000000E+00 -0.00000000000E+00 -0.18250000000E+03  0.18250000000E+03  0.00000000000E+00 0.  1.
        -11    1    1    2    0    0 -0.16556366088E+01 -0.33885448661E+01  0.14129417568E+03  0.14134449919E+03  0.00000000000E+00 0. -1.
         11    1    1    2    0    0  0.12261820225E+01  0.45049195156E+01 -0.18148022398E+03  0.18154026969E+03  0.00000000000E+00 0.  1.
        -15    1    1    2    0    0 -0.23944699907E+01  0.48653112951E+01  0.16507899757E+02  0.17466345465E+02  0.17770000000E+01 0.  1.
         15    1    1    2    0    0  0.28239245770E+01 -0.59816859445E+01  0.23678148543E+02  0.24648885658E+02  0.17770000000E+01 0. -1.
</event>
<event>
 6    1  0.1378789E-002  0.1854329E+03  0.7546771E-02  0.1066144E+00
        -11   -1    0    0    0    0  0.00000000000E+00  0.00000000000E+00  0.18250000000E+03  0.18250000000E+03  0.00000000000E+00 0.  1.
         11   -1    0    0    0    0 -0.00000000000E+00 -0.00000000000E+00 -0.18250000000E+03  0.18250000000E+03  0.00000000000E+00 0.  1.
        -11    1    1    2    0    0 -0.30557121654E+00 -0.39068770053E+01  0.17952428877E+03  0.17956705522E+03  0.00000000000E+00 0.  1.
         11    1    1    2    0    0  0.72669794571E+01 -0.40546936150E+01 -0.13145093213E+03  0.13171407324E+03  0.00000000000E+00 0.  1.
        -15    1    1    2    0    0 -0.44655232796E+01  0.39978432604E+01 -0.48301000772E+02  0.48703881298E+02  0.17770000000E+01 0.  1.
         15    1    1    2    0    0 -0.24958849610E+01  0.39637273599E+01  0.22764413934E+00  0.50149902468E+01  0.17770000000E+01 0. -1.
</event>
<event>
 6    1  0.1378789E-002  0.1833368E+03  0.7546771E-02  0.1067791E+00
        -11   -1    0    0    0    0  0.00000000000E+00  0.00000000000E+00  0.18250000000E+03  0.18250000000E+03  0.00000000000E+00 0.  1.
         11   -1    0    0    0    0 -0.00000000000E+00 -0.00000000000E+00 -0.18250000000E+03  0.18250000000E+03  0.00000000000E+00 0. -1.
        -11    1    1    2    0    0  0.85106224567E+01 -0.18263080024E+01  0.18145453471E+03  0.18166318907E+03  0.00000000000E+00 0.  1.
         11    1    1    2    0    0  0.13640207082E+01 -0.10076130207E+00 -0.25944323854E+02  0.25980351144E+02  0.00000000000E+00 0. -1.
        -15    1    1    2    0    0 -0.27903144750E+01  0.73968470266E+00 -0.14125019088E+03  0.14129086008E+03  0.17770000000E+01 0. -1.
         15    1    1    2    0    0 -0.70843286899E+01  0.11873846018E+01 -0.14260019979E+02  0.16065599708E+02  0.17770000000E+01 0.  1.
</event>
<event>
 6    1  0.1378789E-002  0.1844700E+03  0.7546771E-02  0.1066897E+00
        -11   -1    0    0    0    0  0.00000000000E+00  0.00000000000E+00  0.18250000000E+03  0.18250000000E+03  0.00000000000E+00 0.  1.
         11   -1    0    0    0    0 -0.00000000000E+00 -0.00000000000E+00 -0.18250000000E+03  0.18250000000E+03  0.00000000000E+00 0. -1.
        -11    1    1    2    0    0  0.84228276272E+01 -0.92667649904E+01  0.12629767987E+03  0.12691698429E+03  0.00000000000E+00 0.  1.
         11    1    1    2    0    0  0.31527720630E+01  0.21474625068E+00 -0.18050231569E+03  0.18052997551E+03  0.00000000000E+00 0. -1.
        -15    1    1    2    0    0 -0.40692948744E+01  0.77997556495E+01  0.14246755109E+02  0.16838144468E+02  0.17770000000E+01 0. -1.
         15    1    1    2    0    0 -0.75063048158E+01  0.12522630902E+01  0.39957880711E+02  0.40714895735E+02  0.17770000000E+01 0.  1.
</event>
<event>
 6    1  0.1378789E-002  0.1889267E+03  0.7546771E-02  0.1063451E+00
        -11   -1    0    0    0    0  0.00000000000E+00  0.00000000000E+00  0.18250000000E+03  0.18250000000E+03  0.00000000000E+00 0. -1.
         11   -1    0    0    0    0 -0.00000000000E+00 -0.00000000000E+00 -0.18250000000E+03  0.18250000000E+03  0.00000000000E+00 0.  1.
        -11    1    1    2    0    0  0.12703992433E+01  0.27740116489E+01  0.17604688018E+03  0.17607331734E+03  0.00000000000E+00 0. -1.
         11    1    1    2    0    0 -0.57859047819E+01  0.11924118398E+02 -0.15957215613E+03  0.16012162348E+03  0.00000000000E+00 0.  1.
        -15    1    1    2    0    0  0.61171438605E+01 -0.60985364734E+00  0.72902895652E+00  0.64405421123E+01  0.17770000000E+01 0. -1.
         15    1    1    2    0    0 -0.16016383219E+01 -0.14088276399E+02 -0.17203753012E+02  0.22364517073E+02  0.17770000000E+01 0.  1.
</event>
<event>
 6    1  0.1378789E-002  0.1921351E+03  0.7546771E-02  0.1061034E+00
        -11   -1    0    0    0    0  0.00000000000E+00  0.00000000000E+00  0.18250000000E+03  0.18250000000E+03  0.00000000000E+00 0.  1.
         11   -1    0    0    0    0 -0.00000000000E+00 -0.00000000000E+00 -0.18250000000E+03  0.18250000000E+03  0.00000000000E+00 0.  1.
        -11    1    1    2    0    0 -0.31185096180E+01  0.53597230828E+00  0.15019001355E+03  0.15022334219E+03  0.00000000000E+00 0.  1.
         11    1    1    2    0    0  0.22304590299E+01 -0.65784149388E+01 -0.17272524914E+03  0.17286486683E+03  0.00000000000E+00 0.  1.
        -15    1    1    2    0    0  0.14747160977E+02  0.65940530575E+01  0.10613591432E+01  0.16286328771E+02  0.17770000000E+01 0. -1.
         15    1    1    2    0    0 -0.13859110389E+02 -0.55161042703E+00  0.21473876450E+02  0.25625462213E+02  0.17770000000E+01 0.  1.
</event>
<event>
 6    1  0.1378789E-002  0.1847269E+03  0.7546771E-02  0.1066696E+00
        -11   -1    0    0    0    0  0.00000000000E+00  0.00000000000E+00  0.18250000000E+03  0.18250000000E+03  0.00000000000E+00 0.  1.
         11   -1    0    0    0    0 -0.00000000000E+00 -0.00000000000E+00 -0.18250000000E+03  0.18250000000E+03  0.00000000000E+00 0. -1.
        -11    1    1    2    0    0  0.43442161608E+01  0.90915352781E+00  0.17645411660E+03  0.17650992617E+03  0.00000000000E+00 0.  1.
         11    1    1    2    0    0  0.14085629218E+01 -0.25777942255E+01 -0.18024915265E+03  0.18027308757E+03  0.00000000000E+00 0. -1.
        -15    1    1    2    0    0 -0.41504038492E+01  0.99633848897E+00  0.15747538500E+01  0.48842728409E+01  0.17770000000E+01 0.  1.
         15    1    1    2    0    0 -0.16023752334E+01  0.67230220868E+00  0.22202822011E+01  0.33327134142E+01  0.17770000000E+01 0. -1.
</event>
<event>
 6    1  0.1378789E-002  0.1394654E+03  0.7546771E-02  0.1109038E+00
        -11   -1    0    0    0    0  0.00000000000E+00  0.00000000000E+00  0.18250000000E+03  0.18250000000E+03  0.00000000000E+00 0. -1.
         11   -1    0    0    0    0 -0.00000000000E+00 -0.00000000000E+00 -0.18250000000E+03  0.18250000000E+03  0.00000000000E+00 0.  1.
        -11    1    1    2    0    0 -0.78557093081E+01 -0.25036348313E+01  0.15149771496E+03  0.15172191007E+03  0.00000000000E+00 0. -1.
         11    1    1    2    0    0  0.12877223305E+02 -0.28625378700E+02 -0.12627370260E+03  0.13011642154E+03  0.00000000000E+00 0.  1.
        -15    1    1    2    0    0 -0.29030351030E+02  0.41232732682E+02 -0.26554016832E+02  0.57019058781E+02  0.17770000000E+01 0.  1.
         15    1    1    2    0    0  0.24008837033E+02 -0.10103719151E+02  0.13300044747E+01  0.26142609611E+02  0.17770000000E+01 0. -1.
</event>
<event>
 6    1  0.1378789E-002  0.1842571E+03  0.7546771E-02  0.1067065E+00
        -11   -1    0    0    0    0  0.00000000000E+00  0.00000000000E+00  0.18250000000E+03  0.18250000000E+03  0.00000000000E+00 0.  1.
         11   -1    0    0    0    0 -0.00000000000E+00 -0.00000000000E+00 -0.18250000000E+03  0.18250000000E+03  0.00000000000E+00 0.  1.
        -11    1    1    2    0    0  0.13980218097E+01  0.29117431424E+01  0.18071407439E+03  0.18074293733E+03  0.00000000000E+00 0.  1.
         11    1    1    2    0    0  0.40462848110E+01 -0.16035161864E+01 -0.14913431761E+03  0.14919781625E+03  0.00000000000E+00 0.  1.
        -15    1    1    2    0    0 -0.27479343993E+01 -0.55741667772E+00 -0.13746671814E-01  0.33196046130E+01  0.17770000000E+01 0.  1.
         15    1    1    2    0    0 -0.26963722213E+01 -0.75081027822E+00 -0.31566010109E+02  0.31739641813E+02  0.17770000000E+01 0. -1.
</event>
<event>
 6    1  0.1378789E-002  0.1903507E+03  0.7546771E-02  0.1062372E+00
        -11   -1    0    0    0    0  0.00000000000E+00  0.00000000000E+00  0.18250000000E+03  0.18250000000E+03  0.00000000000E+00 0. -1.
         11   -1    0    0    0    0 -0.00000000000E+00 -0.00000000000E+00 -0.18250000000E+03  0.18250000000E+03  0.00000000000E+00 0.  1.
        -11    1    1    2    0    0  0.90528424142E+01  0.18983777761E+00  0.16560696770E+03  0.16585432688E+03  0.00000000000E+00 0. -1.
         11    1    1    2    0    0 -0.60375961411E+01 -0.34996121817E+01 -0.17450978379E+03  0.17464926136E+03  0.00000000000E+00 0.  1.
        -15    1    1    2    0    0  0.82850555289E+01 -0.15505848162E+01  0.84386949066E+01  0.12058845679E+02  0.17770000000E+01 0. -1.
         15    1    1    2    0    0 -0.11300301802E+02  0.48603592203E+01  0.46412118592E+00  0.12437566082E+02  0.17770000000E+01 0.  1.
</event>
<event>
 6    1  0.1378789E-002  0.1840266E+03  0.7546771E-02  0.1067246E+00
        -11   -1    0    0    0    0  0.00000000000E+00  0.00000000000E+00  0.18250000000E+03  0.18250000000E+03  0.00000000000E+00 0.  1.
         11   -1    0    0    0    0 -0.00000000000E+00 -0.00000000000E+00 -0.18250000000E+03  0.18250000000E+03  0.00000000000E+00 0.  1.
        -11    1    1    2    0    0  0.59585229232E+01 -0.34323226238E+01  0.18084272512E+03  0.18097341259E+03  0.00000000000E+00 0.  1.
         11    1    1    2    0    0 -0.17072087014E+01 -0.26947165822E+01 -0.15866099606E+03  0.15869306138E+03  0.00000000000E+00 0.  1.
        -15    1    1    2    0    0 -0.21549953924E+01 -0.20152923387E+01 -0.44328156099E+01  0.56136433430E+01  0.17770000000E+01 0. -1.
         15    1    1    2    0    0 -0.20963188294E+01  0.81423315447E+01 -0.17748913447E+02  0.19719882686E+02  0.17770000000E+01 0.  1.
</event>
<event>
 6    1  0.1378789E-002  0.1959172E+03  0.7546771E-02  0.1058250E+00
        -11   -1    0    0    0    0  0.00000000000E+00  0.00000000000E+00  0.18250000000E+03  0.18250000000E+03  0.00000000000E+00 0.  1.
         11   -1    0    0    0    0 -0.00000000000E+00 -0.00000000000E+00 -0.18250000000E+03  0.18250000000E+03  0.00000000000E+00 0. -1.
        -11    1    1    2    0    0 -0.26821909296E+01 -0.50858993621E+01  0.10376053888E+03  0.10391972840E+03  0.00000000000E+00 0.  1.
         11    1    1    2    0    0  0.46546438580E+01  0.14643315770E+01 -0.16901235079E+03  0.16908277469E+03  0.00000000000E+00 0. -1.
        -15    1    1    2    0    0  0.19390704728E+02 -0.27093518425E+01  0.66759925371E+02  0.69594434991E+02  0.17770000000E+01 0. -1.
         15    1    1    2    0    0 -0.21363157656E+02  0.63309196277E+01 -0.15081134649E+01  0.22403061925E+02  0.17770000000E+01 0.  1.
</event>
<event>
 6    1  0.1378789E-002  0.1895918E+03  0.7546771E-02  0.1062946E+00
        -11   -1    0    0    0    0  0.00000000000E+00  0.00000000000E+00  0.18250000000E+03  0.18250000000E+03  0.00000000000E+00 0.  1.
         11   -1    0    0    0    0 -0.00000000000E+00 -0.00000000000E+00 -0.18250000000E+03  0.18250000000E+03  0.00000000000E+00 0.  1.
        -11    1    1    2    0    0 -0.38407486994E+01 -0.14501569285E+01  0.12802597340E+03  0.12809178026E+03  0.00000000000E+00 0.  1.
         11    1    1    2    0    0  0.68905917095E+01 -0.25186026571E+01 -0.17525467480E+03  0.17540816587E+03  0.00000000000E+00 0.  1.
        -15    1    1    2    0    0  0.16363141829E+01  0.15784294308E+02  0.45898462851E+02  0.48596790964E+02  0.17770000000E+01 0.  1.
         15    1    1    2    0    0 -0.46861571931E+01 -0.11815534722E+02  0.13302385475E+01  0.12903262905E+02  0.17770000000E+01 0. -1.
</event>
<event>
 6    1  0.1378789E-002  0.1826467E+03  0.7546771E-02  0.1068338E+00
        -11   -1    0    0    0    0  0.00000000000E+00  0.00000000000E+00  0.18250000000E+03  0.18250000000E+03  0.00000000000E+00 0.  1.
         11   -1    0    0    0    0 -0.00000000000E+00 -0.00000000000E+00 -0.18250000000E+03  0.18250000000E+03  0.00000000000E+00 0.  1.
        -11    1    1    2    0    0  0.19891967433E+00 -0.15288939833E+01  0.45682319085E+02  0.45708329250E+02  0.00000000000E+00 0.  1.
         11    1    1    2    0    0 -0.25013505565E+01 -0.21694326457E+01 -0.18232321915E+03  0.18235328194E+03  0.00000000000E+00 0.  1.
        -15    1    1    2    0    0 -0.11531409963E+01  0.42034867725E+01  0.94016537300E+02  0.94134297947E+02  0.17770000000E+01 0.  1.
         15    1    1    2    0    0  0.34555718785E+01 -0.50516014344E+00  0.42624362770E+02  0.42804090860E+02  0.17770000000E+01 0. -1.
</event>
<event>
 6    1  0.1378789E-002  0.1844559E+03  0.7546771E-02  0.1066908E+00
        -11   -1    0    0    0    0  0.00000000000E+00  0.00000000000E+00  0.18250000000E+03  0.18250000000E+03  0.00000000000E+00 0. -1.
         11   -1    0    0    0    0 -0.00000000000E+00 -0.00000000000E+00 -0.18250000000E+03  0.18250000000E+03  0.00000000000E+00 0. -1.
        -11    1    1    2    0    0 -0.10757923034E+01 -0.37994149848E+01  0.18050088413E+03  0.18054407233E+03  0.00000000000E+00 0. -1.
         11    1    1    2    0    0 -0.28213547176E+01 -0.11746174950E+01 -0.17438789001E+03  0.17441466668E+03  0.00000000000E+00 0. -1.
        -15    1    1    2    0    0  0.38382115371E+01  0.25423751971E+01 -0.34576257314E+01  0.60256488567E+01  0.17770000000E+01 0. -1.
         15    1    1    2    0    0  0.58935483873E-01  0.24316572828E+01 -0.26553683862E+01  0.40156121325E+01  0.17770000000E+01 0.  1.
</event>
<event>
 6    1  0.1378789E-002  0.1840798E+03  0.7546771E-02  0.1067204E+00
        -11   -1    0    0    0    0  0.00000000000E+00  0.00000000000E+00  0.18250000000E+03  0.18250000000E+03  0.00000000000E+00 0. -1.
         11   -1    0    0    0    0 -0.00000000000E+00 -0.00000000000E+00 -0.18250000000E+03  0.18250000000E+03  0.00000000000E+00 0.  1.
        -11    1    1    2    0    0  0.83008793384E+01 -0.75398720835E+00  0.18072811238E+03  0.18092021363E+03  0.00000000000E+00 0. -1.
         11    1    1    2    0    0 -0.10162068898E+01 -0.13755151585E+01 -0.71903568392E+02  0.71923903299E+02  0.00000000000E+00 0.  1.
        -15    1    1    2    0    0 -0.62915339387E+01 -0.13764022938E+01 -0.52366931201E+01  0.84887317315E+01  0.17770000000E+01 0. -1.
         15    1    1    2    0    0 -0.99313850995E+00  0.35059046606E+01 -0.10358785087E+03  0.10366715134E+03  0.17770000000E+01 0.  1.
</event>
<event>
 6    1  0.1378789E-002  0.1846983E+03  0.7546771E-02  0.1066718E+00
        -11   -1    0    0    0    0  0.00000000000E+00  0.00000000000E+00  0.18250000000E+03  0.18250000000E+03  0.00000000000E+00 0.  1.
         11   -1    0    0    0    0 -0.00000000000E+00 -0.00000000000E+00 -0.18250000000E+03  0.18250000000E+03  0.00000000000E+00 0.  1.
        -11    1    1    2    0    0  0.34044645870E+01 -0.64914071569E+00  0.18026839809E+03  0.18030171135E+03  0.00000000000E+00 0.  1.
         11    1    1    2    0    0  0.38154766090E+01 -0.56803823000E+01 -0.12193876659E+03  0.12213061615E+03  0.00000000000E+00 0.  1.
        -15    1    1    2    0    0 -0.22172005453E+01  0.35297913062E-01  0.73231755242E+00  0.29344918126E+01  0.17770000000E+01 0.  1.
         15    1    1    2    0    0 -0.50027406507E+01  0.62942251027E+01 -0.59061949057E+02  0.59633180688E+02  0.17770000000E+01 0.  1.
</event>
<event>
 6    1  0.1378789E-002  0.2064678E+03  0.7546771E-02  0.1050831E+00
        -11   -1    0    0    0    0  0.00000000000E+00  0.00000000000E+00  0.18250000000E+03  0.18250000000E+03  0.00000000000E+00 0.  1.
         11   -1    0    0    0    0 -0.00000000000E+00 -0.00000000000E+00 -0.18250000000E+03  0.18250000000E+03  0.00000000000E+00 0. -1.
        -11    1    1    2    0    0  0.66347742238E+01  0.47958290919E+01  0.14776610703E+03  0.14799271128E+03  0.00000000000E+00 0.  1.
         11    1    1    2    0    0  0.11168598835E+01 -0.19530381791E+01 -0.15851626468E+03  0.15853222985E+03  0.00000000000E+00 0. -1.
        -15    1    1    2    0    0 -0.14082176075E+01 -0.43668538226E+01  0.33952694575E+02  0.34307370739E+02  0.17770000000E+01 0.  1.
         15    1    1    2    0    0 -0.63434164999E+01  0.15240629097E+01 -0.23202536927E+02  0.24167688128E+02  0.17770000000E+01 0. -1.
</event>
<event>
 6    1  0.1378789E-002  0.1826626E+03  0.7546771E-02  0.1068325E+00
        -11   -1    0    0    0    0  0.00000000000E+00  0.00000000000E+00  0.18250000000E+03  0.18250000000E+03  0.00000000000E+00 0.  1.
         11   -1    0    0    0    0 -0.00000000000E+00 -0.00000000000E+00 -0.18250000000E+03  0.18250000000E+03  0.00000000000E+00 0.  1.
        -11    1    1    2    0    0 -0.11583871995E+01  0.36137526080E+01  0.18229795199E+03  0.18233744642E+03  0.00000000000E+00 0.  1.
         11    1    1    2    0    0 -0.17166483312E+01 -0.35191473320E+01 -0.11721783561E+03  0.11728321391E+03  0.00000000000E+00 0.  1.
        -15    1    1    2    0    0  0.20241917572E+01  0.11620928938E+01 -0.17685186233E+02  0.17926833331E+02  0.17770000000E+01 0.  1.
         15    1    1    2    0    0  0.85084377348E+00 -0.12566981699E+01 -0.47394930141E+02  0.47452506335E+02  0.17770000000E+01 0. -1.
</event>
<event>
 6    1  0.1378789E-002  0.1878789E+03  0.7546771E-02  0.1064252E+00
        -11   -1    0    0    0    0  0.00000000000E+00  0.00000000000E+00  0.18250000000E+03  0.18250000000E+03  0.00000000000E+00 0. -1.
         11   -1    0    0    0    0 -0.00000000000E+00 -0.00000000000E+00 -0.18250000000E+03  0.18250000000E+03  0.00000000000E+00 0. -1.
        -11    1    1    2    0    0 -0.43006027627E+00  0.55516688595E+01  0.17703350653E+03  0.17712105581E+03  0.00000000000E+00 0. -1.
         11    1    1    2    0    0  0.40803808472E+01  0.55498948398E+01 -0.16651753400E+03  0.16665995311E+03  0.00000000000E+00 0. -1.
        -15    1    1    2    0    0 -0.33709106428E+00 -0.15462241439E+01 -0.10687480411E+02  0.10949173760E+02  0.17770000000E+01 0.  1.
         15    1    1    2    0    0 -0.33132295067E+01 -0.95553395554E+01  0.17150788590E+00  0.10269817318E+02  0.17770000000E+01 0. -1.
</event>
<event>
 6    1  0.1378789E-002  0.1827926E+03  0.7546771E-02  0.1068222E+00
        -11   -1    0    0    0    0  0.00000000000E+00  0.00000000000E+00  0.18250000000E+03  0.18250000000E+03  0.00000000000E+00 0. -1.
         11   -1    0    0    0    0 -0.00000000000E+00 -0.00000000000E+00 -0.18250000000E+03  0.18250000000E+03  0.00000000000E+00 0.  1.
        -11    1    1    2    0    0 -0.37247147688E+01 -0.34495767916E+01  0.18213665498E+03  0.18220739328E+03  0.00000000000E+00 0. -1.
         11    1    1    2    0    0 -0.79455909653E+00  0.17534869153E+01 -0.14605945088E+02  0.14732266371E+02  0.00000000000E+00 0.  1.
        -15    1    1    2    0    0  0.23792223925E+01  0.50953430531E+01 -0.37976896654E+02  0.38432091128E+02  0.17770000000E+01 0.  1.
         15    1    1    2    0    0  0.21400514729E+01 -0.33992531768E+01 -0.12955381324E+03  0.12962824922E+03  0.17770000000E+01 0. -1.
</event>
<event>
 6    1  0.1378789E-002  0.1835804E+03  0.7546771E-02  0.1067598E+00
        -11   -1    0    0    0    0  0.00000000000E+00  0.00000000000E+00  0.18250000000E+03  0.18250000000E+03  0.00000000000E+00 0.  1.
         11   -1    0    0    0    0 -0.00000000000E+00 -0.00000000000E+00 -0.18250000000E+03  0.18250000000E+03  0.00000000000E+00 0. -1.
        -11    1    1    2    0    0  0.26471076062E+01 -0.21967275613E+01  0.18138694154E+03  0.18141955615E+03  0.00000000000E+00 0.  1.
         11    1    1    2    0    0  0.19232905569E+01  0.11142210867E+00 -0.11027874129E+02  0.11194885853E+02  0.00000000000E+00 0. -1.
        -15    1    1    2    0    0 -0.36625828936E+01  0.92699112366E+00 -0.33297322489E+01  0.53402876183E+01  0.17770000000E+01 0.  1.
         15    1    1    2    0    0 -0.90781526945E+00  0.11583143289E+01 -0.16702933517E+03  0.16704527038E+03  0.17770000000E+01 0. -1.
</event>
<event>
 6    1  0.1378789E-002  0.2179669E+03  0.7546771E-02  0.1043276E+00
        -11   -1    0    0    0    0  0.00000000000E+00  0.00000000000E+00  0.18250000000E+03  0.18250000000E+03  0.00000000000E+00 0.  1.
         11   -1    0    0    0    0 -0.00000000000E+00 -0.00000000000E+00 -0.18250000000E+03  0.18250000000E+03  0.00000000000E+00 0. -1.
        -11    1    1    2    0    0  0.11703357505E+01 -0.28171339421E+01  0.14700145594E+03  0.14703310504E+03  0.00000000000E+00 0.  1.
         11    1    1    2    0    0 -0.71852442054E+01  0.76098592956E+00 -0.11980917962E+03  0.12002685680E+03  0.00000000000E+00 0. -1.
        -15    1    1    2    0    0  0.40056084704E+02 -0.49882201678E+01 -0.43613586230E+02  0.59453131920E+02  0.17770000000E+01 0. -1.
         15    1    1    2    0    0 -0.34041176249E+02  0.70443681804E+01  0.16421309904E+02  0.38486906234E+02  0.17770000000E+01 0.  1.
</event>
<event>
 6    1  0.1378789E-002  0.1854614E+03  0.7546771E-02  0.1066122E+00
        -11   -1    0    0    0    0  0.00000000000E+00  0.00000000000E+00  0.18250000000E+03  0.18250000000E+03  0.00000000000E+00 0.  1.
         11   -1    0    0    0    0 -0.00000000000E+00 -0.00000000000E+00 -0.18250000000E+03  0.18250000000E+03  0.00000000000E+00 0. -1.
        -11    1    1    2    0    0 -0.66118949062E+01  0.79244250155E+00  0.17941505557E+03  0.17953859553E+03  0.00000000000E+00 0.  1.
         11    1    1    2    0    0 -0.36975981677E+01  0.41167340506E+00 -0.14907228169E+03  0.14911870062E+03  0.00000000000E+00 0. -1.
        -15    1    1    2    0    0  0.38727588981E+01  0.18572244778E+01 -0.28353947588E+02  0.28732414049E+02  0.17770000000E+01 0. -1.
         15    1    1    2    0    0  0.64367341758E+01 -0.30613403844E+01 -0.19888262977E+01  0.76102898001E+01  0.17770000000E+01 0.  1.
</event>
<event>
 6    1  0.1378789E-002  0.1832510E+03  0.7546771E-02  0.1067859E+00
        -11   -1    0    0    0    0  0.00000000000E+00  0.00000000000E+00  0.18250000000E+03  0.18250000000E+03  0.00000000000E+00 0.  1.
         11   -1    0    0    0    0 -0.00000000000E+00 -0.00000000000E+00 -0.18250000000E+03  0.18250000000E+03  0.00000000000E+00 0. -1.
        -11    1    1    2    0    0 -0.80718248136E+00  0.61462650378E+01  0.68461246036E+02  0.68741329099E+02  0.00000000000E+00 0.  1.
         11    1    1    2    0    0  0.25287871411E+01 -0.33897654185E+01 -0.18169979256E+03  0.18174900245E+03  0.00000000000E+00 0. -1.
        -15    1    1    2    0    0 -0.24115981576E+01  0.30607050183E+01  0.78398255221E+01  0.89333260380E+01  0.17770000000E+01 0. -1.
         15    1    1    2    0    0  0.68999349782E+00 -0.58172046376E+01  0.10539872100E+03  0.10557634242E+03  0.17770000000E+01 0.  1.
</event>
<event>
 6    1  0.1378789E-002  0.1829452E+03  0.7546771E-02  0.1068101E+00
        -11   -1    0    0    0    0  0.00000000000E+00  0.00000000000E+00  0.18250000000E+03  0.18250000000E+03  0.00000000000E+00 0.  1.
         11   -1    0    0    0    0 -0.00000000000E+00 -0.00000000000E+00 -0.18250000000E+03  0.18250000000E+03  0.00000000000E+00 0. -1.
        -11    1    1    2    0    0 -0.37946672744E+01  0.33706364394E+01  0.18198403623E+03  0.18205479981E+03  0.00000000000E+00 0.  1.
         11    1    1    2    0    0  0.47186641052E+00 -0.23883173289E+01 -0.13029206211E+03  0.13031480409E+03  0.00000000000E+00 0. -1.
        -15    1    1    2    0    0 -0.23018647921E+00  0.25506541973E+01 -0.34367307487E+02  0.34508381237E+02  0.17770000000E+01 0. -1.
         15    1    1    2    0    0  0.35529873431E+01 -0.35329733078E+01 -0.17324666640E+02  0.18122014861E+02  0.17770000000E+01 0.  1.
</event>
<event>
 6    1  0.1378789E-002  0.1852636E+03  0.7546771E-02  0.1066276E+00
        -11   -1    0    0    0    0  0.00000000000E+00  0.00000000000E+00  0.18250000000E+03  0.18250000000E+03  0.00000000000E+00 0.  1.
         11   -1    0    0    0    0 -0.00000000000E+00 -0.00000000000E+00 -0.18250000000E+03  0.18250000000E+03  0.00000000000E+00 0.  1.
        -11    1    1    2    0    0  0.14445721476E+00 -0.34514625627E+01  0.17970316855E+03  0.17973636875E+03  0.00000000000E+00 0.  1.
         11    1    1    2    0    0 -0.39125883209E+00  0.37909245048E+01 -0.16513688122E+03  0.16518085158E+03  0.00000000000E+00 0.  1.
        -15    1    1    2    0    0 -0.11508215110E+01 -0.24453371401E+01 -0.16246837576E+02  0.16565673065E+02  0.17770000000E+01 0.  1.
         15    1    1    2    0    0  0.13976231283E+01  0.21058751980E+01  0.16805502386E+01  0.35171066038E+01  0.17770000000E+01 0.  1.
</event>
<event>
 6    1  0.1378789E-002  0.1858439E+03  0.7546771E-02  0.1065824E+00
        -11   -1    0    0    0    0  0.00000000000E+00  0.00000000000E+00  0.18250000000E+03  0.18250000000E+03  0.00000000000E+00 0.  1.
         11   -1    0    0    0    0 -0.00000000000E+00 -0.00000000000E+00 -0.18250000000E+03  0.18250000000E+03  0.00000000000E+00 0. -1.
        -11    1    1    2    0    0  0.32574482453E+01  0.61237231939E+01  0.17902179988E+03  0.17915612127E+03  0.00000000000E+00 0.  1.
         11    1    1    2    0    0  0.23264154261E+01 -0.21402969779E+01 -0.16878971742E+03  0.16881931698E+03  0.00000000000E+00 0. -1.
        -15    1    1    2    0    0 -0.23468651917E+01  0.26967111360E+01  0.31576956626E+00  0.40046805863E+01  0.17770000000E+01 0.  1.
         15    1    1    2    0    0 -0.32369984797E+01 -0.66801373520E+01 -0.10547852029E+02  0.13019881168E+02  0.17770000000E+01 0. -1.
</event>
<event>
 6    1  0.1378789E-002  0.1873435E+03  0.7546771E-02  0.1064663E+00
        -11   -1    0    0    0    0  0.00000000000E+00  0.00000000000E+00  0.18250000000E+03  0.18250000000E+03  0.00000000000E+00 0. -1.
         11   -1    0    0    0    0 -0.00000000000E+00 -0.00000000000E+00 -0.18250000000E+03  0.18250000000E+03  0.00000000000E+00 0.  1.
        -11    1    1    2    0    0 -0.27240795462E+01  0.17440331417E+00  0.17054225208E+03  0.17056409579E+03  0.00000000000E+00 0. -1.
         11    1    1    2    0    0  0.21937954782E+01  0.13668486663E+01 -0.17763767641E+03  0.17765648058E+03  0.00000000000E+00 0.  1.
        -15    1    1    2    0    0  0.56549061759E+01 -0.11280278603E+01  0.91535710936E+01  0.10963393794E+02  0.17770000000E+01 0.  1.
         15    1    1    2    0    0 -0.51246221079E+01 -0.41322412017E+00 -0.20581467698E+01  0.58160298355E+01  0.17770000000E+01 0.  1.
</event>
<event>
 6    1  0.1378789E-002  0.2277575E+03  0.7546771E-02  0.1037232E+00
        -11   -1    0    0    0    0  0.00000000000E+00  0.00000000000E+00  0.18250000000E+03  0.18250000000E+03  0.00000000000E+00 0.  1.
         11   -1    0    0    0    0 -0.00000000000E+00 -0.00000000000E+00 -0.18250000000E+03  0.18250000000E+03  0.00000000000E+00 0. -1.
        -11    1    1    2    0    0 -0.53787052094E+00 -0.33381342636E+01  0.11286060560E+03  0.11291124276E+03  0.00000000000E+00 0.  1.
         11    1    1    2    0    0  0.58718505378E+01 -0.39111378816E+01 -0.13706106152E+03  0.13724252334E+03  0.00000000000E+00 0. -1.
        -15    1    1    2    0    0 -0.27464673331E+02  0.11031609306E+02 -0.38285966599E+02  0.48424969308E+02  0.17770000000E+01 0. -1.
         15    1    1    2    0    0  0.22130693314E+02 -0.37823371611E+01  0.62486422519E+02  0.66421264586E+02  0.17770000000E+01 0.  1.
</event>
<event>
 6    1  0.1378789E-002  0.1877251E+03  0.7546771E-02  0.1064370E+00
        -11   -1    0    0    0    0  0.00000000000E+00  0.00000000000E+00  0.18250000000E+03  0.18250000000E+03  0.00000000000E+00 0. -1.
         11   -1    0    0    0    0 -0.00000000000E+00 -0.00000000000E+00 -0.18250000000E+03  0.18250000000E+03  0.00000000000E+00 0. -1.
        -11    1    1    2    0    0 -0.26546532003E+01 -0.66588818219E+00  0.16739013011E+03  0.16741250326E+03  0.00000000000E+00 0. -1.
         11    1    1    2    0    0  0.10617377662E+02  0.58346414954E+01 -0.17686040297E+03  0.17727485407E+03  0.00000000000E+00 0. -1.
        -15    1    1    2    0    0 -0.12110103075E+02 -0.34506579783E+01  0.47919862413E+01  0.13589793895E+02  0.17770000000E+01 0. -1.
         15    1    1    2    0    0  0.41473786128E+01 -0.17180953349E+01  0.46782866178E+01  0.67228487724E+01  0.17770000000E+01 0.  1.
</event>
<event>
 6    1  0.1378789E-002  0.1857083E+03  0.7546771E-02  0.1065929E+00
        -11   -1    0    0    0    0  0.00000000000E+00  0.00000000000E+00  0.18250000000E+03  0.18250000000E+03  0.00000000000E+00 0. -1.
         11   -1    0    0    0    0 -0.00000000000E+00 -0.00000000000E+00 -0.18250000000E+03  0.18250000000E+03  0.00000000000E+00 0. -1.
        -11    1    1    2    0    0  0.10101406908E+01  0.41938052969E+01  0.17923983270E+03  0.17929173437E+03  0.00000000000E+00 0. -1.
         11    1    1    2    0    0 -0.56495582005E+00  0.27997718433E+01 -0.17134664903E+03  0.17137045262E+03  0.00000000000E+00 0. -1.
        -15    1    1    2    0    0 -0.22643441232E+01 -0.73519984265E+01 -0.23646113772E+01  0.82418596892E+01  0.17770000000E+01 0.  1.
         15    1    1    2    0    0  0.18191592524E+01  0.35842128619E+00 -0.55285722943E+01  0.60959533149E+01  0.17770000000E+01 0.  1.
</event>
<event>
 6    1  0.1378789E-002  0.1847023E+03  0.7546771E-02  0.1066715E+00
        -11   -1    0    0    0    0  0.00000000000E+00  0.00000000000E+00  0.18250000000E+03  0.18250000000E+03  0.00000000000E+00 0. -1.
         11   -1    0    0    0    0 -0.00000000000E+00 -0.00000000000E+00 -0.18250000000E+03  0.18250000000E+03  0.00000000000E+00 0. -1.
        -11    1    1    2    0    0 -0.50035044899E+01 -0.92821553473E+00  0.15389124400E+03  0.15397536043E+03  0.00000000000E+00 0. -1.
         11    1    1    2    0    0 -0.26980868767E+01 -0.30529791132E+00 -0.18027727189E+03  0.18029771946E+03  0.00000000000E+00 0. -1.
        -15    1    1    2    0    0 -0.26379277803E+01 -0.11910650700E+01  0.17070098849E+01  0.38011722826E+01  0.17770000000E+01 0. -1.
         15    1    1    2    0    0  0.10339519147E+02  0.24245785160E+01  0.24679018011E+02  0.26925747830E+02  0.17770000000E+01 0. -1.
</event>
<event>
 6    1  0.1378789E-002  0.1852951E+03  0.7546771E-02  0.1066251E+00
        -11   -1    0    0    0    0  0.00000000000E+00  0.00000000000E+00  0.18250000000E+03  0.18250000000E+03  0.00000000000E+00 0. -1.
         11   -1    0    0    0    0 -0.00000000000E+00 -0.00000000000E+00 -0.18250000000E+03  0.18250000000E+03  0.00000000000E+00 0.  1.
        -11    1    1    2    0    0 -0.38478548122E+01 -0.93786548746E+01  0.17941870990E+03  0.17970486531E+03  0.00000000000E+00 0. -1.
         11    1    1    2    0    0  0.72782325683E+00  0.39105334679E+01 -0.14156403002E+03  0.14161990183E+03  0.00000000000E+00 0.  1.
        -15    1    1    2    0    0  0.31960450766E+00  0.83291679717E+01 -0.37852636475E+01  0.93254027271E+01  0.17770000000E+01 0.  1.
         15    1    1    2    0    0  0.28004270477E+01 -0.28610465650E+01 -0.34069416231E+02  0.34349830137E+02  0.17770000000E+01 0. -1.
</event>
<event>
 6    1  0.1378789E-002  0.2061441E+03  0.7546771E-02  0.1051051E+00
        -11   -1    0    0    0    0  0.00000000000E+00  0.00000000000E+00  0.18250000000E+03  0.18250000000E+03  0.00000000000E+00 0.  1.
         11   -1    0    0    0    0 -0.00000000000E+00 -0.00000000000E+00 -0.18250000000E+03  0.18250000000E+03  0.00000000000E+00 0. -1.
        -11    1    1    2    0    0  0.47656749098E+01 -0.47862119382E+01  0.15871227059E+03  0.15885592314E+03  0.00000000000E+00 0.  1.
         11    1    1    2    0    0  0.99450981079E+01 -0.70939663387E+01 -0.59609105329E+02  0.60847964411E+02  0.00000000000E+00 0. -1.
        -15    1    1    2    0    0 -0.25857164809E+02  0.20773074914E+02 -0.11741306329E+03  0.12202089482E+03  0.17770000000E+01 0. -1.
         15    1    1    2    0    0  0.11146391791E+02 -0.88928966374E+01  0.18309898032E+02  0.23275217625E+02  0.17770000000E+01 0.  1.
</event>
<event>
 6    1  0.1378789E-002  0.1921794E+03  0.7546771E-02  0.1061001E+00
        -11   -1    0    0    0    0  0.00000000000E+00  0.00000000000E+00  0.18250000000E+03  0.18250000000E+03  0.00000000000E+00 0.  1.
         11   -1    0    0    0    0 -0.00000000000E+00 -0.00000000000E+00 -0.18250000000E+03  0.18250000000E+03  0.00000000000E+00 0.  1.
        -11    1    1    2    0    0 -0.66811581022E+01 -0.15209992247E+02  0.10418670819E+03  0.10550285257E+03  0.00000000000E+00 0.  1.
         11    1    1    2    0    0 -0.66814212745E+01  0.75674748648E+01 -0.17252550819E+03  0.17282059785E+03  0.00000000000E+00 0.  1.
        -15    1    1    2    0    0 -0.82268122682E+01 -0.10230351677E+02  0.50286447284E+00  0.13257116474E+02  0.17770000000E+01 0. -1.
         15    1    1    2    0    0  0.21589391645E+02  0.17872869059E+02  0.67835935528E+02  0.73419433108E+02  0.17770000000E+01 0.  1.
</event>
<event>
 6    1  0.1378789E-002  0.1851065E+03  0.7546771E-02  0.1066399E+00
        -11   -1    0    0    0    0  0.00000000000E+00  0.00000000000E+00  0.18250000000E+03  0.18250000000E+03  0.00000000000E+00 0.  1.
         11   -1    0    0    0    0 -0.00000000000E+00 -0.00000000000E+00 -0.18250000000E+03  0.18250000000E+03  0.00000000000E+00 0.  1.
        -11    1    1    2    0    0 -0.62272209944E+01 -0.22294420069E+01  0.17977191010E+03  0.17989354728E+03  0.00000000000E+00 0.  1.
         11    1    1    2    0    0 -0.14576645603E+01 -0.14309804719E+01 -0.14575202035E+03  0.14576633331E+03  0.00000000000E+00 0.  1.
        -15    1    1    2    0    0  0.11082187233E+02  0.35165903840E+01 -0.33454703215E+02  0.35462038548E+02  0.17770000000E+01 0. -1.
         15    1    1    2    0    0 -0.33973016778E+01  0.14383209480E+00 -0.56518653245E+00  0.38780808628E+01  0.17770000000E+01 0.  1.
</event>
<event>
 6    1  0.1378789E-002  0.9241763E+02  0.7546771E-02  0.1177621E+00
        -11   -1    0    0    0    0  0.00000000000E+00  0.00000000000E+00  0.18250000000E+03  0.18250000000E+03  0.00000000000E+00 0.  1.
         11   -1    0    0    0    0 -0.00000000000E+00 -0.00000000000E+00 -0.18250000000E+03  0.18250000000E+03  0.00000000000E+00 0. -1.
        -11    1    1    2    0    0 -0.78968150669E+01  0.10383220034E+02  0.10810364421E+03  0.10888787278E+03  0.00000000000E+00 0.  1.
         11    1    1    2    0    0 -0.91887484614E+01 -0.86751225944E+00 -0.10327477836E+03  0.10368638060E+03  0.00000000000E+00 0. -1.
        -15    1    1    2    0    0  0.72782242346E+01 -0.46854535759E+01 -0.77960732880E+02  0.78459923677E+02  0.17770000000E+01 0. -1.
         15    1    1    2    0    0  0.98073392937E+01 -0.48302541990E+01  0.73131867029E+02  0.73965822945E+02  0.17770000000E+01 0.  1.
</event>
<event>
 6    1  0.1378789E-002  0.1839039E+03  0.7546771E-02  0.1067343E+00
        -11   -1    0    0    0    0  0.00000000000E+00  0.00000000000E+00  0.18250000000E+03  0.18250000000E+03  0.00000000000E+00 0. -1.
         11   -1    0    0    0    0 -0.00000000000E+00 -0.00000000000E+00 -0.18250000000E+03  0.18250000000E+03  0.00000000000E+00 0. -1.
        -11    1    1    2    0    0 -0.22571299175E+01  0.94520828739E+01  0.18083521735E+03  0.18109614115E+03  0.00000000000E+00 0. -1.
         11    1    1    2    0    0 -0.22170294708E+01  0.34000298703E+00 -0.12524725011E+03  0.12526733206E+03  0.00000000000E+00 0. -1.
        -15    1    1    2    0    0  0.94844656651E+01 -0.49660661060E+01 -0.25683375229E+02  0.27882080153E+02  0.17770000000E+01 0. -1.
         15    1    1    2    0    0 -0.50103062768E+01 -0.48260197549E+01 -0.29904592007E+02  0.30754446634E+02  0.17770000000E+01 0.  1.
</event>
<event>
 6    1  0.1378789E-002  0.1837888E+03  0.7546771E-02  0.1067433E+00
        -11   -1    0    0    0    0  0.00000000000E+00  0.00000000000E+00  0.18250000000E+03  0.18250000000E+03  0.00000000000E+00 0.  1.
         11   -1    0    0    0    0 -0.00000000000E+00 -0.00000000000E+00 -0.18250000000E+03  0.18250000000E+03  0.00000000000E+00 0.  1.
        -11    1    1    2    0    0 -0.52607904538E+01  0.29837732740E+01  0.14400027490E+03  0.14412722848E+03  0.00000000000E+00 0.  1.
         11    1    1    2    0    0 -0.33788938136E+01 -0.97504467622E+01 -0.18091709562E+03  0.18121115756E+03  0.00000000000E+00 0.  1.
        -15    1    1    2    0    0  0.34332122047E+01  0.72838246858E+00  0.35149923765E+01  0.52754513997E+01  0.17770000000E+01 0.  1.
         15    1    1    2    0    0  0.52064720628E+01  0.60382910196E+01  0.33401828346E+02  0.34386162560E+02  0.17770000000E+01 0. -1.
</event>
<event>
 6    1  0.1378789E-002  0.2090695E+03  0.7546771E-02  0.1049076E+00
        -11   -1    0    0    0    0  0.00000000000E+00  0.00000000000E+00  0.18250000000E+03  0.18250000000E+03  0.00000000000E+00 0.  1.
         11   -1    0    0    0    0 -0.00000000000E+00 -0.00000000000E+00 -0.18250000000E+03  0.18250000000E+03  0.00000000000E+00 0.  1.
        -11    1    1    2    0    0 -0.29477443113E+01 -0.70353126829E+01  0.15574382041E+03  0.15593050508E+03  0.00000000000E+00 0.  1.
         11    1    1    2    0    0  0.16530525201E+02  0.82008511194E+01 -0.89034103182E+02  0.90926254470E+02  0.00000000000E+00 0.  1.
        -15    1    1    2    0    0  0.25122977885E+02  0.12273518925E+02  0.11140991749E+02  0.30150998504E+02  0.17770000000E+01 0. -1.
         15    1    1    2    0    0 -0.38705758775E+02 -0.13439057361E+02 -0.77850708974E+02  0.87992241941E+02  0.17770000000E+01 0.  1.
</event>
<event>
 6    1  0.1378789E-002  0.1785514E+03  0.7546771E-02  0.1071642E+00
        -11   -1    0    0    0    0  0.00000000000E+00  0.00000000000E+00  0.18250000000E+03  0.18250000000E+03  0.00000000000E+00 0.  1.
         11   -1    0    0    0    0 -0.00000000000E+00 -0.00000000000E+00 -0.18250000000E+03  0.18250000000E+03  0.00000000000E+00 0.  1.
        -11    1    1    2    0    0 -0.14598288822E+01  0.22305061704E+01  0.17855562528E+03  0.17857552346E+03  0.00000000000E+00 0.  1.
         11    1    1    2    0    0  0.11100812885E+01  0.22267128573E+01 -0.17853788905E+03  0.17855522495E+03  0.00000000000E+00 0.  1.
        -15    1    1    2    0    0  0.10661196060E+01 -0.53589763916E+01 -0.14898368326E+00  0.57476224752E+01  0.17770000000E+01 0.  1.
         15    1    1    2    0    0 -0.71637201226E+00  0.90175736387E+00  0.13124745663E+00  0.21216291142E+01  0.17770000000E+01 0. -1.
</event>
<event>
 6    1  0.1378789E-002  0.2023713E+03  0.7546771E-02  0.1053653E+00
        -11   -1    0    0    0    0  0.00000000000E+00  0.00000000000E+00  0.18250000000E+03  0.18250000000E+03  0.00000000000E+00 0. -1.
         11   -1    0    0    0    0 -0.00000000000E+00 -0.00000000000E+00 -0.18250000000E+03  0.18250000000E+03  0.00000000000E+00 0.  1.
        -11    1    1    2    0    0  0.23618249470E+01 -0.21493232609E+01  0.16259735448E+03  0.16262871054E+03  0.00000000000E+00 0. -1.
         11    1    1    2    0    0 -0.20835421033E+01  0.18951155214E+01 -0.12073444344E+03  0.12076729046E+03  0.00000000000E+00 0.  1.
        -15    1    1    2    0    0 -0.25682706422E+02  0.87082128652E+01  0.49708875701E+01  0.27627917632E+02  0.17770000000E+01 0. -1.
         15    1    1    2    0    0  0.25404423578E+02 -0.84540051257E+01 -0.46833798605E+02  0.53976081377E+02  0.17770000000E+01 0.  1.
</event>
<event>
 6    1  0.1378789E-002  0.1872014E+03  0.7546771E-02  0.1064773E+00
        -11   -1    0    0    0    0  0.00000000000E+00  0.00000000000E+00  0.18250000000E+03  0.18250000000E+03  0.00000000000E+00 0.  1.
         11   -1    0    0    0    0 -0.00000000000E+00 -0.00000000000E+00 -0.18250000000E+03  0.18250000000E+03  0.00000000000E+00 0.  1.
        -11    1    1    2    0    0 -0.24624098998E+01  0.12326054852E+01  0.17400539583E+03  0.17402718338E+03  0.00000000000E+00 0.  1.
         11    1    1    2    0    0  0.32729239564E+01  0.64318284614E+00 -0.17776729798E+03  0.17779858814E+03  0.00000000000E+00 0.  1.
        -15    1    1    2    0    0  0.42211969666E+00 -0.28981749420E+01  0.77783943308E+01  0.84993382329E+01  0.17770000000E+01 0. -1.
         15    1    1    2    0    0 -0.12326337532E+01  0.10223866106E+01 -0.40164921786E+01  0.46748902417E+01  0.17770000000E+01 0.  1.
</event>
<event>
 6    1  0.1378789E-002  0.1884715E+03  0.7546771E-02  0.1063798E+00
        -11   -1    0    0    0    0  0.00000000000E+00  0.00000000000E+00  0.18250000000E+03  0.18250000000E+03  0.00000000000E+00 0. -1.
         11   -1    0    0    0    0 -0.00000000000E+00 -0.00000000000E+00 -0.18250000000E+03  0.18250000000E+03  0.00000000000E+00 0.  1.
        -11    1    1    2    0    0  0.11865413305E+01 -0.26736983765E+01  0.16713092789E+03  0.16715652425E+03  0.00000000000E+00 0. -1.
         11    1    1    2    0    0 -0.88735381350E+00  0.41000884238E+01 -0.17647862584E+03  0.17652847788E+03  0.00000000000E+00 0.  1.
        -15    1    1    2    0    0 -0.20296454867E+00 -0.47036649324E+01 -0.46362136421E+01  0.68423580979E+01  0.17770000000E+01 0. -1.
         15    1    1    2    0    0 -0.96222968297E-01  0.32772748852E+01  0.13983911594E+02  0.14472639773E+02  0.17770000000E+01 0.  1.
</event>
<event>
 6    1  0.1378789E-002  0.1889979E+03  0.7546771E-02  0.1063397E+00
        -11   -1    0    0    0    0  0.00000000000E+00  0.00000000000E+00  0.18250000000E+03  0.18250000000E+03  0.00000000000E+00 0. -1.
         11   -1    0    0    0    0 -0.00000000000E+00 -0.00000000000E+00 -0.18250000000E+03  0.18250000000E+03  0.00000000000E+00 0. -1.
        -11    1    1    2    0    0  0.14254213960E+01 -0.54239365498E+01  0.14099049735E+03  0.14110198885E+03  0.00000000000E+00 0. -1.
         11    1    1    2    0    0  0.39865479154E+01  0.42088114555E+00 -0.17595641092E+03  0.17600206888E+03  0.00000000000E+00 0. -1.
        -15    1    1    2    0    0 -0.12953203004E+01  0.49879801768E+01  0.40448018152E+02  0.40813695035E+02  0.17770000000E+01 0. -1.
         15    1    1    2    0    0 -0.41166490110E+01  0.15075227423E-01 -0.54821045815E+01  0.70822472411E+01  0.17770000000E+01 0. -1.
</event>
<event>
 6    1  0.1378789E-002  0.1835710E+03  0.7546771E-02  0.1067605E+00
        -11   -1    0    0    0    0  0.00000000000E+00  0.00000000000E+00  0.18250000000E+03  0.18250000000E+03  0.00000000000E+00 0.  1.
         11   -1    0    0    0    0 -0.00000000000E+00 -0.00000000000E+00 -0.18250000000E+03  0.18250000000E+03  0.00000000000E+00 0.  1.
        -11    1    1    2    0    0 -0.61567477566E+01 -0.64703322094E+01  0.18120902991E+03  0.18142900337E+03  0.00000000000E+00 0.  1.
         11    1    1    2    0    0  0.95558277944E+00  0.70755366911E+01 -0.14673582915E+03  0.14690942758E+03  0.00000000000E+00 0.  1.
        -15    1    1    2    0    0  0.57965460031E+01  0.17002317802E+01 -0.88206781850E+01  0.10837565516E+02  0.17770000000E+01 0.  1.
         15    1    1    2    0    0 -0.59538102589E+00 -0.23054362618E+01 -0.25652522577E+02  0.25824003533E+02  0.17770000000E+01 0. -1.
</event>
<event>
 6    1  0.1378789E-002  0.1831313E+03  0.7546771E-02  0.1067953E+00
        -11   -1    0    0    0    0  0.00000000000E+00  0.00000000000E+00  0.18250000000E+03  0.18250000000E+03  0.00000000000E+00 0. -1.
         11   -1    0    0    0    0 -0.00000000000E+00 -0.00000000000E+00 -0.18250000000E+03  0.18250000000E+03  0.00000000000E+00 0.  1.
        -11    1    1    2    0    0  0.44418420752E+00 -0.45658974877E+01  0.16504563339E+03  0.16510937533E+03  0.00000000000E+00 0. -1.
         11    1    1    2    0    0 -0.24856730648E+01  0.18707919473E+01 -0.18184206508E+03  0.18186867533E+03  0.00000000000E+00 0.  1.
        -15    1    1    2    0    0  0.20387410071E+01  0.22819794838E-01  0.39949814382E+01  0.48243747086E+01  0.17770000000E+01 0. -1.
         15    1    1    2    0    0  0.27478501406E-02  0.26722857456E+01  0.12801450252E+02  0.13197574633E+02  0.17770000000E+01 0.  1.
</event>
<event>
 6    1  0.1378789E-002  0.1840376E+03  0.7546771E-02  0.1067237E+00
        -11   -1    0    0    0    0  0.00000000000E+00  0.00000000000E+00  0.18250000000E+03  0.18250000000E+03  0.00000000000E+00 0.  1.
         11   -1    0    0    0    0 -0.00000000000E+00 -0.00000000000E+00 -0.18250000000E+03  0.18250000000E+03  0.00000000000E+00 0. -1.
        -11    1    1    2    0    0 -0.85556181262E+00 -0.19398201253E+01  0.12076266142E+03  0.12078127041E+03  0.00000000000E+00 0.  1.
         11    1    1    2    0    0 -0.42415764442E+01  0.34502520823E+01 -0.18087975199E+03  0.18096237148E+03  0.00000000000E+00 0. -1.
        -15    1    1    2    0    0 -0.55682588289E+01  0.23353774983E+01  0.36023990953E+02  0.36569729936E+02  0.17770000000E+01 0.  1.
         15    1    1    2    0    0  0.10665397086E+02 -0.38458094552E+01  0.24093099614E+02  0.26686628175E+02  0.17770000000E+01 0.  1.
</event>
<event>
 6    1  0.1378789E-002  0.1830575E+03  0.7546771E-02  0.1068012E+00
        -11   -1    0    0    0    0  0.00000000000E+00  0.00000000000E+00  0.18250000000E+03  0.18250000000E+03  0.00000000000E+00 0. -1.
         11   -1    0    0    0    0 -0.00000000000E+00 -0.00000000000E+00 -0.18250000000E+03  0.18250000000E+03  0.00000000000E+00 0.  1.
        -11    1    1    2    0    0  0.93130879991E+01 -0.53294877859E+01  0.18162582909E+03  0.18194251521E+03  0.00000000000E+00 0. -1.
         11    1    1    2    0    0 -0.11859234115E+01 -0.20198244990E+01 -0.12621874439E+03  0.12624047505E+03  0.00000000000E+00 0.  1.
        -15    1    1    2    0    0 -0.12784779920E+01  0.98641952677E+00 -0.20359481372E+02  0.20500579021E+02  0.17770000000E+01 0. -1.
         15    1    1    2    0    0 -0.68486865956E+01  0.63628927581E+01 -0.35047603328E+02  0.36316430722E+02  0.17770000000E+01 0. -1.
</event>
<event>
 6    1  0.1378789E-002  0.1841059E+03  0.7546771E-02  0.1067184E+00
        -11   -1    0    0    0    0  0.00000000000E+00  0.00000000000E+00  0.18250000000E+03  0.18250000000E+03  0.00000000000E+00 0.  1.
         11   -1    0    0    0    0 -0.00000000000E+00 -0.00000000000E+00 -0.18250000000E+03  0.18250000000E+03  0.00000000000E+00 0.  1.
        -11    1    1    2    0    0 -0.44442159440E+01 -0.33244687090E+01  0.16100862703E+03  0.16110425546E+03  0.00000000000E+00 0.  1.
         11    1    1    2    0    0  0.11710638487E+01  0.35931672292E+01 -0.18085463546E+03  0.18089411656E+03  0.00000000000E+00 0.  1.
        -15    1    1    2    0    0  0.47215159643E+01 -0.17569574710E+01  0.34048939470E+01  0.63348752432E+01  0.17770000000E+01 0. -1.
         15    1    1    2    0    0 -0.14483638690E+01  0.14882589508E+01  0.16441114474E+02  0.16666752735E+02  0.17770000000E+01 0.  1.
</event>
<event>
 6    1  0.1378789E-002  0.1831779E+03  0.7546771E-02  0.1067916E+00
        -11   -1    0    0    0    0  0.00000000000E+00  0.00000000000E+00  0.18250000000E+03  0.18250000000E+03  0.00000000000E+00 0. -1.
         11   -1    0    0    0    0 -0.00000000000E+00 -0.00000000000E+00 -0.18250000000E+03  0.18250000000E+03  0.00000000000E+00 0.  1.
        -11    1    1    2    0    0 -0.15380504135E+00  0.23652024668E+01  0.16096190528E+03  0.16097935517E+03  0.00000000000E+00 0. -1.
         11    1    1    2    0    0 -0.37675905264E+01 -0.12937428060E+01 -0.18177846418E+03  0.18182210687E+03  0.00000000000E+00 0.  1.
        -15    1    1    2    0    0  0.20114636595E+01  0.21292219100E+00  0.17823010165E+02  0.18025225165E+02  0.17770000000E+01 0. -1.
         15    1    1    2    0    0  0.19099319082E+01 -0.12843818518E+01  0.29935487303E+01  0.41733127891E+01  0.17770000000E+01 0.  1.
</event>
<event>
 6    1  0.1378789E-002  0.1853842E+03  0.7546771E-02  0.1066182E+00
        -11   -1    0    0    0    0  0.00000000000E+00  0.00000000000E+00  0.18250000000E+03  0.18250000000E+03  0.00000000000E+00 0.  1.
         11   -1    0    0    0    0 -0.00000000000E+00 -0.00000000000E+00 -0.18250000000E+03  0.18250000000E+03  0.00000000000E+00 0.  1.
        -11    1    1    2    0    0 -0.27936905623E+01 -0.78334023431E+01  0.15770906731E+03  0.15792820144E+03  0.00000000000E+00 0.  1.
         11    1    1    2    0    0 -0.56480516332E+01 -0.34076871092E+01 -0.17949462398E+03  0.17961579234E+03  0.00000000000E+00 0.  1.
        -15    1    1    2    0    0 -0.69042006768E+00  0.53343689261E+01  0.66959642206E+01  0.87707375718E+01  0.17770000000E+01 0.  1.
         15    1    1    2    0    0  0.91321622632E+01  0.59067205261E+01  0.15089592455E+02  0.18685268647E+02  0.17770000000E+01 0. -1.
</event>
<event>
 6    1  0.1378789E-002  0.1841257E+03  0.7546771E-02  0.1067168E+00
        -11   -1    0    0    0    0  0.00000000000E+00  0.00000000000E+00  0.18250000000E+03  0.18250000000E+03  0.00000000000E+00 0.  1.
         11   -1    0    0    0    0 -0.00000000000E+00 -0.00000000000E+00 -0.18250000000E+03  0.18250000000E+03  0.00000000000E+00 0.  1.
        -11    1    1    2    0    0  0.16518042838E+01  0.46048963091E+01  0.18080812957E+03  0.18087430234E+03  0.00000000000E+00 0.  1.
         11    1    1    2    0    0  0.10012708274E+01  0.39240054889E+01 -0.13256411516E+03  0.13262595896E+03  0.00000000000E+00 0.  1.
        -15    1    1    2    0    0 -0.25652019467E+01  0.60641013256E+00 -0.97777943276E+00  0.33259248181E+01  0.17770000000E+01 0. -1.
         15    1    1    2    0    0 -0.87873164475E-01 -0.91353119305E+01 -0.47266234977E+02  0.48173813879E+02  0.17770000000E+01 0. -1.
</event>
<event>
 6    1  0.1378789E-002  0.1709273E+03  0.7546771E-02  0.1078059E+00
        -11   -1    0    0    0    0  0.00000000000E+00  0.00000000000E+00  0.18250000000E+03  0.18250000000E+03  0.00000000000E+00 0.  1.
         11   -1    0    0    0    0 -0.00000000000E+00 -0.00000000000E+00 -0.18250000000E+03  0.18250000000E+03  0.00000000000E+00 0.  1.
        -11    1    1    2    0    0 -0.78318329944E+01  0.77759107490E+00  0.17436644383E+03  0.17454397437E+03  0.00000000000E+00 0.  1.
         11    1    1    2    0    0 -0.27302041171E+01 -0.54650631765E+01 -0.16746418280E+03  0.16757557534E+03  0.00000000000E+00 0.  1.
        -15    1    1    2    0    0  0.50502372250E+00 -0.35746736214E+01  0.41004607332E+01  0.57449845678E+01  0.17770000000E+01 0.  1.
         15    1    1    2    0    0  0.10057013389E+02  0.82621457230E+01 -0.11002721760E+02  0.17135465719E+02  0.17770000000E+01 0. -1.
</event>
<event>
 6    1  0.1378789E-002  0.2003336E+03  0.7546771E-02  0.1055084E+00
        -11   -1    0    0    0    0  0.00000000000E+00  0.00000000000E+00  0.18250000000E+03  0.18250000000E+03  0.00000000000E+00 0. -1.
         11   -1    0    0    0    0 -0.00000000000E+00 -0.00000000000E+00 -0.18250000000E+03  0.18250000000E+03  0.00000000000E+00 0. -1.
        -11    1    1    2    0    0 -0.46701398703E+01  0.85350073272E+00  0.16459790779E+03  0.16466635941E+03  0.00000000000E+00 0. -1.
         11    1    1    2    0    0 -0.90520075968E+00 -0.79125120054E+01 -0.15381129205E+03  0.15401733927E+03  0.00000000000E+00 0. -1.
        -15    1    1    2    0    0  0.12235131342E+02  0.23346123855E+02 -0.11032729929E+02  0.28628985254E+02  0.17770000000E+01 0. -1.
         15    1    1    2    0    0 -0.66597907118E+01 -0.16287112582E+02  0.24611418284E+00  0.17687316071E+02  0.17770000000E+01 0.  1.
</event>
<event>
 6    1  0.1378789E-002  0.1829838E+03  0.7546771E-02  0.1068070E+00
        -11   -1    0    0    0    0  0.00000000000E+00  0.00000000000E+00  0.18250000000E+03  0.18250000000E+03  0.00000000000E+00 0.  1.
         11   -1    0    0    0    0 -0.00000000000E+00 -0.00000000000E+00 -0.18250000000E+03  0.18250000000E+03  0.00000000000E+00 0.  1.
        -11    1    1    2    0    0  0.10450962981E+00  0.28522561896E+01  0.15198933443E+03  0.15201613095E+03  0.00000000000E+00 0.  1.
         11    1    1    2    0    0 -0.16376330537E+01 -0.22403648120E+01 -0.18199505263E+03  0.18201620878E+03  0.00000000000E+00 0.  1.
        -15    1    1    2    0    0  0.14380937122E+01  0.24564366002E+01  0.21370320614E+02  0.21632164165E+02  0.17770000000E+01 0.  1.
         15    1    1    2    0    0  0.95029711691E-01 -0.30683279779E+01  0.86353975789E+01  0.93354961074E+01  0.17770000000E+01 0.  1.
</event>
<event>
 6    1  0.1378789E-002  0.1848696E+03  0.7546771E-02  0.1066584E+00
        -11   -1    0    0    0    0  0.00000000000E+00  0.00000000000E+00  0.18250000000E+03  0.18250000000E+03  0.00000000000E+00 0.  1.
         11   -1    0    0    0    0 -0.00000000000E+00 -0.00000000000E+00 -0.18250000000E+03  0.18250000000E+03  0.00000000000E+00 0. -1.
        -11    1    1    2    0    0  0.60997059359E+01  0.85839893499E+01  0.90756375061E+02  0.91365260903E+02  0.00000000000E+00 0.  1.
         11    1    1    2    0    0 -0.35674740214E+01  0.57948664334E+01 -0.18000177184E+03  0.18013035617E+03  0.00000000000E+00 0. -1.
        -15    1    1    2    0    0  0.12000848304E+01 -0.12297928135E+02  0.87760669245E+02  0.88644075016E+02  0.17770000000E+01 0.  1.
         15    1    1    2    0    0 -0.37323167449E+01 -0.20809276478E+01  0.14847275338E+01  0.48603079130E+01  0.17770000000E+01 0. -1.
</event>
<event>
 6    1  0.1378789E-002  0.1831090E+03  0.7546771E-02  0.1067971E+00
        -11   -1    0    0    0    0  0.00000000000E+00  0.00000000000E+00  0.18250000000E+03  0.18250000000E+03  0.00000000000E+00 0. -1.
         11   -1    0    0    0    0 -0.00000000000E+00 -0.00000000000E+00 -0.18250000000E+03  0.18250000000E+03  0.00000000000E+00 0. -1.
        -11    1    1    2    0    0 -0.15253646755E+01  0.28614181465E+01  0.14771059870E+03  0.14774618580E+03  0.00000000000E+00 0. -1.
         11    1    1    2    0    0 -0.58054382466E+00  0.30121733481E+01 -0.18186510184E+03  0.18189097142E+03  0.00000000000E+00 0. -1.
        -15    1    1    2    0    0 -0.17604380676E+01 -0.11042147481E+01  0.87925888118E+01  0.92079193857E+01  0.17770000000E+01 0. -1.
         15    1    1    2    0    0  0.38663465677E+01 -0.47693767465E+01  0.25361914325E+02  0.26154923391E+02  0.17770000000E+01 0. -1.
</event>
<event>
 6    1  0.1378789E-002  0.1854974E+03  0.7546771E-02  0.1066094E+00
        -11   -1    0    0    0    0  0.00000000000E+00  0.00000000000E+00  0.18250000000E+03  0.18250000000E+03  0.00000000000E+00 0.  1.
         11   -1    0    0    0    0 -0.00000000000E+00 -0.00000000000E+00 -0.18250000000E+03  0.18250000000E+03  0.00000000000E+00 0.  1.
        -11    1    1    2    0    0  0.12363238051E+01 -0.65994726037E+01  0.17937700359E+03  0.17950262102E+03  0.00000000000E+00 0.  1.
         11    1    1    2    0    0  0.27799622653E+01 -0.16209225059E+01 -0.15328861543E+03  0.15332238976E+03  0.00000000000E+00 0.  1.
        -15    1    1    2    0    0  0.23995262982E+01  0.22485196733E+01  0.81362822662E+00  0.38253479669E+01  0.17770000000E+01 0.  1.
         15    1    1    2    0    0 -0.64158123686E+01  0.59718754364E+01 -0.26902016385E+02  0.28349641253E+02  0.17770000000E+01 0. -1.
</event>
<event>
 6    1  0.1378789E-002  0.1887041E+03  0.7546771E-02  0.1063621E+00
        -11   -1    0    0    0    0  0.00000000000E+00  0.00000000000E+00  0.18250000000E+03  0.18250000000E+03  0.00000000000E+00 0.  1.
         11   -1    0    0    0    0 -0.00000000000E+00 -0.00000000000E+00 -0.18250000000E+03  0.18250000000E+03  0.00000000000E+00 0. -1.
        -11    1    1    2    0    0 -0.14662846796E+02  0.76699205075E+01  0.16096838208E+03  0.16181670738E+03  0.00000000000E+00 0.  1.
         11    1    1    2    0    0  0.40649647390E+01 -0.81333245926E+00 -0.17624712865E+03  0.17629587575E+03  0.00000000000E+00 0. -1.
        -15    1    1    2    0    0  0.43902576350E+01 -0.12186742777E+02  0.59883960689E+01  0.14380878906E+02  0.17770000000E+01 0. -1.
         15    1    1    2    0    0  0.62076244223E+01  0.53301547290E+01  0.92903505007E+01  0.12506537963E+02  0.17770000000E+01 0.  1.
</event>
<event>
 6    1  0.1378789E-002  0.1854254E+03  0.7546771E-02  0.1066150E+00
        -11   -1    0    0    0    0  0.00000000000E+00  0.00000000000E+00  0.18250000000E+03  0.18250000000E+03  0.00000000000E+00 0.  1.
         11   -1    0    0    0    0 -0.00000000000E+00 -0.00000000000E+00 -0.18250000000E+03  0.18250000000E+03  0.00000000000E+00 0. -1.
        -11    1    1    2    0    0  0.13683976426E+01 -0.61133579656E+01  0.16041408396E+03  0.16053636345E+03  0.00000000000E+00 0.  1.
         11    1    1    2    0    0  0.15309926905E+01 -0.22096706676E+01 -0.17955450049E+03  0.17957462301E+03  0.00000000000E+00 0. -1.
        -15    1    1    2    0    0  0.10951902613E+01  0.38630757881E+01 -0.36695063627E+00  0.44062657685E+01  0.17770000000E+01 0. -1.
         15    1    1    2    0    0 -0.39945805944E+01  0.44599528451E+01  0.19507367169E+02  0.20482747774E+02  0.17770000000E+01 0.  1.
</event>
<event>
 6    1  0.1378789E-002  0.1893099E+03  0.7546771E-02  0.1063160E+00
        -11   -1    0    0    0    0  0.00000000000E+00  0.00000000000E+00  0.18250000000E+03  0.18250000000E+03  0.00000000000E+00 0. -1.
         11   -1    0    0    0    0 -0.00000000000E+00 -0.00000000000E+00 -0.18250000000E+03  0.18250000000E+03  0.00000000000E+00 0.  1.
        -11    1    1    2    0    0 -0.95742877636E+01 -0.36759302908E+01  0.17539053757E+03  0.17569012528E+03  0.00000000000E+00 0. -1.
         11    1    1    2    0    0 -0.37066369239E+01  0.66572280612E+01 -0.15092370545E+03  0.15111592474E+03  0.00000000000E+00 0.  1.
        -15    1    1    2    0    0  0.10263567409E+02 -0.43414479397E+01  0.20010187893E+01  0.11460837289E+02  0.17770000000E+01 0. -1.
         15    1    1    2    0    0  0.30173572788E+01  0.13601501693E+01 -0.26467850909E+02  0.26733112691E+02  0.17770000000E+01 0.  1.
</event>
<event>
 6    1  0.1378789E-002  0.1848426E+03  0.7546771E-02  0.1066605E+00
        -11   -1    0    0    0    0  0.00000000000E+00  0.00000000000E+00  0.18250000000E+03  0.18250000000E+03  0.00000000000E+00 0.  1.
         11   -1    0    0    0    0 -0.00000000000E+00 -0.00000000000E+00 -0.18250000000E+03  0.18250000000E+03  0.00000000000E+00 0.  1.
        -11    1    1    2    0    0 -0.20095159969E+01  0.13243813754E+01  0.11279854188E+03  0.11282421367E+03  0.00000000000E+00 0.  1.
         11    1    1    2    0    0  0.26818734143E+01  0.33112909535E+01 -0.18010695139E+03  0.18015735076E+03  0.00000000000E+00 0.  1.
        -15    1    1    2    0    0  0.24674870518E+01 -0.48801790676E+01  0.12795579931E+01  0.58906398414E+01  0.17770000000E+01 0. -1.
         15    1    1    2    0    0 -0.31398444692E+01  0.24450673872E+00  0.66028851514E+02  0.66127795730E+02  0.17770000000E+01 0.  1.
</event>
<event>
 6    1  0.1378789E-002  0.1828467E+03  0.7546771E-02  0.1068179E+00
        -11   -1    0    0    0    0  0.00000000000E+00  0.00000000000E+00  0.18250000000E+03  0.18250000000E+03  0.00000000000E+00 0. -1.
         11   -1    0    0    0    0 -0.00000000000E+00 -0.00000000000E+00 -0.18250000000E+03  0.18250000000E+03  0.00000000000E+00 0. -1.
        -11    1    1    2    0    0 -0.39830857893E+01  0.10657532211E+02  0.18179760835E+03  0.18215328261E+03  0.00000000000E+00 0. -1.
         11    1    1    2    0    0  0.71202553628E+00  0.14547442216E+01 -0.67760612806E+02  0.67779966870E+02  0.00000000000E+00 0. -1.
        -15    1    1    2    0    0  0.21009247940E+01 -0.60085373594E+00 -0.10540408809E+02  0.10910218012E+02  0.17770000000E+01 0. -1.
         15    1    1    2    0    0  0.11701354590E+01 -0.11511422696E+02 -0.10349658673E+03  0.10415653251E+03  0.17770000000E+01 0. -1.
</event>
<event>
 6    1  0.1378789E-002  0.1950992E+03  0.7546771E-02  0.1058846E+00
        -11   -1    0    0    0    0  0.00000000000E+00  0.00000000000E+00  0.18250000000E+03  0.18250000000E+03  0.00000000000E+00 0.  1.
         11   -1    0    0    0    0 -0.00000000000E+00 -0.00000000000E+00 -0.18250000000E+03  0.18250000000E+03  0.00000000000E+00 0.  1.
        -11    1    1    2    0    0  0.52945163999E+01 -0.37736294340E+01  0.11427812928E+03  0.11446293293E+03  0.00000000000E+00 0.  1.
         11    1    1    2    0    0 -0.44072522832E+01 -0.23713877776E+01 -0.16982708449E+03  0.16990081218E+03  0.00000000000E+00 0.  1.
        -15    1    1    2    0    0  0.80456907228E+01 -0.50998275524E+01  0.63425022185E+02  0.64160989304E+02  0.17770000000E+01 0. -1.
         15    1    1    2    0    0 -0.89329548395E+01  0.11244844764E+02 -0.78760669786E+01  0.16475265582E+02  0.17770000000E+01 0.  1.
</event>
<event>
 6    1  0.1378789E-002  0.1901693E+03  0.7546771E-02  0.1062509E+00
        -11   -1    0    0    0    0  0.00000000000E+00  0.00000000000E+00  0.18250000000E+03  0.18250000000E+03  0.00000000000E+00 0. -1.
         11   -1    0    0    0    0 -0.00000000000E+00 -0.00000000000E+00 -0.18250000000E+03  0.18250000000E+03  0.00000000000E+00 0. -1.
        -11    1    1    2    0    0 -0.50505362601E+01  0.48350283481E+01  0.17469082055E+03  0.17483068437E+03  0.00000000000E+00 0. -1.
         11    1    1    2    0    0  0.15257276574E+01  0.36195918467E+01 -0.16718449445E+03  0.16723063258E+03  0.00000000000E+00 0. -1.
        -15    1    1    2    0    0  0.10767746971E+01 -0.14630145043E+02 -0.46365090856E+01  0.15487270038E+02  0.17770000000E+01 0.  1.
         15    1    1    2    0    0  0.24480339056E+01  0.61755248478E+01 -0.28698170144E+01  0.74514130100E+01  0.17770000000E+01 0. -1.
</event>
<event>
 6    1  0.1378789E-002  0.1292423E+03  0.7546771E-02  0.1121104E+00
        -11   -1    0    0    0    0  0.00000000000E+00  0.00000000000E+00  0.18250000000E+03  0.18250000000E+03  0.00000000000E+00 0.  1.
         11   -1    0    0    0    0 -0.00000000000E+00 -0.00000000000E+00 -0.18250000000E+03  0.18250000000E+03  0.00000000000E+00 0. -1.
        -11    1    1    2    0    0  0.11604410908E+02 -0.17559272196E+01  0.12125208447E+03  0.12181877368E+03  0.00000000000E+00 0.  1.
         11    1    1    2    0    0  0.16839517985E+02  0.18877544176E+02 -0.13694437900E+03  0.13926124364E+03  0.00000000000E+00 0. -1.
        -15    1    1    2    0    0  0.14936503340E+01  0.38647458481E+02  0.11815866980E+02  0.40479988635E+02  0.17770000000E+01 0. -1.
         15    1    1    2    0    0 -0.29937579227E+02 -0.55769075437E+02  0.38764275563E+01  0.63439994047E+02  0.17770000000E+01 0.  1.
</event>
<event>
 6    1  0.1378789E-002  0.1834838E+03  0.7546771E-02  0.1067674E+00
        -11   -1    0    0    0    0  0.00000000000E+00  0.00000000000E+00  0.18250000000E+03  0.18250000000E+03  0.00000000000E+00 0. -1.
         11   -1    0    0    0    0 -0.00000000000E+00 -0.00000000000E+00 -0.18250000000E+03  0.18250000000E+03  0.00000000000E+00 0. -1.
        -11    1    1    2    0    0  0.11152899531E+01  0.41844647197E+01  0.18146453875E+03  0.18151620435E+03  0.00000000000E+00 0. -1.
         11    1    1    2    0    0 -0.10340940833E+02  0.30785786801E+01 -0.64077943183E+02  0.64979962347E+02  0.00000000000E+00 0. -1.
        -15    1    1    2    0    0 -0.10234567349E+01 -0.51285478520E+01 -0.46356366501E+02  0.46684257635E+02  0.17770000000E+01 0. -1.
         15    1    1    2    0    0  0.10249107615E+02 -0.21344955478E+01 -0.71030229070E+02  0.71819575666E+02  0.17770000000E+01 0.  1.
</event>
<event>
 6    1  0.1378789E-002  0.1915291E+03  0.7546771E-02  0.1061486E+00
        -11   -1    0    0    0    0  0.00000000000E+00  0.00000000000E+00  0.18250000000E+03  0.18250000000E+03  0.00000000000E+00 0.  1.
         11   -1    0    0    0    0 -0.00000000000E+00 -0.00000000000E+00 -0.18250000000E+03  0.18250000000E+03  0.00000000000E+00 0. -1.
        -11    1    1    2    0    0 -0.46252891947E+01 -0.85517177918E+01  0.16119035909E+03  0.16148330266E+03  0.00000000000E+00 0.  1.
         11    1    1    2    0    0 -0.83393182063E+01 -0.26957169361E+01 -0.17324934719E+03  0.17347088349E+03  0.00000000000E+00 0. -1.
        -15    1    1    2    0    0  0.14742414915E+02  0.27246788762E+01  0.14393151208E+02  0.20858648164E+02  0.17770000000E+01 0.  1.
         15    1    1    2    0    0 -0.17778075143E+01  0.85227558517E+01 -0.23341631067E+01  0.91871656823E+01  0.17770000000E+01 0. -1.
</event>
<event>
 6    1  0.1378789E-002  0.1361882E+03  0.7546771E-02  0.1112778E+00
        -11   -1    0    0    0    0  0.00000000000E+00  0.00000000000E+00  0.18250000000E+03  0.18250000000E+03  0.00000000000E+00 0. -1.
         11   -1    0    0    0    0 -0.00000000000E+00 -0.00000000000E+00 -0.18250000000E+03  0.18250000000E+03  0.00000000000E+00 0.  1.
        -11    1    1    2    0    0 -0.49347030549E+01  0.37040473149E+00  0.14992121925E+03  0.15000286823E+03  0.00000000000E+00 0. -1.
         11    1    1    2    0    0 -0.44515714506E+01  0.16856540515E+01 -0.58692218078E+02  0.58884924903E+02  0.00000000000E+00 0.  1.
        -15    1    1    2    0    0  0.31566925261E+01 -0.10923344130E+01  0.32244200290E+02  0.32465429051E+02  0.17770000000E+01 0. -1.
         15    1    1    2    0    0  0.62295819794E+01 -0.96372437007E+00 -0.12347320146E+03  0.12364677782E+03  0.17770000000E+01 0. -1.
</event>
<event>
 6    1  0.1378789E-002  0.2021835E+03  0.7546771E-02  0.1053784E+00
        -11   -1    0    0    0    0  0.00000000000E+00  0.00000000000E+00  0.18250000000E+03  0.18250000000E+03  0.00000000000E+00 0. -1.
         11   -1    0    0    0    0 -0.00000000000E+00 -0.00000000000E+00 -0.18250000000E+03  0.18250000000E+03  0.00000000000E+00 0. -1.
        -11    1    1    2    0    0  0.16400853270E+02  0.93844052316E+01  0.16171629461E+03  0.16281650713E+03  0.00000000000E+00 0. -1.
         11    1    1    2    0    0  0.32502687674E+02 -0.75856315786E+01 -0.82711530328E+02  0.89191724738E+02  0.00000000000E+00 0. -1.
        -15    1    1    2    0    0 -0.17892031405E+01 -0.98666717133E+01  0.85011071084E+01  0.13265708034E+02  0.17770000000E+01 0.  1.
         15    1    1    2    0    0 -0.47114337804E+02  0.80678980604E+01 -0.87505871394E+02  0.99726060101E+02  0.17770000000E+01 0. -1.
</event>
<event>
 6    1  0.1378789E-002  0.1884242E+03  0.7546771E-02  0.1063835E+00
        -11   -1    0    0    0    0  0.00000000000E+00  0.00000000000E+00  0.18250000000E+03  0.18250000000E+03  0.00000000000E+00 0. -1.
         11   -1    0    0    0    0 -0.00000000000E+00 -0.00000000000E+00 -0.18250000000E+03  0.18250000000E+03  0.00000000000E+00 0.  1.
        -11    1    1    2    0    0 -0.55650002586E+00 -0.21956114244E+01  0.16727210594E+03  0.16728744074E+03  0.00000000000E+00 0. -1.
         11    1    1    2    0    0 -0.12981059796E+01 -0.32403203776E+01 -0.17654134191E+03  0.17657584818E+03  0.00000000000E+00 0.  1.
        -15    1    1    2    0    0  0.13244844804E+01  0.60548216769E+01 -0.40897952364E+01  0.76353964372E+01  0.17770000000E+01 0. -1.
         15    1    1    2    0    0  0.53012152509E+00 -0.61888987494E+00  0.13359031204E+02  0.13501314648E+02  0.17770000000E+01 0.  1.
</event>
<event>
 6    1  0.1378789E-002  0.1833512E+03  0.7546771E-02  0.1067779E+00
        -11   -1    0    0    0    0  0.00000000000E+00  0.00000000000E+00  0.18250000000E+03  0.18250000000E+03  0.00000000000E+00 0.  1.
         11   -1    0    0    0    0 -0.00000000000E+00 -0.00000000000E+00 -0.18250000000E+03  0.18250000000E+03  0.00000000000E+00 0.  1.
        -11    1    1    2    0    0  0.21048098378E+00 -0.48382522105E+01  0.18158421595E+03  0.18164878328E+03  0.00000000000E+00 0.  1.
         11    1    1    2    0    0 -0.44180415389E+00 -0.28543003543E+01 -0.15372027113E+03  0.15374740316E+03  0.00000000000E+00 0.  1.
        -15    1    1    2    0    0 -0.16311117495E+01  0.59685719811E+01 -0.14169926446E+02  0.15563705263E+02  0.17770000000E+01 0.  1.
         15    1    1    2    0    0  0.18624349196E+01  0.17239805837E+01 -0.13694018369E+02  0.14040108297E+02  0.17770000000E+01 0. -1.
</event>
<event>
 6    1  0.1378789E-002  0.1863672E+03  0.7546771E-02  0.1065418E+00
        -11   -1    0    0    0    0  0.00000000000E+00  0.00000000000E+00  0.18250000000E+03  0.18250000000E+03  0.00000000000E+00 0.  1.
         11   -1    0    0    0    0 -0.00000000000E+00 -0.00000000000E+00 -0.18250000000E+03  0.18250000000E+03  0.00000000000E+00 0. -1.
        -11    1    1    2    0    0 -0.12093795498E+01  0.25598531128E+01  0.17861041281E+03  0.17863284975E+03  0.00000000000E+00 0.  1.
         11    1    1    2    0    0  0.18186274499E+00 -0.26567319914E+01 -0.17418831084E+03  0.17420866491E+03  0.00000000000E+00 0. -1.
        -15    1    1    2    0    0  0.65596461176E+00  0.12490718320E+01 -0.78171710617E+01  0.81398011290E+01  0.17770000000E+01 0.  1.
         15    1    1    2    0    0  0.37155219302E+00 -0.11521929533E+01  0.33950690914E+01  0.40186842087E+01  0.17770000000E+01 0. -1.
</event>
<event>
 6    1  0.1378789E-002  0.1826114E+03  0.7546771E-02  0.1068366E+00
        -11   -1    0    0    0    0  0.00000000000E+00  0.00000000000E+00  0.18250000000E+03  0.18250000000E+03  0.00000000000E+00 0.  1.
         11   -1    0    0    0    0 -0.00000000000E+00 -0.00000000000E+00 -0.18250000000E+03  0.18250000000E+03  0.00000000000E+00 0. -1.
        -11    1    1    2    0    0  0.34232146135E+00 -0.14493682999E+01  0.59688779856E+02  0.59707355436E+02  0.00000000000E+00 0.  1.
         11    1    1    2    0    0  0.23889997069E+01  0.83552251742E+00 -0.18237108744E+03  0.18238864809E+03  0.00000000000E+00 0. -1.
        -15    1    1    2    0    0  0.68233353995E+00  0.22022853191E+01  0.68570362153E+02  0.68632120283E+02  0.17770000000E+01 0. -1.
         15    1    1    2    0    0 -0.34136547082E+01 -0.15884395367E+01  0.54111945429E+02  0.54271876195E+02  0.17770000000E+01 0.  1.
</event>
<event>
 6    1  0.1378789E-002  0.1834131E+03  0.7546771E-02  0.1067730E+00
        -11   -1    0    0    0    0  0.00000000000E+00  0.00000000000E+00  0.18250000000E+03  0.18250000000E+03  0.00000000000E+00 0. -1.
         11   -1    0    0    0    0 -0.00000000000E+00 -0.00000000000E+00 -0.18250000000E+03  0.18250000000E+03  0.00000000000E+00 0.  1.
        -11    1    1    2    0    0 -0.75396752046E+00 -0.10387457207E+01  0.50258423701E+02  0.50274810916E+02  0.00000000000E+00 0. -1.
         11    1    1    2    0    0  0.24088717962E+01 -0.63407363380E+01 -0.18146021843E+03  0.18158694466E+03  0.00000000000E+00 0.  1.
        -15    1    1    2    0    0 -0.33484523899E+01  0.13859235290E+01  0.37105592511E+01  0.54825994192E+01  0.17770000000E+01 0.  1.
         15    1    1    2    0    0  0.16935481141E+01  0.59935585298E+01  0.12749123547E+03  0.12765564500E+03  0.17770000000E+01 0. -1.
</event>
<event>
 6    1  0.1378789E-002  0.1847409E+03  0.7546771E-02  0.1066685E+00
        -11   -1    0    0    0    0  0.00000000000E+00  0.00000000000E+00  0.18250000000E+03  0.18250000000E+03  0.00000000000E+00 0.  1.
         11   -1    0    0    0    0 -0.00000000000E+00 -0.00000000000E+00 -0.18250000000E+03  0.18250000000E+03  0.00000000000E+00 0.  1.
        -11    1    1    2    0    0 -0.10214864099E+01  0.28103580009E+01  0.18023433026E+03  0.18025913390E+03  0.00000000000E+00 0.  1.
         11    1    1    2    0    0  0.46285247668E+00 -0.33110635150E+01 -0.17225728724E+03  0.17228972802E+03  0.00000000000E+00 0.  1.
        -15    1    1    2    0    0 -0.79745673137E+00 -0.26207318524E+01  0.34770977940E+00  0.32837179799E+01  0.17770000000E+01 0. -1.
         15    1    1    2    0    0  0.13560906645E+01  0.31214373666E+01 -0.83247528040E+01  0.91674201044E+01  0.17770000000E+01 0. -1.
</event>
<event>
 6    1  0.1378789E-002  0.1832395E+03  0.7546771E-02  0.1067868E+00
        -11   -1    0    0    0    0  0.00000000000E+00  0.00000000000E+00  0.18250000000E+03  0.18250000000E+03  0.00000000000E+00 0. -1.
         11   -1    0    0    0    0 -0.00000000000E+00 -0.00000000000E+00 -0.18250000000E+03  0.18250000000E+03  0.00000000000E+00 0. -1.
        -11    1    1    2    0    0 -0.78816771016E+01 -0.49919002588E+00  0.18158884886E+03  0.18176050191E+03  0.00000000000E+00 0. -1.
         11    1    1    2    0    0 -0.14500556525E+01  0.58324858235E+01 -0.85928994162E+02  0.86138914492E+02  0.00000000000E+00 0. -1.
        -15    1    1    2    0    0  0.66219304163E+01 -0.68089126133E+01 -0.34232379694E+02  0.35569998622E+02  0.17770000000E+01 0.  1.
         15    1    1    2    0    0  0.27098023377E+01  0.14756168156E+01 -0.61427475001E+02  0.61530584978E+02  0.17770000000E+01 0. -1.
</event>
<event>
 6    1  0.1378789E-002  0.1597319E+03  0.7546771E-02  0.1088177E+00
        -11   -1    0    0    0    0  0.00000000000E+00  0.00000000000E+00  0.18250000000E+03  0.18250000000E+03  0.00000000000E+00 0. -1.
         11   -1    0    0    0    0 -0.00000000000E+00 -0.00000000000E+00 -0.18250000000E+03  0.18250000000E+03  0.00000000000E+00 0. -1.
        -11    1    1    2    0    0 -0.16896134051E+01 -0.23977945699E+01  0.16041146506E+03  0.16043828202E+03  0.00000000000E+00 0. -1.
         11    1    1    2    0    0  0.31456584664E+01 -0.55500747587E+00 -0.15901355554E+03  0.15904563510E+03  0.00000000000E+00 0. -1.
        -15    1    1    2    0    0  0.57883599126E+01  0.39263697196E+01  0.20832697921E+02  0.22047233870E+02  0.17770000000E+01 0.  1.
         15    1    1    2    0    0 -0.72444049739E+01 -0.97356767379E+00 -0.22230607448E+02  0.23468849012E+02  0.17770000000E+01 0. -1.
</event>
<event>
 6    1  0.1378789E-002  0.1861176E+03  0.7546771E-02  0.1065611E+00
        -11   -1    0    0    0    0  0.00000000000E+00  0.00000000000E+00  0.18250000000E+03  0.18250000000E+03  0.00000000000E+00 0. -1.
         11   -1    0    0    0    0 -0.00000000000E+00 -0.00000000000E+00 -0.18250000000E+03  0.18250000000E+03  0.00000000000E+00 0.  1.
        -11    1    1    2    0    0  0.41742061993E+01  0.26408732718E+01  0.17881420424E+03  0.17888241346E+03  0.00000000000E+00 0. -1.
         11    1    1    2    0    0 -0.72071224306E+01  0.44281544118E+01 -0.13442086108E+03  0.13468674418E+03  0.00000000000E+00 0.  1.
        -15    1    1    2    0    0  0.33202728405E+00 -0.21703825227E+01  0.27389447553E+01  0.39345075658E+01  0.17770000000E+01 0. -1.
         15    1    1    2    0    0  0.27008889473E+01 -0.48986451609E+01 -0.47132287917E+02  0.47496334793E+02  0.17770000000E+01 0.  1.
</event>
<event>
 6    1  0.1378789E-002  0.1835396E+03  0.7546771E-02  0.1067630E+00
        -11   -1    0    0    0    0  0.00000000000E+00  0.00000000000E+00  0.18250000000E+03  0.18250000000E+03  0.00000000000E+00 0. -1.
         11   -1    0    0    0    0 -0.00000000000E+00 -0.00000000000E+00 -0.18250000000E+03  0.18250000000E+03  0.00000000000E+00 0.  1.
        -11    1    1    2    0    0  0.16185465535E+01 -0.58674427204E+01  0.18135832299E+03  0.18146043066E+03  0.00000000000E+00 0. -1.
         11    1    1    2    0    0  0.82904662190E-01  0.16214574223E+01 -0.94356478265E+02  0.94370445521E+02  0.00000000000E+00 0.  1.
        -15    1    1    2    0    0 -0.11064203482E+01  0.10956235057E+02 -0.35856169886E+02  0.37551110510E+02  0.17770000000E+01 0. -1.
         15    1    1    2    0    0 -0.59503086742E+00 -0.67102497587E+01 -0.51145674843E+02  0.51618013306E+02  0.17770000000E+01 0.  1.
</event>
<event>
 6    1  0.1378789E-002  0.1833826E+03  0.7546771E-02  0.1067754E+00
        -11   -1    0    0    0    0  0.00000000000E+00  0.00000000000E+00  0.18250000000E+03  0.18250000000E+03  0.00000000000E+00 0.  1.
         11   -1    0    0    0    0 -0.00000000000E+00 -0.00000000000E+00 -0.18250000000E+03  0.18250000000E+03  0.00000000000E+00 0.  1.
        -11    1    1    2    0    0 -0.12512459515E+01  0.34602423719E+01  0.12871100197E+03  0.12876358539E+03  0.00000000000E+00 0.  1.
         11    1    1    2    0    0 -0.52877973148E+01  0.41483880673E+01 -0.18149299911E+03  0.18161739633E+03  0.00000000000E+00 0.  1.
        -15    1    1    2    0    0  0.15080862148E+01  0.18852382075E+01  0.15108834582E+02  0.15403345693E+02  0.17770000000E+01 0.  1.
         15    1    1    2    0    0  0.50309570515E+01 -0.94938686467E+01  0.37673162556E+02  0.39215672590E+02  0.17770000000E+01 0.  1.
</event>
<event>
 6    1  0.1378789E-002  0.2128418E+03  0.7546771E-02  0.1046579E+00
        -11   -1    0    0    0    0  0.00000000000E+00  0.00000000000E+00  0.18250000000E+03  0.18250000000E+03  0.00000000000E+00 0.  1.
         11   -1    0    0    0    0 -0.00000000000E+00 -0.00000000000E+00 -0.18250000000E+03  0.18250000000E+03  0.00000000000E+00 0.  1.
        -11    1    1    2    0    0 -0.87018158997E+01  0.51326410776E+01  0.15182240743E+03  0.15215817100E+03  0.00000000000E+00 0.  1.
         11    1    1    2    0    0  0.45408041580E+01  0.30005283958E+01 -0.13777981521E+03  0.13788727117E+03  0.00000000000E+00 0.  1.
        -15    1    1    2    0    0 -0.10505125497E+02 -0.41563455935E+01 -0.41758587422E+02  0.43296307267E+02  0.17770000000E+01 0. -1.
         15    1    1    2    0    0  0.14666137239E+02 -0.39768238799E+01  0.27715995203E+02  0.31658250564E+02  0.17770000000E+01 0.  1.
</event>
<event>
 6    1  0.1378789E-002  0.1903057E+03  0.7546771E-02  0.1062406E+00
        -11   -1    0    0    0    0  0.00000000000E+00  0.00000000000E+00  0.18250000000E+03  0.18250000000E+03  0.00000000000E+00 0.  1.
         11   -1    0    0    0    0 -0.00000000000E+00 -0.00000000000E+00 -0.18250000000E+03  0.18250000000E+03  0.00000000000E+00 0.  1.
        -11    1    1    2    0    0 -0.38608274327E+01  0.82185795479E+01  0.15807265091E+03  0.15833323721E+03  0.00000000000E+00 0.  1.
         11    1    1    2    0    0 -0.46298750237E+01  0.12150643372E+02 -0.17420969984E+03  0.17469428553E+03  0.00000000000E+00 0.  1.
        -15    1    1    2    0    0  0.38645932344E+01  0.77654063861E+00 -0.84134786866E+00  0.44049621413E+01  0.17770000000E+01 0.  1.
         15    1    1    2    0    0  0.46261092221E+01 -0.21145763559E+02  0.16978396799E+02  0.27567515120E+02  0.17770000000E+01 0. -1.
</event>
<event>
 6    1  0.1378789E-002  0.1836543E+03  0.7546771E-02  0.1067540E+00
        -11   -1    0    0    0    0  0.00000000000E+00  0.00000000000E+00  0.18250000000E+03  0.18250000000E+03  0.00000000000E+00 0.  1.
         11   -1    0    0    0    0 -0.00000000000E+00 -0.00000000000E+00 -0.18250000000E+03  0.18250000000E+03  0.00000000000E+00 0.  1.
        -11    1    1    2    0    0  0.27059740503E+01 -0.17635021994E+01  0.18131690964E+03  0.18134567532E+03  0.00000000000E+00 0.  1.
         11    1    1    2    0    0 -0.62506341642E+00 -0.20379960286E+01 -0.11645471829E+03  0.11647422695E+03  0.00000000000E+00 0.  1.
        -15    1    1    2    0    0  0.70959936173E+01 -0.21935550162E+00 -0.27437680004E+02  0.28396923342E+02  0.17770000000E+01 0. -1.
         15    1    1    2    0    0 -0.91769042512E+01  0.40208537296E+01 -0.37424511349E+02  0.38783174381E+02  0.17770000000E+01 0.  1.
</event>
<event>
 6    1  0.1378789E-002  0.1826463E+03  0.7546771E-02  0.1068338E+00
        -11   -1    0    0    0    0  0.00000000000E+00  0.00000000000E+00  0.18250000000E+03  0.18250000000E+03  0.00000000000E+00 0. -1.
         11   -1    0    0    0    0 -0.00000000000E+00 -0.00000000000E+00 -0.18250000000E+03  0.18250000000E+03  0.00000000000E+00 0.  1.
        -11    1    1    2    0    0  0.19211100630E+00 -0.49503376708E+01  0.18228635892E+03  0.18235366571E+03  0.00000000000E+00 0. -1.
         11    1    1    2    0    0  0.17159721993E+01 -0.13682134556E+00 -0.81278884819E+02  0.81297111868E+02  0.00000000000E+00 0.  1.
        -15    1    1    2    0    0  0.16866770431E+01  0.13704072785E+01 -0.29657349796E+02  0.29789914761E+02  0.17770000000E+01 0.  1.
         15    1    1    2    0    0 -0.35947602487E+01  0.37167517379E+01 -0.71350124308E+02  0.71559307658E+02  0.17770000000E+01 0. -1.
</event>
<event>
 6    1  0.1378789E-002  0.1768728E+03  0.7546771E-02  0.1073024E+00
        -11   -1    0    0    0    0  0.00000000000E+00  0.00000000000E+00  0.18250000000E+03  0.18250000000E+03  0.00000000000E+00 0.  1.
         11   -1    0    0    0    0 -0.00000000000E+00 -0.00000000000E+00 -0.18250000000E+03  0.18250000000E+03  0.00000000000E+00 0.  1.
        -11    1    1    2    0    0  0.12814624840E+02  0.76635117641E+01  0.18007984879E+03  0.18069780287E+03  0.00000000000E+00 0.  1.
         11    1    1    2    0    0  0.14222545693E+01 -0.29386941484E+01 -0.13631268195E+02  0.14016782939E+02  0.00000000000E+00 0.  1.
        -15    1    1    2    0    0 -0.23578827010E+02  0.85359458992E+00 -0.13236297774E+03  0.13446116656E+03  0.17770000000E+01 0.  1.
         15    1    1    2    0    0  0.93419476005E+01 -0.55784122056E+01 -0.34085602855E+02  0.35824247636E+02  0.17770000000E+01 0. -1.
</event>
<event>
 6    1  0.1378789E-002  0.1869541E+03  0.7546771E-02  0.1064964E+00
        -11   -1    0    0    0    0  0.00000000000E+00  0.00000000000E+00  0.18250000000E+03  0.18250000000E+03  0.00000000000E+00 0. -1.
         11   -1    0    0    0    0 -0.00000000000E+00 -0.00000000000E+00 -0.18250000000E+03  0.18250000000E+03  0.00000000000E+00 0. -1.
        -11    1    1    2    0    0 -0.10448256967E+02 -0.10341898999E+02  0.17743790306E+03  0.17804586598E+03  0.00000000000E+00 0. -1.
         11    1    1    2    0    0  0.23398372308E+01  0.10741939520E+01 -0.16597023113E+03  0.16599019956E+03  0.00000000000E+00 0. -1.
        -15    1    1    2    0    0  0.10988397403E+02  0.74115597289E+01 -0.71199659026E+01  0.15150172889E+02  0.17770000000E+01 0.  1.
         15    1    1    2    0    0 -0.28799776672E+01  0.18561453179E+01 -0.43477060360E+01  0.58137615689E+01  0.17770000000E+01 0. -1.
</event>
<event>
 6    1  0.1378789E-002  0.1907588E+03  0.7546771E-02  0.1062064E+00
        -11   -1    0    0    0    0  0.00000000000E+00  0.00000000000E+00  0.18250000000E+03  0.18250000000E+03  0.00000000000E+00 0.  1.
         11   -1    0    0    0    0 -0.00000000000E+00 -0.00000000000E+00 -0.18250000000E+03  0.18250000000E+03  0.00000000000E+00 0.  1.
        -11    1    1    2    0    0  0.51911491064E+01 -0.55288668276E+01  0.62766189259E+02  0.63222708828E+02  0.00000000000E+00 0.  1.
         11    1    1    2    0    0  0.29991116780E+01 -0.17250235862E+01 -0.17420680199E+03  0.17424115541E+03  0.00000000000E+00 0.  1.
        -15    1    1    2    0    0 -0.88578606310E+01 -0.19354498638E+01 -0.51438204940E+01  0.10574699968E+02  0.17770000000E+01 0. -1.
         15    1    1    2    0    0  0.66759984668E+00  0.91893402776E+01  0.11658443323E+03  0.11696143580E+03  0.17770000000E+01 0.  1.
</event>
<event>
 6    1  0.1378789E-002  0.1772737E+03  0.7546771E-02  0.1072693E+00
        -11   -1    0    0    0    0  0.00000000000E+00  0.00000000000E+00  0.18250000000E+03  0.18250000000E+03  0.00000000000E+00 0. -1.
         11   -1    0    0    0    0 -0.00000000000E+00 -0.00000000000E+00 -0.18250000000E+03  0.18250000000E+03  0.00000000000E+00 0. -1.
        -11    1    1    2    0    0  0.54005714239E+01  0.36671971529E+01  0.17701837568E+03  0.17713870225E+03  0.00000000000E+00 0. -1.
         11    1    1    2    0    0  0.10123063206E+01 -0.62435926278E+01 -0.17736356604E+03  0.17747631327E+03  0.00000000000E+00 0. -1.
        -15    1    1    2    0    0 -0.11849637223E+01  0.33354772398E+01  0.21751120204E+01  0.45186711257E+01  0.17770000000E+01 0. -1.
         15    1    1    2    0    0 -0.52279140222E+01 -0.75908176487E+00 -0.18299216525E+01  0.58663133571E+01  0.17770000000E+01 0.  1.
</event>
<event>
 6    1  0.1378789E-002  0.1841595E+03  0.7546771E-02  0.1067141E+00
        -11   -1    0    0    0    0  0.00000000000E+00  0.00000000000E+00  0.18250000000E+03  0.18250000000E+03  0.00000000000E+00 0. -1.
         11   -1    0    0    0    0 -0.00000000000E+00 -0.00000000000E+00 -0.18250000000E+03  0.18250000000E+03  0.00000000000E+00 0.  1.
        -11    1    1    2    0    0 -0.21550183285E+01  0.17581663798E+01  0.18081914309E+03  0.18084053130E+03  0.00000000000E+00 0. -1.
         11    1    1    2    0    0 -0.31954095199E+01  0.18756553730E+00 -0.15157238269E+03  0.15160617737E+03  0.00000000000E+00 0.  1.
        -15    1    1    2    0    0 -0.19072757018E+01 -0.14018432362E+01 -0.21765055610E+02  0.21965387312E+02  0.17770000000E+01 0. -1.
         15    1    1    2    0    0  0.72577035502E+01 -0.54388868087E+00 -0.74817047904E+01  0.10587904008E+02  0.17770000000E+01 0.  1.
</event>
<event>
 6    1  0.1378789E-002  0.1861159E+03  0.7546771E-02  0.1065612E+00
        -11   -1    0    0    0    0  0.00000000000E+00  0.00000000000E+00  0.18250000000E+03  0.18250000000E+03  0.00000000000E+00 0. -1.
         11   -1    0    0    0    0 -0.00000000000E+00 -0.00000000000E+00 -0.18250000000E+03  0.18250000000E+03  0.00000000000E+00 0.  1.
        -11    1    1    2    0    0 -0.40773221764E+01  0.63034957809E-01  0.17883759540E+03  0.17888407995E+03  0.00000000000E+00 0. -1.
         11    1    1    2    0    0 -0.11911213104E+01  0.28122807473E+01 -0.16900634060E+03  0.16903393403E+03  0.00000000000E+00 0.  1.
        -15    1    1    2    0    0 -0.22750788229E+01 -0.41754793119E+01 -0.71704692734E+01  0.87854407821E+01  0.17770000000E+01 0.  1.
         15    1    1    2    0    0  0.75435223097E+01  0.13001636067E+01 -0.26607855306E+01  0.82965452377E+01  0.17770000000E+01 0. -1.
</event>
<event>
 6    1  0.1378789E-002  0.1826617E+03  0.7546771E-02  0.1068326E+00
        -11   -1    0    0    0    0  0.00000000000E+00  0.00000000000E+00  0.18250000000E+03  0.18250000000E+03  0.00000000000E+00 0. -1.
         11   -1    0    0    0    0 -0.00000000000E+00 -0.00000000000E+00 -0.18250000000E+03  0.18250000000E+03  0.00000000000E+00 0. -1.
        -11    1    1    2    0    0  0.25595973426E+01 -0.12714815545E+01  0.18231588585E+03  0.18233828571E+03  0.00000000000E+00 0. -1.
         11    1    1    2    0    0 -0.67293483490E+00  0.83530920006E+00 -0.69157097070E+02  0.69165415186E+02  0.00000000000E+00 0. -1.
        -15    1    1    2    0    0 -0.48908747153E+01  0.32563813658E+00 -0.62330645405E+02  0.62548331562E+02  0.17770000000E+01 0.  1.
         15    1    1    2    0    0  0.30042122076E+01  0.11053421781E+00 -0.50828143372E+02  0.50947967540E+02  0.17770000000E+01 0. -1.
</event>
<event>
 6    1  0.1378789E-002  0.1830549E+03  0.7546771E-02  0.1068014E+00
        -11   -1    0    0    0    0  0.00000000000E+00  0.00000000000E+00  0.18250000000E+03  0.18250000000E+03  0.00000000000E+00 0. -1.
         11   -1    0    0    0    0 -0.00000000000E+00 -0.00000000000E+00 -0.18250000000E+03  0.18250000000E+03  0.00000000000E+00 0. -1.
        -11    1    1    2    0    0 -0.86275330679E+01 -0.13790623102E+01  0.18173518959E+03  0.18194508863E+03  0.00000000000E+00 0. -1.
         11    1    1    2    0    0  0.53788836783E+00 -0.19206080070E+01 -0.92708107491E+02  0.92729559762E+02  0.00000000000E+00 0. -1.
        -15    1    1    2    0    0  0.44150751969E+01  0.30355088856E+01 -0.82003643940E+02  0.82197704053E+02  0.17770000000E+01 0. -1.
         15    1    1    2    0    0  0.36745695032E+01  0.26416143163E+00 -0.70234381581E+01  0.81276475597E+01  0.17770000000E+01 0.  1.
</event>
<event>
 6    1  0.1378789E-002  0.2030761E+03  0.7546771E-02  0.1053162E+00
        -11   -1    0    0    0    0  0.00000000000E+00  0.00000000000E+00  0.18250000000E+03  0.18250000000E+03  0.00000000000E+00 0.  1.
         11   -1    0    0    0    0 -0.00000000000E+00 -0.00000000000E+00 -0.18250000000E+03  0.18250000000E+03  0.00000000000E+00 0.  1.
        -11    1    1    2    0    0 -0.46154897689E+01  0.80452541794E+01  0.13506418980E+03  0.13538228920E+03  0.00000000000E+00 0.  1.
         11    1    1    2    0    0 -0.20187569271E+02 -0.18356326286E+02 -0.15960843568E+03  0.16192388770E+03  0.00000000000E+00 0.  1.
        -15    1    1    2    0    0  0.13642385336E+02 -0.28046373514E+01 -0.17375650666E+02  0.22339463588E+02  0.17770000000E+01 0. -1.
         15    1    1    2    0    0  0.11160673704E+02  0.13115709458E+02  0.41919896543E+02  0.45354359518E+02  0.17770000000E+01 0.  1.
</event>
<event>
 6    1  0.1378789E-002  0.1870053E+03  0.7546771E-02  0.1064924E+00
        -11   -1    0    0    0    0  0.00000000000E+00  0.00000000000E+00  0.18250000000E+03  0.18250000000E+03  0.00000000000E+00 0. -1.
         11   -1    0    0    0    0 -0.00000000000E+00 -0.00000000000E+00 -0.18250000000E+03  0.18250000000E+03  0.00000000000E+00 0.  1.
        -11    1    1    2    0    0  0.30344914327E+01  0.83987232318E+00  0.17796681887E+03  0.17799466886E+03  0.00000000000E+00 0. -1.
         11    1    1    2    0    0 -0.21629236464E+01 -0.34959823714E+01 -0.15274506271E+03  0.15280037406E+03  0.00000000000E+00 0.  1.
        -15    1    1    2    0    0  0.68956602620E+00 -0.18013060503E+01  0.38721447569E+01  0.46766910107E+01  0.17770000000E+01 0. -1.
         15    1    1    2    0    0 -0.15611338126E+01  0.44574160985E+01 -0.29093900922E+02  0.29528266067E+02  0.17770000000E+01 0.  1.
</event>
<event>
 6    1  0.1378789E-002  0.1854122E+03  0.7546771E-02  0.1066160E+00
        -11   -1    0    0    0    0  0.00000000000E+00  0.00000000000E+00  0.18250000000E+03  0.18250000000E+03  0.00000000000E+00 0. -1.
         11   -1    0    0    0    0 -0.00000000000E+00 -0.00000000000E+00 -0.18250000000E+03  0.18250000000E+03  0.00000000000E+00 0.  1.
        -11    1    1    2    0    0  0.53048288923E+01 -0.39535472081E+01  0.17946586360E+03  0.17958777225E+03  0.00000000000E+00 0. -1.
         11    1    1    2    0    0 -0.34503001487E+01  0.24100369625E+01 -0.16495159140E+03  0.16500527372E+03  0.00000000000E+00 0.  1.
        -15    1    1    2    0    0 -0.47642948487E+01  0.87737394157E+00 -0.15862421319E+02  0.16680600395E+02  0.17770000000E+01 0.  1.
         15    1    1    2    0    0  0.29097661052E+01  0.66613630399E+00  0.13481491221E+01  0.37263536356E+01  0.17770000000E+01 0. -1.
</event>
<event>
 6    1  0.1378789E-002  0.1854296E+03  0.7546771E-02  0.1066146E+00
        -11   -1    0    0    0    0  0.00000000000E+00  0.00000000000E+00  0.18250000000E+03  0.18250000000E+03  0.00000000000E+00 0.  1.
         11   -1    0    0    0    0 -0.00000000000E+00 -0.00000000000E+00 -0.18250000000E+03  0.18250000000E+03  0.00000000000E+00 0.  1.
        -11    1    1    2    0    0  0.15714602785E+01  0.34707872471E+01  0.17952996671E+03  0.17957038953E+03  0.00000000000E+00 0.  1.
         11    1    1    2    0    0  0.40184892643E+01  0.86197246763E+01 -0.14513761193E+03  0.14544887179E+03  0.00000000000E+00 0.  1.
        -15    1    1    2    0    0 -0.35729737451E+00  0.20324762045E+01 -0.39191452201E+00  0.27513536538E+01  0.17770000000E+01 0. -1.
         15    1    1    2    0    0 -0.52326521683E+01 -0.14122988128E+02 -0.34000440259E+02  0.37229385023E+02  0.17770000000E+01 0.  1.
</event>
<event>
 6    1  0.1378789E-002  0.1836057E+03  0.7546771E-02  0.1067578E+00
        -11   -1    0    0    0    0  0.00000000000E+00  0.00000000000E+00  0.18250000000E+03  0.18250000000E+03  0.00000000000E+00 0. -1.
         11   -1    0    0    0    0 -0.00000000000E+00 -0.00000000000E+00 -0.18250000000E+03  0.18250000000E+03  0.00000000000E+00 0. -1.
        -11    1    1    2    0    0 -0.41496384574E+01  0.53857706456E+00  0.16564628237E+03  0.16569912621E+03  0.00000000000E+00 0. -1.
         11    1    1    2    0    0 -0.13908986400E+01 -0.51460233799E+01 -0.18131596197E+03  0.18139430592E+03  0.00000000000E+00 0. -1.
        -15    1    1    2    0    0  0.38525662092E+01  0.27194306847E+01  0.12498636505E+02  0.13476320459E+02  0.17770000000E+01 0. -1.
         15    1    1    2    0    0  0.16879708881E+01  0.18880156307E+01  0.31710430973E+01  0.44302474046E+01  0.17770000000E+01 0.  1.
</event>
<event>
 6    1  0.1378789E-002  0.1830967E+03  0.7546771E-02  0.1067981E+00
        -11   -1    0    0    0    0  0.00000000000E+00  0.00000000000E+00  0.18250000000E+03  0.18250000000E+03  0.00000000000E+00 0. -1.
         11   -1    0    0    0    0 -0.00000000000E+00 -0.00000000000E+00 -0.18250000000E+03  0.18250000000E+03  0.00000000000E+00 0. -1.
        -11    1    1    2    0    0 -0.15781134778E+01 -0.49253109007E+00  0.85479590131E+02  0.85495575078E+02  0.00000000000E+00 0. -1.
         11    1    1    2    0    0 -0.80809691807E+01  0.68930530131E+01 -0.18159290015E+03  0.18190326448E+03  0.00000000000E+00 0. -1.
        -15    1    1    2    0    0  0.10744406943E+02 -0.15521852887E+01  0.50534318446E+02  0.51717759324E+02  0.17770000000E+01 0. -1.
         15    1    1    2    0    0 -0.10853242842E+01 -0.48483366343E+01  0.45578991571E+02  0.45883401122E+02  0.17770000000E+01 0. -1.
</event>
<event>
 6    1  0.1378789E-002  0.1859077E+03  0.7546771E-02  0.1065774E+00
        -11   -1    0    0    0    0  0.00000000000E+00  0.00000000000E+00  0.18250000000E+03  0.18250000000E+03  0.00000000000E+00 0.  1.
         11   -1    0    0    0    0 -0.00000000000E+00 -0.00000000000E+00 -0.18250000000E+03  0.18250000000E+03  0.00000000000E+00 0. -1.
        -11    1    1    2    0    0  0.24659252587E+01 -0.10775732014E+01  0.17907205372E+03  0.17909227335E+03  0.00000000000E+00 0.  1.
         11    1    1    2    0    0 -0.29966436222E+01  0.36757650418E+00 -0.17832353077E+03  0.17834908638E+03  0.00000000000E+00 0. -1.
        -15    1    1    2    0    0  0.59666332074E+00 -0.27038437604E+01 -0.15340060962E+01  0.36301076984E+01  0.17770000000E+01 0.  1.
         15    1    1    2    0    0 -0.65944957251E-01  0.34138404575E+01  0.78548315120E+00  0.39285325743E+01  0.17770000000E+01 0. -1.
</event>
<event>
 6    1  0.1378789E-002  0.1758098E+03  0.7546771E-02  0.1073909E+00
        -11   -1    0    0    0    0  0.00000000000E+00  0.00000000000E+00  0.18250000000E+03  0.18250000000E+03  0.00000000000E+00 0.  1.
         11   -1    0    0    0    0 -0.00000000000E+00 -0.00000000000E+00 -0.18250000000E+03  0.18250000000E+03  0.00000000000E+00 0. -1.
        -11    1    1    2    0    0 -0.40439480190E+01 -0.59056870272E+01  0.17488432754E+03  0.17503073637E+03  0.00000000000E+00 0.  1.
         11    1    1    2    0    0 -0.22182264702E+01 -0.18418622557E+01 -0.17671110199E+03  0.17673462183E+03  0.00000000000E+00 0. -1.
        -15    1    1    2    0    0 -0.13953123415E+01  0.50305040228E+00 -0.30319795808E+00  0.23344408836E+01  0.17770000000E+01 0.  1.
         15    1    1    2    0    0  0.76574868306E+01  0.72444988806E+01  0.21299724122E+01  0.10900200919E+02  0.17770000000E+01 0.  1.
</event>
<event>
 6    1  0.1378789E-002  0.1843067E+03  0.7546771E-02  0.1067026E+00
        -11   -1    0    0    0    0  0.00000000000E+00  0.00000000000E+00  0.18250000000E+03  0.18250000000E+03  0.00000000000E+00 0. -1.
         11   -1    0    0    0    0 -0.00000000000E+00 -0.00000000000E+00 -0.18250000000E+03  0.18250000000E+03  0.00000000000E+00 0.  1.
        -11    1    1    2    0    0 -0.58380036007E-01  0.94715520801E+01  0.18044489531E+03  0.18069331463E+03  0.00000000000E+00 0. -1.
         11    1    1    2    0    0  0.12790853505E+00 -0.26314509780E+01 -0.14626745054E+03  0.14629117534E+03  0.00000000000E+00 0.  1.
        -15    1    1    2    0    0  0.34418194878E+01 -0.10078655526E+02 -0.27983096403E+02  0.29993946587E+02  0.17770000000E+01 0.  1.
         15    1    1    2    0    0 -0.35113479869E+01  0.32385544239E+01 -0.61943483636E+01  0.80215634443E+01  0.17770000000E+01 0. -1.
</event>
<event>
 6    1  0.1378789E-002  0.1617702E+03  0.7546771E-02  0.1086269E+00
        -11   -1    0    0    0    0  0.00000000000E+00  0.00000000000E+00  0.18250000000E+03  0.18250000000E+03  0.00000000000E+00 0.  1.
         11   -1    0    0    0    0 -0.00000000000E+00 -0.00000000000E+00 -0.18250000000E+03  0.18250000000E+03  0.00000000000E+00 0.  1.
        -11    1    1    2    0    0  0.11304848954E+02 -0.58669348825E+01  0.16078777054E+03  0.16129143713E+03  0.00000000000E+00 0.  1.
         11    1    1    2    0    0  0.52189651737E+01 -0.35405893669E+01 -0.16269052051E+03  0.16281271091E+03  0.00000000000E+00 0.  1.
        -15    1    1    2    0    0  0.77732599742E+01  0.13606821872E+02 -0.18953140703E+01  0.15884555912E+02  0.17770000000E+01 0. -1.
         15    1    1    2    0    0 -0.24297074102E+02 -0.41992976227E+01  0.37980640416E+01  0.25011296046E+02  0.17770000000E+01 0.  1.
</event>
<event>
 6    1  0.1378789E-002  0.1261658E+03  0.7546771E-02  0.1124979E+00
        -11   -1    0    0    0    0  0.00000000000E+00  0.00000000000E+00  0.18250000000E+03  0.18250000000E+03  0.00000000000E+00 0. -1.
         11   -1    0    0    0    0 -0.00000000000E+00 -0.00000000000E+00 -0.18250000000E+03  0.18250000000E+03  0.00000000000E+00 0. -1.
        -11    1    1    2    0    0 -0.39979822441E+01  0.72748834418E+00  0.12099644364E+03  0.12106466237E+03  0.00000000000E+00 0. -1.
         11    1    1    2    0    0  0.26687354751E+02 -0.15100394996E+02 -0.43787009363E+02  0.53455954034E+02  0.00000000000E+00 0. -1.
        -15    1    1    2    0    0 -0.33648371858E+02 -0.20011815779E+01 -0.12989129569E+03  0.13420552925E+03  0.17770000000E+01 0. -1.
         15    1    1    2    0    0  0.10958999352E+02  0.16374088230E+02  0.52681861411E+02  0.56273854345E+02  0.17770000000E+01 0.  1.
</event>
<event>
 6    1  0.1378789E-002  0.1830347E+03  0.7546771E-02  0.1068030E+00
        -11   -1    0    0    0    0  0.00000000000E+00  0.00000000000E+00  0.18250000000E+03  0.18250000000E+03  0.00000000000E+00 0. -1.
         11   -1    0    0    0    0 -0.00000000000E+00 -0.00000000000E+00 -0.18250000000E+03  0.18250000000E+03  0.00000000000E+00 0. -1.
        -11    1    1    2    0    0  0.41374673675E+01 -0.20243108442E+00  0.13244193856E+03  0.13250670437E+03  0.00000000000E+00 0. -1.
         11    1    1    2    0    0  0.21304541600E+01  0.58977544730E+01 -0.18185724744E+03  0.18196532854E+03  0.00000000000E+00 0. -1.
        -15    1    1    2    0    0 -0.27981389294E+01 -0.57485866998E+01  0.32216901052E+02  0.32893194933E+02  0.17770000000E+01 0. -1.
         15    1    1    2    0    0 -0.34697825981E+01  0.53263311153E-01  0.17198407830E+02  0.17634772160E+02  0.17770000000E+01 0.  1.
</event>
<event>
 6    1  0.1378789E-002  0.1854780E+03  0.7546771E-02  0.1066109E+00
        -11   -1    0    0    0    0  0.00000000000E+00  0.00000000000E+00  0.18250000000E+03  0.18250000000E+03  0.00000000000E+00 0.  1.
         11   -1    0    0    0    0 -0.00000000000E+00 -0.00000000000E+00 -0.18250000000E+03  0.18250000000E+03  0.00000000000E+00 0.  1.
        -11    1    1    2    0    0  0.16587790356E+01  0.20702672471E+01  0.15793595049E+03  0.15795822870E+03  0.00000000000E+00 0.  1.
         11    1    1    2    0    0  0.32902048439E+01  0.58624199001E+01 -0.17939604294E+03  0.17952195865E+03  0.00000000000E+00 0.  1.
        -15    1    1    2    0    0  0.46389568086E+01 -0.24076658427E+01  0.10396986321E+02  0.11771653607E+02  0.17770000000E+01 0.  1.
         15    1    1    2    0    0 -0.95879406881E+01 -0.55250213045E+01  0.11063106128E+02  0.15748159043E+02  0.17770000000E+01 0. -1.
</event>
<event>
 6    1  0.1378789E-002  0.1826716E+03  0.7546771E-02  0.1068318E+00
        -11   -1    0    0    0    0  0.00000000000E+00  0.00000000000E+00  0.18250000000E+03  0.18250000000E+03  0.00000000000E+00 0.  1.
         11   -1    0    0    0    0 -0.00000000000E+00 -0.00000000000E+00 -0.18250000000E+03  0.18250000000E+03  0.00000000000E+00 0. -1.
        -11    1    1    2    0    0 -0.12501857698E+01  0.26572870754E+01  0.18230473736E+03  0.18232838891E+03  0.00000000000E+00 0.  1.
         11    1    1    2    0    0  0.11970307721E+01 -0.48496280017E+00 -0.36652991591E+02  0.36675739449E+02  0.00000000000E+00 0. -1.
        -15    1    1    2    0    0 -0.53522402858E+00  0.15975588096E+01 -0.11801916282E+03  0.11804456439E+03  0.17770000000E+01 0. -1.
         15    1    1    2    0    0  0.58837902626E+00 -0.37698830848E+01 -0.27632582942E+02  0.27951307257E+02  0.17770000000E+01 0.  1.
</event>
<event>
 6    1  0.1378789E-002  0.1845072E+03  0.7546771E-02  0.1066868E+00
        -11   -1    0    0    0    0  0.00000000000E+00  0.00000000000E+00  0.18250000000E+03  0.18250000000E+03  0.00000000000E+00 0. -1.
         11   -1    0    0    0    0 -0.00000000000E+00 -0.00000000000E+00 -0.18250000000E+03  0.18250000000E+03  0.00000000000E+00 0.  1.
        -11    1    1    2    0    0  0.27646582248E+01 -0.20176977700E+02  0.12914906848E+03  0.13074492592E+03  0.00000000000E+00 0. -1.
         11    1    1    2    0    0 -0.94983620549E+01  0.91752835750E+01 -0.18000899731E+03  0.18049278053E+03  0.00000000000E+00 0.  1.
        -15    1    1    2    0    0 -0.17421797388E+01 -0.55411918850E+00  0.12874935427E+02  0.13124935412E+02  0.17770000000E+01 0.  1.
         15    1    1    2    0    0  0.84758835690E+01  0.11555813314E+02  0.37984993402E+02  0.40637358137E+02  0.17770000000E+01 0. -1.
</event>
<event>
 6    1  0.1378789E-002  0.1809312E+03  0.7546771E-02  0.1069710E+00
        -11   -1    0    0    0    0  0.00000000000E+00  0.00000000000E+00  0.18250000000E+03  0.18250000000E+03  0.00000000000E+00 0.  1.
         11   -1    0    0    0    0 -0.00000000000E+00 -0.00000000000E+00 -0.18250000000E+03  0.18250000000E+03  0.00000000000E+00 0. -1.
        -11    1    1    2    0    0 -0.52739091364E+00 -0.23899157335E+01  0.15465331719E+02  0.15657787953E+02  0.00000000000E+00 0.  1.
         11    1    1    2    0    0  0.16853477658E+01  0.38049919683E+01 -0.17564615354E+03  0.17569544562E+03  0.00000000000E+00 0. -1.
        -15    1    1    2    0    0  0.15606117743E+02 -0.28231923745E+02  0.54862814148E+02  0.63668505045E+02  0.17770000000E+01 0. -1.
         15    1    1    2    0    0 -0.16764074596E+02  0.26816847510E+02  0.10531800767E+03  0.10997826138E+03  0.17770000000E+01 0.  1.
</event>
<event>
 6    1  0.1378789E-002  0.1898830E+03  0.7546771E-02  0.1062725E+00
        -11   -1    0    0    0    0  0.00000000000E+00  0.00000000000E+00  0.18250000000E+03  0.18250000000E+03  0.00000000000E+00 0.  1.
         11   -1    0    0    0    0 -0.00000000000E+00 -0.00000000000E+00 -0.18250000000E+03  0.18250000000E+03  0.00000000000E+00 0.  1.
        -11    1    1    2    0    0 -0.37190243498E+01 -0.92751708619E+00  0.17507504972E+03  0.17511700222E+03  0.00000000000E+00 0.  1.
         11    1    1    2    0    0 -0.15009372572E+01 -0.40214397984E+01 -0.15264690361E+03  0.15270724269E+03  0.00000000000E+00 0.  1.
        -15    1    1    2    0    0  0.59174522922E+01  0.78467458772E+01 -0.28490622434E+02  0.30190411692E+02  0.17770000000E+01 0. -1.
         15    1    1    2    0    0 -0.69749068516E+00 -0.28977889926E+01  0.60624763171E+01  0.69853433986E+01  0.17770000000E+01 0.  1.
</event>
<event>
 6    1  0.1378789E-002  0.1857500E+03  0.7546771E-02  0.1065897E+00
        -11   -1    0    0    0    0  0.00000000000E+00  0.00000000000E+00  0.18250000000E+03  0.18250000000E+03  0.00000000000E+00 0. -1.
         11   -1    0    0    0    0 -0.00000000000E+00 -0.00000000000E+00 -0.18250000000E+03  0.18250000000E+03  0.00000000000E+00 0.  1.
        -11    1    1    2    0    0  0.36136824245E-01 -0.26905316470E+01  0.17922982591E+03  0.17925002305E+03  0.00000000000E+00 0. -1.
         11    1    1    2    0    0 -0.34148082453E+01 -0.49813486677E+01 -0.16693570957E+03  0.16704492174E+03  0.00000000000E+00 0.  1.
        -15    1    1    2    0    0  0.66752613325E+01  0.76607859743E+01 -0.84053436252E+01  0.13306174734E+02  0.17770000000E+01 0.  1.
         15    1    1    2    0    0 -0.32965899115E+01  0.11094340381E-01 -0.38887727148E+01  0.53988804725E+01  0.17770000000E+01 0. -1.
</event>
<event>
 6    1  0.1378789E-002  0.1846801E+03  0.7546771E-02  0.1066733E+00
        -11   -1    0    0    0    0  0.00000000000E+00  0.00000000000E+00  0.18250000000E+03  0.18250000000E+03  0.00000000000E+00 0. -1.
         11   -1    0    0    0    0 -0.00000000000E+00 -0.00000000000E+00 -0.18250000000E+03  0.18250000000E+03  0.00000000000E+00 0. -1.
        -11    1    1    2    0    0  0.14008521136E+01 -0.25809679003E+01  0.18029600838E+03  0.18031992242E+03  0.00000000000E+00 0. -1.
         11    1    1    2    0    0  0.64912915627E+00 -0.36738286064E+01 -0.17428005665E+03  0.17431998316E+03  0.00000000000E+00 0. -1.
        -15    1    1    2    0    0 -0.12724987275E+01  0.60211220390E+01 -0.39951081801E+01  0.75492901646E+01  0.17770000000E+01 0.  1.
         15    1    1    2    0    0 -0.77748254239E+00  0.23367446768E+00 -0.20208435579E+01  0.28108042526E+01  0.17770000000E+01 0. -1.
</event>
<event>
 6    1  0.1378789E-002  0.1864428E+03  0.7546771E-02  0.1065359E+00
        -11   -1    0    0    0    0  0.00000000000E+00  0.00000000000E+00  0.18250000000E+03  0.18250000000E+03  0.00000000000E+00 0. -1.
         11   -1    0    0    0    0 -0.00000000000E+00 -0.00000000000E+00 -0.18250000000E+03  0.18250000000E+03  0.00000000000E+00 0. -1.
        -11    1    1    2    0    0 -0.40278870718E+01 -0.34910216025E+01  0.17847761786E+03  0.17855719303E+03  0.00000000000E+00 0. -1.
         11    1    1    2    0    0 -0.28679148542E+01  0.37807994210E+01 -0.15378987575E+03  0.15386307309E+03  0.00000000000E+00 0. -1.
        -15    1    1    2    0    0 -0.20616352216E+01 -0.56381619315E+01 -0.20086876353E+02  0.21039951055E+02  0.17770000000E+01 0.  1.
         15    1    1    2    0    0  0.89574371477E+01  0.53483841130E+01 -0.46008657583E+01  0.11539782823E+02  0.17770000000E+01 0. -1.
</event>
<event>
 6    1  0.1378789E-002  0.1812689E+03  0.7546771E-02  0.1069439E+00
        -11   -1    0    0    0    0  0.00000000000E+00  0.00000000000E+00  0.18250000000E+03  0.18250000000E+03  0.00000000000E+00 0.  1.
         11   -1    0    0    0    0 -0.00000000000E+00 -0.00000000000E+00 -0.18250000000E+03  0.18250000000E+03  0.00000000000E+00 0.  1.
        -11    1    1    2    0    0 -0.45397046363E+01  0.25398774631E+00  0.17937086819E+03  0.17942848655E+03  0.00000000000E+00 0.  1.
         11    1    1    2    0    0  0.21369049432E+01  0.37956316466E+01 -0.53791688580E+01  0.69216067452E+01  0.00000000000E+00 0.  1.
        -15    1    1    2    0    0  0.17316457600E+01 -0.13212263978E+02 -0.18455931245E+02  0.22832907033E+02  0.17770000000E+01 0. -1.
         15    1    1    2    0    0  0.67115393302E+00  0.91626445847E+01 -0.15553576809E+03  0.15581699968E+03  0.17770000000E+01 0.  1.
</event>
<event>
 6    1  0.1378789E-002  0.1838241E+03  0.7546771E-02  0.1067406E+00
        -11   -1    0    0    0    0  0.00000000000E+00  0.00000000000E+00  0.18250000000E+03  0.18250000000E+03  0.00000000000E+00 0. -1.
         11   -1    0    0    0    0 -0.00000000000E+00 -0.00000000000E+00 -0.18250000000E+03  0.18250000000E+03  0.00000000000E+00 0.  1.
        -11    1    1    2    0    0 -0.49418734517E+01 -0.52588810762E+01  0.18103212081E+03  0.18117589991E+03  0.00000000000E+00 0. -1.
         11    1    1    2    0    0 -0.10966062490E+01 -0.41900074553E+00 -0.79782907047E+02  0.79791543184E+02  0.00000000000E+00 0.  1.
        -15    1    1    2    0    0  0.34809024236E+01  0.50398303550E+01 -0.10058238064E+03  0.10078437178E+03  0.17770000000E+01 0.  1.
         15    1    1    2    0    0  0.25575772771E+01  0.63805146680E+00 -0.66683312165E+00  0.32481851263E+01  0.17770000000E+01 0. -1.
</event>
<event>
 6    1  0.1378789E-002  0.1835330E+03  0.7546771E-02  0.1067635E+00
        -11   -1    0    0    0    0  0.00000000000E+00  0.00000000000E+00  0.18250000000E+03  0.18250000000E+03  0.00000000000E+00 0. -1.
         11   -1    0    0    0    0 -0.00000000000E+00 -0.00000000000E+00 -0.18250000000E+03  0.18250000000E+03  0.00000000000E+00 0.  1.
        -11    1    1    2    0    0  0.22986007460E+01 -0.15419811296E+01  0.18144588184E+03  0.18146699234E+03  0.00000000000E+00 0. -1.
         11    1    1    2    0    0  0.17138330388E+01 -0.33298834561E+01 -0.87106602979E+02  0.87187072608E+02  0.00000000000E+00 0.  1.
        -15    1    1    2    0    0 -0.23130092841E+01  0.16330800037E+01 -0.19557142371E+01  0.38729200126E+01  0.17770000000E+01 0.  1.
         15    1    1    2    0    0 -0.16994245007E+01  0.32387845819E+01 -0.92383564625E+02  0.92473015042E+02  0.17770000000E+01 0.  1.
</event>
<event>
 6    1  0.1378789E-002  0.1828182E+03  0.7546771E-02  0.1068202E+00
        -11   -1    0    0    0    0  0.00000000000E+00  0.00000000000E+00  0.18250000000E+03  0.18250000000E+03  0.00000000000E+00 0. -1.
         11   -1    0    0    0    0 -0.00000000000E+00 -0.00000000000E+00 -0.18250000000E+03  0.18250000000E+03  0.00000000000E+00 0. -1.
        -11    1    1    2    0    0  0.52566339885E+00 -0.99321316590E+00  0.54189544239E+02  0.54201194629E+02  0.00000000000E+00 0. -1.
         11    1    1    2    0    0  0.14332477356E+01 -0.51875668126E+01 -0.18210230903E+03  0.18218182127E+03  0.00000000000E+00 0. -1.
        -15    1    1    2    0    0  0.36360284437E+01  0.49998416063E+01  0.41347411318E+02  0.41844775906E+02  0.17770000000E+01 0.  1.
         15    1    1    2    0    0 -0.55949395782E+01  0.11809383722E+01  0.86565353471E+02  0.86772208194E+02  0.17770000000E+01 0. -1.
</event>
<event>
 6    1  0.1378789E-002  0.1558551E+03  0.7546771E-02  0.1091895E+00
        -11   -1    0    0    0    0  0.00000000000E+00  0.00000000000E+00  0.18250000000E+03  0.18250000000E+03  0.00000000000E+00 0. -1.
         11   -1    0    0    0    0 -0.00000000000E+00 -0.00000000000E+00 -0.18250000000E+03  0.18250000000E+03  0.00000000000E+00 0. -1.
        -11    1    1    2    0    0 -0.87443740385E-01  0.56232383640E+01  0.27920756022E+02  0.28481521605E+02  0.00000000000E+00 0. -1.
         11    1    1    2    0    0  0.80728906661E-01  0.26829107617E+01 -0.16269464226E+03  0.16271678201E+03  0.00000000000E+00 0. -1.
        -15    1    1    2    0    0  0.90736705716E+01  0.88508947960E+01  0.14907933878E+03  0.14962779426E+03  0.17770000000E+01 0. -1.
         15    1    1    2    0    0 -0.90669557378E+01 -0.17157043922E+02 -0.14305452536E+02  0.24173902121E+02  0.17770000000E+01 0.  1.
</event>
<event>
 6    1  0.1378789E-002  0.1857488E+03  0.7546771E-02  0.1065898E+00
        -11   -1    0    0    0    0  0.00000000000E+00  0.00000000000E+00  0.18250000000E+03  0.18250000000E+03  0.00000000000E+00 0. -1.
         11   -1    0    0    0    0 -0.00000000000E+00 -0.00000000000E+00 -0.18250000000E+03  0.18250000000E+03  0.00000000000E+00 0. -1.
        -11    1    1    2    0    0  0.19998582996E+01  0.32944036261E+01  0.17113500003E+03  0.17117838872E+03  0.00000000000E+00 0. -1.
         11    1    1    2    0    0 -0.63776771589E+00  0.54812024948E+01 -0.17916619837E+03  0.17925115611E+03  0.00000000000E+00 0. -1.
        -15    1    1    2    0    0  0.28503954130E+01 -0.22625621436E+01  0.38203380092E+01  0.55674637825E+01  0.17770000000E+01 0. -1.
         15    1    1    2    0    0 -0.42124859968E+01 -0.65130439772E+01  0.42108603348E+01  0.90029913851E+01  0.17770000000E+01 0.  1.
</event>
<event>
 6    1  0.1378789E-002  0.1881100E+03  0.7546771E-02  0.1064075E+00
        -11   -1    0    0    0    0  0.00000000000E+00  0.00000000000E+00  0.18250000000E+03  0.18250000000E+03  0.00000000000E+00 0.  1.
         11   -1    0    0    0    0 -0.00000000000E+00 -0.00000000000E+00 -0.18250000000E+03  0.18250000000E+03  0.00000000000E+00 0.  1.
        -11    1    1    2    0    0  0.61404741008E+01  0.18724711421E+01  0.17677346676E+03  0.17688999441E+03  0.00000000000E+00 0.  1.
         11    1    1    2    0    0  0.11089317226E+02  0.55636173233E+01 -0.16085243558E+03  0.16133019812E+03  0.00000000000E+00 0.  1.
        -15    1    1    2    0    0 -0.83818567902E+00 -0.10287731328E+01 -0.62240109492E+01  0.66073421802E+01  0.17770000000E+01 0. -1.
         15    1    1    2    0    0 -0.16391605647E+02 -0.64073153326E+01 -0.96970202359E+01  0.20172465291E+02  0.17770000000E+01 0.  1.
</event>
<event>
 6    1  0.1378789E-002  0.1954292E+03  0.7546771E-02  0.1058605E+00
        -11   -1    0    0    0    0  0.00000000000E+00  0.00000000000E+00  0.18250000000E+03  0.18250000000E+03  0.00000000000E+00 0. -1.
         11   -1    0    0    0    0 -0.00000000000E+00 -0.00000000000E+00 -0.18250000000E+03  0.18250000000E+03  0.00000000000E+00 0. -1.
        -11    1    1    2    0    0 -0.78031295015E+01 -0.79449879962E+01  0.16920478303E+03  0.16957084143E+03  0.00000000000E+00 0. -1.
         11    1    1    2    0    0  0.32885716315E+01 -0.40861719753E+00 -0.83859584698E+02  0.83925035699E+02  0.00000000000E+00 0. -1.
        -15    1    1    2    0    0  0.27439154325E+02  0.28196990491E+02 -0.34906457334E+02  0.52626950847E+02  0.17770000000E+01 0. -1.
         15    1    1    2    0    0 -0.22924596455E+02 -0.19843385297E+02 -0.50438740998E+02  0.58877172021E+02  0.17770000000E+01 0.  1.
</event>
<event>
 6    1  0.1378789E-002  0.1836643E+03  0.7546771E-02  0.1067532E+00
        -11   -1    0    0    0    0  0.00000000000E+00  0.00000000000E+00  0.18250000000E+03  0.18250000000E+03  0.00000000000E+00 0. -1.
         11   -1    0    0    0    0 -0.00000000000E+00 -0.00000000000E+00 -0.18250000000E+03  0.18250000000E+03  0.00000000000E+00 0.  1.
        -11    1    1    2    0    0  0.39963626853E+01  0.48827311792E+00  0.18129098133E+03  0.18133568109E+03  0.00000000000E+00 0. -1.
         11    1    1    2    0    0 -0.68524467885E+01  0.48006350462E+01 -0.16720601921E+03  0.16741521730E+03  0.00000000000E+00 0.  1.
        -15    1    1    2    0    0  0.31424759534E+01 -0.15200727909E+01 -0.71918111071E+01  0.81893621490E+01  0.17770000000E+01 0. -1.
         15    1    1    2    0    0 -0.28639185017E+00 -0.37688353733E+01 -0.68931510079E+01  0.80597394611E+01  0.17770000000E+01 0.  1.
</event>
<event>
 6    1  0.1378789E-002  0.1913663E+03  0.7546771E-02  0.1061608E+00
        -11   -1    0    0    0    0  0.00000000000E+00  0.00000000000E+00  0.18250000000E+03  0.18250000000E+03  0.00000000000E+00 0.  1.
         11   -1    0    0    0    0 -0.00000000000E+00 -0.00000000000E+00 -0.18250000000E+03  0.18250000000E+03  0.00000000000E+00 0. -1.
        -11    1    1    2    0    0 -0.16698049193E+01  0.56172154863E+01  0.17073100470E+03  0.17083154663E+03  0.00000000000E+00 0.  1.
         11    1    1    2    0    0  0.21332504716E+01 -0.65730830231E+01 -0.17349609209E+03  0.17363366651E+03  0.00000000000E+00 0. -1.
        -15    1    1    2    0    0 -0.96455676404E+01  0.38174875555E+01  0.76903188618E+00  0.10552692803E+02  0.17770000000E+01 0.  1.
         15    1    1    2    0    0  0.91821220881E+01 -0.28616200187E+01  0.19960555012E+01  0.99820940557E+01  0.17770000000E+01 0. -1.
</event>
<event>
 6    1  0.1378789E-002  0.1628557E+03  0.7546771E-02  0.1085265E+00
        -11   -1    0    0    0    0  0.00000000000E+00  0.00000000000E+00  0.18250000000E+03  0.18250000000E+03  0.00000000000E+00 0. -1.
         11   -1    0    0    0    0 -0.00000000000E+00 -0.00000000000E+00 -0.18250000000E+03  0.18250000000E+03  0.00000000000E+00 0. -1.
        -11    1    1    2    0    0 -0.90648569607E+01 -0.57141230935E+01  0.16964420791E+03  0.16998229353E+03  0.00000000000E+00 0. -1.
         11    1    1    2    0    0  0.23151266613E+01 -0.16878705228E+02 -0.15594090828E+03  0.15686879032E+03  0.00000000000E+00 0. -1.
        -15    1    1    2    0    0  0.27769174823E+00  0.15655313896E+02 -0.20852422747E+02  0.26137085325E+02  0.17770000000E+01 0. -1.
         15    1    1    2    0    0  0.64720385512E+01  0.69375144259E+01  0.71491231145E+01  0.12011830823E+02  0.17770000000E+01 0.  1.
</event>
<event>
 6    1  0.1378789E-002  0.1846444E+03  0.7546771E-02  0.1066761E+00
        -11   -1    0    0    0    0  0.00000000000E+00  0.00000000000E+00  0.18250000000E+03  0.18250000000E+03  0.00000000000E+00 0.  1.
         11   -1    0    0    0    0 -0.00000000000E+00 -0.00000000000E+00 -0.18250000000E+03  0.18250000000E+03  0.00000000000E+00 0.  1.
        -11    1    1    2    0    0 -0.40735508001E+01 -0.34403882851E+01  0.18027674468E+03  0.18035557868E+03  0.00000000000E+00 0.  1.
         11    1    1    2    0    0  0.22773811254E+01  0.82277592011E+00 -0.16336659576E+03  0.16338454038E+03  0.00000000000E+00 0.  1.
        -15    1    1    2    0    0  0.48953261570E+01  0.58225529144E+01 -0.82694286088E+01  0.11375742575E+02  0.17770000000E+01 0.  1.
         15    1    1    2    0    0 -0.30991564824E+01 -0.32049405494E+01 -0.86407203072E+01  0.98841383668E+01  0.17770000000E+01 0.  1.
</event>
<event>
 6    1  0.1378789E-002  0.1622304E+03  0.7546771E-02  0.1085842E+00
        -11   -1    0    0    0    0  0.00000000000E+00  0.00000000000E+00  0.18250000000E+03  0.18250000000E+03  0.00000000000E+00 0. -1.
         11   -1    0    0    0    0 -0.00000000000E+00 -0.00000000000E+00 -0.18250000000E+03  0.18250000000E+03  0.00000000000E+00 0. -1.
        -11    1    1    2    0    0  0.60875315448E+01  0.57553814215E+01  0.16692637996E+03  0.16713646754E+03  0.00000000000E+00 0. -1.
         11    1    1    2    0    0  0.48412524388E+01  0.93685184074E+01 -0.15764066429E+03  0.15799299320E+03  0.00000000000E+00 0. -1.
        -15    1    1    2    0    0 -0.34042387244E+01 -0.86278361900E+01  0.12612365083E+02  0.15756201338E+02  0.17770000000E+01 0. -1.
         15    1    1    2    0    0 -0.75245452591E+01 -0.64960636389E+01 -0.21898080751E+02  0.24114337929E+02  0.17770000000E+01 0.  1.
</event>
<event>
 6    1  0.1378789E-002  0.1905710E+03  0.7546771E-02  0.1062206E+00
        -11   -1    0    0    0    0  0.00000000000E+00  0.00000000000E+00  0.18250000000E+03  0.18250000000E+03  0.00000000000E+00 0. -1.
         11   -1    0    0    0    0 -0.00000000000E+00 -0.00000000000E+00 -0.18250000000E+03  0.18250000000E+03  0.00000000000E+00 0. -1.
        -11    1    1    2    0    0  0.13346881039E+01  0.37236437874E+01  0.16600465720E+03  0.16605177846E+03  0.00000000000E+00 0. -1.
         11    1    1    2    0    0  0.33374313583E+01 -0.85625794036E+01 -0.17418672330E+03  0.17442898494E+03  0.00000000000E+00 0. -1.
        -15    1    1    2    0    0  0.55631494834E+00  0.65237218949E-01  0.14649067520E+02  0.14767079956E+02  0.17770000000E+01 0. -1.
         15    1    1    2    0    0 -0.52284344106E+01  0.47736983972E+01 -0.64670014254E+01  0.97521566440E+01  0.17770000000E+01 0.  1.
</event>
<event>
 6    1  0.1378789E-002  0.1862434E+03  0.7546771E-02  0.1065514E+00
        -11   -1    0    0    0    0  0.00000000000E+00  0.00000000000E+00  0.18250000000E+03  0.18250000000E+03  0.00000000000E+00 0.  1.
         11   -1    0    0    0    0 -0.00000000000E+00 -0.00000000000E+00 -0.18250000000E+03  0.18250000000E+03  0.00000000000E+00 0.  1.
        -11    1    1    2    0    0  0.95682366390E+00 -0.20921689529E+01  0.16934883757E+03  0.16936446341E+03  0.00000000000E+00 0.  1.
         11    1    1    2    0    0 -0.21312988278E+01 -0.34532946576E+01 -0.17871056635E+03  0.17875663402E+03  0.00000000000E+00 0.  1.
        -15    1    1    2    0    0 -0.53473462646E+01  0.65335885439E+00  0.32693525601E+01  0.65473189191E+01  0.17770000000E+01 0.  1.
         15    1    1    2    0    0  0.65218214285E+01  0.48921047561E+01  0.60923762257E+01  0.10331583652E+02  0.17770000000E+01 0. -1.
</event>
<event>
 6    1  0.1378789E-002  0.1858810E+03  0.7546771E-02  0.1065795E+00
        -11   -1    0    0    0    0  0.00000000000E+00  0.00000000000E+00  0.18250000000E+03  0.18250000000E+03  0.00000000000E+00 0.  1.
         11   -1    0    0    0    0 -0.00000000000E+00 -0.00000000000E+00 -0.18250000000E+03  0.18250000000E+03  0.00000000000E+00 0. -1.
        -11    1    1    2    0    0 -0.11316369942E+01 -0.37850651521E+01  0.17296328911E+03  0.17300840067E+03  0.00000000000E+00 0.  1.
         11    1    1    2    0    0  0.46107073340E+01 -0.17901137259E+01 -0.17905069133E+03  0.17911899172E+03  0.00000000000E+00 0. -1.
        -15    1    1    2    0    0 -0.44534287086E+00  0.70733042954E+01  0.27774232771E+01  0.78167623085E+01  0.17770000000E+01 0. -1.
         15    1    1    2    0    0 -0.30337274690E+01 -0.14981254174E+01  0.33099789405E+01  0.50558453011E+01  0.17770000000E+01 0.  1.
</event>
<event>
 6    1  0.1378789E-002  0.1846397E+03  0.7546771E-02  0.1066764E+00
        -11   -1    0    0    0    0  0.00000000000E+00  0.00000000000E+00  0.18250000000E+03  0.18250000000E+03  0.00000000000E+00 0. -1.
         11   -1    0    0    0    0 -0.00000000000E+00 -0.00000000000E+00 -0.18250000000E+03  0.18250000000E+03  0.00000000000E+00 0.  1.
        -11    1    1    2    0    0  0.81042902726E+01  0.39638197613E+01  0.16680827217E+03  0.16705206090E+03  0.00000000000E+00 0. -1.
         11    1    1    2    0    0 -0.92599838754E+01  0.16213956683E+01 -0.18011512163E+03  0.18036028738E+03  0.00000000000E+00 0.  1.
        -15    1    1    2    0    0 -0.34066758907E+01 -0.46924818162E+01  0.48108808872E+01  0.77412615335E+01  0.17770000000E+01 0. -1.
         15    1    1    2    0    0  0.45623694936E+01 -0.89273361345E+00  0.84959685698E+01  0.98463901832E+01  0.17770000000E+01 0. -1.
</event>
<event>
 6    1  0.1378789E-002  0.1830440E+03  0.7546771E-02  0.1068023E+00
        -11   -1    0    0    0    0  0.00000000000E+00  0.00000000000E+00  0.18250000000E+03  0.18250000000E+03  0.00000000000E+00 0. -1.
         11   -1    0    0    0    0 -0.00000000000E+00 -0.00000000000E+00 -0.18250000000E+03  0.18250000000E+03  0.00000000000E+00 0. -1.
        -11    1    1    2    0    0 -0.43641734029E+01  0.11670783990E+01  0.13441896914E+03  0.13449485992E+03  0.00000000000E+00 0. -1.
         11    1    1    2    0    0  0.37245974457E+01 -0.38109446679E+00 -0.18191750272E+03  0.18195602671E+03  0.00000000000E+00 0. -1.
        -15    1    1    2    0    0 -0.15168186827E+01  0.36505860473E+01  0.14408726479E+02  0.15046482817E+02  0.17770000000E+01 0. -1.
         15    1    1    2    0    0  0.21563946398E+01 -0.44365699795E+01  0.33089807104E+02  0.33502630557E+02  0.17770000000E+01 0.  1.
</event>
<event>
 6    1  0.1378789E-002  0.1834073E+03  0.7546771E-02  0.1067735E+00
        -11   -1    0    0    0    0  0.00000000000E+00  0.00000000000E+00  0.18250000000E+03  0.18250000000E+03  0.00000000000E+00 0.  1.
         11   -1    0    0    0    0 -0.00000000000E+00 -0.00000000000E+00 -0.18250000000E+03  0.18250000000E+03  0.00000000000E+00 0. -1.
        -11    1    1    2    0    0 -0.38125571543E+01 -0.36454522628E+01  0.71559877315E+02  0.71754030936E+02  0.00000000000E+00 0.  1.
         11    1    1    2    0    0  0.48180573472E+01 -0.80505026145E+01 -0.18135018459E+03  0.18159271384E+03  0.00000000000E+00 0. -1.
        -15    1    1    2    0    0  0.42252660648E+00  0.60081225995E+01  0.99344648354E+02  0.99542920147E+02  0.17770000000E+01 0.  1.
         15    1    1    2    0    0 -0.14280267993E+01  0.56878322779E+01  0.10445658917E+02  0.12110335081E+02  0.17770000000E+01 0. -1.
</event>
<event>
 6    1  0.1378789E-002  0.1842124E+03  0.7546771E-02  0.1067100E+00
        -11   -1    0    0    0    0  0.00000000000E+00  0.00000000000E+00  0.18250000000E+03  0.18250000000E+03  0.00000000000E+00 0. -1.
         11   -1    0    0    0    0 -0.00000000000E+00 -0.00000000000E+00 -0.18250000000E+03  0.18250000000E+03  0.00000000000E+00 0.  1.
        -11    1    1    2    0    0 -0.44469619203E+01 -0.12051649983E+01  0.12864783112E+03  0.12873030857E+03  0.00000000000E+00 0. -1.
         11    1    1    2    0    0 -0.19054472108E+01  0.23396465128E+01 -0.18076246304E+03  0.18078764537E+03  0.00000000000E+00 0.  1.
        -15    1    1    2    0    0 -0.74439431257E+00  0.34448409443E+01  0.16389080344E+01  0.42737337972E+01  0.17770000000E+01 0. -1.
         15    1    1    2    0    0  0.70968034437E+01 -0.45793224588E+01  0.50475723890E+02  0.51208312260E+02  0.17770000000E+01 0.  1.
</event>
<event>
 6    1  0.1378789E-002  0.1718612E+03  0.7546771E-02  0.1077254E+00
        -11   -1    0    0    0    0  0.00000000000E+00  0.00000000000E+00  0.18250000000E+03  0.18250000000E+03  0.00000000000E+00 0. -1.
         11   -1    0    0    0    0 -0.00000000000E+00 -0.00000000000E+00 -0.18250000000E+03  0.18250000000E+03  0.00000000000E+00 0. -1.
        -11    1    1    2    0    0 -0.13562468915E+00 -0.10542560167E+02  0.17281620748E+03  0.17313753359E+03  0.00000000000E+00 0. -1.
         11    1    1    2    0    0 -0.72453819004E+01 -0.54328112347E+00 -0.17069466943E+03  0.17084923437E+03  0.00000000000E+00 0. -1.
        -15    1    1    2    0    0 -0.22194421353E+01  0.76917373981E+01  0.38677753179E+01  0.90667614121E+01  0.17770000000E+01 0.  1.
         15    1    1    2    0    0  0.96004487249E+01  0.33941038924E+01 -0.59893133646E+01  0.11946470631E+02  0.17770000000E+01 0. -1.
</event>
<event>
 6    1  0.1378789E-002  0.1869913E+03  0.7546771E-02  0.1064935E+00
        -11   -1    0    0    0    0  0.00000000000E+00  0.00000000000E+00  0.18250000000E+03  0.18250000000E+03  0.00000000000E+00 0.  1.
         11   -1    0    0    0    0 -0.00000000000E+00 -0.00000000000E+00 -0.18250000000E+03  0.18250000000E+03  0.00000000000E+00 0.  1.
        -11    1    1    2    0    0  0.51177777596E+01  0.26112336533E+01  0.15635758052E+03  0.15646310484E+03  0.00000000000E+00 0.  1.
         11    1    1    2    0    0  0.73324188322E+01 -0.96850747486E+01 -0.17759373898E+03  0.17800871092E+03  0.00000000000E+00 0.  1.
        -15    1    1    2    0    0 -0.14572295906E+01 -0.49666565479E+01  0.43751516603E+01  0.70064881642E+01  0.17770000000E+01 0. -1.
         15    1    1    2    0    0 -0.10992967001E+02  0.12040497643E+02  0.16861006797E+02  0.23521696074E+02  0.17770000000E+01 0. -1.
</event>
<event>
 6    1  0.1378789E-002  0.1795780E+03  0.7546771E-02  0.1070805E+00
        -11   -1    0    0    0    0  0.00000000000E+00  0.00000000000E+00  0.18250000000E+03  0.18250000000E+03  0.00000000000E+00 0.  1.
         11   -1    0    0    0    0 -0.00000000000E+00 -0.00000000000E+00 -0.18250000000E+03  0.18250000000E+03  0.00000000000E+00 0.  1.
        -11    1    1    2    0    0 -0.85011071807E+00 -0.28351024842E+01  0.17984026154E+03  0.17986461621E+03  0.00000000000E+00 0.  1.
         11    1    1    2    0    0  0.29624619711E+01  0.96558395073E+00 -0.17927582993E+03  0.17930290497E+03  0.00000000000E+00 0.  1.
        -15    1    1    2    0    0 -0.10072810708E+01  0.25926573936E+01 -0.12271995354E+01  0.35213967706E+01  0.17770000000E+01 0. -1.
         15    1    1    2    0    0 -0.11050701822E+01 -0.72313886011E+00  0.66276793131E+00  0.23110820516E+01  0.17770000000E+01 0.  1.
</event>
<event>
 6    1  0.1378789E-002  0.1832026E+03  0.7546771E-02  0.1067897E+00
        -11   -1    0    0    0    0  0.00000000000E+00  0.00000000000E+00  0.18250000000E+03  0.18250000000E+03  0.00000000000E+00 0. -1.
         11   -1    0    0    0    0 -0.00000000000E+00 -0.00000000000E+00 -0.18250000000E+03  0.18250000000E+03  0.00000000000E+00 0. -1.
        -11    1    1    2    0    0  0.31906595806E+01  0.15236361643E+01  0.18176300639E+03  0.18179739345E+03  0.00000000000E+00 0. -1.
         11    1    1    2    0    0 -0.44017053875E+01 -0.50066859701E+01 -0.13334426181E+03  0.13351080134E+03  0.00000000000E+00 0. -1.
        -15    1    1    2    0    0 -0.43933751975E+01  0.15104230870E+01 -0.21345206448E+02  0.21917086732E+02  0.17770000000E+01 0. -1.
         15    1    1    2    0    0  0.56044210043E+01  0.19726267188E+01 -0.27073538125E+02  0.27774718479E+02  0.17770000000E+01 0.  1.
</event>
<event>
 6    1  0.1378789E-002  0.1827258E+03  0.7546771E-02  0.1068275E+00
        -11   -1    0    0    0    0  0.00000000000E+00  0.00000000000E+00  0.18250000000E+03  0.18250000000E+03  0.00000000000E+00 0.  1.
         11   -1    0    0    0    0 -0.00000000000E+00 -0.00000000000E+00 -0.18250000000E+03  0.18250000000E+03  0.00000000000E+00 0. -1.
        -11    1    1    2    0    0 -0.21311041984E+01 -0.11703448427E+01  0.12497175272E+03  0.12499540107E+03  0.00000000000E+00 0.  1.
         11    1    1    2    0    0  0.37987867120E+01 -0.20191620120E+01 -0.18222346542E+03  0.18227424159E+03  0.00000000000E+00 0. -1.
        -15    1    1    2    0    0 -0.14383670904E+01  0.37455321073E+01  0.51361314750E+02  0.51548426673E+02  0.17770000000E+01 0.  1.
         15    1    1    2    0    0 -0.22931542320E+00 -0.55602525264E+00  0.58903979580E+01  0.61819306651E+01  0.17770000000E+01 0.  1.
</event>
<event>
 6    1  0.1378789E-002  0.1899033E+03  0.7546771E-02  0.1062710E+00
        -11   -1    0    0    0    0  0.00000000000E+00  0.00000000000E+00  0.18250000000E+03  0.18250000000E+03  0.00000000000E+00 0. -1.
         11   -1    0    0    0    0 -0.00000000000E+00 -0.00000000000E+00 -0.18250000000E+03  0.18250000000E+03  0.00000000000E+00 0.  1.
        -11    1    1    2    0    0  0.17759836678E+01  0.30756178883E+01  0.17506066547E+03  0.17509668797E+03  0.00000000000E+00 0. -1.
         11    1    1    2    0    0  0.77959689912E+00 -0.29350743697E+01 -0.16187482992E+03  0.16190331372E+03  0.00000000000E+00 0.  1.
        -15    1    1    2    0    0 -0.19397658242E+01 -0.32174425706E+01  0.66484521127E+01  0.78405530827E+01  0.17770000000E+01 0.  1.
         15    1    1    2    0    0 -0.61581474270E+00  0.30768990520E+01 -0.19834287666E+02  0.20159445225E+02  0.17770000000E+01 0.  1.
</event>
<event>
 6    1  0.1378789E-002  0.1871138E+03  0.7546771E-02  0.1064840E+00
        -11   -1    0    0    0    0  0.00000000000E+00  0.00000000000E+00  0.18250000000E+03  0.18250000000E+03  0.00000000000E+00 0. -1.
         11   -1    0    0    0    0 -0.00000000000E+00 -0.00000000000E+00 -0.18250000000E+03  0.18250000000E+03  0.00000000000E+00 0. -1.
        -11    1    1    2    0    0  0.29399957020E+01  0.11221288013E+02  0.17750756426E+03  0.17788618904E+03  0.00000000000E+00 0. -1.
         11    1    1    2    0    0 -0.33406693737E+01 -0.10104511623E+02 -0.14561672558E+03  0.14600510949E+03  0.00000000000E+00 0. -1.
        -15    1    1    2    0    0  0.48874914604E+01  0.10783229201E+02 -0.94442083593E+01  0.15248488624E+02  0.17770000000E+01 0. -1.
         15    1    1    2    0    0 -0.44868177886E+01 -0.11900005592E+02 -0.22446630323E+02  0.25860212853E+02  0.17770000000E+01 0.  1.
</event>
<event>
 6    1  0.1378789E-002  0.1832312E+03  0.7546771E-02  0.1067874E+00
        -11   -1    0    0    0    0  0.00000000000E+00  0.00000000000E+00  0.18250000000E+03  0.18250000000E+03  0.00000000000E+00 0. -1.
         11   -1    0    0    0    0 -0.00000000000E+00 -0.00000000000E+00 -0.18250000000E+03  0.18250000000E+03  0.00000000000E+00 0.  1.
        -11    1    1    2    0    0 -0.34908373524E+01 -0.62001924480E+00  0.11399795419E+03  0.11405307506E+03  0.00000000000E+00 0. -1.
         11    1    1    2    0    0 -0.49475713621E+01 -0.29006681214E+01 -0.18167830575E+03  0.18176880678E+03  0.00000000000E+00 0.  1.
        -15    1    1    2    0    0  0.63787001568E+01  0.40965735629E+01  0.20707209321E+02  0.22122747964E+02  0.17770000000E+01 0. -1.
         15    1    1    2    0    0  0.20597085577E+01 -0.57588619672E+00  0.46973142234E+02  0.47055370199E+02  0.17770000000E+01 0.  1.
</event>
<event>
 6    1  0.1378789E-002  0.1828839E+03  0.7546771E-02  0.1068150E+00
        -11   -1    0    0    0    0  0.00000000000E+00  0.00000000000E+00  0.18250000000E+03  0.18250000000E+03  0.00000000000E+00 0.  1.
         11   -1    0    0    0    0 -0.00000000000E+00 -0.00000000000E+00 -0.18250000000E+03  0.18250000000E+03  0.00000000000E+00 0. -1.
        -11    1    1    2    0    0  0.23691986150E+01  0.47473045634E+01  0.18203876416E+03  0.18211606646E+03  0.00000000000E+00 0.  1.
         11    1    1    2    0    0  0.18682656144E+01 -0.50705374606E-01 -0.34124859583E+02  0.34176000775E+02  0.00000000000E+00 0. -1.
        -15    1    1    2    0    0  0.25402968379E+01  0.26607851247E+01 -0.72184309753E+02  0.72299828416E+02  0.17770000000E+01 0. -1.
         15    1    1    2    0    0 -0.67777610673E+01 -0.73573843135E+01 -0.75729594829E+02  0.76408104354E+02  0.17770000000E+01 0.  1.
</event>
<event>
 6    1  0.1378789E-002  0.1938641E+03  0.7546771E-02  0.1059752E+00
        -11   -1    0    0    0    0  0.00000000000E+00  0.00000000000E+00  0.18250000000E+03  0.18250000000E+03  0.00000000000E+00 0.  1.
         11   -1    0    0    0    0 -0.00000000000E+00 -0.00000000000E+00 -0.18250000000E+03  0.18250000000E+03  0.00000000000E+00 0.  1.
        -11    1    1    2    0    0 -0.24207058526E+01  0.37777888871E+01  0.17107707134E+03  0.17113589876E+03  0.00000000000E+00 0.  1.
         11    1    1    2    0    0  0.23880155427E+01 -0.11476001096E+00 -0.16213353601E+03  0.16215116184E+03  0.00000000000E+00 0.  1.
        -15    1    1    2    0    0  0.12392474389E+01 -0.46475338374E+01 -0.19876661085E+02  0.20527413132E+02  0.17770000000E+01 0.  1.
         15    1    1    2    0    0 -0.12065571289E+01  0.98450496123E+00  0.10933125755E+02  0.11185526269E+02  0.17770000000E+01 0. -1.
</event>
<event>
 6    1  0.1378789E-002  0.1839048E+03  0.7546771E-02  0.1067342E+00
        -11   -1    0    0    0    0  0.00000000000E+00  0.00000000000E+00  0.18250000000E+03  0.18250000000E+03  0.00000000000E+00 0.  1.
         11   -1    0    0    0    0 -0.00000000000E+00 -0.00000000000E+00 -0.18250000000E+03  0.18250000000E+03  0.00000000000E+00 0. -1.
        -11    1    1    2    0    0 -0.20215450671E+01 -0.33178019057E+01  0.18105351321E+03  0.18109519347E+03  0.00000000000E+00 0.  1.
         11    1    1    2    0    0 -0.66320690675E+00 -0.33665594148E+01 -0.14192275558E+03  0.14196422830E+03  0.00000000000E+00 0. -1.
        -15    1    1    2    0    0 -0.32003270146E+00  0.20929152809E+01 -0.34316365293E+02  0.34427508932E+02  0.17770000000E+01 0. -1.
         15    1    1    2    0    0  0.30047846753E+01  0.45914460396E+01 -0.48143923320E+01  0.75130692933E+01  0.17770000000E+01 0. -1.
</event>
<event>
 6    1  0.1378789E-002  0.1835702E+03  0.7546771E-02  0.1067606E+00
        -11   -1    0    0    0    0  0.00000000000E+00  0.00000000000E+00  0.18250000000E+03  0.18250000000E+03  0.00000000000E+00 0.  1.
         11   -1    0    0    0    0 -0.00000000000E+00 -0.00000000000E+00 -0.18250000000E+03  0.18250000000E+03  0.00000000000E+00 0.  1.
        -11    1    1    2    0    0 -0.32067560213E+01 -0.57019481919E+01  0.13310677927E+03  0.13326743857E+03  0.00000000000E+00 0.  1.
         11    1    1    2    0    0 -0.34536866543E+01 -0.10687156103E+01 -0.18139376541E+03  0.18142978872E+03  0.00000000000E+00 0.  1.
        -15    1    1    2    0    0  0.90691728943E+01  0.45383546337E+01  0.33151608636E+02  0.34713591631E+02  0.17770000000E+01 0. -1.
         15    1    1    2    0    0 -0.24087302188E+01  0.22323091685E+01  0.15135377505E+02  0.15589181079E+02  0.17770000000E+01 0.  1.
</event>
<event>
 6    1  0.1378789E-002  0.1888741E+03  0.7546771E-02  0.1063491E+00
        -11   -1    0    0    0    0  0.00000000000E+00  0.00000000000E+00  0.18250000000E+03  0.18250000000E+03  0.00000000000E+00 0. -1.
         11   -1    0    0    0    0 -0.00000000000E+00 -0.00000000000E+00 -0.18250000000E+03  0.18250000000E+03  0.00000000000E+00 0. -1.
        -11    1    1    2    0    0 -0.54548874316E+00  0.33011779152E+01  0.17609411598E+03  0.17612590104E+03  0.00000000000E+00 0. -1.
         11    1    1    2    0    0  0.84813975074E+00 -0.97211508721E+01 -0.13733837371E+03  0.13768459975E+03  0.00000000000E+00 0. -1.
        -15    1    1    2    0    0 -0.23901578684E+01  0.98250648145E+01  0.17791282740E+01  0.10419586348E+02  0.17770000000E+01 0. -1.
         15    1    1    2    0    0  0.20875068608E+01 -0.34050918576E+01 -0.40534870543E+02  0.40769912857E+02  0.17770000000E+01 0.  1.
</event>
<event>
 6    1  0.1378789E-002  0.1746754E+03  0.7546771E-02  0.1074860E+00
        -11   -1    0    0    0    0  0.00000000000E+00  0.00000000000E+00  0.18250000000E+03  0.18250000000E+03  0.00000000000E+00 0. -1.
         11   -1    0    0    0    0 -0.00000000000E+00 -0.00000000000E+00 -0.18250000000E+03  0.18250000000E+03  0.00000000000E+00 0.  1.
        -11    1    1    2    0    0  0.27200510508E+01 -0.42414877823E+01  0.17698055990E+03  0.17705227330E+03  0.00000000000E+00 0. -1.
         11    1    1    2    0    0  0.78053356673E+00 -0.34677743385E+01 -0.17239451122E+03  0.17243115203E+03  0.00000000000E+00 0.  1.
        -15    1    1    2    0    0 -0.45361634981E+00 -0.84187635161E+00  0.29576180754E+01  0.35804688609E+01  0.17770000000E+01 0.  1.
         15    1    1    2    0    0 -0.30469682677E+01  0.85511384724E+01 -0.75436667546E+01  0.11936105810E+02  0.17770000000E+01 0. -1.
</event>
<event>
 6    1  0.1378789E-002  0.1832770E+03  0.7546771E-02  0.1067838E+00
        -11   -1    0    0    0    0  0.00000000000E+00  0.00000000000E+00  0.18250000000E+03  0.18250000000E+03  0.00000000000E+00 0.  1.
         11   -1    0    0    0    0 -0.00000000000E+00 -0.00000000000E+00 -0.18250000000E+03  0.18250000000E+03  0.00000000000E+00 0. -1.
        -11    1    1    2    0    0  0.38458690233E+01  0.58214837893E+01  0.18158905141E+03  0.18172304195E+03  0.00000000000E+00 0.  1.
         11    1    1    2    0    0 -0.22217863460E+00  0.97175607276E+00 -0.58330653282E+02  0.58339170251E+02  0.00000000000E+00 0. -1.
        -15    1    1    2    0    0 -0.23869460427E+00 -0.21717856383E+01 -0.11314193751E+03  0.11317698255E+03  0.17770000000E+01 0. -1.
         15    1    1    2    0    0 -0.33849957844E+01 -0.46214542237E+01 -0.10116460620E+02  0.11760805248E+02  0.17770000000E+01 0. -1.
</event>
<event>
 6    1  0.1378789E-002  0.1954235E+03  0.7546771E-02  0.1058609E+00
        -11   -1    0    0    0    0  0.00000000000E+00  0.00000000000E+00  0.18250000000E+03  0.18250000000E+03  0.00000000000E+00 0. -1.
         11   -1    0    0    0    0 -0.00000000000E+00 -0.00000000000E+00 -0.18250000000E+03  0.18250000000E+03  0.00000000000E+00 0.  1.
        -11    1    1    2    0    0  0.16822172727E+01 -0.51964343425E+01  0.12490714139E+03  0.12502650421E+03  0.00000000000E+00 0. -1.
         11    1    1    2    0    0 -0.18659158814E+01 -0.12886418493E+02 -0.16907581966E+03  0.16957645537E+03  0.00000000000E+00 0.  1.
        -15    1    1    2    0    0 -0.35812801468E+01 -0.73465439405E+01 -0.83991815690E+01  0.11853322546E+02  0.17770000000E+01 0.  1.
         15    1    1    2    0    0  0.37649787555E+01  0.25429396776E+02  0.52567859835E+02  0.58543717870E+02  0.17770000000E+01 0. -1.
</event>
<event>
 6    1  0.1378789E-002  0.1798397E+03  0.7546771E-02  0.1070592E+00
        -11   -1    0    0    0    0  0.00000000000E+00  0.00000000000E+00  0.18250000000E+03  0.18250000000E+03  0.00000000000E+00 0. -1.
         11   -1    0    0    0    0 -0.00000000000E+00 -0.00000000000E+00 -0.18250000000E+03  0.18250000000E+03  0.00000000000E+00 0.  1.
        -11    1    1    2    0    0 -0.18830469793E+01  0.31143127618E+01  0.18049071303E+03  0.18052740042E+03  0.00000000000E+00 0. -1.
         11    1    1    2    0    0 -0.52199724903E+00 -0.25247035704E+01 -0.17914457604E+03  0.17916312604E+03  0.00000000000E+00 0.  1.
        -15    1    1    2    0    0  0.18912998613E+01 -0.98663272331E+00  0.31192587857E+00  0.27938299966E+01  0.17770000000E+01 0. -1.
         15    1    1    2    0    0  0.51374436704E+00  0.39702353194E+00 -0.16580628710E+01  0.25156435447E+01  0.17770000000E+01 0.  1.
</event>
<event>
 6    1  0.1378789E-002  0.1827146E+03  0.7546771E-02  0.1068284E+00
        -11   -1    0    0    0    0  0.00000000000E+00  0.00000000000E+00  0.18250000000E+03  0.18250000000E+03  0.00000000000E+00 0. -1.
         11   -1    0    0    0    0 -0.00000000000E+00 -0.00000000000E+00 -0.18250000000E+03  0.18250000000E+03  0.00000000000E+00 0. -1.
        -11    1    1    2    0    0 -0.12597356638E+01 -0.31335393749E+01  0.18225406531E+03  0.18228535411E+03  0.00000000000E+00 0. -1.
         11    1    1    2    0    0  0.56734215743E+00  0.30077126490E+01 -0.14714553775E+03  0.14717736745E+03  0.00000000000E+00 0. -1.
        -15    1    1    2    0    0  0.14656844039E+01  0.16983102097E+01 -0.14633952217E+02  0.14911162759E+02  0.17770000000E+01 0.  1.
         15    1    1    2    0    0 -0.77329089749E+00 -0.15724834838E+01 -0.20474575346E+02  0.20626115672E+02  0.17770000000E+01 0.  1.
</event>
<event>
 6    1  0.1378789E-002  0.1825807E+03  0.7546771E-02  0.1068391E+00
        -11   -1    0    0    0    0  0.00000000000E+00  0.00000000000E+00  0.18250000000E+03  0.18250000000E+03  0.00000000000E+00 0. -1.
         11   -1    0    0    0    0 -0.00000000000E+00 -0.00000000000E+00 -0.18250000000E+03  0.18250000000E+03  0.00000000000E+00 0. -1.
        -11    1    1    2    0    0  0.40538033443E+00  0.27114054310E+01  0.18239869761E+03  0.18241929981E+03  0.00000000000E+00 0. -1.
         11    1    1    2    0    0  0.63617753025E+00 -0.20069800251E+01 -0.89370782511E+02  0.89395578511E+02  0.00000000000E+00 0. -1.
        -15    1    1    2    0    0  0.83639987898E+00 -0.13337797166E+01 -0.61250552503E+02  0.61296545123E+02  0.17770000000E+01 0. -1.
         15    1    1    2    0    0 -0.18779577437E+01  0.62935431069E+00 -0.31777362598E+02  0.31888576556E+02  0.17770000000E+01 0.  1.
</event>
<event>
 6    1  0.1378789E-002  0.1827472E+03  0.7546771E-02  0.1068258E+00
        -11   -1    0    0    0    0  0.00000000000E+00  0.00000000000E+00  0.18250000000E+03  0.18250000000E+03  0.00000000000E+00 0. -1.
         11   -1    0    0    0    0 -0.00000000000E+00 -0.00000000000E+00 -0.18250000000E+03  0.18250000000E+03  0.00000000000E+00 0. -1.
        -11    1    1    2    0    0 -0.22721179310E+01  0.53114245243E+00  0.70816833577E+02  0.70855264801E+02  0.00000000000E+00 0. -1.
         11    1    1    2    0    0 -0.31732100400E+01  0.17612770461E-01 -0.18222519435E+03  0.18225282173E+03  0.00000000000E+00 0. -1.
        -15    1    1    2    0    0  0.11121438698E+01  0.14461895990E+00  0.56575979154E+01  0.60352234261E+01  0.17770000000E+01 0.  1.
         15    1    1    2    0    0  0.43331841013E+01 -0.69337418280E+00  0.10575076286E+03  0.10585669004E+03  0.17770000000E+01 0. -1.
</event>
<event>
 6    1  0.1378789E-002  0.1829771E+03  0.7546771E-02  0.1068076E+00
        -11   -1    0    0    0    0  0.00000000000E+00  0.00000000000E+00  0.18250000000E+03  0.18250000000E+03  0.00000000000E+00 0. -1.
         11   -1    0    0    0    0 -0.00000000000E+00 -0.00000000000E+00 -0.18250000000E+03  0.18250000000E+03  0.00000000000E+00 0.  1.
        -11    1    1    2    0    0 -0.61787911628E+00  0.32106362063E+01  0.18199351116E+03  0.18202287786E+03  0.00000000000E+00 0. -1.
         11    1    1    2    0    0 -0.13693060869E+01  0.16436345960E+00 -0.51631379987E+02  0.51649795875E+02  0.00000000000E+00 0.  1.
        -15    1    1    2    0    0  0.30192692819E+01 -0.91060464423E+01 -0.75232463620E+02  0.75862489942E+02  0.17770000000E+01 0.  1.
         15    1    1    2    0    0 -0.10320840787E+01  0.57310467764E+01 -0.55129667555E+02  0.55464836323E+02  0.17770000000E+01 0.  1.
</event>
<event>
 6    1  0.1378789E-002  0.1842782E+03  0.7546771E-02  0.1067048E+00
        -11   -1    0    0    0    0  0.00000000000E+00  0.00000000000E+00  0.18250000000E+03  0.18250000000E+03  0.00000000000E+00 0.  1.
         11   -1    0    0    0    0 -0.00000000000E+00 -0.00000000000E+00 -0.18250000000E+03  0.18250000000E+03  0.00000000000E+00 0.  1.
        -11    1    1    2    0    0  0.21830731479E+01  0.11560317087E+01  0.18070489911E+03  0.18072178281E+03  0.00000000000E+00 0.  1.
         11    1    1    2    0    0  0.44594921548E+01 -0.15945410351E+01 -0.15754096366E+03  0.15761213425E+03  0.00000000000E+00 0.  1.
        -15    1    1    2    0    0 -0.26425055391E+01 -0.95085558508E+00 -0.29028687332E+00  0.33360091932E+01  0.17770000000E+01 0.  1.
         15    1    1    2    0    0 -0.40000597635E+01  0.13893649115E+01 -0.22873648577E+02  0.23330073751E+02  0.17770000000E+01 0.  1.
</event>
<event>
 6    1  0.2586992E-002  0.1826332E+03  0.7546771E-02  0.1068349E+00
        -11   -1    0    0    0    0  0.00000000000E+00  0.00000000000E+00  0.18250000000E+03  0.18250000000E+03  0.00000000000E+00 0. -1.
         11   -1    0    0    0    0 -0.00000000000E+00 -0.00000000000E+00 -0.18250000000E+03  0.18250000000E+03  0.00000000000E+00 0.  1.
        -11    1    1    2    0    0  0.23794043223E+01  0.11763659001E+01  0.18234745910E+03  0.18236677670E+03  0.00000000000E+00 0. -1.
         11    1    1    2    0    0  0.78180215729E+00 -0.15396439247E+00 -0.58237356752E+02  0.58242807634E+02  0.00000000000E+00 0.  1.
        -15    1    1    2    0    0  0.18367560795E+01 -0.14128193471E+01 -0.34935141197E+02  0.35056975780E+02  0.17770000000E+01 0.  1.
         15    1    1    2    0    0 -0.49979625591E+01  0.39041783948E+00 -0.89174961156E+02  0.89333439887E+02  0.17770000000E+01 0. -1.
</event>
<event>
 6    1  0.1378789E-002  0.1829857E+03  0.7546771E-02  0.1068069E+00
        -11   -1    0    0    0    0  0.00000000000E+00  0.00000000000E+00  0.18250000000E+03  0.18250000000E+03  0.00000000000E+00 0. -1.
         11   -1    0    0    0    0 -0.00000000000E+00 -0.00000000000E+00 -0.18250000000E+03  0.18250000000E+03  0.00000000000E+00 0.  1.
        -11    1    1    2    0    0  0.20749178592E+01 -0.73267017415E+01  0.18185494874E+03  0.18201430774E+03  0.00000000000E+00 0. -1.
         11    1    1    2    0    0 -0.38414816521E+01 -0.15541182687E+01 -0.65293738248E+02  0.65425106185E+02  0.00000000000E+00 0.  1.
        -15    1    1    2    0    0 -0.28136746893E+01  0.58220999650E+01 -0.27285895808E+02  0.28097890531E+02  0.17770000000E+01 0. -1.
         15    1    1    2    0    0  0.45802384822E+01  0.30587200452E+01 -0.89275314682E+02  0.89462695541E+02  0.17770000000E+01 0.  1.
</event>
<event>
 6    1  0.1378789E-002  0.1833475E+03  0.7546771E-02  0.1067782E+00
        -11   -1    0    0    0    0  0.00000000000E+00  0.00000000000E+00  0.18250000000E+03  0.18250000000E+03  0.00000000000E+00 0.  1.
         11   -1    0    0    0    0 -0.00000000000E+00 -0.00000000000E+00 -0.18250000000E+03  0.18250000000E+03  0.00000000000E+00 0. -1.
        -11    1    1    2    0    0 -0.43943514490E+01  0.20296912996E+01  0.90902206061E+02  0.91030989439E+02  0.00000000000E+00 0.  1.
         11    1    1    2    0    0 -0.56847262810E+01 -0.18705622254E+01 -0.18155393203E+03  0.18165254017E+03  0.00000000000E+00 0. -1.
        -15    1    1    2    0    0  0.30096141259E+01  0.26753675482E+01  0.67961885430E+01  0.80969918128E+01  0.17770000000E+01 0. -1.
         15    1    1    2    0    0  0.70694636041E+01 -0.28344966223E+01  0.83855537422E+02  0.84219478579E+02  0.17770000000E+01 0.  1.
</event>
<event>
 6    1  0.1378789E-002  0.1841081E+03  0.7546771E-02  0.1067182E+00
        -11   -1    0    0    0    0  0.00000000000E+00  0.00000000000E+00  0.18250000000E+03  0.18250000000E+03  0.00000000000E+00 0.  1.
         11   -1    0    0    0    0 -0.00000000000E+00 -0.00000000000E+00 -0.18250000000E+03  0.18250000000E+03  0.00000000000E+00 0.  1.
        -11    1    1    2    0    0 -0.47052082469E+00 -0.39060770910E+01  0.18084909540E+03  0.18089188521E+03  0.00000000000E+00 0.  1.
         11    1    1    2    0    0 -0.71267654449E+01 -0.63672346637E+01 -0.14712022753E+03  0.14743030153E+03  0.00000000000E+00 0.  1.
        -15    1    1    2    0    0  0.16320319960E+01  0.39444127683E+01 -0.18324402263E+02  0.18898766304E+02  0.17770000000E+01 0.  1.
         15    1    1    2    0    0  0.59652542736E+01  0.63288989864E+01 -0.15404465608E+02  0.17779046954E+02  0.17770000000E+01 0. -1.
</event>
<event>
 6    1  0.1378789E-002  0.1847038E+03  0.7546771E-02  0.1066714E+00
        -11   -1    0    0    0    0  0.00000000000E+00  0.00000000000E+00  0.18250000000E+03  0.18250000000E+03  0.00000000000E+00 0.  1.
         11   -1    0    0    0    0 -0.00000000000E+00 -0.00000000000E+00 -0.18250000000E+03  0.18250000000E+03  0.00000000000E+00 0.  1.
        -11    1    1    2    0    0  0.38071964654E+01  0.13828970365E+01  0.70903549173E+02  0.71019155405E+02  0.00000000000E+00 0.  1.
         11    1    1    2    0    0  0.88634928442E+00 -0.38702049145E+01 -0.18025250725E+03  0.18029622977E+03  0.00000000000E+00 0.  1.
        -15    1    1    2    0    0 -0.32980307589E+01  0.50627912712E+01  0.24927683932E+01  0.67735135347E+01  0.17770000000E+01 0. -1.
         15    1    1    2    0    0 -0.13955149909E+01 -0.25754833931E+01  0.10685618968E+03  0.10691110129E+03  0.17770000000E+01 0. -1.
</event>
<event>
 6    1  0.1378789E-002  0.1835531E+03  0.7546771E-02  0.1067620E+00
        -11   -1    0    0    0    0  0.00000000000E+00  0.00000000000E+00  0.18250000000E+03  0.18250000000E+03  0.00000000000E+00 0. -1.
         11   -1    0    0    0    0 -0.00000000000E+00 -0.00000000000E+00 -0.18250000000E+03  0.18250000000E+03  0.00000000000E+00 0.  1.
        -11    1    1    2    0    0 -0.42331116444E+01 -0.61804389231E+00  0.14658274069E+03  0.14664515362E+03  0.00000000000E+00 0. -1.
         11    1    1    2    0    0 -0.39287065350E+01  0.24455190148E+01 -0.18138788887E+03  0.18144691105E+03  0.00000000000E+00 0.  1.
        -15    1    1    2    0    0  0.30396755073E+00 -0.35530766847E+01  0.97396318501E+01  0.10523065512E+02  0.17770000000E+01 0.  1.
         15    1    1    2    0    0  0.78578506287E+01  0.17256015622E+01  0.25065516336E+02  0.26384869820E+02  0.17770000000E+01 0. -1.
</event>
<event>
 6    1  0.1378789E-002  0.1975337E+03  0.7546771E-02  0.1057080E+00
        -11   -1    0    0    0    0  0.00000000000E+00  0.00000000000E+00  0.18250000000E+03  0.18250000000E+03  0.00000000000E+00 0.  1.
         11   -1    0    0    0    0 -0.00000000000E+00 -0.00000000000E+00 -0.18250000000E+03  0.18250000000E+03  0.00000000000E+00 0.  1.
        -11    1    1    2    0    0 -0.80522272258E+01  0.19389367080E+01  0.16726133064E+03  0.16746626695E+03  0.00000000000E+00 0.  1.
         11    1    1    2    0    0 -0.16917392550E+01  0.33463073358E+00 -0.10606775816E+03  0.10608177639E+03  0.00000000000E+00 0.  1.
        -15    1    1    2    0    0  0.93292804997E+01 -0.10161064014E+01 -0.75940838356E+02  0.76539118143E+02  0.17770000000E+01 0.  1.
         15    1    1    2    0    0  0.41468598115E+00 -0.12574610402E+01  0.14747265879E+02  0.14912838518E+02  0.17770000000E+01 0. -1.
</event>
<event>
 6    1  0.1378789E-002  0.1843705E+03  0.7546771E-02  0.1066976E+00
        -11   -1    0    0    0    0  0.00000000000E+00  0.00000000000E+00  0.18250000000E+03  0.18250000000E+03  0.00000000000E+00 0.  1.
         11   -1    0    0    0    0 -0.00000000000E+00 -0.00000000000E+00 -0.18250000000E+03  0.18250000000E+03  0.00000000000E+00 0.  1.
        -11    1    1    2    0    0  0.30526927873E+01  0.21714831412E-01  0.16644255782E+03  0.16647055132E+03  0.00000000000E+00 0.  1.
         11    1    1    2    0    0  0.36372713557E+01  0.14059381976E+01 -0.18058738171E+03  0.18062947943E+03  0.00000000000E+00 0.  1.
        -15    1    1    2    0    0 -0.80268920454E+01 -0.52573328999E+00  0.12572410602E+02  0.15030988947E+02  0.17770000000E+01 0.  1.
         15    1    1    2    0    0  0.13369279025E+01 -0.90191973899E+00  0.15724132896E+01  0.28689803041E+01  0.17770000000E+01 0.  1.
</event>
<event>
 6    1  0.1378789E-002  0.1914068E+03  0.7546771E-02  0.1061578E+00
        -11   -1    0    0    0    0  0.00000000000E+00  0.00000000000E+00  0.18250000000E+03  0.18250000000E+03  0.00000000000E+00 0. -1.
         11   -1    0    0    0    0 -0.00000000000E+00 -0.00000000000E+00 -0.18250000000E+03  0.18250000000E+03  0.00000000000E+00 0.  1.
        -11    1    1    2    0    0 -0.10901129970E+01 -0.92177988895E+01  0.16668885947E+03  0.16694709352E+03  0.00000000000E+00 0. -1.
         11    1    1    2    0    0  0.57625026125E+01  0.10066438195E+01 -0.17349465616E+03  0.17359324723E+03  0.00000000000E+00 0.  1.
        -15    1    1    2    0    0 -0.21090655062E+01 -0.32928464384E+01 -0.57304338773E+01  0.71614660789E+01  0.17770000000E+01 0.  1.
         15    1    1    2    0    0 -0.25633241093E+01  0.11504001508E+02  0.12536230562E+02  0.17298193169E+02  0.17770000000E+01 0. -1.
</event>
<event>
 6    1  0.1378789E-002  0.1844609E+03  0.7546771E-02  0.1066905E+00
        -11   -1    0    0    0    0  0.00000000000E+00  0.00000000000E+00  0.18250000000E+03  0.18250000000E+03  0.00000000000E+00 0. -1.
         11   -1    0    0    0    0 -0.00000000000E+00 -0.00000000000E+00 -0.18250000000E+03  0.18250000000E+03  0.00000000000E+00 0.  1.
        -11    1    1    2    0    0  0.92371777935E+00 -0.32108290198E+01  0.18050821008E+03  0.18053912757E+03  0.00000000000E+00 0. -1.
         11    1    1    2    0    0 -0.15260227201E+01  0.20832190540E+01 -0.17599050833E+03  0.17600945306E+03  0.00000000000E+00 0.  1.
        -15    1    1    2    0    0 -0.74404475969E+00  0.30043044259E+01 -0.68073856270E+00  0.36332604750E+01  0.17770000000E+01 0.  1.
         15    1    1    2    0    0  0.13463497004E+01 -0.18766944602E+01 -0.38369631882E+01  0.48181588932E+01  0.17770000000E+01 0.  1.
</event>
<event>
 6    1  0.1671304E-002  0.1826467E+03  0.7546771E-02  0.1068338E+00
        -11   -1    0    0    0    0  0.00000000000E+00  0.00000000000E+00  0.18250000000E+03  0.18250000000E+03  0.00000000000E+00 0. -1.
         11   -1    0    0    0    0 -0.00000000000E+00 -0.00000000000E+00 -0.18250000000E+03  0.18250000000E+03  0.00000000000E+00 0.  1.
        -11    1    1    2    0    0  0.32944291593E+01 -0.21053719348E+00  0.18232337942E+03  0.18235326230E+03  0.00000000000E+00 0. -1.
         11    1    1    2    0    0 -0.82308649751E+00 -0.12636617672E+01 -0.11047844428E+03  0.11048873682E+03  0.00000000000E+00 0.  1.
        -15    1    1    2    0    0  0.10465803450E+01  0.18044866354E+01 -0.32107179614E+02  0.32223907494E+02  0.17770000000E+01 0.  1.
         15    1    1    2    0    0 -0.35179230069E+01 -0.33028767472E+00 -0.39737755518E+02  0.39934093390E+02  0.17770000000E+01 0.  1.
</event>
<event>
 6    1  0.1378789E-002  0.1795276E+03  0.7546771E-02  0.1070846E+00
        -11   -1    0    0    0    0  0.00000000000E+00  0.00000000000E+00  0.18250000000E+03  0.18250000000E+03  0.00000000000E+00 0. -1.
         11   -1    0    0    0    0 -0.00000000000E+00 -0.00000000000E+00 -0.18250000000E+03  0.18250000000E+03  0.00000000000E+00 0. -1.
        -11    1    1    2    0    0 -0.17328325728E+01  0.21294190326E+01  0.17990724727E+03  0.17992819333E+03  0.00000000000E+00 0. -1.
         11    1    1    2    0    0  0.86885757748E-01 -0.27341542804E+01 -0.17911137014E+03  0.17913225857E+03  0.00000000000E+00 0. -1.
        -15    1    1    2    0    0  0.98263107952E+00  0.24817741648E+01 -0.61359000194E+00  0.32648106429E+01  0.17770000000E+01 0. -1.
         15    1    1    2    0    0  0.66331573557E+00 -0.18770389169E+01 -0.18228713013E+00  0.26747374560E+01  0.17770000000E+01 0.  1.
</event>
<event>
 6    1  0.1378789E-002  0.1976418E+03  0.7546771E-02  0.1057003E+00
        -11   -1    0    0    0    0  0.00000000000E+00  0.00000000000E+00  0.18250000000E+03  0.18250000000E+03  0.00000000000E+00 0. -1.
         11   -1    0    0    0    0 -0.00000000000E+00 -0.00000000000E+00 -0.18250000000E+03  0.18250000000E+03  0.00000000000E+00 0. -1.
        -11    1    1    2    0    0 -0.14872332010E+01  0.14286539261E+01  0.12084446942E+03  0.12086206479E+03  0.00000000000E+00 0. -1.
         11    1    1    2    0    0  0.35486954496E+01 -0.34974697806E+01 -0.16728405179E+03  0.16735823708E+03  0.00000000000E+00 0. -1.
        -15    1    1    2    0    0 -0.63683131283E+01 -0.22822961855E+02  0.45626081162E+02  0.51442589468E+02  0.17770000000E+01 0.  1.
         15    1    1    2    0    0  0.43068508797E+01  0.24891777710E+02  0.81350120713E+00  0.25337108660E+02  0.17770000000E+01 0. -1.
</event>
<event>
 6    1  0.1378789E-002  0.1840641E+03  0.7546771E-02  0.1067217E+00
        -11   -1    0    0    0    0  0.00000000000E+00  0.00000000000E+00  0.18250000000E+03  0.18250000000E+03  0.00000000000E+00 0. -1.
         11   -1    0    0    0    0 -0.00000000000E+00 -0.00000000000E+00 -0.18250000000E+03  0.18250000000E+03  0.00000000000E+00 0. -1.
        -11    1    1    2    0    0 -0.21280271247E+01  0.21910023427E+01  0.16805059625E+03  0.16807835045E+03  0.00000000000E+00 0. -1.
         11    1    1    2    0    0  0.18119601130E+00 -0.24815308669E+01 -0.18091880030E+03  0.18093590890E+03  0.00000000000E+00 0. -1.
        -15    1    1    2    0    0  0.10279807048E+01 -0.38584763526E+01  0.88619851762E+01  0.98811484331E+01  0.17770000000E+01 0. -1.
         15    1    1    2    0    0  0.91885040868E+00  0.41490048768E+01  0.40062188701E+01  0.61045922203E+01  0.17770000000E+01 0.  1.
</event>
<event>
 6    1  0.1378789E-002  0.2114023E+03  0.7546771E-02  0.1047525E+00
        -11   -1    0    0    0    0  0.00000000000E+00  0.00000000000E+00  0.18250000000E+03  0.18250000000E+03  0.00000000000E+00 0.  1.
         11   -1    0    0    0    0 -0.00000000000E+00 -0.00000000000E+00 -0.18250000000E+03  0.18250000000E+03  0.00000000000E+00 0. -1.
        -11    1    1    2    0    0  0.49297975711E+00 -0.38811976744E+01  0.15354788629E+03  0.15359772169E+03  0.00000000000E+00 0.  1.
         11    1    1    2    0    0  0.35736820921E+01  0.29218498779E+01 -0.14500584335E+03  0.14507929906E+03  0.00000000000E+00 0. -1.
        -15    1    1    2    0    0 -0.59244311196E+01 -0.50518675673E+01 -0.36626772650E+02  0.37487310570E+02  0.17770000000E+01 0.  1.
         15    1    1    2    0    0  0.18577692704E+01  0.60112153638E+01  0.28084729706E+02  0.28835668684E+02  0.17770000000E+01 0. -1.
</event>
<event>
 6    1  0.1378789E-002  0.1850892E+03  0.7546771E-02  0.1066412E+00
        -11   -1    0    0    0    0  0.00000000000E+00  0.00000000000E+00  0.18250000000E+03  0.18250000000E+03  0.00000000000E+00 0.  1.
         11   -1    0    0    0    0 -0.00000000000E+00 -0.00000000000E+00 -0.18250000000E+03  0.18250000000E+03  0.00000000000E+00 0. -1.
        -11    1    1    2    0    0  0.54181398613E+01 -0.35931633248E+01  0.51922637511E+02  0.52328074189E+02  0.00000000000E+00 0.  1.
         11    1    1    2    0    0 -0.10506822666E+02 -0.13140499568E+02 -0.17912237333E+03  0.17991078534E+03  0.00000000000E+00 0. -1.
        -15    1    1    2    0    0 -0.33978520723E+01  0.71460104704E+01  0.11399218551E+03  0.11428029992E+03  0.17770000000E+01 0. -1.
         15    1    1    2    0    0  0.84865348767E+01  0.95876524227E+01  0.13207550316E+02  0.18480840553E+02  0.17770000000E+01 0.  1.
</event>
<event>
 6    1  0.1378789E-002  0.1875084E+03  0.7546771E-02  0.1064537E+00
        -11   -1    0    0    0    0  0.00000000000E+00  0.00000000000E+00  0.18250000000E+03  0.18250000000E+03  0.00000000000E+00 0.  1.
         11   -1    0    0    0    0 -0.00000000000E+00 -0.00000000000E+00 -0.18250000000E+03  0.18250000000E+03  0.00000000000E+00 0.  1.
        -11    1    1    2    0    0 -0.16484222783E+00 -0.34203235437E+01  0.17745856214E+03  0.17749159716E+03  0.00000000000E+00 0.  1.
         11    1    1    2    0    0  0.14230601053E+01  0.11623996141E+02 -0.16706863056E+03  0.16747856491E+03  0.00000000000E+00 0.  1.
        -15    1    1    2    0    0  0.42220714607E+01 -0.94606514406E+01 -0.92966000064E+01  0.14032616070E+02  0.17770000000E+01 0. -1.
         15    1    1    2    0    0 -0.54802893382E+01  0.12569788430E+01 -0.10933315727E+01  0.59972218543E+01  0.17770000000E+01 0.  1.
</event>
<event>
 6    1  0.1378789E-002  0.1844760E+03  0.7546771E-02  0.1066893E+00
        -11   -1    0    0    0    0  0.00000000000E+00  0.00000000000E+00  0.18250000000E+03  0.18250000000E+03  0.00000000000E+00 0. -1.
         11   -1    0    0    0    0 -0.00000000000E+00 -0.00000000000E+00 -0.18250000000E+03  0.18250000000E+03  0.00000000000E+00 0. -1.
        -11    1    1    2    0    0 -0.31681801432E+01 -0.17127622976E+00  0.14568155740E+03  0.14571610367E+03  0.00000000000E+00 0. -1.
         11    1    1    2    0    0 -0.77607658616E+01 -0.97639264499E+00 -0.18035442422E+03  0.18052396286E+03  0.00000000000E+00 0. -1.
        -15    1    1    2    0    0  0.13274303941E+02 -0.74066159563E+00  0.30478561272E+02  0.33299491751E+02  0.17770000000E+01 0. -1.
         15    1    1    2    0    0 -0.23453579358E+01  0.18883304704E+01  0.41943055482E+01  0.54604417261E+01  0.17770000000E+01 0.  1.
</event>
<event>
 6    1  0.1378789E-002  0.1720612E+03  0.7546771E-02  0.1077082E+00
        -11   -1    0    0    0    0  0.00000000000E+00  0.00000000000E+00  0.18250000000E+03  0.18250000000E+03  0.00000000000E+00 0. -1.
         11   -1    0    0    0    0 -0.00000000000E+00 -0.00000000000E+00 -0.18250000000E+03  0.18250000000E+03  0.00000000000E+00 0.  1.
        -11    1    1    2    0    0  0.63278266328E+01 -0.55252071438E+01  0.17284790730E+03  0.17305192389E+03  0.00000000000E+00 0. -1.
         11    1    1    2    0    0 -0.18165210622E+01 -0.19640261497E+01 -0.17116476067E+03  0.17118566658E+03  0.00000000000E+00 0.  1.
        -15    1    1    2    0    0 -0.80049648705E+00 -0.19098146050E+01  0.68780911585E+01  0.73995981942E+01  0.17770000000E+01 0. -1.
         15    1    1    2    0    0 -0.37108090835E+01  0.93990478985E+01 -0.85612377869E+01  0.13362811340E+02  0.17770000000E+01 0.  1.
</event>
<event>
 6    1  0.1378789E-002  0.1825719E+03  0.7546771E-02  0.1068398E+00
        -11   -1    0    0    0    0  0.00000000000E+00  0.00000000000E+00  0.18250000000E+03  0.18250000000E+03  0.00000000000E+00 0. -1.
         11   -1    0    0    0    0 -0.00000000000E+00 -0.00000000000E+00 -0.18250000000E+03  0.18250000000E+03  0.00000000000E+00 0. -1.
        -11    1    1    2    0    0  0.47061706638E+00 -0.24308809963E+01  0.18241129409E+03  0.18242809782E+03  0.00000000000E+00 0. -1.
         11    1    1    2    0    0  0.30031597561E+00  0.86606717173E+00 -0.61849991883E+02  0.61856784252E+02  0.00000000000E+00 0. -1.
        -15    1    1    2    0    0 -0.26401263805E+01  0.91674808541E+00 -0.54715872825E+02  0.54816011916E+02  0.17770000000E+01 0.  1.
         15    1    1    2    0    0  0.18691933385E+01  0.64806573915E+00 -0.65845429385E+02  0.65899106009E+02  0.17770000000E+01 0. -1.
</event>
<event>
 6    1  0.1378789E-002  0.1845055E+03  0.7546771E-02  0.1066870E+00
        -11   -1    0    0    0    0  0.00000000000E+00  0.00000000000E+00  0.18250000000E+03  0.18250000000E+03  0.00000000000E+00 0.  1.
         11   -1    0    0    0    0 -0.00000000000E+00 -0.00000000000E+00 -0.18250000000E+03  0.18250000000E+03  0.00000000000E+00 0.  1.
        -11    1    1    2    0    0  0.50037628127E+00 -0.27193687252E+01  0.18047336320E+03  0.18049454332E+03  0.00000000000E+00 0.  1.
         11    1    1    2    0    0 -0.14835713952E+01 -0.11219296687E+01 -0.69082635401E+02  0.69107671240E+02  0.00000000000E+00 0.  1.
        -15    1    1    2    0    0 -0.10823736571E+01 -0.89670584969E+01 -0.11879419261E+02  0.15028572846E+02  0.17770000000E+01 0. -1.
         15    1    1    2    0    0  0.20655687709E+01  0.12808356891E+02 -0.99511308539E+02  0.10036921259E+03  0.17770000000E+01 0.  1.
</event>
<event>
 6    1  0.1378789E-002  0.1846428E+03  0.7546771E-02  0.1066762E+00
        -11   -1    0    0    0    0  0.00000000000E+00  0.00000000000E+00  0.18250000000E+03  0.18250000000E+03  0.00000000000E+00 0.  1.
         11   -1    0    0    0    0 -0.00000000000E+00 -0.00000000000E+00 -0.18250000000E+03  0.18250000000E+03  0.00000000000E+00 0.  1.
        -11    1    1    2    0    0 -0.29569045106E+01  0.10782278335E+02  0.18001035138E+03  0.18035722168E+03  0.00000000000E+00 0.  1.
         11    1    1    2    0    0  0.11605225190E+01  0.36775314198E+01 -0.12923323733E+03  0.12929076023E+03  0.00000000000E+00 0.  1.
        -15    1    1    2    0    0  0.42351829188E+01 -0.12975037464E+02 -0.50054240687E+02  0.51912167276E+02  0.17770000000E+01 0.  1.
         15    1    1    2    0    0 -0.24388009272E+01 -0.14847722908E+01 -0.72287336550E+00  0.34398508137E+01  0.17770000000E+01 0. -1.
</event>
<event>
 6    1  0.1378789E-002  0.1852187E+03  0.7546771E-02  0.1066311E+00
        -11   -1    0    0    0    0  0.00000000000E+00  0.00000000000E+00  0.18250000000E+03  0.18250000000E+03  0.00000000000E+00 0.  1.
         11   -1    0    0    0    0 -0.00000000000E+00 -0.00000000000E+00 -0.18250000000E+03  0.18250000000E+03  0.00000000000E+00 0. -1.
        -11    1    1    2    0    0 -0.45238123903E+01  0.11001815768E+01  0.17972099482E+03  0.17978128728E+03  0.00000000000E+00 0.  1.
         11    1    1    2    0    0 -0.26920226988E+01  0.32250784052E+01 -0.16669068148E+03  0.16674360980E+03  0.00000000000E+00 0. -1.
        -15    1    1    2    0    0  0.68336381679E+01  0.52585301319E+00 -0.41860538612E+01  0.82253211445E+01  0.17770000000E+01 0.  1.
         15    1    1    2    0    0  0.38219692125E+00 -0.48511129952E+01 -0.88442594719E+01  0.10249781773E+02  0.17770000000E+01 0. -1.
</event>
<event>
 6    1  0.1378789E-002  0.1866758E+03  0.7546771E-02  0.1065179E+00
        -11   -1    0    0    0    0  0.00000000000E+00  0.00000000000E+00  0.18250000000E+03  0.18250000000E+03  0.00000000000E+00 0. -1.
         11   -1    0    0    0    0 -0.00000000000E+00 -0.00000000000E+00 -0.18250000000E+03  0.18250000000E+03  0.00000000000E+00 0. -1.
        -11    1    1    2    0    0 -0.12100256923E+01 -0.11336815776E+01  0.11253958233E+03  0.11255179690E+03  0.00000000000E+00 0. -1.
         11    1    1    2    0    0  0.45738670652E+01 -0.17498542238E+01 -0.17825693788E+03  0.17832419396E+03  0.00000000000E+00 0. -1.
        -15    1    1    2    0    0  0.35247064569E+01  0.10706577166E+02  0.61804746236E+02  0.62849333621E+02  0.17770000000E+01 0. -1.
         15    1    1    2    0    0 -0.68885478298E+01 -0.78230413645E+01  0.39126093146E+01  0.11274675518E+02  0.17770000000E+01 0.  1.
</event>
<event>
 6    1  0.1378789E-002  0.1839625E+03  0.7546771E-02  0.1067297E+00
        -11   -1    0    0    0    0  0.00000000000E+00  0.00000000000E+00  0.18250000000E+03  0.18250000000E+03  0.00000000000E+00 0. -1.
         11   -1    0    0    0    0 -0.00000000000E+00 -0.00000000000E+00 -0.18250000000E+03  0.18250000000E+03  0.00000000000E+00 0. -1.
        -11    1    1    2    0    0  0.14347324322E+01  0.31373066745E+01  0.16523448719E+03  0.16527049618E+03  0.00000000000E+00 0. -1.
         11    1    1    2    0    0  0.30524498602E+00  0.29804450583E+01 -0.18101271035E+03  0.18103750312E+03  0.00000000000E+00 0. -1.
        -15    1    1    2    0    0 -0.53311442399E+00 -0.22925496699E+01  0.13361914465E+02  0.13683511323E+02  0.17770000000E+01 0.  1.
         15    1    1    2    0    0 -0.12068629943E+01 -0.38252020629E+01  0.24163087014E+01  0.50084893780E+01  0.17770000000E+01 0.  1.
</event>
<event>
 6    1  0.1378789E-002  0.1777195E+03  0.7546771E-02  0.1072325E+00
        -11   -1    0    0    0    0  0.00000000000E+00  0.00000000000E+00  0.18250000000E+03  0.18250000000E+03  0.00000000000E+00 0. -1.
         11   -1    0    0    0    0 -0.00000000000E+00 -0.00000000000E+00 -0.18250000000E+03  0.18250000000E+03  0.00000000000E+00 0.  1.
        -11    1    1    2    0    0 -0.48541903666E+01 -0.94608039531E+00  0.17748650558E+03  0.17755539388E+03  0.00000000000E+00 0. -1.
         11    1    1    2    0    0  0.35564911558E+01  0.66281996363E+01 -0.17777234467E+03  0.17793141428E+03  0.00000000000E+00 0.  1.
        -15    1    1    2    0    0 -0.15030978235E+01 -0.35119987821E+01  0.25731180142E+01  0.49368110990E+01  0.17770000000E+01 0.  1.
         15    1    1    2    0    0  0.28007970343E+01 -0.21701204589E+01 -0.22872789266E+01  0.45763807448E+01  0.17770000000E+01 0. -1.
</event>
<event>
 6    1  0.1378789E-002  0.1832116E+03  0.7546771E-02  0.1067890E+00
        -11   -1    0    0    0    0  0.00000000000E+00  0.00000000000E+00  0.18250000000E+03  0.18250000000E+03  0.00000000000E+00 0. -1.
         11   -1    0    0    0    0 -0.00000000000E+00 -0.00000000000E+00 -0.18250000000E+03  0.18250000000E+03  0.00000000000E+00 0. -1.
        -11    1    1    2    0    0  0.96090202286E+00  0.45172541066E+01  0.15773479651E+03  0.15780239208E+03  0.00000000000E+00 0. -1.
         11    1    1    2    0    0  0.24708033698E+01  0.63956978019E+00 -0.18177046795E+03  0.18178838504E+03  0.00000000000E+00 0. -1.
        -15    1    1    2    0    0 -0.29453186171E+01 -0.34283818824E+01  0.20477061332E+02  0.21045105699E+02  0.17770000000E+01 0. -1.
         15    1    1    2    0    0 -0.48638677564E+00 -0.17284420044E+01  0.35586101064E+01  0.43641171785E+01  0.17770000000E+01 0.  1.
</event>
<event>
 6    1  0.1658248E-002  0.1842277E+03  0.7546771E-02  0.1067088E+00
        -11   -1    0    0    0    0  0.00000000000E+00  0.00000000000E+00  0.18250000000E+03  0.18250000000E+03  0.00000000000E+00 0.  1.
         11   -1    0    0    0    0 -0.00000000000E+00 -0.00000000000E+00 -0.18250000000E+03  0.18250000000E+03  0.00000000000E+00 0. -1.
        -11    1    1    2    0    0 -0.27121832085E+01  0.85741820856E+00  0.18074996582E+03  0.18077234647E+03  0.00000000000E+00 0.  1.
         11    1    1    2    0    0  0.57657670927E+01  0.78676797938E+00 -0.16845114243E+03  0.16855162550E+03  0.00000000000E+00 0. -1.
        -15    1    1    2    0    0 -0.48448102513E+01 -0.89158017633E+00 -0.11915179998E+02  0.13015235110E+02  0.17770000000E+01 0.  1.
         15    1    1    2    0    0  0.17912263672E+01 -0.75260601161E+00 -0.38364339889E+00  0.26607929203E+01  0.17770000000E+01 0.  1.
</event>
<event>
 6    1  0.1378789E-002  0.1834211E+03  0.7546771E-02  0.1067724E+00
        -11   -1    0    0    0    0  0.00000000000E+00  0.00000000000E+00  0.18250000000E+03  0.18250000000E+03  0.00000000000E+00 0. -1.
         11   -1    0    0    0    0 -0.00000000000E+00 -0.00000000000E+00 -0.18250000000E+03  0.18250000000E+03  0.00000000000E+00 0.  1.
        -11    1    1    2    0    0  0.14990302423E+01  0.19911697539E+01  0.18156178232E+03  0.18157888822E+03  0.00000000000E+00 0. -1.
         11    1    1    2    0    0 -0.19155910368E+01  0.23316650083E+01 -0.49088485619E+02  0.49181150567E+02  0.00000000000E+00 0.  1.
        -15    1    1    2    0    0  0.21504777007E+00 -0.22740763136E+01 -0.13120902888E+03  0.13124094123E+03  0.17770000000E+01 0.  1.
         15    1    1    2    0    0  0.20151302443E+00 -0.20487584486E+01 -0.12642678266E+01  0.29990199761E+01  0.17770000000E+01 0. -1.
</event>
<event>
 6    1  0.1378789E-002  0.1880483E+03  0.7546771E-02  0.1064122E+00
        -11   -1    0    0    0    0  0.00000000000E+00  0.00000000000E+00  0.18250000000E+03  0.18250000000E+03  0.00000000000E+00 0.  1.
         11   -1    0    0    0    0 -0.00000000000E+00 -0.00000000000E+00 -0.18250000000E+03  0.18250000000E+03  0.00000000000E+00 0.  1.
        -11    1    1    2    0    0  0.31576514219E+01  0.50226732486E+01  0.16665285089E+03  0.16675842023E+03  0.00000000000E+00 0.  1.
         11    1    1    2    0    0  0.35572080107E+01  0.49513589352E+01 -0.17684666240E+03  0.17695172134E+03  0.00000000000E+00 0.  1.
        -15    1    1    2    0    0 -0.27730207951E+01 -0.49526577351E+01  0.12843041747E+02  0.14153441747E+02  0.17770000000E+01 0.  1.
         15    1    1    2    0    0 -0.39418386375E+01 -0.50213744488E+01 -0.26492302386E+01  0.71364166818E+01  0.17770000000E+01 0.  1.
</event>
<event>
 6    1  0.1378789E-002  0.1853958E+03  0.7546771E-02  0.1066173E+00
        -11   -1    0    0    0    0  0.00000000000E+00  0.00000000000E+00  0.18250000000E+03  0.18250000000E+03  0.00000000000E+00 0.  1.
         11   -1    0    0    0    0 -0.00000000000E+00 -0.00000000000E+00 -0.18250000000E+03  0.18250000000E+03  0.00000000000E+00 0. -1.
        -11    1    1    2    0    0 -0.13889005420E+01  0.56853688669E+00  0.10086085793E+03  0.10087202259E+03  0.00000000000E+00 0.  1.
         11    1    1    2    0    0 -0.51540478947E+01 -0.66551459335E+01 -0.17940683260E+03  0.17960419472E+03  0.00000000000E+00 0. -1.
        -15    1    1    2    0    0  0.29763598167E+01  0.28619194172E+01 -0.11685376312E+01  0.46446215889E+01  0.17770000000E+01 0. -1.
         15    1    1    2    0    0  0.35665886200E+01  0.32246896296E+01  0.79714512303E+02  0.79879161102E+02  0.17770000000E+01 0.  1.
</event>
<event>
 6    1  0.1378789E-002  0.1838954E+03  0.7546771E-02  0.1067350E+00
        -11   -1    0    0    0    0  0.00000000000E+00  0.00000000000E+00  0.18250000000E+03  0.18250000000E+03  0.00000000000E+00 0. -1.
         11   -1    0    0    0    0 -0.00000000000E+00 -0.00000000000E+00 -0.18250000000E+03  0.18250000000E+03  0.00000000000E+00 0.  1.
        -11    1    1    2    0    0  0.31647840536E+01  0.45792069209E+01  0.14050435983E+03  0.14061458006E+03  0.00000000000E+00 0. -1.
         11    1    1    2    0    0 -0.20631681128E+01  0.21814062165E+01 -0.18107975492E+03  0.18110464610E+03  0.00000000000E+00 0.  1.
        -15    1    1    2    0    0  0.62501926219E+00 -0.28560961241E-01 -0.18588308395E+00  0.18930785318E+01  0.17770000000E+01 0.  1.
         15    1    1    2    0    0 -0.17266352030E+01 -0.67320521762E+01  0.40761278174E+02  0.41387695309E+02  0.17770000000E+01 0. -1.
</event>
<event>
 6    1  0.1378789E-002  0.1843389E+03  0.7546771E-02  0.1067000E+00
        -11   -1    0    0    0    0  0.00000000000E+00  0.00000000000E+00  0.18250000000E+03  0.18250000000E+03  0.00000000000E+00 0.  1.
         11   -1    0    0    0    0 -0.00000000000E+00 -0.00000000000E+00 -0.18250000000E+03  0.18250000000E+03  0.00000000000E+00 0. -1.
        -11    1    1    2    0    0  0.33747160425E+01  0.47133289313E+01  0.18056804134E+03  0.18066106867E+03  0.00000000000E+00 0.  1.
         11    1    1    2    0    0  0.18785657880E+01  0.43234244364E+00 -0.13772779079E+03  0.13774128025E+03  0.00000000000E+00 0. -1.
        -15    1    1    2    0    0 -0.73076299347E+01 -0.64466310400E+01 -0.42414697136E+02  0.43555995789E+02  0.17770000000E+01 0.  1.
         15    1    1    2    0    0  0.20543481042E+01  0.13009596651E+01 -0.42555341748E+00  0.30416552886E+01  0.17770000000E+01 0. -1.
</event>
<event>
 6    1  0.1378789E-002  0.1833730E+03  0.7546771E-02  0.1067762E+00
        -11   -1    0    0    0    0  0.00000000000E+00  0.00000000000E+00  0.18250000000E+03  0.18250000000E+03  0.00000000000E+00 0. -1.
         11   -1    0    0    0    0 -0.00000000000E+00 -0.00000000000E+00 -0.18250000000E+03  0.18250000000E+03  0.00000000000E+00 0. -1.
        -11    1    1    2    0    0 -0.44630318427E+01 -0.78650490286E+01  0.18140170989E+03  0.18162697487E+03  0.00000000000E+00 0. -1.
         11    1    1    2    0    0  0.10980870951E+01 -0.53497730543E-02 -0.46750505081E+02  0.46763399676E+02  0.00000000000E+00 0. -1.
        -15    1    1    2    0    0  0.60350734400E+01  0.79427362575E+01 -0.25905027254E+02  0.27816134467E+02  0.17770000000E+01 0. -1.
         15    1    1    2    0    0 -0.26701286923E+01 -0.72337455905E-01 -0.10874617755E+03  0.10879349099E+03  0.17770000000E+01 0.  1.
</event>
<event>
 6    1  0.1378789E-002  0.1844031E+03  0.7546771E-02  0.1066950E+00
        -11   -1    0    0    0    0  0.00000000000E+00  0.00000000000E+00  0.18250000000E+03  0.18250000000E+03  0.00000000000E+00 0. -1.
         11   -1    0    0    0    0 -0.00000000000E+00 -0.00000000000E+00 -0.18250000000E+03  0.18250000000E+03  0.00000000000E+00 0. -1.
        -11    1    1    2    0    0 -0.19379247443E+01  0.18910312657E+01  0.18057659594E+03  0.18059689519E+03  0.00000000000E+00 0. -1.
         11    1    1    2    0    0  0.47586678450E+01 -0.17756987066E+01 -0.13692569840E+03  0.13701987049E+03  0.00000000000E+00 0. -1.
        -15    1    1    2    0    0  0.41982006206E+00 -0.66106406777E+01 -0.63680050410E+01  0.93587411684E+01  0.17770000000E+01 0. -1.
         15    1    1    2    0    0 -0.32405631628E+01  0.64953081186E+01 -0.37282892498E+02  0.38024493148E+02  0.17770000000E+01 0.  1.
</event>
<event>
 6    1  0.1378789E-002  0.1828520E+03  0.7546771E-02  0.1068175E+00
        -11   -1    0    0    0    0  0.00000000000E+00  0.00000000000E+00  0.18250000000E+03  0.18250000000E+03  0.00000000000E+00 0.  1.
         11   -1    0    0    0    0 -0.00000000000E+00 -0.00000000000E+00 -0.18250000000E+03  0.18250000000E+03  0.00000000000E+00 0. -1.
        -11    1    1    2    0    0  0.35741314038E+01  0.26452380414E+01  0.18209370158E+03  0.18214798340E+03  0.00000000000E+00 0.  1.
         11    1    1    2    0    0 -0.27003059697E+00 -0.59811412832E+00 -0.24292871695E+02  0.24301733935E+02  0.00000000000E+00 0. -1.
        -15    1    1    2    0    0  0.48567071659E+01 -0.27533829115E+00 -0.28417753851E+02  0.28885807564E+02  0.17770000000E+01 0.  1.
         15    1    1    2    0    0 -0.81608079727E+01 -0.17717856220E+01 -0.12938307604E+03  0.12966447511E+03  0.17770000000E+01 0. -1.
</event>
<event>
 6    1  0.1378789E-002  0.1856870E+03  0.7546771E-02  0.1065946E+00
        -11   -1    0    0    0    0  0.00000000000E+00  0.00000000000E+00  0.18250000000E+03  0.18250000000E+03  0.00000000000E+00 0. -1.
         11   -1    0    0    0    0 -0.00000000000E+00 -0.00000000000E+00 -0.18250000000E+03  0.18250000000E+03  0.00000000000E+00 0.  1.
        -11    1    1    2    0    0 -0.13484547792E+01  0.38186230009E+01  0.16967150258E+03  0.16971982501E+03  0.00000000000E+00 0. -1.
         11    1    1    2    0    0  0.71906045238E+00 -0.34442670017E+01 -0.17927848080E+03  0.17931300483E+03  0.00000000000E+00 0.  1.
        -15    1    1    2    0    0  0.85794115112E+00 -0.62742315366E+01  0.52828471072E+01  0.84361274855E+01  0.17770000000E+01 0. -1.
         15    1    1    2    0    0 -0.22854682434E+00  0.58998755374E+01  0.43241311102E+01  0.75310426812E+01  0.17770000000E+01 0.  1.
</event>
<event>
 6    1  0.1378789E-002  0.1844672E+03  0.7546771E-02  0.1066900E+00
        -11   -1    0    0    0    0  0.00000000000E+00  0.00000000000E+00  0.18250000000E+03  0.18250000000E+03  0.00000000000E+00 0.  1.
         11   -1    0    0    0    0 -0.00000000000E+00 -0.00000000000E+00 -0.18250000000E+03  0.18250000000E+03  0.00000000000E+00 0. -1.
        -11    1    1    2    0    0 -0.60053535287E+00 -0.73464155843E+01  0.16278842205E+03  0.16295521108E+03  0.00000000000E+00 0.  1.
         11    1    1    2    0    0  0.87947673079E+01  0.62639058129E+00 -0.18031740980E+03  0.18053284625E+03  0.00000000000E+00 0. -1.
        -15    1    1    2    0    0 -0.45349028521E+01  0.45061603583E+01  0.54875744397E+01  0.86105764780E+01  0.17770000000E+01 0.  1.
         15    1    1    2    0    0 -0.36593291029E+01  0.22138646447E+01  0.12041413311E+02  0.12901366194E+02  0.17770000000E+01 0. -1.
</event>
<event>
 6    1  0.1378789E-002  0.1829140E+03  0.7546771E-02  0.1068126E+00
        -11   -1    0    0    0    0  0.00000000000E+00  0.00000000000E+00  0.18250000000E+03  0.18250000000E+03  0.00000000000E+00 0.  1.
         11   -1    0    0    0    0 -0.00000000000E+00 -0.00000000000E+00 -0.18250000000E+03  0.18250000000E+03  0.00000000000E+00 0. -1.
        -11    1    1    2    0    0  0.22730395558E+01 -0.26092489192E+01  0.18205308717E+03  0.18208597265E+03  0.00000000000E+00 0.  1.
         11    1    1    2    0    0 -0.19863799011E+01 -0.28360700399E+01 -0.14298652568E+03  0.14302844306E+03  0.00000000000E+00 0. -1.
        -15    1    1    2    0    0  0.72800824559E+00  0.45407161471E+01 -0.33883059652E+02  0.34239853381E+02  0.17770000000E+01 0. -1.
         15    1    1    2    0    0 -0.10146679003E+01  0.90460281200E+00 -0.51835018391E+01  0.56457309103E+01  0.17770000000E+01 0.  1.
</event>
<event>
 6    1  0.1378789E-002  0.1852385E+03  0.7546771E-02  0.1066296E+00
        -11   -1    0    0    0    0  0.00000000000E+00  0.00000000000E+00  0.18250000000E+03  0.18250000000E+03  0.00000000000E+00 0. -1.
         11   -1    0    0    0    0 -0.00000000000E+00 -0.00000000000E+00 -0.18250000000E+03  0.18250000000E+03  0.00000000000E+00 0. -1.
        -11    1    1    2    0    0  0.42423378113E+01  0.43730442680E+01  0.16689550047E+03  0.16700667359E+03  0.00000000000E+00 0. -1.
         11    1    1    2    0    0  0.31394203982E+01  0.99071910318E+00 -0.17973135663E+03  0.17976150322E+03  0.00000000000E+00 0. -1.
        -15    1    1    2    0    0 -0.76682615848E+01 -0.37723785848E+01  0.13176315592E+02  0.15805255376E+02  0.17770000000E+01 0.  1.
         15    1    1    2    0    0  0.28650337525E+00 -0.15913847864E+01 -0.34045943453E+00  0.24265678126E+01  0.17770000000E+01 0. -1.
</event>
<event>
 6    1  0.1378789E-002  0.1913417E+03  0.7546771E-02  0.1061627E+00
        -11   -1    0    0    0    0  0.00000000000E+00  0.00000000000E+00  0.18250000000E+03  0.18250000000E+03  0.00000000000E+00 0. -1.
         11   -1    0    0    0    0 -0.00000000000E+00 -0.00000000000E+00 -0.18250000000E+03  0.18250000000E+03  0.00000000000E+00 0. -1.
        -11    1    1    2    0    0 -0.51722672897E+01 -0.59028660107E+01  0.17348089823E+03  0.17365833762E+03  0.00000000000E+00 0. -1.
         11    1    1    2    0    0  0.67482072244E+01  0.19921376377E+01 -0.16631298205E+03  0.16646175210E+03  0.00000000000E+00 0. -1.
        -15    1    1    2    0    0 -0.55083331931E+01 -0.17016819879E+01 -0.13873693340E+02  0.15128600465E+02  0.17770000000E+01 0.  1.
         15    1    1    2    0    0  0.39323932584E+01  0.56124103609E+01  0.67057771602E+01  0.97513098156E+01  0.17770000000E+01 0.  1.
</event>
<event>
 6    1  0.1378789E-002  0.1828953E+03  0.7546771E-02  0.1068141E+00
        -11   -1    0    0    0    0  0.00000000000E+00  0.00000000000E+00  0.18250000000E+03  0.18250000000E+03  0.00000000000E+00 0.  1.
         11   -1    0    0    0    0 -0.00000000000E+00 -0.00000000000E+00 -0.18250000000E+03  0.18250000000E+03  0.00000000000E+00 0. -1.
        -11    1    1    2    0    0  0.58256358155E+00 -0.24179787648E+01  0.12334639244E+03  0.12337146562E+03  0.00000000000E+00 0.  1.
         11    1    1    2    0    0  0.16261995955E+01  0.21634578967E+01 -0.18208463329E+03  0.18210474666E+03  0.00000000000E+00 0. -1.
        -15    1    1    2    0    0  0.38459150406E+00  0.40271476277E+01  0.35384728373E+02  0.35659536728E+02  0.17770000000E+01 0. -1.
         15    1    1    2    0    0 -0.25933546811E+01 -0.37726267596E+01  0.23353512482E+02  0.23864250993E+02  0.17770000000E+01 0.  1.
</event>
<event>
 6    1  0.1378789E-002  0.1856572E+03  0.7546771E-02  0.1065969E+00
        -11   -1    0    0    0    0  0.00000000000E+00  0.00000000000E+00  0.18250000000E+03  0.18250000000E+03  0.00000000000E+00 0. -1.
         11   -1    0    0    0    0 -0.00000000000E+00 -0.00000000000E+00 -0.18250000000E+03  0.18250000000E+03  0.00000000000E+00 0. -1.
        -11    1    1    2    0    0 -0.68476680993E+01 -0.29320302359E+00  0.17921178843E+03  0.17934280482E+03  0.00000000000E+00 0. -1.
         11    1    1    2    0    0 -0.26013782402E+01  0.11851164748E+01 -0.16789053388E+03  0.16791486842E+03  0.00000000000E+00 0. -1.
        -15    1    1    2    0    0  0.69187653081E+00  0.12651810006E+01 -0.74049653176E+01  0.77505236245E+01  0.17770000000E+01 0.  1.
         15    1    1    2    0    0  0.87571698087E+01 -0.21570944518E+01 -0.39162892374E+01  0.99918031368E+01  0.17770000000E+01 0.  1.
</event>
<event>
 6    1  0.1378789E-002  0.1850051E+03  0.7546771E-02  0.1066478E+00
        -11   -1    0    0    0    0  0.00000000000E+00  0.00000000000E+00  0.18250000000E+03  0.18250000000E+03  0.00000000000E+00 0.  1.
         11   -1    0    0    0    0 -0.00000000000E+00 -0.00000000000E+00 -0.18250000000E+03  0.18250000000E+03  0.00000000000E+00 0. -1.
        -11    1    1    2    0    0  0.16080593776E+01 -0.25400550107E+01  0.97307183544E+02  0.97353611662E+02  0.00000000000E+00 0.  1.
         11    1    1    2    0    0 -0.46747997699E+01  0.66628064805E+01 -0.17981073276E+03  0.17999485092E+03  0.00000000000E+00 0. -1.
        -15    1    1    2    0    0 -0.20167582084E+01  0.85374142825E+00 -0.15908904093E+01  0.32380317157E+01  0.17770000000E+01 0. -1.
         15    1    1    2    0    0  0.50834986007E+01 -0.49764928980E+01  0.84094439625E+02  0.84413505699E+02  0.17770000000E+01 0.  1.
</event>
<event>
 6    1  0.1378789E-002  0.1831014E+03  0.7546771E-02  0.1067977E+00
        -11   -1    0    0    0    0  0.00000000000E+00  0.00000000000E+00  0.18250000000E+03  0.18250000000E+03  0.00000000000E+00 0. -1.
         11   -1    0    0    0    0 -0.00000000000E+00 -0.00000000000E+00 -0.18250000000E+03  0.18250000000E+03  0.00000000000E+00 0.  1.
        -11    1    1    2    0    0 -0.89382959761E+01  0.55272180070E+01  0.18159474008E+03  0.18189857860E+03  0.00000000000E+00 0. -1.
         11    1    1    2    0    0 -0.43723425247E+00  0.27895613618E+00 -0.22219828028E+02  0.22225880138E+02  0.00000000000E+00 0.  1.
        -15    1    1    2    0    0  0.15068976038E+01 -0.46179911512E+01 -0.13637516568E+03  0.13647322128E+03  0.17770000000E+01 0.  1.
         15    1    1    2    0    0  0.78686326248E+01 -0.11881829920E+01 -0.22999746368E+02  0.24402319976E+02  0.17770000000E+01 0. -1.
</event>
<event>
 6    1  0.1378789E-002  0.1829761E+03  0.7546771E-02  0.1068076E+00
        -11   -1    0    0    0    0  0.00000000000E+00  0.00000000000E+00  0.18250000000E+03  0.18250000000E+03  0.00000000000E+00 0. -1.
         11   -1    0    0    0    0 -0.00000000000E+00 -0.00000000000E+00 -0.18250000000E+03  0.18250000000E+03  0.00000000000E+00 0.  1.
        -11    1    1    2    0    0 -0.52502117258E+01 -0.92053849901E+00  0.18194587980E+03  0.18202394154E+03  0.00000000000E+00 0. -1.
         11    1    1    2    0    0  0.11137003340E+01  0.29443079334E+01 -0.81698549482E+02  0.81759172360E+02  0.00000000000E+00 0.  1.
        -15    1    1    2    0    0  0.55922991787E+00  0.17065204237E+01 -0.35066721306E+01  0.43219704406E+01  0.17770000000E+01 0. -1.
         15    1    1    2    0    0  0.35772814740E+01 -0.37302898581E+01 -0.96740658192E+02  0.96894915664E+02  0.17770000000E+01 0.  1.
</event>
<event>
 6    1  0.1378789E-002  0.1897625E+03  0.7546771E-02  0.1062816E+00
        -11   -1    0    0    0    0  0.00000000000E+00  0.00000000000E+00  0.18250000000E+03  0.18250000000E+03  0.00000000000E+00 0. -1.
         11   -1    0    0    0    0 -0.00000000000E+00 -0.00000000000E+00 -0.18250000000E+03  0.18250000000E+03  0.00000000000E+00 0. -1.
        -11    1    1    2    0    0  0.10095106859E+02 -0.13222460267E+02  0.17444608464E+03  0.17523749908E+03  0.00000000000E+00 0. -1.
         11    1    1    2    0    0 -0.16504257857E+01 -0.83446787994E+01 -0.14897704924E+03  0.14921969967E+03  0.00000000000E+00 0. -1.
        -15    1    1    2    0    0  0.15398554443E+01  0.14057108511E+02 -0.23898974170E+02  0.27826105546E+02  0.17770000000E+01 0. -1.
         15    1    1    2    0    0 -0.99845365180E+01  0.75100305556E+01 -0.15700612275E+01  0.12716695706E+02  0.17770000000E+01 0.  1.
</event>
<event>
 6    1  0.1378789E-002  0.1828068E+03  0.7546771E-02  0.1068211E+00
        -11   -1    0    0    0    0  0.00000000000E+00  0.00000000000E+00  0.18250000000E+03  0.18250000000E+03  0.00000000000E+00 0. -1.
         11   -1    0    0    0    0 -0.00000000000E+00 -0.00000000000E+00 -0.18250000000E+03  0.18250000000E+03  0.00000000000E+00 0.  1.
        -11    1    1    2    0    0  0.22466818588E+01  0.41062687511E+00  0.13807964589E+03  0.13809853295E+03  0.00000000000E+00 0. -1.
         11    1    1    2    0    0  0.22071209247E+01  0.10997287834E+01 -0.18217648017E+03  0.18219316868E+03  0.00000000000E+00 0.  1.
        -15    1    1    2    0    0 -0.67175139675E-01 -0.13877899391E+01  0.21675173760E+02  0.21792231642E+02  0.17770000000E+01 0. -1.
         15    1    1    2    0    0 -0.43866276438E+01 -0.12256571942E+00  0.22421660521E+02  0.22916066721E+02  0.17770000000E+01 0.  1.
</event>
<event>
 6    1  0.1378789E-002  0.1834762E+03  0.7546771E-02  0.1067680E+00
        -11   -1    0    0    0    0  0.00000000000E+00  0.00000000000E+00  0.18250000000E+03  0.18250000000E+03  0.00000000000E+00 0.  1.
         11   -1    0    0    0    0 -0.00000000000E+00 -0.00000000000E+00 -0.18250000000E+03  0.18250000000E+03  0.00000000000E+00 0.  1.
        -11    1    1    2    0    0 -0.26533492989E+00  0.30749211314E+01  0.63166676860E+02  0.63242031974E+02  0.00000000000E+00 0.  1.
         11    1    1    2    0    0  0.41704204362E+01  0.24870408361E+01 -0.18145881778E+03  0.18152377346E+03  0.00000000000E+00 0.  1.
        -15    1    1    2    0    0 -0.63979344738E+01 -0.86777086613E+00  0.11594134697E+02  0.13389110507E+02  0.17770000000E+01 0.  1.
         15    1    1    2    0    0  0.24928489675E+01 -0.46941911014E+01  0.10669800623E+03  0.10684508406E+03  0.17770000000E+01 0.  1.
</event>
<event>
 6    1  0.1378789E-002  0.1725477E+03  0.7546771E-02  0.1076665E+00
        -11   -1    0    0    0    0  0.00000000000E+00  0.00000000000E+00  0.18250000000E+03  0.18250000000E+03  0.00000000000E+00 0.  1.
         11   -1    0    0    0    0 -0.00000000000E+00 -0.00000000000E+00 -0.18250000000E+03  0.18250000000E+03  0.00000000000E+00 0. -1.
        -11    1    1    2    0    0  0.46592408687E+01 -0.17251304259E+01  0.17316264480E+03  0.17323390590E+03  0.00000000000E+00 0.  1.
         11    1    1    2    0    0  0.12551954532E+01 -0.32001487123E+01 -0.17191519605E+03  0.17194955976E+03  0.00000000000E+00 0. -1.
        -15    1    1    2    0    0 -0.14348290023E+01 -0.30988486577E+01 -0.75896588100E+01  0.85101261519E+01  0.17770000000E+01 0.  1.
         15    1    1    2    0    0 -0.44796073196E+01  0.80241277959E+01  0.63422100672E+01  0.11306408190E+02  0.17770000000E+01 0. -1.
</event>
<event>
 6    1  0.1378789E-002  0.1829554E+03  0.7546771E-02  0.1068093E+00
        -11   -1    0    0    0    0  0.00000000000E+00  0.00000000000E+00  0.18250000000E+03  0.18250000000E+03  0.00000000000E+00 0. -1.
         11   -1    0    0    0    0 -0.00000000000E+00 -0.00000000000E+00 -0.18250000000E+03  0.18250000000E+03  0.00000000000E+00 0. -1.
        -11    1    1    2    0    0  0.25670982203E+01  0.76850346370E+00  0.18202483203E+03  0.18204455517E+03  0.00000000000E+00 0. -1.
         11    1    1    2    0    0 -0.13819200728E+01  0.27184832244E+01 -0.13637134818E+03  0.13640544146E+03  0.00000000000E+00 0. -1.
        -15    1    1    2    0    0 -0.56545551004E+00 -0.27302327399E+01 -0.60491159044E+01  0.68937248983E+01  0.17770000000E+01 0.  1.
         15    1    1    2    0    0 -0.61972263746E+00 -0.75675394818E+00 -0.39604367945E+02  0.39656278469E+02  0.17770000000E+01 0. -1.
</event>
<event>
 6    1  0.1378789E-002  0.1852430E+03  0.7546771E-02  0.1066292E+00
        -11   -1    0    0    0    0  0.00000000000E+00  0.00000000000E+00  0.18250000000E+03  0.18250000000E+03  0.00000000000E+00 0. -1.
         11   -1    0    0    0    0 -0.00000000000E+00 -0.00000000000E+00 -0.18250000000E+03  0.18250000000E+03  0.00000000000E+00 0.  1.
        -11    1    1    2    0    0 -0.27051397768E+01  0.47059506951E+01  0.10941307136E+03  0.10954763319E+03  0.00000000000E+00 0. -1.
         11    1    1    2    0    0 -0.64561581735E+00 -0.24335944845E+01 -0.17973940845E+03  0.17975704201E+03  0.00000000000E+00 0.  1.
        -15    1    1    2    0    0  0.63709162045E+00 -0.47304992653E+01 -0.15593880566E+00  0.50956407785E+01  0.17770000000E+01 0.  1.
         15    1    1    2    0    0  0.27136639737E+01  0.24581430547E+01  0.70482275894E+02  0.70599684020E+02  0.17770000000E+01 0. -1.
</event>
<event>
 6    1  0.1378789E-002  0.1845107E+03  0.7546771E-02  0.1066865E+00
        -11   -1    0    0    0    0  0.00000000000E+00  0.00000000000E+00  0.18250000000E+03  0.18250000000E+03  0.00000000000E+00 0. -1.
         11   -1    0    0    0    0 -0.00000000000E+00 -0.00000000000E+00 -0.18250000000E+03  0.18250000000E+03  0.00000000000E+00 0. -1.
        -11    1    1    2    0    0 -0.27656789643E+01 -0.57467116297E+01  0.18037663254E+03  0.18048934385E+03  0.00000000000E+00 0. -1.
         11    1    1    2    0    0 -0.19695532916E+01  0.31909964440E+01 -0.17355341422E+03  0.17359392036E+03  0.00000000000E+00 0. -1.
        -15    1    1    2    0    0 -0.91322938988E+00  0.13176948225E+01 -0.26308877747E+01  0.35566286069E+01  0.17770000000E+01 0. -1.
         15    1    1    2    0    0  0.56484616458E+01  0.12380203633E+01 -0.41923305464E+01  0.73601071863E+01  0.17770000000E+01 0.  1.
</event>
<event>
 6    1  0.1378789E-002  0.1942879E+03  0.7546771E-02  0.1059441E+00
        -11   -1    0    0    0    0  0.00000000000E+00  0.00000000000E+00  0.18250000000E+03  0.18250000000E+03  0.00000000000E+00 0.  1.
         11   -1    0    0    0    0 -0.00000000000E+00 -0.00000000000E+00 -0.18250000000E+03  0.18250000000E+03  0.00000000000E+00 0. -1.
        -11    1    1    2    0    0 -0.84508566297E+01  0.97600156790E+00  0.15309590347E+03  0.15333207497E+03  0.00000000000E+00 0.  1.
         11    1    1    2    0    0  0.33776675216E+01 -0.90855831900E+01 -0.17043669964E+03  0.17071211159E+03  0.00000000000E+00 0. -1.
        -15    1    1    2    0    0  0.12272306841E+02  0.49539325612E+01  0.25937205526E+02  0.29172715378E+02  0.17770000000E+01 0. -1.
         15    1    1    2    0    0 -0.71991177333E+01  0.31556490609E+01 -0.85964093499E+01  0.11783098058E+02  0.17770000000E+01 0.  1.
</event>
<event>
 6    1  0.1378789E-002  0.1830366E+03  0.7546771E-02  0.1068028E+00
        -11   -1    0    0    0    0  0.00000000000E+00  0.00000000000E+00  0.18250000000E+03  0.18250000000E+03  0.00000000000E+00 0.  1.
         11   -1    0    0    0    0 -0.00000000000E+00 -0.00000000000E+00 -0.18250000000E+03  0.18250000000E+03  0.00000000000E+00 0. -1.
        -11    1    1    2    0    0 -0.32975434360E+01 -0.84259811030E-01  0.18193351903E+03  0.18196342005E+03  0.00000000000E+00 0.  1.
         11    1    1    2    0    0  0.31428501487E+01 -0.20839795398E+01 -0.26848315671E+02  0.27111852245E+02  0.00000000000E+00 0. -1.
        -15    1    1    2    0    0  0.44665840986E+01  0.23093230754E+01 -0.18332460983E+02  0.19092412139E+02  0.17770000000E+01 0.  1.
         15    1    1    2    0    0 -0.43118908114E+01 -0.14108372454E+00 -0.13675274237E+03  0.13683231556E+03  0.17770000000E+01 0. -1.
</event>
<event>
 6    1  0.1378789E-002  0.1880123E+03  0.7546771E-02  0.1064150E+00
        -11   -1    0    0    0    0  0.00000000000E+00  0.00000000000E+00  0.18250000000E+03  0.18250000000E+03  0.00000000000E+00 0.  1.
         11   -1    0    0    0    0 -0.00000000000E+00 -0.00000000000E+00 -0.18250000000E+03  0.18250000000E+03  0.00000000000E+00 0.  1.
        -11    1    1    2    0    0  0.53817724474E+01 -0.85444169761E+00  0.17690380878E+03  0.17698771456E+03  0.00000000000E+00 0.  1.
         11    1    1    2    0    0 -0.49656325688E+01  0.51400148289E+01 -0.17012598926E+03  0.17027603907E+03  0.00000000000E+00 0.  1.
        -15    1    1    2    0    0  0.53024926139E+01 -0.47606026003E+01 -0.87406764562E+01  0.11416519564E+02  0.17770000000E+01 0. -1.
         15    1    1    2    0    0 -0.57186324926E+01  0.47502946902E+00  0.19628569371E+01  0.63197268087E+01  0.17770000000E+01 0.  1.
</event>
<event>
 6    1  0.1378789E-002  0.1834034E+03  0.7546771E-02  0.1067738E+00
        -11   -1    0    0    0    0  0.00000000000E+00  0.00000000000E+00  0.18250000000E+03  0.18250000000E+03  0.00000000000E+00 0.  1.
         11   -1    0    0    0    0 -0.00000000000E+00 -0.00000000000E+00 -0.18250000000E+03  0.18250000000E+03  0.00000000000E+00 0. -1.
        -11    1    1    2    0    0 -0.31904476216E+01 -0.56432614720E+00  0.15421899985E+03  0.15425303023E+03  0.00000000000E+00 0.  1.
         11    1    1    2    0    0  0.35260478481E+01 -0.25699454073E+00 -0.18156219404E+03  0.18159661165E+03  0.00000000000E+00 0. -1.
        -15    1    1    2    0    0 -0.19684043849E+01 -0.36403320760E+01  0.83005776691E+01  0.94437255407E+01  0.17770000000E+01 0.  1.
         15    1    1    2    0    0  0.16328041584E+01  0.44616527640E+01  0.19042616520E+02  0.19706632582E+02  0.17770000000E+01 0. -1.
</event>
<event>
 6    1  0.1378789E-002  0.1899544E+03  0.7546771E-02  0.1062671E+00
        -11   -1    0    0    0    0  0.00000000000E+00  0.00000000000E+00  0.18250000000E+03  0.18250000000E+03  0.00000000000E+00 0. -1.
         11   -1    0    0    0    0 -0.00000000000E+00 -0.00000000000E+00 -0.18250000000E+03  0.18250000000E+03  0.00000000000E+00 0. -1.
        -11    1    1    2    0    0 -0.18604590358E+02 -0.66177066931E+01  0.13101821387E+03  0.13249791391E+03  0.00000000000E+00 0. -1.
         11    1    1    2    0    0 -0.14409203559E+01  0.24700338063E+01 -0.17502224557E+03  0.17504560481E+03  0.00000000000E+00 0. -1.
        -15    1    1    2    0    0  0.39484416167E+01  0.11124586376E+02  0.22719897391E+01  0.12151801496E+02  0.17770000000E+01 0.  1.
         15    1    1    2    0    0  0.16097069097E+02 -0.69769134887E+01  0.41732041960E+02  0.45304679786E+02  0.17770000000E+01 0. -1.
</event>
<event>
 6    1  0.1378789E-002  0.1828346E+03  0.7546771E-02  0.1068189E+00
        -11   -1    0    0    0    0  0.00000000000E+00  0.00000000000E+00  0.18250000000E+03  0.18250000000E+03  0.00000000000E+00 0. -1.
         11   -1    0    0    0    0 -0.00000000000E+00 -0.00000000000E+00 -0.18250000000E+03  0.18250000000E+03  0.00000000000E+00 0.  1.
        -11    1    1    2    0    0 -0.19954028479E+00 -0.14404152898E+01  0.82551783630E+02  0.82564590431E+02  0.00000000000E+00 0. -1.
         11    1    1    2    0    0  0.18368644517E+01 -0.53059556067E+01 -0.18207885984E+03  0.18216541503E+03  0.00000000000E+00 0.  1.
        -15    1    1    2    0    0  0.25192101502E+01 -0.62869389631E+00  0.39176632921E+02  0.39302773080E+02  0.17770000000E+01 0. -1.
         15    1    1    2    0    0 -0.41565343171E+01  0.73750647928E+01  0.60350443285E+02  0.60967221454E+02  0.17770000000E+01 0. -1.
</event>
<event>
 6    1  0.1378789E-002  0.1860771E+03  0.7546771E-02  0.1065643E+00
        -11   -1    0    0    0    0  0.00000000000E+00  0.00000000000E+00  0.18250000000E+03  0.18250000000E+03  0.00000000000E+00 0. -1.
         11   -1    0    0    0    0 -0.00000000000E+00 -0.00000000000E+00 -0.18250000000E+03  0.18250000000E+03  0.00000000000E+00 0.  1.
        -11    1    1    2    0    0  0.48900539968E+01  0.56488363917E+00  0.13076653271E+03  0.13085915252E+03  0.00000000000E+00 0. -1.
         11    1    1    2    0    0 -0.59626623010E+01  0.42730842809E+01 -0.17877240864E+03  0.17892285120E+03  0.00000000000E+00 0.  1.
        -15    1    1    2    0    0  0.76894841764E+01 -0.12789544752E+02  0.18112806857E+02  0.23535762641E+02  0.17770000000E+01 0. -1.
         15    1    1    2    0    0 -0.66168758722E+01  0.79515768317E+01  0.29893069075E+02  0.31682233635E+02  0.17770000000E+01 0.  1.
</event>
<event>
 6    1  0.1378789E-002  0.1919155E+03  0.7546771E-02  0.1061198E+00
        -11   -1    0    0    0    0  0.00000000000E+00  0.00000000000E+00  0.18250000000E+03  0.18250000000E+03  0.00000000000E+00 0.  1.
         11   -1    0    0    0    0 -0.00000000000E+00 -0.00000000000E+00 -0.18250000000E+03  0.18250000000E+03  0.00000000000E+00 0.  1.
        -11    1    1    2    0    0 -0.30252889600E+01 -0.94834642930E+01  0.17279801969E+03  0.17308449982E+03  0.00000000000E+00 0.  1.
         11    1    1    2    0    0  0.39836574521E+01  0.76395575350E+01 -0.17133039790E+03  0.17154689625E+03  0.00000000000E+00 0.  1.
        -15    1    1    2    0    0 -0.60638959422E+01 -0.32237839124E+01 -0.78562099332E+01  0.10584960096E+02  0.17770000000E+01 0. -1.
         15    1    1    2    0    0  0.51055274501E+01  0.50676906704E+01  0.63885881450E+01  0.97836438386E+01  0.17770000000E+01 0.  1.
</event>
<event>
 6    1  0.1378789E-002  0.1914370E+03  0.7546771E-02  0.1061555E+00
        -11   -1    0    0    0    0  0.00000000000E+00  0.00000000000E+00  0.18250000000E+03  0.18250000000E+03  0.00000000000E+00 0.  1.
         11   -1    0    0    0    0 -0.00000000000E+00 -0.00000000000E+00 -0.18250000000E+03  0.18250000000E+03  0.00000000000E+00 0. -1.
        -11    1    1    2    0    0  0.93674191154E+00  0.55490610421E+01  0.17347171026E+03  0.17356296790E+03  0.00000000000E+00 0.  1.
         11    1    1    2    0    0  0.17574368806E+02  0.19095362049E+02 -0.11483576431E+03  0.11773166122E+03  0.00000000000E+00 0. -1.
        -15    1    1    2    0    0 -0.22940368013E+02 -0.29388850493E+02 -0.44733296906E+02  0.58259682448E+02  0.17770000000E+01 0. -1.
         15    1    1    2    0    0  0.44292572954E+01  0.47444274026E+01 -0.13902649050E+02  0.15445688433E+02  0.17770000000E+01 0.  1.
</event>
<event>
 6    1  0.1378789E-002  0.1921197E+03  0.7546771E-02  0.1061045E+00
        -11   -1    0    0    0    0  0.00000000000E+00  0.00000000000E+00  0.18250000000E+03  0.18250000000E+03  0.00000000000E+00 0. -1.
         11   -1    0    0    0    0 -0.00000000000E+00 -0.00000000000E+00 -0.18250000000E+03  0.18250000000E+03  0.00000000000E+00 0.  1.
        -11    1    1    2    0    0  0.11182247841E+01 -0.39915540067E+01  0.14358151543E+03  0.14364133981E+03  0.00000000000E+00 0. -1.
         11    1    1    2    0    0  0.25910089282E+02 -0.84859623708E+01 -0.17071687396E+03  0.17288029194E+03  0.00000000000E+00 0.  1.
        -15    1    1    2    0    0 -0.15404792929E+02  0.32318905303E+01  0.29355384140E+02  0.33356394718E+02  0.17770000000E+01 0. -1.
         15    1    1    2    0    0 -0.11623521136E+02  0.92456258472E+01 -0.22200256053E+01  0.15121973535E+02  0.17770000000E+01 0.  1.
</event>
<event>
 6    1  0.1378789E-002  0.1881341E+03  0.7546771E-02  0.1064056E+00
        -11   -1    0    0    0    0  0.00000000000E+00  0.00000000000E+00  0.18250000000E+03  0.18250000000E+03  0.00000000000E+00 0. -1.
         11   -1    0    0    0    0 -0.00000000000E+00 -0.00000000000E+00 -0.18250000000E+03  0.18250000000E+03  0.00000000000E+00 0.  1.
        -11    1    1    2    0    0 -0.39328088001E+01 -0.48930805663E+01  0.16991575686E+03  0.17003168426E+03  0.00000000000E+00 0. -1.
         11    1    1    2    0    0 -0.38221803997E-03  0.32383573867E+01 -0.17683627706E+03  0.17686592618E+03  0.00000000000E+00 0.  1.
        -15    1    1    2    0    0  0.75604738502E-01 -0.32425281780E+01 -0.39718096227E+01  0.54270347098E+01  0.17770000000E+01 0.  1.
         15    1    1    2    0    0  0.38575862796E+01  0.48972513576E+01  0.10892329817E+02  0.12675354852E+02  0.17770000000E+01 0.  1.
</event>
<event>
 6    1  0.1378789E-002  0.1969230E+03  0.7546771E-02  0.1057521E+00
        -11   -1    0    0    0    0  0.00000000000E+00  0.00000000000E+00  0.18250000000E+03  0.18250000000E+03  0.00000000000E+00 0. -1.
         11   -1    0    0    0    0 -0.00000000000E+00 -0.00000000000E+00 -0.18250000000E+03  0.18250000000E+03  0.00000000000E+00 0. -1.
        -11    1    1    2    0    0 -0.20069818643E+00  0.38516820393E+01  0.15823395140E+03  0.15828094992E+03  0.00000000000E+00 0. -1.
         11    1    1    2    0    0 -0.12224443731E+02 -0.48501563409E+01 -0.16756172123E+03  0.16807704026E+03  0.00000000000E+00 0. -1.
        -15    1    1    2    0    0 -0.86897316540E+01 -0.30441028566E+01  0.13728986754E+02  0.16625907636E+02  0.17770000000E+01 0.  1.
         15    1    1    2    0    0  0.21114873571E+02  0.40425771581E+01 -0.44012169242E+01  0.22016102185E+02  0.17770000000E+01 0. -1.
</event>
<event>
 6    1  0.1378789E-002  0.1865165E+03  0.7546771E-02  0.1065302E+00
        -11   -1    0    0    0    0  0.00000000000E+00  0.00000000000E+00  0.18250000000E+03  0.18250000000E+03  0.00000000000E+00 0.  1.
         11   -1    0    0    0    0 -0.00000000000E+00 -0.00000000000E+00 -0.18250000000E+03  0.18250000000E+03  0.00000000000E+00 0.  1.
        -11    1    1    2    0    0 -0.31080506990E+01  0.21042019678E+01  0.16167402115E+03  0.16171758334E+03  0.00000000000E+00 0.  1.
         11    1    1    2    0    0  0.64103925556E+01 -0.56295756215E+01 -0.17827944066E+03  0.17848345642E+03  0.00000000000E+00 0.  1.
        -15    1    1    2    0    0  0.67817614941E+01  0.25872889777E+01  0.10341268478E+02  0.12758758402E+02  0.17770000000E+01 0. -1.
         15    1    1    2    0    0 -0.10084103351E+02  0.93808467603E+00  0.62641510294E+01  0.12040201841E+02  0.17770000000E+01 0.  1.
</event>
<event>
 6    1  0.1378789E-002  0.1875034E+03  0.7546771E-02  0.1064540E+00
        -11   -1    0    0    0    0  0.00000000000E+00  0.00000000000E+00  0.18250000000E+03  0.18250000000E+03  0.00000000000E+00 0. -1.
         11   -1    0    0    0    0 -0.00000000000E+00 -0.00000000000E+00 -0.18250000000E+03  0.18250000000E+03  0.00000000000E+00 0.  1.
        -11    1    1    2    0    0  0.54668821890E+01 -0.82225759525E-01  0.15849934552E+03  0.15859361933E+03  0.00000000000E+00 0. -1.
         11    1    1    2    0    0 -0.24371273834E+01 -0.15951153208E+01 -0.17747265130E+03  0.17749655192E+03  0.00000000000E+00 0.  1.
        -15    1    1    2    0    0  0.42380974773E+01  0.18175997166E+01 -0.29425124937E+01  0.57516300066E+01  0.17770000000E+01 0.  1.
         15    1    1    2    0    0 -0.72678522829E+01 -0.14025863629E+00  0.21915818277E+02  0.23158198744E+02  0.17770000000E+01 0.  1.
</event>
<event>
 6    1  0.1378789E-002  0.1844585E+03  0.7546771E-02  0.1066906E+00
        -11   -1    0    0    0    0  0.00000000000E+00  0.00000000000E+00  0.18250000000E+03  0.18250000000E+03  0.00000000000E+00 0. -1.
         11   -1    0    0    0    0 -0.00000000000E+00 -0.00000000000E+00 -0.18250000000E+03  0.18250000000E+03  0.00000000000E+00 0.  1.
        -11    1    1    2    0    0  0.28596863067E+01 -0.17460940819E+01  0.16621416769E+03  0.16624793590E+03  0.00000000000E+00 0. -1.
         11    1    1    2    0    0 -0.13585909515E+01 -0.23919635374E+01 -0.18052054520E+03  0.18054150353E+03  0.00000000000E+00 0.  1.
        -15    1    1    2    0    0 -0.20896947416E+01  0.38955859919E+01  0.15336958223E+02  0.16059963601E+02  0.17770000000E+01 0. -1.
         15    1    1    2    0    0  0.58859938637E+00  0.24247162749E+00 -0.10305807081E+01  0.21505969692E+01  0.17770000000E+01 0. -1.
</event>
<event>
 6    1  0.1378789E-002  0.1838716E+03  0.7546771E-02  0.1067368E+00
        -11   -1    0    0    0    0  0.00000000000E+00  0.00000000000E+00  0.18250000000E+03  0.18250000000E+03  0.00000000000E+00 0. -1.
         11   -1    0    0    0    0 -0.00000000000E+00 -0.00000000000E+00 -0.18250000000E+03  0.18250000000E+03  0.00000000000E+00 0. -1.
        -11    1    1    2    0    0  0.37413160201E+01 -0.30999721819E+01  0.18106321611E+03  0.18112839507E+03  0.00000000000E+00 0. -1.
         11    1    1    2    0    0  0.44419586961E+00  0.46301254780E+00 -0.41292335867E+02  0.41297320639E+02  0.00000000000E+00 0. -1.
        -15    1    1    2    0    0  0.12214411086E+01 -0.38106229081E+01 -0.25151993613E+01  0.50494279039E+01  0.17770000000E+01 0.  1.
         15    1    1    2    0    0 -0.54069529983E+01  0.64475825422E+01 -0.13725568088E+03  0.13752485639E+03  0.17770000000E+01 0. -1.
</event>
<event>
 6    1  0.1378789E-002  0.1828172E+03  0.7546771E-02  0.1068203E+00
        -11   -1    0    0    0    0  0.00000000000E+00  0.00000000000E+00  0.18250000000E+03  0.18250000000E+03  0.00000000000E+00 0.  1.
         11   -1    0    0    0    0 -0.00000000000E+00 -0.00000000000E+00 -0.18250000000E+03  0.18250000000E+03  0.00000000000E+00 0.  1.
        -11    1    1    2    0    0 -0.31644479782E+01  0.67814565171E+00  0.18215409308E+03  0.18218284013E+03  0.00000000000E+00 0.  1.
         11    1    1    2    0    0 -0.16960071069E+01 -0.44931183612E+00 -0.73717618856E+02  0.73738495042E+02  0.00000000000E+00 0.  1.
        -15    1    1    2    0    0  0.25254686847E+00 -0.18329089002E+01 -0.86422251211E+02  0.86460317883E+02  0.17770000000E+01 0. -1.
         15    1    1    2    0    0  0.46079082167E+01  0.16040750847E+01 -0.22014223008E+02  0.22618346948E+02  0.17770000000E+01 0.  1.
</event>
<event>
 6    1  0.1378789E-002  0.1827502E+03  0.7546771E-02  0.1068256E+00
        -11   -1    0    0    0    0  0.00000000000E+00  0.00000000000E+00  0.18250000000E+03  0.18250000000E+03  0.00000000000E+00 0.  1.
         11   -1    0    0    0    0 -0.00000000000E+00 -0.00000000000E+00 -0.18250000000E+03  0.18250000000E+03  0.00000000000E+00 0. -1.
        -11    1    1    2    0    0 -0.98555703721E+00  0.38481477227E+00  0.50353099668E+02  0.50364213994E+02  0.00000000000E+00 0.  1.
         11    1    1    2    0    0 -0.68586216465E+00 -0.29165619425E+01 -0.18222514472E+03  0.18224977396E+03  0.00000000000E+00 0. -1.
        -15    1    1    2    0    0  0.25602728240E-01  0.31907675514E+01  0.13441411176E+02  0.13928780151E+02  0.17770000000E+01 0.  1.
         15    1    1    2    0    0  0.16458164736E+01 -0.65902038114E+00  0.11843063387E+03  0.11845723190E+03  0.17770000000E+01 0.  1.
</event>
<event>
 6    1  0.1378789E-002  0.1841583E+03  0.7546771E-02  0.1067142E+00
        -11   -1    0    0    0    0  0.00000000000E+00  0.00000000000E+00  0.18250000000E+03  0.18250000000E+03  0.00000000000E+00 0. -1.
         11   -1    0    0    0    0 -0.00000000000E+00 -0.00000000000E+00 -0.18250000000E+03  0.18250000000E+03  0.00000000000E+00 0.  1.
        -11    1    1    2    0    0 -0.23918252886E+00 -0.46722083710E+01  0.18078121964E+03  0.18084174328E+03  0.00000000000E+00 0. -1.
         11    1    1    2    0    0  0.31725582573E+00 -0.23766069062E+01 -0.16374526004E+03  0.16376281353E+03  0.00000000000E+00 0.  1.
        -15    1    1    2    0    0  0.16008998886E+01  0.80310972666E+01 -0.14448720548E+02  0.16702833838E+02  0.17770000000E+01 0.  1.
         15    1    1    2    0    0 -0.16789731855E+01 -0.98228198948E+00 -0.25872390526E+01  0.36926093457E+01  0.17770000000E+01 0. -1.
</event>
<event>
 6    1  0.1378789E-002  0.1843916E+03  0.7546771E-02  0.1066959E+00
        -11   -1    0    0    0    0  0.00000000000E+00  0.00000000000E+00  0.18250000000E+03  0.18250000000E+03  0.00000000000E+00 0.  1.
         11   -1    0    0    0    0 -0.00000000000E+00 -0.00000000000E+00 -0.18250000000E+03  0.18250000000E+03  0.00000000000E+00 0. -1.
        -11    1    1    2    0    0 -0.31964884553E+01  0.89302204925E+00  0.18057786016E+03  0.18060835697E+03  0.00000000000E+00 0.  1.
         11    1    1    2    0    0 -0.28572015471E+01 -0.14423891458E+01 -0.16178765444E+02  0.16492317558E+02  0.00000000000E+00 0. -1.
        -15    1    1    2    0    0 -0.85019003214E+01  0.25575531061E+01 -0.13373774088E+02  0.16150509259E+02  0.17770000000E+01 0.  1.
         15    1    1    2    0    0  0.14555590324E+02 -0.20081860095E+01 -0.15102532063E+03  0.15174881621E+03  0.17770000000E+01 0. -1.
</event>
<event>
 6    1  0.1378789E-002  0.1859927E+03  0.7546771E-02  0.1065708E+00
        -11   -1    0    0    0    0  0.00000000000E+00  0.00000000000E+00  0.18250000000E+03  0.18250000000E+03  0.00000000000E+00 0. -1.
         11   -1    0    0    0    0 -0.00000000000E+00 -0.00000000000E+00 -0.18250000000E+03  0.18250000000E+03  0.00000000000E+00 0.  1.
        -11    1    1    2    0    0  0.23277683609E+01  0.19881250435E+01  0.17898114595E+03  0.17900732318E+03  0.00000000000E+00 0. -1.
         11    1    1    2    0    0  0.91830413564E+00 -0.63614571014E+01 -0.16363573000E+03  0.16376191118E+03  0.00000000000E+00 0.  1.
        -15    1    1    2    0    0 -0.74918349191E+01  0.72281061200E+01 -0.11328886843E+02  0.15487882832E+02  0.17770000000E+01 0.  1.
         15    1    1    2    0    0  0.42457624225E+01 -0.28547740620E+01 -0.40165291064E+01  0.67428828076E+01  0.17770000000E+01 0. -1.
</event>
<event>
 6    1  0.1378789E-002  0.1827448E+03  0.7546771E-02  0.1068260E+00
        -11   -1    0    0    0    0  0.00000000000E+00  0.00000000000E+00  0.18250000000E+03  0.18250000000E+03  0.00000000000E+00 0. -1.
         11   -1    0    0    0    0 -0.00000000000E+00 -0.00000000000E+00 -0.18250000000E+03  0.18250000000E+03  0.00000000000E+00 0. -1.
        -11    1    1    2    0    0 -0.29946221467E+01 -0.10869408710E+00  0.18223055614E+03  0.18225519243E+03  0.00000000000E+00 0. -1.
         11    1    1    2    0    0 -0.19119174911E+01  0.28960074967E+00 -0.65179414848E+02  0.65208093187E+02  0.00000000000E+00 0. -1.
        -15    1    1    2    0    0 -0.11505192634E+00  0.23042707854E+01 -0.77150669333E+02  0.77205611249E+02  0.17770000000E+01 0. -1.
         15    1    1    2    0    0  0.50215915642E+01 -0.24851774480E+01 -0.39900471957E+02  0.40331103136E+02  0.17770000000E+01 0. -1.
</event>
<event>
 6    1  0.1378789E-002  0.1885174E+03  0.7546771E-02  0.1063763E+00
        -11   -1    0    0    0    0  0.00000000000E+00  0.00000000000E+00  0.18250000000E+03  0.18250000000E+03  0.00000000000E+00 0.  1.
         11   -1    0    0    0    0 -0.00000000000E+00 -0.00000000000E+00 -0.18250000000E+03  0.18250000000E+03  0.00000000000E+00 0. -1.
        -11    1    1    2    0    0 -0.21771350317E+01  0.14048816033E+02  0.15713929669E+03  0.15778107527E+03  0.00000000000E+00 0.  1.
         11    1    1    2    0    0  0.14912837159E+01 -0.31268159859E+01 -0.17644864384E+03  0.17648264735E+03  0.00000000000E+00 0. -1.
        -15    1    1    2    0    0 -0.33333109353E-01 -0.14982547617E+02  0.21068509904E+02  0.25913658228E+02  0.17770000000E+01 0.  1.
         15    1    1    2    0    0  0.71918442514E+00  0.40605475696E+01 -0.17591627615E+01  0.48226191457E+01  0.17770000000E+01 0.  1.
</event>
<event>
 6    1  0.1378789E-002  0.1895584E+03  0.7546771E-02  0.1062971E+00
        -11   -1    0    0    0    0  0.00000000000E+00  0.00000000000E+00  0.18250000000E+03  0.18250000000E+03  0.00000000000E+00 0. -1.
         11   -1    0    0    0    0 -0.00000000000E+00 -0.00000000000E+00 -0.18250000000E+03  0.18250000000E+03  0.00000000000E+00 0. -1.
        -11    1    1    2    0    0  0.12395496081E+02  0.10175613069E+02  0.17470708808E+03  0.17544160866E+03  0.00000000000E+00 0. -1.
         11    1    1    2    0    0 -0.25814372674E+01 -0.45926090139E+01 -0.16122901692E+03  0.16131506989E+03  0.00000000000E+00 0. -1.
        -15    1    1    2    0    0 -0.12508185576E+02 -0.59402194858E+01  0.42402656356E+00  0.13967048417E+02  0.17770000000E+01 0. -1.
         15    1    1    2    0    0  0.26941267620E+01  0.35721543052E+00 -0.13902097717E+02  0.14276273036E+02  0.17770000000E+01 0. -1.
</event>
<event>
 6    1  0.1378789E-002  0.1826729E+03  0.7546771E-02  0.1068317E+00
        -11   -1    0    0    0    0  0.00000000000E+00  0.00000000000E+00  0.18250000000E+03  0.18250000000E+03  0.00000000000E+00 0. -1.
         11   -1    0    0    0    0 -0.00000000000E+00 -0.00000000000E+00 -0.18250000000E+03  0.18250000000E+03  0.00000000000E+00 0. -1.
        -11    1    1    2    0    0  0.42883891524E+01  0.19985778261E+01  0.18226570523E+03  0.18232710138E+03  0.00000000000E+00 0. -1.
         11    1    1    2    0    0 -0.10806205530E+01  0.12356353022E+01 -0.70063124710E+02  0.70082351412E+02  0.00000000000E+00 0. -1.
        -15    1    1    2    0    0 -0.17548524559E+01 -0.16320983786E+01 -0.10098260982E+03  0.10102667206E+03  0.17770000000E+01 0. -1.
         15    1    1    2    0    0 -0.14529161436E+01 -0.16021147497E+01 -0.11219970703E+02  0.11563875153E+02  0.17770000000E+01 0.  1.
</event>
<event>
 6    1  0.1378789E-002  0.1852804E+03  0.7546771E-02  0.1066263E+00
        -11   -1    0    0    0    0  0.00000000000E+00  0.00000000000E+00  0.18250000000E+03  0.18250000000E+03  0.00000000000E+00 0.  1.
         11   -1    0    0    0    0 -0.00000000000E+00 -0.00000000000E+00 -0.18250000000E+03  0.18250000000E+03  0.00000000000E+00 0. -1.
        -11    1    1    2    0    0 -0.31119988623E+01 -0.21797991832E+01  0.17530125501E+03  0.17534242518E+03  0.00000000000E+00 0.  1.
         11    1    1    2    0    0 -0.36904814423E+01  0.35424217192E+01 -0.17964681667E+03  0.17971963484E+03  0.00000000000E+00 0. -1.
        -15    1    1    2    0    0  0.17205813370E+01  0.13390473197E+01  0.70478544855E+00  0.28996378033E+01  0.17770000000E+01 0.  1.
         15    1    1    2    0    0  0.50818989676E+01 -0.27016698557E+01  0.36407762184E+01  0.70383021816E+01  0.17770000000E+01 0. -1.
</event>
<event>
 6    1  0.1378789E-002  0.1742883E+03  0.7546771E-02  0.1075186E+00
        -11   -1    0    0    0    0  0.00000000000E+00  0.00000000000E+00  0.18250000000E+03  0.18250000000E+03  0.00000000000E+00 0.  1.
         11   -1    0    0    0    0 -0.00000000000E+00 -0.00000000000E+00 -0.18250000000E+03  0.18250000000E+03  0.00000000000E+00 0.  1.
        -11    1    1    2    0    0  0.28930960276E+01 -0.31344152276E+01  0.17562542236E+03  0.17567721406E+03  0.00000000000E+00 0.  1.
         11    1    1    2    0    0  0.40248320479E+01  0.32380414055E+01 -0.17290161257E+03  0.17297876117E+03  0.00000000000E+00 0.  1.
        -15    1    1    2    0    0 -0.85876277251E+01  0.51489118749E+01 -0.28170475936E+01  0.10552351851E+02  0.17770000000E+01 0. -1.
         15    1    1    2    0    0  0.16696996496E+01 -0.52525380527E+01  0.93237805849E-01  0.57916729193E+01  0.17770000000E+01 0. -1.
</event>
<event>
 6    1  0.1378789E-002  0.1845837E+03  0.7546771E-02  0.1066808E+00
        -11   -1    0    0    0    0  0.00000000000E+00  0.00000000000E+00  0.18250000000E+03  0.18250000000E+03  0.00000000000E+00 0. -1.
         11   -1    0    0    0    0 -0.00000000000E+00 -0.00000000000E+00 -0.18250000000E+03  0.18250000000E+03  0.00000000000E+00 0.  1.
        -11    1    1    2    0    0 -0.31872153819E+01 -0.65331118888E+00  0.18038693609E+03  0.18041627385E+03  0.00000000000E+00 0. -1.
         11    1    1    2    0    0  0.20598885551E+01 -0.64331647322E+01 -0.12417194774E+03  0.12435554413E+03  0.00000000000E+00 0.  1.
        -15    1    1    2    0    0 -0.11566263169E+00  0.53738662120E+01 -0.57058774270E+02  0.57338933248E+02  0.17770000000E+01 0.  1.
         15    1    1    2    0    0  0.12429894585E+01  0.17126097091E+01  0.84378592463E+00  0.28892487771E+01  0.17770000000E+01 0. -1.
</event>
<event>
 6    1  0.1378789E-002  0.1828452E+03  0.7546771E-02  0.1068180E+00
        -11   -1    0    0    0    0  0.00000000000E+00  0.00000000000E+00  0.18250000000E+03  0.18250000000E+03  0.00000000000E+00 0.  1.
         11   -1    0    0    0    0 -0.00000000000E+00 -0.00000000000E+00 -0.18250000000E+03  0.18250000000E+03  0.00000000000E+00 0.  1.
        -11    1    1    2    0    0  0.11558142768E+01 -0.42915146143E+01  0.18210053139E+03  0.18215475986E+03  0.00000000000E+00 0.  1.
         11    1    1    2    0    0  0.74270878803E+00 -0.62792923953E+00 -0.50839847293E+02  0.50849149298E+02  0.00000000000E+00 0.  1.
        -15    1    1    2    0    0 -0.39637386889E+01  0.12802609536E+01 -0.11560670090E+03  0.11569536428E+03  0.17770000000E+01 0.  1.
         15    1    1    2    0    0  0.20652156241E+01  0.36391829002E+01 -0.15653983195E+02  0.16300726568E+02  0.17770000000E+01 0. -1.
</event>
<event>
 6    1  0.1378789E-002  0.1878201E+03  0.7546771E-02  0.1064297E+00
        -11   -1    0    0    0    0  0.00000000000E+00  0.00000000000E+00  0.18250000000E+03  0.18250000000E+03  0.00000000000E+00 0.  1.
         11   -1    0    0    0    0 -0.00000000000E+00 -0.00000000000E+00 -0.18250000000E+03  0.18250000000E+03  0.00000000000E+00 0. -1.
        -11    1    1    2    0    0 -0.89590332567E+00 -0.15455285309E+02  0.17650222381E+03  0.17717986199E+03  0.00000000000E+00 0.  1.
         11    1    1    2    0    0  0.21854767849E+01  0.37257545406E+01 -0.12157679060E+03  0.12165349797E+03  0.00000000000E+00 0. -1.
        -15    1    1    2    0    0  0.13960955656E+02  0.32740690497E+01 -0.41920775549E+02  0.44341143001E+02  0.17770000000E+01 0.  1.
         15    1    1    2    0    0 -0.15250529115E+02  0.84554617188E+01 -0.13004657653E+02  0.21825497035E+02  0.17770000000E+01 0. -1.
</event>
<event>
 6    1  0.1378789E-002  0.1858099E+03  0.7546771E-02  0.1065850E+00
        -11   -1    0    0    0    0  0.00000000000E+00  0.00000000000E+00  0.18250000000E+03  0.18250000000E+03  0.00000000000E+00 0.  1.
         11   -1    0    0    0    0 -0.00000000000E+00 -0.00000000000E+00 -0.18250000000E+03  0.18250000000E+03  0.00000000000E+00 0. -1.
        -11    1    1    2    0    0  0.73060101770E+01 -0.28579285107E+01  0.17901824435E+03  0.17919005930E+03  0.00000000000E+00 0.  1.
         11    1    1    2    0    0  0.39686304663E+01  0.11283690115E+00 -0.16229884528E+03  0.16234739893E+03  0.00000000000E+00 0. -1.
        -15    1    1    2    0    0 -0.41535919227E+01  0.77386157206E+00  0.52921686429E+00  0.46139990336E+01  0.17770000000E+01 0.  1.
         15    1    1    2    0    0 -0.71210487206E+01  0.19712300375E+01 -0.17248615939E+02  0.18848542744E+02  0.17770000000E+01 0. -1.
</event>
<event>
 6    1  0.1378789E-002  0.1842328E+03  0.7546771E-02  0.1067084E+00
        -11   -1    0    0    0    0  0.00000000000E+00  0.00000000000E+00  0.18250000000E+03  0.18250000000E+03  0.00000000000E+00 0.  1.
         11   -1    0    0    0    0 -0.00000000000E+00 -0.00000000000E+00 -0.18250000000E+03  0.18250000000E+03  0.00000000000E+00 0.  1.
        -11    1    1    2    0    0  0.23704403860E+01  0.18759972606E+01  0.16808597659E+03  0.16811315796E+03  0.00000000000E+00 0.  1.
         11    1    1    2    0    0  0.51932153228E+01 -0.45257319360E+01 -0.18063587195E+03  0.18076717061E+03  0.00000000000E+00 0.  1.
        -15    1    1    2    0    0 -0.29615394487E+01 -0.99475215758E+00  0.26180842228E+01  0.44466101425E+01  0.17770000000E+01 0.  1.
         15    1    1    2    0    0 -0.46021162601E+01  0.36444868330E+01  0.99318111334E+01  0.11673061284E+02  0.17770000000E+01 0. -1.
</event>
<event>
 6    1  0.1378789E-002  0.1827432E+03  0.7546771E-02  0.1068261E+00
        -11   -1    0    0    0    0  0.00000000000E+00  0.00000000000E+00  0.18250000000E+03  0.18250000000E+03  0.00000000000E+00 0. -1.
         11   -1    0    0    0    0 -0.00000000000E+00 -0.00000000000E+00 -0.18250000000E+03  0.18250000000E+03  0.00000000000E+00 0.  1.
        -11    1    1    2    0    0 -0.17625753852E+01  0.19501702550E+01  0.18223780594E+03  0.18225676325E+03  0.00000000000E+00 0. -1.
         11    1    1    2    0    0 -0.93512318967E+00 -0.18808840668E+01 -0.10654665992E+03  0.10656736330E+03  0.00000000000E+00 0.  1.
        -15    1    1    2    0    0 -0.36621347164E+00 -0.32227985203E+01 -0.40095210498E+02  0.40265421598E+02  0.17770000000E+01 0.  1.
         15    1    1    2    0    0  0.30639120465E+01  0.31535123321E+01 -0.35595935527E+02  0.35910451850E+02  0.17770000000E+01 0. -1.
</event>
<event>
 6    1  0.1378789E-002  0.1826526E+03  0.7546771E-02  0.1068333E+00
        -11   -1    0    0    0    0  0.00000000000E+00  0.00000000000E+00  0.18250000000E+03  0.18250000000E+03  0.00000000000E+00 0. -1.
         11   -1    0    0    0    0 -0.00000000000E+00 -0.00000000000E+00 -0.18250000000E+03  0.18250000000E+03  0.00000000000E+00 0.  1.
        -11    1    1    2    0    0 -0.79856588615E+00  0.30700813306E+01  0.12829711838E+03  0.12833633036E+03  0.00000000000E+00 0. -1.
         11    1    1    2    0    0  0.18795400885E+01 -0.18464258318E+01 -0.18232839691E+03  0.18234743288E+03  0.00000000000E+00 0.  1.
        -15    1    1    2    0    0  0.10301717706E+00 -0.23694389923E+01  0.36190033254E+02  0.36311170314E+02  0.17770000000E+01 0.  1.
         15    1    1    2    0    0 -0.11839913794E+01  0.11457834934E+01  0.17841245278E+02  0.18005066439E+02  0.17770000000E+01 0. -1.
</event>
<event>
 6    1  0.1378789E-002  0.1831407E+03  0.7546771E-02  0.1067946E+00
        -11   -1    0    0    0    0  0.00000000000E+00  0.00000000000E+00  0.18250000000E+03  0.18250000000E+03  0.00000000000E+00 0.  1.
         11   -1    0    0    0    0 -0.00000000000E+00 -0.00000000000E+00 -0.18250000000E+03  0.18250000000E+03  0.00000000000E+00 0.  1.
        -11    1    1    2    0    0  0.13457252100E+01 -0.38277703361E+01  0.10004749416E+03  0.10012973530E+03  0.00000000000E+00 0.  1.
         11    1    1    2    0    0  0.23051006198E+01  0.28236366876E+01 -0.18182277824E+03  0.18185931128E+03  0.00000000000E+00 0.  1.
        -15    1    1    2    0    0 -0.11972439090E+01 -0.60672984212E+01  0.31499062862E+02  0.32149559768E+02  0.17770000000E+01 0. -1.
         15    1    1    2    0    0 -0.24535819208E+01  0.70714320696E+01  0.50276221214E+02  0.50861393653E+02  0.17770000000E+01 0. -1.
</event>
<event>
 6    1  0.1378789E-002  0.1841943E+03  0.7546771E-02  0.1067114E+00
        -11   -1    0    0    0    0  0.00000000000E+00  0.00000000000E+00  0.18250000000E+03  0.18250000000E+03  0.00000000000E+00 0.  1.
         11   -1    0    0    0    0 -0.00000000000E+00 -0.00000000000E+00 -0.18250000000E+03  0.18250000000E+03  0.00000000000E+00 0. -1.
        -11    1    1    2    0    0 -0.74906210669E+01  0.13537214084E+01  0.18064538540E+03  0.18080568916E+03  0.00000000000E+00 0.  1.
         11    1    1    2    0    0  0.24708138770E+01 -0.69991726751E+00 -0.13098533444E+03  0.13101050585E+03  0.00000000000E+00 0. -1.
        -15    1    1    2    0    0  0.13030942245E+01 -0.72016080092E+01 -0.40499369567E+02  0.41193663066E+02  0.17770000000E+01 0. -1.
         15    1    1    2    0    0  0.37167129653E+01  0.65478038683E+01 -0.91606813953E+01  0.11990141925E+02  0.17770000000E+01 0.  1.
</event>
<event>
 6    1  0.1378789E-002  0.1841678E+03  0.7546771E-02  0.1067135E+00
        -11   -1    0    0    0    0  0.00000000000E+00  0.00000000000E+00  0.18250000000E+03  0.18250000000E+03  0.00000000000E+00 0. -1.
         11   -1    0    0    0    0 -0.00000000000E+00 -0.00000000000E+00 -0.18250000000E+03  0.18250000000E+03  0.00000000000E+00 0.  1.
        -11    1    1    2    0    0  0.16590066322E+01  0.35024327767E+01  0.18079061941E+03  0.18083215257E+03  0.00000000000E+00 0. -1.
         11    1    1    2    0    0  0.12831995028E+01 -0.13055377286E+01 -0.11948303880E+03  0.11949706101E+03  0.00000000000E+00 0.  1.
        -15    1    1    2    0    0 -0.52519527724E+01  0.48182484548E+01 -0.81441289482E+01  0.10967364835E+02  0.17770000000E+01 0.  1.
         15    1    1    2    0    0  0.23097466374E+01 -0.70151435029E+01 -0.53163451663E+02  0.53703421582E+02  0.17770000000E+01 0. -1.
</event>
<event>
 6    1  0.1378789E-002  0.1831300E+03  0.7546771E-02  0.1067954E+00
        -11   -1    0    0    0    0  0.00000000000E+00  0.00000000000E+00  0.18250000000E+03  0.18250000000E+03  0.00000000000E+00 0. -1.
         11   -1    0    0    0    0 -0.00000000000E+00 -0.00000000000E+00 -0.18250000000E+03  0.18250000000E+03  0.00000000000E+00 0. -1.
        -11    1    1    2    0    0  0.15446671240E+01 -0.15512103353E+01  0.10756033925E+03  0.10758261397E+03  0.00000000000E+00 0. -1.
         11    1    1    2    0    0 -0.12757624543E+01  0.30386826475E+01 -0.18184009776E+03  0.18186995990E+03  0.00000000000E+00 0. -1.
        -15    1    1    2    0    0  0.26928852323E+00 -0.24425941645E+01  0.30985866063E+01  0.43356372678E+01  0.17770000000E+01 0. -1.
         15    1    1    2    0    0 -0.53819319295E+00  0.95512185234E+00  0.71181171907E+02  0.71211788860E+02  0.17770000000E+01 0.  1.
</event>
<event>
 6    1  0.1378789E-002  0.1832092E+03  0.7546771E-02  0.1067892E+00
        -11   -1    0    0    0    0  0.00000000000E+00  0.00000000000E+00  0.18250000000E+03  0.18250000000E+03  0.00000000000E+00 0. -1.
         11   -1    0    0    0    0 -0.00000000000E+00 -0.00000000000E+00 -0.18250000000E+03  0.18250000000E+03  0.00000000000E+00 0.  1.
        -11    1    1    2    0    0  0.80173653645E+00 -0.78424377879E+01  0.18161981892E+03  0.18179082825E+03  0.00000000000E+00 0. -1.
         11    1    1    2    0    0 -0.17727526933E+01 -0.27466265014E-02 -0.71078928676E+02  0.71101032070E+02  0.00000000000E+00 0.  1.
        -15    1    1    2    0    0 -0.27662440455E+00  0.45157355683E+01 -0.71782832949E+01  0.86691331081E+01  0.17770000000E+01 0. -1.
         15    1    1    2    0    0  0.12476405614E+01  0.33294488461E+01 -0.10336260695E+03  0.10343900657E+03  0.17770000000E+01 0.  1.
</event>
<event>
 6    1  0.1378789E-002  0.1912031E+03  0.7546771E-02  0.1061731E+00
        -11   -1    0    0    0    0  0.00000000000E+00  0.00000000000E+00  0.18250000000E+03  0.18250000000E+03  0.00000000000E+00 0.  1.
         11   -1    0    0    0    0 -0.00000000000E+00 -0.00000000000E+00 -0.18250000000E+03  0.18250000000E+03  0.00000000000E+00 0. -1.
        -11    1    1    2    0    0  0.56667430141E+01  0.61095016028E+01  0.17359700803E+03  0.17379689060E+03  0.00000000000E+00 0.  1.
         11    1    1    2    0    0 -0.23638627124E+01 -0.76206921707E+00 -0.16171693151E+03  0.16173600259E+03  0.00000000000E+00 0. -1.
        -15    1    1    2    0    0 -0.81767085964E+01 -0.12921146803E+02 -0.13090949632E+02  0.20207555256E+02  0.17770000000E+01 0.  1.
         15    1    1    2    0    0  0.48738282947E+01  0.75737144173E+01  0.12108731094E+01  0.92595515555E+01  0.17770000000E+01 0. -1.
</event>
<event>
 6    1  0.1697540E-002  0.1832095E+03  0.7546771E-02  0.1067891E+00
        -11   -1    0    0    0    0  0.00000000000E+00  0.00000000000E+00  0.18250000000E+03  0.18250000000E+03  0.00000000000E+00 0.  1.
         11   -1    0    0    0    0 -0.00000000000E+00 -0.00000000000E+00 -0.18250000000E+03  0.18250000000E+03  0.00000000000E+00 0. -1.
        -11    1    1    2    0    0 -0.35536937730E+01  0.91997591750E+00  0.18175347370E+03  0.18179053963E+03  0.00000000000E+00 0.  1.
         11    1    1    2    0    0  0.36268261983E+01 -0.58502159786E+00 -0.13655000501E+03  0.13659941430E+03  0.00000000000E+00 0. -1.
        -15    1    1    2    0    0 -0.29615225596E+01  0.78296589989E+00 -0.40741862357E+02  0.40895485433E+02  0.17770000000E+01 0. -1.
         15    1    1    2    0    0  0.28883901344E+01 -0.11179202195E+01 -0.44616063403E+01  0.57145606412E+01  0.17770000000E+01 0.  1.
</event>
<event>
 6    1  0.1378789E-002  0.1875520E+03  0.7546771E-02  0.1064503E+00
        -11   -1    0    0    0    0  0.00000000000E+00  0.00000000000E+00  0.18250000000E+03  0.18250000000E+03  0.00000000000E+00 0.  1.
         11   -1    0    0    0    0 -0.00000000000E+00 -0.00000000000E+00 -0.18250000000E+03  0.18250000000E+03  0.00000000000E+00 0.  1.
        -11    1    1    2    0    0 -0.42414720565E+01  0.51907933422E+00  0.16881680862E+03  0.16887088086E+03  0.00000000000E+00 0.  1.
         11    1    1    2    0    0  0.28591933130E+01 -0.69156677761E+00 -0.17742366290E+03  0.17744804707E+03  0.00000000000E+00 0.  1.
        -15    1    1    2    0    0 -0.42936997659E+01 -0.27324286575E+01  0.10494475858E+02  0.11798041218E+02  0.17770000000E+01 0. -1.
         15    1    1    2    0    0  0.56759785094E+01  0.29049161009E+01 -0.18876215780E+01  0.68830308596E+01  0.17770000000E+01 0.  1.
</event>
<event>
 6    1  0.1378789E-002  0.1829916E+03  0.7546771E-02  0.1068064E+00
        -11   -1    0    0    0    0  0.00000000000E+00  0.00000000000E+00  0.18250000000E+03  0.18250000000E+03  0.00000000000E+00 0.  1.
         11   -1    0    0    0    0 -0.00000000000E+00 -0.00000000000E+00 -0.18250000000E+03  0.18250000000E+03  0.00000000000E+00 0. -1.
        -11    1    1    2    0    0 -0.37025350450E+01 -0.15070715270E+01  0.10086285237E+03  0.10094203791E+03  0.00000000000E+00 0.  1.
         11    1    1    2    0    0  0.35742280524E+00 -0.26042455864E+01 -0.18198942300E+03  0.18200840621E+03  0.00000000000E+00 0. -1.
        -15    1    1    2    0    0  0.24109571483E+01 -0.33440234906E+01  0.33914604048E+02  0.34210426834E+02  0.17770000000E+01 0.  1.
         15    1    1    2    0    0  0.93415509150E+00  0.74553406040E+01  0.47211966590E+02  0.47839129043E+02  0.17770000000E+01 0. -1.
</event>
<event>
 6    1  0.1378789E-002  0.1949371E+03  0.7546771E-02  0.1058964E+00
        -11   -1    0    0    0    0  0.00000000000E+00  0.00000000000E+00  0.18250000000E+03  0.18250000000E+03  0.00000000000E+00 0.  1.
         11   -1    0    0    0    0 -0.00000000000E+00 -0.00000000000E+00 -0.18250000000E+03  0.18250000000E+03  0.00000000000E+00 0. -1.
        -11    1    1    2    0    0  0.22427492748E+01  0.62515102257E+01  0.13848517557E+03  0.13864434773E+03  0.00000000000E+00 0.  1.
         11    1    1    2    0    0 -0.18831095195E+01 -0.30174189719E+01 -0.17002569218E+03  0.17006289107E+03  0.00000000000E+00 0. -1.
        -15    1    1    2    0    0  0.36956549947E+01 -0.16477262743E+02  0.37458091416E+02  0.41126930288E+02  0.17770000000E+01 0.  1.
         15    1    1    2    0    0 -0.40552947499E+01  0.13243171489E+02 -0.59175748084E+01  0.15165830911E+02  0.17770000000E+01 0. -1.
</event>
<event>
 6    1  0.1378789E-002  0.1829481E+03  0.7546771E-02  0.1068099E+00
        -11   -1    0    0    0    0  0.00000000000E+00  0.00000000000E+00  0.18250000000E+03  0.18250000000E+03  0.00000000000E+00 0.  1.
         11   -1    0    0    0    0 -0.00000000000E+00 -0.00000000000E+00 -0.18250000000E+03  0.18250000000E+03  0.00000000000E+00 0.  1.
        -11    1    1    2    0    0  0.12298447713E+01  0.26420015479E+01  0.18202860938E+03  0.18205193579E+03  0.00000000000E+00 0.  1.
         11    1    1    2    0    0  0.20240883163E+01  0.86079775567E+00 -0.16125602518E+03  0.16127102518E+03  0.00000000000E+00 0.  1.
        -15    1    1    2    0    0 -0.95318611984E+00 -0.16884329196E+01 -0.68135390427E+01  0.73035205750E+01  0.17770000000E+01 0. -1.
         15    1    1    2    0    0 -0.23007469678E+01 -0.18143663839E+01 -0.13959045161E+02  0.14373518455E+02  0.17770000000E+01 0.  1.
</event>
<event>
 6    1  0.1378789E-002  0.1826251E+03  0.7546771E-02  0.1068355E+00
        -11   -1    0    0    0    0  0.00000000000E+00  0.00000000000E+00  0.18250000000E+03  0.18250000000E+03  0.00000000000E+00 0. -1.
         11   -1    0    0    0    0 -0.00000000000E+00 -0.00000000000E+00 -0.18250000000E+03  0.18250000000E+03  0.00000000000E+00 0. -1.
        -11    1    1    2    0    0  0.18597689778E+00  0.75842025417E+00  0.48605388045E+02  0.48611660491E+02  0.00000000000E+00 0. -1.
         11    1    1    2    0    0  0.36258803577E+01  0.23436096827E+00 -0.18233872806E+03  0.18237492614E+03  0.00000000000E+00 0. -1.
        -15    1    1    2    0    0 -0.56860646762E+01 -0.33644328319E+00  0.97261688502E+02  0.97444539636E+02  0.17770000000E+01 0. -1.
         15    1    1    2    0    0  0.18742074207E+01 -0.65633793925E+00  0.36471651515E+02  0.36568873734E+02  0.17770000000E+01 0. -1.
</event>
<event>
 6    1  0.1378789E-002  0.1841735E+03  0.7546771E-02  0.1067130E+00
        -11   -1    0    0    0    0  0.00000000000E+00  0.00000000000E+00  0.18250000000E+03  0.18250000000E+03  0.00000000000E+00 0.  1.
         11   -1    0    0    0    0 -0.00000000000E+00 -0.00000000000E+00 -0.18250000000E+03  0.18250000000E+03  0.00000000000E+00 0.  1.
        -11    1    1    2    0    0 -0.58309533809E+01  0.54160161305E+01  0.94757907115E+02  0.95091504399E+02  0.00000000000E+00 0.  1.
         11    1    1    2    0    0  0.46875466075E+00  0.53717701256E+01 -0.18074609411E+03  0.18082650851E+03  0.00000000000E+00 0.  1.
        -15    1    1    2    0    0 -0.89459282888E+00 -0.21746956989E+01  0.59180963979E+00  0.30062543741E+01  0.17770000000E+01 0. -1.
         15    1    1    2    0    0  0.62567915490E+01 -0.86130905573E+01  0.85396377350E+02  0.86075732718E+02  0.17770000000E+01 0.  1.
</event>
<event>
 6    1  0.1378789E-002  0.1835125E+03  0.7546771E-02  0.1067652E+00
        -11   -1    0    0    0    0  0.00000000000E+00  0.00000000000E+00  0.18250000000E+03  0.18250000000E+03  0.00000000000E+00 0. -1.
         11   -1    0    0    0    0 -0.00000000000E+00 -0.00000000000E+00 -0.18250000000E+03  0.18250000000E+03  0.00000000000E+00 0. -1.
        -11    1    1    2    0    0 -0.46765641235E+01 -0.32933197901E+01  0.18139732887E+03  0.18148748477E+03  0.00000000000E+00 0. -1.
         11    1    1    2    0    0  0.14682618607E+01  0.28938301048E+01 -0.15497572407E+03  0.15500969356E+03  0.00000000000E+00 0. -1.
        -15    1    1    2    0    0  0.29196659682E+01  0.33444780321E+01 -0.23497205093E+02  0.23978873177E+02  0.17770000000E+01 0.  1.
         15    1    1    2    0    0  0.28863629457E+00 -0.29449883468E+01 -0.29243997097E+01  0.45239484895E+01  0.17770000000E+01 0. -1.
</event>
<event>
 6    1  0.1378789E-002  0.1834003E+03  0.7546771E-02  0.1067740E+00
        -11   -1    0    0    0    0  0.00000000000E+00  0.00000000000E+00  0.18250000000E+03  0.18250000000E+03  0.00000000000E+00 0. -1.
         11   -1    0    0    0    0 -0.00000000000E+00 -0.00000000000E+00 -0.18250000000E+03  0.18250000000E+03  0.00000000000E+00 0.  1.
        -11    1    1    2    0    0 -0.23704502467E+01 -0.14197497527E+01  0.18157872415E+03  0.18159974611E+03  0.00000000000E+00 0. -1.
         11    1    1    2    0    0  0.36586123554E+01 -0.80361049805E+01 -0.11816398870E+03  0.11849342873E+03  0.00000000000E+00 0.  1.
        -15    1    1    2    0    0 -0.36202312228E+01  0.95455065039E+01 -0.55648632706E+02  0.56605219014E+02  0.17770000000E+01 0. -1.
         15    1    1    2    0    0  0.23320691142E+01 -0.89651770740E-01 -0.77661027449E+01  0.83016061480E+01  0.17770000000E+01 0.  1.
</event>
<event>
 6    1  0.1378789E-002  0.1848527E+03  0.7546771E-02  0.1066597E+00
        -11   -1    0    0    0    0  0.00000000000E+00  0.00000000000E+00  0.18250000000E+03  0.18250000000E+03  0.00000000000E+00 0.  1.
         11   -1    0    0    0    0 -0.00000000000E+00 -0.00000000000E+00 -0.18250000000E+03  0.18250000000E+03  0.00000000000E+00 0. -1.
        -11    1    1    2    0    0 -0.15156763992E+01 -0.33679305879E+01  0.18010945664E+03  0.18014731916E+03  0.00000000000E+00 0.  1.
         11    1    1    2    0    0  0.16701296695E+01 -0.16257929792E+01 -0.16789338594E+03  0.16790956369E+03  0.00000000000E+00 0. -1.
        -15    1    1    2    0    0 -0.40344975836E+01 -0.86317421023E+00 -0.48026524560E+01  0.65761265257E+01  0.17770000000E+01 0.  1.
         15    1    1    2    0    0  0.38800443133E+01  0.58568977773E+01 -0.74134182393E+01  0.10366990616E+02  0.17770000000E+01 0. -1.
</event>
<event>
 6    1  0.1378789E-002  0.1833864E+03  0.7546771E-02  0.1067751E+00
        -11   -1    0    0    0    0  0.00000000000E+00  0.00000000000E+00  0.18250000000E+03  0.18250000000E+03  0.00000000000E+00 0.  1.
         11   -1    0    0    0    0 -0.00000000000E+00 -0.00000000000E+00 -0.18250000000E+03  0.18250000000E+03  0.00000000000E+00 0. -1.
        -11    1    1    2    0    0 -0.55683703993E+01  0.38996471820E+01  0.18148633342E+03  0.18161360966E+03  0.00000000000E+00 0.  1.
         11    1    1    2    0    0  0.57403095017E+00 -0.27590052437E+01 -0.15212840621E+03  0.15215450568E+03  0.00000000000E+00 0. -1.
        -15    1    1    2    0    0  0.25639541906E+01 -0.45426868721E+01 -0.10783591750E+02  0.12110055539E+02  0.17770000000E+01 0.  1.
         15    1    1    2    0    0  0.24303852586E+01  0.34020449338E+01 -0.18574335455E+02  0.19121829119E+02  0.17770000000E+01 0. -1.
</event>
<event>
 6    1  0.1378789E-002  0.1909717E+03  0.7546771E-02  0.1061904E+00
        -11   -1    0    0    0    0  0.00000000000E+00  0.00000000000E+00  0.18250000000E+03  0.18250000000E+03  0.00000000000E+00 0. -1.
         11   -1    0    0    0    0 -0.00000000000E+00 -0.00000000000E+00 -0.18250000000E+03  0.18250000000E+03  0.00000000000E+00 0. -1.
        -11    1    1    2    0    0 -0.10038086342E+01  0.47756267069E+01  0.17395984832E+03  0.17402828238E+03  0.00000000000E+00 0. -1.
         11    1    1    2    0    0  0.77585411559E+00  0.63363338135E+01 -0.16292892470E+03  0.16305393457E+03  0.00000000000E+00 0. -1.
        -15    1    1    2    0    0  0.83161184431E+00 -0.82140111847E+01 -0.18142878647E+02  0.20012079667E+02  0.17770000000E+01 0.  1.
         15    1    1    2    0    0 -0.60365732568E+00 -0.28979493357E+01  0.71119550299E+01  0.79057033758E+01  0.17770000000E+01 0. -1.
</event>
<event>
 6    1  0.1378789E-002  0.1885745E+03  0.7546771E-02  0.1063720E+00
        -11   -1    0    0    0    0  0.00000000000E+00  0.00000000000E+00  0.18250000000E+03  0.18250000000E+03  0.00000000000E+00 0. -1.
         11   -1    0    0    0    0 -0.00000000000E+00 -0.00000000000E+00 -0.18250000000E+03  0.18250000000E+03  0.00000000000E+00 0. -1.
        -11    1    1    2    0    0 -0.60304691095E+01  0.66455022017E+01  0.17619710830E+03  0.17642548068E+03  0.00000000000E+00 0. -1.
         11    1    1    2    0    0  0.67863272475E-02 -0.73750677775E+01 -0.17229191989E+03  0.17244969507E+03  0.00000000000E+00 0. -1.
        -15    1    1    2    0    0 -0.43426485582E+01  0.18268015185E+01 -0.17664731680E+01  0.53360993939E+01  0.17770000000E+01 0.  1.
         15    1    1    2    0    0  0.10366331340E+02 -0.10972359426E+01 -0.21387152459E+01  0.10788724859E+02  0.17770000000E+01 0. -1.
</event>
<event>
 6    1  0.1378789E-002  0.1827824E+03  0.7546771E-02  0.1068230E+00
        -11   -1    0    0    0    0  0.00000000000E+00  0.00000000000E+00  0.18250000000E+03  0.18250000000E+03  0.00000000000E+00 0.  1.
         11   -1    0    0    0    0 -0.00000000000E+00 -0.00000000000E+00 -0.18250000000E+03  0.18250000000E+03  0.00000000000E+00 0. -1.
        -11    1    1    2    0    0  0.98583059708E+00 -0.27334322320E+01  0.18219445012E+03  0.18221762036E+03  0.00000000000E+00 0.  1.
         11    1    1    2    0    0 -0.99603378507E+00  0.57874659454E+00 -0.69302195897E+01  0.70253095649E+01  0.00000000000E+00 0. -1.
        -15    1    1    2    0    0  0.43639811529E+01 -0.22397958056E+01 -0.39862717401E+02  0.40202673846E+02  0.17770000000E+01 0.  1.
         15    1    1    2    0    0 -0.43537779649E+01  0.43944814431E+01 -0.13540151313E+03  0.13555439623E+03  0.17770000000E+01 0. -1.
</event>
<event>
 6    1  0.1378789E-002  0.1844980E+03  0.7546771E-02  0.1066875E+00
        -11   -1    0    0    0    0  0.00000000000E+00  0.00000000000E+00  0.18250000000E+03  0.18250000000E+03  0.00000000000E+00 0.  1.
         11   -1    0    0    0    0 -0.00000000000E+00 -0.00000000000E+00 -0.18250000000E+03  0.18250000000E+03  0.00000000000E+00 0.  1.
        -11    1    1    2    0    0 -0.15083820139E-01  0.42948280069E+01  0.18045090148E+03  0.18050200448E+03  0.00000000000E+00 0.  1.
         11    1    1    2    0    0  0.70837965157E+01  0.10375880184E+02 -0.98303571486E+02  0.99103134307E+02  0.00000000000E+00 0.  1.
        -15    1    1    2    0    0 -0.90332678872E+01 -0.91573505202E+01 -0.27559510024E+02  0.30465411848E+02  0.17770000000E+01 0.  1.
         15    1    1    2    0    0  0.19645551917E+01 -0.55133576706E+01 -0.54587819970E+02  0.54929449369E+02  0.17770000000E+01 0. -1.
</event>
<event>
 6    1  0.1378789E-002  0.1846842E+03  0.7546771E-02  0.1066729E+00
        -11   -1    0    0    0    0  0.00000000000E+00  0.00000000000E+00  0.18250000000E+03  0.18250000000E+03  0.00000000000E+00 0. -1.
         11   -1    0    0    0    0 -0.00000000000E+00 -0.00000000000E+00 -0.18250000000E+03  0.18250000000E+03  0.00000000000E+00 0.  1.
        -11    1    1    2    0    0  0.47627632885E+00 -0.30328447946E+01  0.18028963680E+03  0.18031577336E+03  0.00000000000E+00 0. -1.
         11    1    1    2    0    0  0.33148075186E+01  0.81361797869E+00 -0.17472579010E+03  0.17475912465E+03  0.00000000000E+00 0.  1.
        -15    1    1    2    0    0  0.11679913046E+01  0.12350273380E+01 -0.41581880691E+00  0.24940189441E+01  0.17770000000E+01 0.  1.
         15    1    1    2    0    0 -0.49590751520E+01  0.98419947791E+00 -0.51480278927E+01  0.74310830408E+01  0.17770000000E+01 0. -1.
</event>
<event>
 6    1  0.1378789E-002  0.1860524E+03  0.7546771E-02  0.1065662E+00
        -11   -1    0    0    0    0  0.00000000000E+00  0.00000000000E+00  0.18250000000E+03  0.18250000000E+03  0.00000000000E+00 0.  1.
         11   -1    0    0    0    0 -0.00000000000E+00 -0.00000000000E+00 -0.18250000000E+03  0.18250000000E+03  0.00000000000E+00 0. -1.
        -11    1    1    2    0    0 -0.32155328945E+01  0.39791731876E+00  0.17891827100E+03  0.17894760599E+03  0.00000000000E+00 0.  1.
         11    1    1    2    0    0 -0.56289314599E+01 -0.34820081827E+00 -0.17108068927E+03  0.17117362050E+03  0.00000000000E+00 0. -1.
        -15    1    1    2    0    0  0.86721548880E+01 -0.27905712630E+01 -0.65653100907E+01  0.11369018602E+02  0.17770000000E+01 0. -1.
         15    1    1    2    0    0  0.17230946636E+00  0.27408547625E+01 -0.12722716391E+01  0.35097549066E+01  0.17770000000E+01 0.  1.
</event>
<event>
 6    1  0.1378789E-002  0.1833964E+03  0.7546771E-02  0.1067743E+00
        -11   -1    0    0    0    0  0.00000000000E+00  0.00000000000E+00  0.18250000000E+03  0.18250000000E+03  0.00000000000E+00 0. -1.
         11   -1    0    0    0    0 -0.00000000000E+00 -0.00000000000E+00 -0.18250000000E+03  0.18250000000E+03  0.00000000000E+00 0. -1.
        -11    1    1    2    0    0 -0.15319680505E+01 -0.56948843054E+01  0.18150779592E+03  0.18160357544E+03  0.00000000000E+00 0. -1.
         11    1    1    2    0    0  0.14878238086E+01 -0.31689205348E+01 -0.13737033162E+03  0.13741493255E+03  0.00000000000E+00 0. -1.
        -15    1    1    2    0    0  0.14153930078E+01  0.36179797664E+01 -0.57022653939E+01  0.71250736542E+01  0.17770000000E+01 0.  1.
         15    1    1    2    0    0 -0.13712487659E+01  0.52458250738E+01 -0.38435198901E+02  0.38856418356E+02  0.17770000000E+01 0. -1.
</event>
<event>
 6    1  0.1378789E-002  0.1830506E+03  0.7546771E-02  0.1068017E+00
        -11   -1    0    0    0    0  0.00000000000E+00  0.00000000000E+00  0.18250000000E+03  0.18250000000E+03  0.00000000000E+00 0.  1.
         11   -1    0    0    0    0 -0.00000000000E+00 -0.00000000000E+00 -0.18250000000E+03  0.18250000000E+03  0.00000000000E+00 0. -1.
        -11    1    1    2    0    0  0.13159406399E+01 -0.20247651639E+01  0.15551823114E+03  0.15553697821E+03  0.00000000000E+00 0.  1.
         11    1    1    2    0    0 -0.25134778477E+01 -0.16513879695E+01 -0.18192454058E+03  0.18194939714E+03  0.00000000000E+00 0. -1.
        -15    1    1    2    0    0 -0.15741582762E+01 -0.20468766574E+00  0.54486433539E+01  0.59468743653E+01  0.17770000000E+01 0.  1.
         15    1    1    2    0    0  0.27716954840E+01  0.38808407991E+01  0.20957666084E+02  0.21566750285E+02  0.17770000000E+01 0. -1.
</event>
<event>
 6    1  0.1378789E-002  0.1879667E+03  0.7546771E-02  0.1064185E+00
        -11   -1    0    0    0    0  0.00000000000E+00  0.00000000000E+00  0.18250000000E+03  0.18250000000E+03  0.00000000000E+00 0.  1.
         11   -1    0    0    0    0 -0.00000000000E+00 -0.00000000000E+00 -0.18250000000E+03  0.18250000000E+03  0.00000000000E+00 0.  1.
        -11    1    1    2    0    0  0.69582779709E+01 -0.45599479833E+01  0.17683772678E+03  0.17703330864E+03  0.00000000000E+00 0.  1.
         11    1    1    2    0    0 -0.26849718128E+01 -0.10062651436E+01 -0.17235177205E+03  0.17237562174E+03  0.00000000000E+00 0.  1.
        -15    1    1    2    0    0 -0.69791496668E+01  0.68115792926E+01  0.98524177985E-02  0.99128183985E+01  0.17770000000E+01 0. -1.
         15    1    1    2    0    0  0.27058435088E+01 -0.12453661658E+01 -0.44958071455E+01  0.56782512159E+01  0.17770000000E+01 0.  1.
</event>
<event>
 6    1  0.1378789E-002  0.1838543E+03  0.7546771E-02  0.1067382E+00
        -11   -1    0    0    0    0  0.00000000000E+00  0.00000000000E+00  0.18250000000E+03  0.18250000000E+03  0.00000000000E+00 0.  1.
         11   -1    0    0    0    0 -0.00000000000E+00 -0.00000000000E+00 -0.18250000000E+03  0.18250000000E+03  0.00000000000E+00 0.  1.
        -11    1    1    2    0    0  0.63178062248E+01  0.19260784359E+01  0.10153626680E+03  0.10175086206E+03  0.00000000000E+00 0.  1.
         11    1    1    2    0    0 -0.29538003079E+01  0.69135379793E+00 -0.18112024843E+03  0.18114565217E+03  0.00000000000E+00 0.  1.
        -15    1    1    2    0    0  0.18756925199E+01 -0.17731757110E+01  0.95561135083E+00  0.32761710250E+01  0.17770000000E+01 0. -1.
         15    1    1    2    0    0 -0.52396984367E+01 -0.84425652280E+00  0.78628370280E+02  0.78827314750E+02  0.17770000000E+01 0.  1.
</event>
<event>
 6    1  0.1378789E-002  0.1826661E+03  0.7546771E-02  0.1068323E+00
        -11   -1    0    0    0    0  0.00000000000E+00  0.00000000000E+00  0.18250000000E+03  0.18250000000E+03  0.00000000000E+00 0.  1.
         11   -1    0    0    0    0 -0.00000000000E+00 -0.00000000000E+00 -0.18250000000E+03  0.18250000000E+03  0.00000000000E+00 0.  1.
        -11    1    1    2    0    0  0.70410769745E+00 -0.33913301342E+01  0.84827082657E+02  0.84897766990E+02  0.00000000000E+00 0.  1.
         11    1    1    2    0    0  0.31889363188E+01 -0.17997565332E+01 -0.18229713683E+03  0.18233390944E+03  0.00000000000E+00 0.  1.
        -15    1    1    2    0    0 -0.10740900654E+01  0.21552068363E+01  0.30400733710E+02  0.30547682810E+02  0.17770000000E+01 0.  1.
         15    1    1    2    0    0 -0.28189539509E+01  0.30358798311E+01  0.67069320459E+02  0.67220640756E+02  0.17770000000E+01 0. -1.
</event>
<event>
 6    1  0.1378789E-002  0.1665903E+03  0.7546771E-02  0.1081875E+00
        -11   -1    0    0    0    0  0.00000000000E+00  0.00000000000E+00  0.18250000000E+03  0.18250000000E+03  0.00000000000E+00 0.  1.
         11   -1    0    0    0    0 -0.00000000000E+00 -0.00000000000E+00 -0.18250000000E+03  0.18250000000E+03  0.00000000000E+00 0. -1.
        -11    1    1    2    0    0  0.11313397903E+01  0.30694585510E+01  0.16328896929E+03  0.16332173462E+03  0.00000000000E+00 0.  1.
         11    1    1    2    0    0  0.60686324181E+01  0.17572510977E+02 -0.16961950378E+03  0.17063527626E+03  0.00000000000E+00 0. -1.
        -15    1    1    2    0    0  0.88877557060E+00 -0.20223621465E+02  0.91480662152E+01  0.22285188616E+02  0.17770000000E+01 0. -1.
         15    1    1    2    0    0 -0.80887477790E+01 -0.41834806291E+00 -0.28175317327E+01  0.87578005115E+01  0.17770000000E+01 0.  1.
</event>
<event>
 6    1  0.1378789E-002  0.1832966E+03  0.7546771E-02  0.1067822E+00
        -11   -1    0    0    0    0  0.00000000000E+00  0.00000000000E+00  0.18250000000E+03  0.18250000000E+03  0.00000000000E+00 0. -1.
         11   -1    0    0    0    0 -0.00000000000E+00 -0.00000000000E+00 -0.18250000000E+03  0.18250000000E+03  0.00000000000E+00 0.  1.
        -11    1    1    2    0    0  0.56206809542E+00 -0.23847075903E+01  0.18168687139E+03  0.18170339013E+03  0.00000000000E+00 0. -1.
         11    1    1    2    0    0 -0.21433953140E+01  0.44064848908E+00 -0.15391879905E+03  0.15393435294E+03  0.00000000000E+00 0.  1.
        -15    1    1    2    0    0 -0.22402020138E+01  0.27246368891E+01 -0.60489026101E+01  0.72242025876E+01  0.17770000000E+01 0. -1.
         15    1    1    2    0    0  0.38215292323E+01 -0.78057778790E+00 -0.21719169724E+02  0.22138054338E+02  0.17770000000E+01 0. -1.
</event>
<event>
 6    1  0.1378789E-002  0.1926808E+03  0.7546771E-02  0.1060628E+00
        -11   -1    0    0    0    0  0.00000000000E+00  0.00000000000E+00  0.18250000000E+03  0.18250000000E+03  0.00000000000E+00 0. -1.
         11   -1    0    0    0    0 -0.00000000000E+00 -0.00000000000E+00 -0.18250000000E+03  0.18250000000E+03  0.00000000000E+00 0.  1.
        -11    1    1    2    0    0 -0.61247322790E+01  0.10058986811E+02  0.15272465344E+03  0.15317805107E+03  0.00000000000E+00 0. -1.
         11    1    1    2    0    0  0.17788660504E+02 -0.10409041717E+02 -0.17108221633E+03  0.17231920768E+03  0.00000000000E+00 0.  1.
        -15    1    1    2    0    0  0.47851847619E+01 -0.11637638097E+02  0.13422588048E+02  0.18483944724E+02  0.17770000000E+01 0.  1.
         15    1    1    2    0    0 -0.16449112986E+02  0.11987693002E+02  0.49349748430E+01  0.21018796523E+02  0.17770000000E+01 0. -1.
</event>
<event>
 6    1  0.1378789E-002  0.1862880E+03  0.7546771E-02  0.1065479E+00
        -11   -1    0    0    0    0  0.00000000000E+00  0.00000000000E+00  0.18250000000E+03  0.18250000000E+03  0.00000000000E+00 0. -1.
         11   -1    0    0    0    0 -0.00000000000E+00 -0.00000000000E+00 -0.18250000000E+03  0.18250000000E+03  0.00000000000E+00 0. -1.
        -11    1    1    2    0    0  0.16149799471E+01 -0.19657509335E+01  0.15728959659E+03  0.15731016983E+03  0.00000000000E+00 0. -1.
         11    1    1    2    0    0  0.43941144718E+01 -0.65627013360E+01 -0.17853738701E+03  0.17871199135E+03  0.00000000000E+00 0. -1.
        -15    1    1    2    0    0 -0.24347005900E+01  0.13756557186E+01  0.20484924036E+02  0.20751145447E+02  0.17770000000E+01 0. -1.
         15    1    1    2    0    0 -0.35743938289E+01  0.71527965509E+01  0.76286639113E+00  0.82266933742E+01  0.17770000000E+01 0. -1.
</event>
