<event>
 7    1  0.4032262E-006  0.5172454E+03  0.7546771E-02  0.9362028E-01
        -11   -1    0    0    0    0  0.00000000000E+00  0.00000000000E+00  0.50000000000E+03  0.50000000000E+03  0.00000000000E+00 0.  1.
         11   -1    0    0    0    0 -0.00000000000E+00 -0.00000000000E+00 -0.50000000000E+03  0.50000000000E+03  0.00000000000E+00 0. -1.
         23    2    1    2    0    0 -0.81859211804E+01 -0.30447166964E+02  0.14191514201E+03  0.17196699525E+03  0.91862400577E+02 0.  0.
        -11    1    1    2    0    0  0.10518655905E+03 -0.20824468614E+02  0.32820620978E+03  0.34527841930E+03  0.00000000000E+00 0.  1.
         11    1    1    2    0    0 -0.97000637871E+02  0.51271635579E+02 -0.47012135179E+03  0.48275458545E+03  0.00000000000E+00 0. -1.
        -15    1    3    3    0    0 -0.32404885948E+02 -0.36475937366E+02  0.30032964935E+02  0.57321089939E+02  0.17770000000E+01 0.  1.
         15    1    3    3    0    0  0.24218964768E+02  0.60287704014E+01  0.11188217708E+03  0.11464590531E+03  0.17770000000E+01 0. -1.
</event>
<event>
 7    1  0.3970441E-006  0.5197260E+03  0.7546771E-02  0.9356722E-01
        -11   -1    0    0    0    0  0.00000000000E+00  0.00000000000E+00  0.50000000000E+03  0.50000000000E+03  0.00000000000E+00 0.  1.
         11   -1    0    0    0    0 -0.00000000000E+00 -0.00000000000E+00 -0.50000000000E+03  0.50000000000E+03  0.00000000000E+00 0. -1.
         23    2    1    2    0    0  0.77585514439E+01 -0.49791583786E+01 -0.38588490601E+03  0.39673334487E+03  0.91679872973E+02 0.  0.
        -11    1    1    2    0    0 -0.88286063398E+01  0.93814711340E+02  0.47093949521E+03  0.48027403896E+03  0.00000000000E+00 0.  1.
         11    1    1    2    0    0  0.10700548959E+01 -0.88835552962E+02 -0.85054589201E+02  0.12299261617E+03  0.00000000000E+00 0. -1.
        -15    1    3    3    0    0  0.40609951119E+02 -0.30161452518E+02 -0.20321029027E+03  0.20941934282E+03  0.17770000000E+01 0. -1.
         15    1    3    3    0    0 -0.32851399675E+02  0.25182294140E+02 -0.18267461574E+03  0.18731400205E+03  0.17770000000E+01 0.  1.
</event>
<event>
 7    1  0.3970441E-006  0.5212786E+03  0.7546771E-02  0.9353417E-01
        -11   -1    0    0    0    0  0.00000000000E+00  0.00000000000E+00  0.50000000000E+03  0.50000000000E+03  0.00000000000E+00 0.  1.
         11   -1    0    0    0    0 -0.00000000000E+00 -0.00000000000E+00 -0.50000000000E+03  0.50000000000E+03  0.00000000000E+00 0. -1.
         23    2    1    2    0    0 -0.73259660721E+02  0.28089005596E+02 -0.33848037490E+03  0.35890417038E+03  0.89929245535E+02 0.  0.
        -11    1    1    2    0    0  0.13602898014E+03  0.67141932799E+02  0.45405090444E+03  0.47872136615E+03  0.00000000000E+00 0.  1.
         11    1    1    2    0    0 -0.62769319419E+02 -0.95230938395E+02 -0.11557052954E+03  0.16237446347E+03  0.00000000000E+00 0. -1.
        -15    1    3    3    0    0 -0.15086596789E+02 -0.29774721509E+02 -0.61202230437E+02  0.69735286499E+02  0.17770000000E+01 0.  1.
         15    1    3    3    0    0 -0.58173063931E+02  0.57863727105E+02 -0.27727814446E+03  0.28916888389E+03  0.17770000000E+01 0. -1.
</event>
<event>
 7    1  0.3970441E-006  0.5163393E+03  0.7546771E-02  0.9363974E-01
        -11   -1    0    0    0    0  0.00000000000E+00  0.00000000000E+00  0.50000000000E+03  0.50000000000E+03  0.00000000000E+00 0.  1.
         11   -1    0    0    0    0 -0.00000000000E+00 -0.00000000000E+00 -0.50000000000E+03  0.50000000000E+03  0.00000000000E+00 0.  1.
         23    2    1    2    0    0  0.40372326242E+02  0.17836322596E+02  0.11858897089E+03  0.15092736047E+03  0.82265819088E+02 0.  0.
        -11    1    1    2    0    0  0.20364294125E+03  0.14954923654E+03  0.26398951396E+03  0.36541193899E+03  0.00000000000E+00 0.  1.
         11    1    1    2    0    0 -0.24401526749E+03 -0.16738555914E+03 -0.38257848485E+03  0.48366070055E+03  0.00000000000E+00 0.  1.
        -15    1    3    3    0    0  0.96371979870E+01  0.40087568828E+02  0.21205034361E+02  0.46397197877E+02  0.17770000000E+01 0. -1.
         15    1    3    3    0    0  0.30735128255E+02 -0.22251246232E+02  0.97383936532E+02  0.10453016259E+03  0.17770000000E+01 0.  1.
</event>
<event>
 7    1  0.3970441E-006  0.3396551E+03  0.7546771E-02  0.9853701E-01
        -11   -1    0    0    0    0  0.00000000000E+00  0.00000000000E+00  0.50000000000E+03  0.50000000000E+03  0.00000000000E+00 0. -1.
         11   -1    0    0    0    0 -0.00000000000E+00 -0.00000000000E+00 -0.50000000000E+03  0.50000000000E+03  0.00000000000E+00 0.  1.
         23    2    1    2    0    0 -0.20422510500E+03  0.13029473371E+03  0.97965607477E+02  0.27216472281E+03  0.76103646069E+02 0.  0.
        -11    1    1    2    0    0  0.55066086161E+02  0.53259351178E+02  0.27540172963E+03  0.28585826036E+03  0.00000000000E+00 0. -1.
         11    1    1    2    0    0  0.14915901884E+03 -0.18355408489E+03 -0.37336733711E+03  0.44197701683E+03  0.00000000000E+00 0.  1.
        -15    1    3    3    0    0 -0.26766276115E+02 -0.16575250138E-01  0.33162543887E+02  0.42653790662E+02  0.17770000000E+01 0. -1.
         15    1    3    3    0    0 -0.17745882889E+03  0.13031130896E+03  0.64803063590E+02  0.22951093215E+03  0.17770000000E+01 0.  1.
</event>
<event>
 7    1  0.3970441E-006  0.5218608E+03  0.7546771E-02  0.9352181E-01
        -11   -1    0    0    0    0  0.00000000000E+00  0.00000000000E+00  0.50000000000E+03  0.50000000000E+03  0.00000000000E+00 0. -1.
         11   -1    0    0    0    0 -0.00000000000E+00 -0.00000000000E+00 -0.50000000000E+03  0.50000000000E+03  0.00000000000E+00 0. -1.
         23    2    1    2    0    0 -0.62962520026E+01 -0.13387109504E+02 -0.30880587408E+03  0.32269961398E+03  0.92493867396E+02 0.  0.
        -11    1    1    2    0    0 -0.11404699605E+03  0.60283296373E+02  0.46040879584E+03  0.47813915591E+03  0.00000000000E+00 0. -1.
         11    1    1    2    0    0  0.12034324805E+03 -0.46896186869E+02 -0.15160292176E+03  0.19916123011E+03  0.00000000000E+00 0. -1.
        -15    1    3    3    0    0 -0.43601840237E+02 -0.23575105711E+02 -0.22474461813E+03  0.23015257372E+03  0.17770000000E+01 0.  1.
         15    1    3    3    0    0  0.37305588235E+02  0.10187996207E+02 -0.84061255947E+02  0.92547040259E+02  0.17770000000E+01 0. -1.
</event>
<event>
 7    1  0.3970441E-006  0.5167885E+03  0.7546771E-02  0.9363008E-01
        -11   -1    0    0    0    0  0.00000000000E+00  0.00000000000E+00  0.50000000000E+03  0.50000000000E+03  0.00000000000E+00 0.  1.
         11   -1    0    0    0    0 -0.00000000000E+00 -0.00000000000E+00 -0.50000000000E+03  0.50000000000E+03  0.00000000000E+00 0.  1.
         23    2    1    2    0    0 -0.13940343066E+03 -0.57385231813E+02  0.84808467386E+02  0.19405747437E+03  0.87974120661E+02 0.  0.
        -11    1    1    2    0    0 -0.19444812526E+03 -0.13757042063E+02  0.25720803451E+03  0.32273100663E+03  0.00000000000E+00 0.  1.
         11    1    1    2    0    0  0.33385155592E+03  0.71142273876E+02 -0.34201650190E+03  0.48321151900E+03  0.00000000000E+00 0.  1.
        -15    1    3    3    0    0 -0.67571246517E+02 -0.73587445320E+02  0.38672537015E+02  0.10714340070E+03  0.17770000000E+01 0.  1.
         15    1    3    3    0    0 -0.71832184147E+02  0.16202213506E+02  0.46135930371E+02  0.86914073670E+02  0.17770000000E+01 0. -1.
</event>
<event>
 7    1  0.3970441E-006  0.3454380E+03  0.7546771E-02  0.9832953E-01
        -11   -1    0    0    0    0  0.00000000000E+00  0.00000000000E+00  0.50000000000E+03  0.50000000000E+03  0.00000000000E+00 0. -1.
         11   -1    0    0    0    0 -0.00000000000E+00 -0.00000000000E+00 -0.50000000000E+03  0.50000000000E+03  0.00000000000E+00 0. -1.
         23    2    1    2    0    0 -0.12486914569E+03  0.75373239582E+02  0.20236272552E+03  0.26547035131E+03  0.90831745302E+02 0.  0.
        -11    1    1    2    0    0 -0.22667169510E+03 -0.22000082355E+03 -0.30483208456E+02  0.31734783081E+03  0.00000000000E+00 0. -1.
         11    1    1    2    0    0  0.35154084078E+03  0.14462758397E+03 -0.17187951707E+03  0.41718181788E+03  0.00000000000E+00 0. -1.
        -15    1    3    3    0    0  0.11060162581E+02 -0.53243227416E+01  0.24808611402E+02  0.27736267551E+02  0.17770000000E+01 0. -1.
         15    1    3    3    0    0 -0.13592930827E+03  0.80697562324E+02  0.17755411412E+03  0.23773408376E+03  0.17770000000E+01 0.  1.
</event>
<event>
 7    1  0.3970441E-006  0.3817624E+03  0.7546771E-02  0.9711877E-01
        -11   -1    0    0    0    0  0.00000000000E+00  0.00000000000E+00  0.50000000000E+03  0.50000000000E+03  0.00000000000E+00 0.  1.
         11   -1    0    0    0    0 -0.00000000000E+00 -0.00000000000E+00 -0.50000000000E+03  0.50000000000E+03  0.00000000000E+00 0. -1.
         23    2    1    2    0    0  0.19683090158E+02 -0.58008508691E+02 -0.18371268710E+03  0.21229892784E+03  0.86994667911E+02 0.  0.
        -11    1    1    2    0    0  0.30017904410E+01 -0.22438707819E+03  0.38120548633E+03  0.44235302012E+03  0.00000000000E+00 0.  1.
         11    1    1    2    0    0 -0.22684880599E+02  0.28239558688E+03 -0.19749279923E+03  0.34534805204E+03  0.00000000000E+00 0. -1.
        -15    1    3    3    0    0 -0.19430581982E+02 -0.60163331027E+02 -0.13970529367E+03  0.15335547178E+03  0.17770000000E+01 0. -1.
         15    1    3    3    0    0  0.39113672140E+02  0.21548223363E+01 -0.44007393422E+02  0.58943456061E+02  0.17770000000E+01 0.  1.
</event>
<event>
 7    1  0.3970441E-006  0.5151429E+03  0.7546771E-02  0.9366550E-01
        -11   -1    0    0    0    0  0.00000000000E+00  0.00000000000E+00  0.50000000000E+03  0.50000000000E+03  0.00000000000E+00 0.  1.
         11   -1    0    0    0    0 -0.00000000000E+00 -0.00000000000E+00 -0.50000000000E+03  0.50000000000E+03  0.00000000000E+00 0. -1.
         23    2    1    2    0    0 -0.10872270822E+02 -0.80747104783E+02 -0.29667136281E+03  0.32091953056E+03  0.91307975427E+02 0.  0.
        -11    1    1    2    0    0  0.71488420187E+02  0.44127913158E+02  0.47752333586E+03  0.48485709568E+03  0.00000000000E+00 0.  1.
         11    1    1    2    0    0 -0.60616149364E+02  0.36619191625E+02 -0.18085197305E+03  0.19422337376E+03  0.00000000000E+00 0. -1.
        -15    1    3    3    0    0  0.20591360528E+02 -0.74567538232E+02 -0.13085004867E+03  0.15201715315E+03  0.17770000000E+01 0.  1.
         15    1    3    3    0    0 -0.31463631350E+02 -0.61795665518E+01 -0.16582131414E+03  0.16890237741E+03  0.17770000000E+01 0. -1.
</event>
<event>
 7    1  0.3970441E-006  0.5233140E+03  0.7546771E-02  0.9349103E-01
        -11   -1    0    0    0    0  0.00000000000E+00  0.00000000000E+00  0.50000000000E+03  0.50000000000E+03  0.00000000000E+00 0. -1.
         11   -1    0    0    0    0 -0.00000000000E+00 -0.00000000000E+00 -0.50000000000E+03  0.50000000000E+03  0.00000000000E+00 0. -1.
         23    2    1    2    0    0 -0.10094983753E+03  0.65923392362E+01 -0.31163781621E+03  0.34137311018E+03  0.95828718177E+02 0.  0.
        -11    1    1    2    0    0  0.10252386261E+03  0.10820711311E+03  0.45277990203E+03  0.47668601974E+03  0.00000000000E+00 0. -1.
         11    1    1    2    0    0 -0.15740250828E+01 -0.11479945234E+03 -0.14114208582E+03  0.18194087008E+03  0.00000000000E+00 0. -1.
        -15    1    3    3    0    0 -0.44584883710E+02 -0.28662764993E+02 -0.55591931048E+02  0.76830895342E+02  0.17770000000E+01 0.  1.
         15    1    3    3    0    0 -0.56364953821E+02  0.35255104229E+02 -0.25604588516E+03  0.26454221484E+03  0.17770000000E+01 0. -1.
</event>
<event>
 7    1  0.3970441E-006  0.5287384E+03  0.7546771E-02  0.9337706E-01
        -11   -1    0    0    0    0  0.00000000000E+00  0.00000000000E+00  0.50000000000E+03  0.50000000000E+03  0.00000000000E+00 0.  1.
         11   -1    0    0    0    0 -0.00000000000E+00 -0.00000000000E+00 -0.50000000000E+03  0.50000000000E+03  0.00000000000E+00 0.  1.
         23    2    1    2    0    0  0.25977759344E+02  0.55358349021E+02 -0.15654036667E+03  0.19115296930E+03  0.91077881448E+02 0.  0.
        -11    1    1    2    0    0 -0.19965200920E+02  0.86464395814E+02  0.46283124728E+03  0.47126156692E+03  0.00000000000E+00 0.  1.
         11    1    1    2    0    0 -0.60125584246E+01 -0.14182274483E+03 -0.30629088061E+03  0.33758546378E+03  0.00000000000E+00 0.  1.
        -15    1    3    3    0    0  0.13752777051E+02 -0.23350777141E+02 -0.60856709354E+02  0.66641537138E+02  0.17770000000E+01 0. -1.
         15    1    3    3    0    0  0.12224982293E+02  0.78709126162E+02 -0.95683657315E+02  0.12451143216E+03  0.17770000000E+01 0.  1.
</event>
<event>
 7    1  0.3970441E-006  0.5370097E+03  0.7546771E-02  0.9320605E-01
        -11   -1    0    0    0    0  0.00000000000E+00  0.00000000000E+00  0.50000000000E+03  0.50000000000E+03  0.00000000000E+00 0.  1.
         11   -1    0    0    0    0 -0.00000000000E+00 -0.00000000000E+00 -0.50000000000E+03  0.50000000000E+03  0.00000000000E+00 0. -1.
         23    2    1    2    0    0 -0.36822239830E+02  0.51350465046E+02  0.66356627000E+02  0.13504177291E+03  0.99198441912E+02 0.  0.
        -11    1    1    2    0    0  0.12926202234E+03  0.35131039079E+02  0.37899253060E+03  0.40196790740E+03  0.00000000000E+00 0.  1.
         11    1    1    2    0    0 -0.92439782507E+02 -0.86481504125E+02 -0.44534915760E+03  0.46299031969E+03  0.00000000000E+00 0. -1.
        -15    1    3    3    0    0 -0.10083605001E+02  0.75243881432E+02  0.24269108317E+02  0.79721189970E+02  0.17770000000E+01 0.  1.
         15    1    3    3    0    0 -0.26738634830E+02 -0.23893416386E+02  0.42087518683E+02  0.55320582942E+02  0.17770000000E+01 0. -1.
</event>
<event>
 7    1  0.3970441E-006  0.4060866E+03  0.7546771E-02  0.9638586E-01
        -11   -1    0    0    0    0  0.00000000000E+00  0.00000000000E+00  0.50000000000E+03  0.50000000000E+03  0.00000000000E+00 0.  1.
         11   -1    0    0    0    0 -0.00000000000E+00 -0.00000000000E+00 -0.50000000000E+03  0.50000000000E+03  0.00000000000E+00 0. -1.
         23    2    1    2    0    0  0.18637345813E+03 -0.12961386787E+02 -0.31193009562E+03  0.37511891272E+03  0.92253729918E+02 0.  0.
        -11    1    1    2    0    0 -0.35782186701E+03 -0.88606379941E+01  0.26629675582E+03  0.44612662056E+03  0.00000000000E+00 0.  1.
         11    1    1    2    0    0  0.17144840888E+03  0.21822024781E+02  0.45633339798E+02  0.17875446672E+03  0.00000000000E+00 0. -1.
        -15    1    3    3    0    0  0.50716029144E+02  0.36486971196E+02 -0.74726460031E+02  0.97419793866E+02  0.17770000000E+01 0.  1.
         15    1    3    3    0    0  0.13565742899E+03 -0.49448357983E+02 -0.23720363558E+03  0.27769911885E+03  0.17770000000E+01 0. -1.
</event>
<event>
 7    1  0.3970441E-006  0.5187182E+03  0.7546771E-02  0.9358874E-01
        -11   -1    0    0    0    0  0.00000000000E+00  0.00000000000E+00  0.50000000000E+03  0.50000000000E+03  0.00000000000E+00 0.  1.
         11   -1    0    0    0    0 -0.00000000000E+00 -0.00000000000E+00 -0.50000000000E+03  0.50000000000E+03  0.00000000000E+00 0. -1.
         23    2    1    2    0    0  0.64391342817E+01 -0.20895824939E+02 -0.11043253395E+03  0.14239494396E+03  0.87194481242E+02 0.  0.
        -11    1    1    2    0    0 -0.17082184935E+03  0.32905311446E+02  0.44874195253E+03  0.48128183396E+03  0.00000000000E+00 0.  1.
         11    1    1    2    0    0  0.16438271506E+03 -0.12009486506E+02 -0.33830941858E+03  0.37632322208E+03  0.00000000000E+00 0. -1.
        -15    1    3    3    0    0  0.37246480884E+02  0.14763611700E+02 -0.33963382912E+02  0.52554102376E+02  0.17770000000E+01 0.  1.
         15    1    3    3    0    0 -0.30807346602E+02 -0.35659436640E+02 -0.76469151042E+02  0.89840841582E+02  0.17770000000E+01 0. -1.
</event>
<event>
 7    1  0.3970441E-006  0.5251323E+03  0.7546771E-02  0.9345266E-01
        -11   -1    0    0    0    0  0.00000000000E+00  0.00000000000E+00  0.50000000000E+03  0.50000000000E+03  0.00000000000E+00 0.  1.
         11   -1    0    0    0    0 -0.00000000000E+00 -0.00000000000E+00 -0.50000000000E+03  0.50000000000E+03  0.00000000000E+00 0.  1.
         23    2    1    2    0    0  0.48969228972E+02  0.78163677056E+01 -0.38675433842E+03  0.39971350827E+03  0.87936849021E+02 0.  0.
        -11    1    1    2    0    0 -0.71067173531E+01  0.77672728124E+02  0.46841838268E+03  0.47486770721E+03  0.00000000000E+00 0.  1.
         11    1    1    2    0    0 -0.41862511619E+02 -0.85489095830E+02 -0.81664044253E+02  0.12541878451E+03  0.00000000000E+00 0.  1.
        -15    1    3    3    0    0  0.67128281249E+02 -0.22470922786E+01 -0.35772371982E+03  0.36397894584E+03  0.17770000000E+01 0.  1.
         15    1    3    3    0    0 -0.18159052277E+02  0.10063459984E+02 -0.29030618606E+02  0.35734562430E+02  0.17770000000E+01 0. -1.
</event>
<event>
 7    1  0.3970441E-006  0.4059941E+03  0.7546771E-02  0.9638854E-01
        -11   -1    0    0    0    0  0.00000000000E+00  0.00000000000E+00  0.50000000000E+03  0.50000000000E+03  0.00000000000E+00 0. -1.
         11   -1    0    0    0    0 -0.00000000000E+00 -0.00000000000E+00 -0.50000000000E+03  0.50000000000E+03  0.00000000000E+00 0.  1.
         23    2    1    2    0    0 -0.29294261864E+02 -0.50062076264E+02  0.13718935953E+03  0.17446376442E+03  0.90842277974E+02 0.  0.
        -11    1    1    2    0    0  0.33054262051E+03  0.12818942397E+01  0.18743584994E+03  0.37998982232E+03  0.00000000000E+00 0. -1.
         11    1    1    2    0    0 -0.30124835864E+03  0.48780182024E+02 -0.32462520948E+03  0.44554641326E+03  0.00000000000E+00 0.  1.
        -15    1    3    3    0    0 -0.59690972379E+02 -0.28427996585E+02  0.62704475551E+02  0.91138203606E+02  0.17770000000E+01 0.  1.
         15    1    3    3    0    0  0.30396710515E+02 -0.21634079679E+02  0.74484883981E+02  0.83325560810E+02  0.17770000000E+01 0. -1.
</event>
<event>
 7    1  0.3970441E-006  0.3406068E+03  0.7546771E-02  0.9850256E-01
        -11   -1    0    0    0    0  0.00000000000E+00  0.00000000000E+00  0.50000000000E+03  0.50000000000E+03  0.00000000000E+00 0. -1.
         11   -1    0    0    0    0 -0.00000000000E+00 -0.00000000000E+00 -0.50000000000E+03  0.50000000000E+03  0.00000000000E+00 0. -1.
         23    2    1    2    0    0 -0.32947854976E+02 -0.21795705816E+03  0.13217242010E+03  0.27191178426E+03  0.88744743160E+02 0.  0.
        -11    1    1    2    0    0  0.94286233442E+01  0.56866455485E+02  0.27950661776E+03  0.28538858083E+03  0.00000000000E+00 0. -1.
         11    1    1    2    0    0  0.23519231632E+02  0.16109060267E+03 -0.41167903787E+03  0.44269963490E+03  0.00000000000E+00 0. -1.
        -15    1    3    3    0    0 -0.77676175936E+01 -0.20150349512E+03  0.91897988610E+02  0.22161315951E+03  0.17770000000E+01 0. -1.
         15    1    3    3    0    0 -0.25180237382E+02 -0.16453563038E+02  0.40274431493E+02  0.50298624756E+02  0.17770000000E+01 0.  1.
</event>
<event>
 7    1  0.3970441E-006  0.5167336E+03  0.7546771E-02  0.9363126E-01
        -11   -1    0    0    0    0  0.00000000000E+00  0.00000000000E+00  0.50000000000E+03  0.50000000000E+03  0.00000000000E+00 0.  1.
         11   -1    0    0    0    0 -0.00000000000E+00 -0.00000000000E+00 -0.50000000000E+03  0.50000000000E+03  0.00000000000E+00 0. -1.
         23    2    1    2    0    0 -0.17818191071E+02 -0.33859002125E+02 -0.18208504413E+03  0.20760028996E+03  0.92081470114E+02 0.  0.
        -11    1    1    2    0    0 -0.89601037966E+02  0.70300050674E+02  0.46965515289E+03  0.48326639213E+03  0.00000000000E+00 0.  1.
         11    1    1    2    0    0  0.10741922904E+03 -0.36441048549E+02 -0.28757010876E+03  0.30913331791E+03  0.00000000000E+00 0. -1.
        -15    1    3    3    0    0  0.72203968668E+01 -0.37348947815E+02 -0.17788001034E+03  0.18191078539E+03  0.17770000000E+01 0. -1.
         15    1    3    3    0    0 -0.25038587938E+02  0.34899456903E+01 -0.42050337874E+01  0.25689504569E+02  0.17770000000E+01 0.  1.
</event>
<event>
 7    1  0.3970441E-006  0.4937105E+03  0.7546771E-02  0.9413994E-01
        -11   -1    0    0    0    0  0.00000000000E+00  0.00000000000E+00  0.50000000000E+03  0.50000000000E+03  0.00000000000E+00 0. -1.
         11   -1    0    0    0    0 -0.00000000000E+00 -0.00000000000E+00 -0.50000000000E+03  0.50000000000E+03  0.00000000000E+00 0.  1.
         23    2    1    2    0    0  0.82952798702E+02 -0.19030455338E+03  0.43490682141E+03  0.49058466770E+03  0.91828007843E+02 0.  0.
        -11    1    1    2    0    0 -0.17592255506E+02  0.23528891134E+01  0.11166660234E+02  0.20969450202E+02  0.00000000000E+00 0. -1.
         11    1    1    2    0    0 -0.65360543195E+02  0.18795166426E+03 -0.44607348165E+03  0.48844588210E+03  0.00000000000E+00 0.  1.
        -15    1    3    3    0    0  0.53423122804E+02 -0.32373976544E+02  0.16544666960E+03  0.17685548512E+03  0.17770000000E+01 0. -1.
         15    1    3    3    0    0  0.29529675898E+02 -0.15793057683E+03  0.26946015181E+03  0.31372918258E+03  0.17770000000E+01 0.  1.
</event>
<event>
 7    1  0.3970441E-006  0.5305875E+03  0.7546771E-02  0.9333854E-01
        -11   -1    0    0    0    0  0.00000000000E+00  0.00000000000E+00  0.50000000000E+03  0.50000000000E+03  0.00000000000E+00 0. -1.
         11   -1    0    0    0    0 -0.00000000000E+00 -0.00000000000E+00 -0.50000000000E+03  0.50000000000E+03  0.00000000000E+00 0.  1.
         23    2    1    2    0    0 -0.64478739401E+02  0.10253385949E+03 -0.32924837944E+03  0.36355921841E+03  0.95394495390E+02 0.  0.
        -11    1    1    2    0    0 -0.39811296666E+02 -0.89547826922E+02  0.45906900537E+03  0.46941250978E+03  0.00000000000E+00 0. -1.
         11    1    1    2    0    0  0.10429003607E+03 -0.12986032571E+02 -0.12982062593E+03  0.16702827181E+03  0.00000000000E+00 0.  1.
        -15    1    3    3    0    0 -0.42962038293E+02  0.31581261011E+02 -0.44999059406E+02  0.69793881235E+02  0.17770000000E+01 0. -1.
         15    1    3    3    0    0 -0.21516701108E+02  0.70952598482E+02 -0.28424932003E+03  0.29376533717E+03  0.17770000000E+01 0.  1.
</event>
<event>
 7    1  0.3970441E-006  0.4076796E+03  0.7546771E-02  0.9633978E-01
        -11   -1    0    0    0    0  0.00000000000E+00  0.00000000000E+00  0.50000000000E+03  0.50000000000E+03  0.00000000000E+00 0.  1.
         11   -1    0    0    0    0 -0.00000000000E+00 -0.00000000000E+00 -0.50000000000E+03  0.50000000000E+03  0.00000000000E+00 0.  1.
         23    2    1    2    0    0 -0.55228382277E+02 -0.44547290767E+02 -0.34707924505E+03  0.36604878311E+03  0.92157875111E+02 0.  0.
        -11    1    1    2    0    0  0.22789491660E+02 -0.96949133435E+02  0.44684390582E+03  0.45780778890E+03  0.00000000000E+00 0.  1.
         11    1    1    2    0    0  0.32438890616E+02  0.14149642420E+03 -0.99764660774E+02  0.17614342799E+03  0.00000000000E+00 0.  1.
        -15    1    3    3    0    0 -0.36097162799E+02  0.19658541315E+02 -0.72022026305E+02  0.82944520077E+02  0.17770000000E+01 0.  1.
         15    1    3    3    0    0 -0.19131219478E+02 -0.64205832082E+02 -0.27505721875E+03  0.28310426303E+03  0.17770000000E+01 0. -1.
</event>
<event>
 7    1  0.3970441E-006  0.4516405E+03  0.7546771E-02  0.9515035E-01
        -11   -1    0    0    0    0  0.00000000000E+00  0.00000000000E+00  0.50000000000E+03  0.50000000000E+03  0.00000000000E+00 0.  1.
         11   -1    0    0    0    0 -0.00000000000E+00 -0.00000000000E+00 -0.50000000000E+03  0.50000000000E+03  0.00000000000E+00 0.  1.
         23    2    1    2    0    0  0.22729025875E+02  0.27609924776E+02  0.17775672067E+02  0.95836519657E+02  0.87119156442E+02 0.  0.
        -11    1    1    2    0    0 -0.74757558969E+02  0.78909676914E+02  0.42867509630E+03  0.44224175280E+03  0.00000000000E+00 0.  1.
         11    1    1    2    0    0  0.52028533094E+02 -0.10651960169E+03 -0.44645076837E+03  0.46192172754E+03  0.00000000000E+00 0.  1.
        -15    1    3    3    0    0 -0.46415697749E+01  0.39470159522E+02 -0.22485977155E+02  0.45696986337E+02  0.17770000000E+01 0.  1.
         15    1    3    3    0    0  0.27370595650E+02 -0.11860234746E+02  0.40261649222E+02  0.50139533320E+02  0.17770000000E+01 0. -1.
</event>
<event>
 7    1  0.3970441E-006  0.5091476E+03  0.7546771E-02  0.9379571E-01
        -11   -1    0    0    0    0  0.00000000000E+00  0.00000000000E+00  0.50000000000E+03  0.50000000000E+03  0.00000000000E+00 0. -1.
         11   -1    0    0    0    0 -0.00000000000E+00 -0.00000000000E+00 -0.50000000000E+03  0.50000000000E+03  0.00000000000E+00 0.  1.
         23    2    1    2    0    0 -0.10360230420E+02  0.55227328339E+02  0.39096428696E+03  0.40604939204E+03  0.94157543129E+02 0.  0.
        -11    1    1    2    0    0  0.37886143372E+02  0.25596361176E+02  0.92405094950E+02  0.10309818203E+03  0.00000000000E+00 0. -1.
         11    1    1    2    0    0 -0.27525912952E+02 -0.80823689515E+02 -0.48336938191E+03  0.49085242593E+03  0.00000000000E+00 0.  1.
        -15    1    3    3    0    0 -0.47876011067E+02  0.37713644689E+02  0.15662861935E+03  0.16807770096E+03  0.17770000000E+01 0.  1.
         15    1    3    3    0    0  0.37515780646E+02  0.17513683650E+02  0.23433566761E+03  0.23797169108E+03  0.17770000000E+01 0. -1.
</event>
<event>
 7    1  0.3970441E-006  0.5160149E+03  0.7546771E-02  0.9364671E-01
        -11   -1    0    0    0    0  0.00000000000E+00  0.00000000000E+00  0.50000000000E+03  0.50000000000E+03  0.00000000000E+00 0.  1.
         11   -1    0    0    0    0 -0.00000000000E+00 -0.00000000000E+00 -0.50000000000E+03  0.50000000000E+03  0.00000000000E+00 0.  1.
         23    2    1    2    0    0  0.62845946327E+01 -0.22908411585E+02 -0.22442386759E+03  0.24357324067E+03  0.91638200420E+02 0.  0.
        -11    1    1    2    0    0  0.98012376595E+02 -0.10889400806E+02  0.47383178949E+03  0.48398509248E+03  0.00000000000E+00 0.  1.
         11    1    1    2    0    0 -0.10429697123E+03  0.33797812391E+02 -0.24940792190E+03  0.27244166685E+03  0.00000000000E+00 0.  1.
        -15    1    3    3    0    0  0.40915721668E+01  0.27574748891E+02 -0.23866902524E+02  0.36740910499E+02  0.17770000000E+01 0. -1.
         15    1    3    3    0    0  0.21930224659E+01 -0.50483160476E+02 -0.20055696507E+03  0.20683233017E+03  0.17770000000E+01 0.  1.
</event>
<event>
 7    1  0.3970441E-006  0.4519442E+03  0.7546771E-02  0.9514264E-01
        -11   -1    0    0    0    0  0.00000000000E+00  0.00000000000E+00  0.50000000000E+03  0.50000000000E+03  0.00000000000E+00 0. -1.
         11   -1    0    0    0    0 -0.00000000000E+00 -0.00000000000E+00 -0.50000000000E+03  0.50000000000E+03  0.00000000000E+00 0.  1.
         23    2    1    2    0    0 -0.21992282348E+02  0.24747226021E+01 -0.18991496082E+02  0.95641223245E+02  0.91086672601E+02 0.  0.
        -11    1    1    2    0    0 -0.90681146817E+02 -0.12383966951E+02  0.44976538634E+03  0.45898293626E+03  0.00000000000E+00 0. -1.
         11    1    1    2    0    0  0.11267342917E+03  0.99092443491E+01 -0.43077389026E+03  0.44537584049E+03  0.00000000000E+00 0.  1.
        -15    1    3    3    0    0  0.34085486217E+00  0.16970573652E+02 -0.51109963326E+02  0.53884159382E+02  0.17770000000E+01 0.  1.
         15    1    3    3    0    0 -0.22333137211E+02 -0.14495851050E+02  0.32118467244E+02  0.41757063863E+02  0.17770000000E+01 0. -1.
</event>
<event>
 7    1  0.3970441E-006  0.4250663E+03  0.7546771E-02  0.9585106E-01
        -11   -1    0    0    0    0  0.00000000000E+00  0.00000000000E+00  0.50000000000E+03  0.50000000000E+03  0.00000000000E+00 0.  1.
         11   -1    0    0    0    0 -0.00000000000E+00 -0.00000000000E+00 -0.50000000000E+03  0.50000000000E+03  0.00000000000E+00 0. -1.
         23    2    1    2    0    0 -0.13512657600E+02 -0.10934382252E+03 -0.30273250890E+01  0.14275259440E+03  0.90721965760E+02 0.  0.
        -11    1    1    2    0    0 -0.64332890515E+02  0.62373296329E+02  0.42052456060E+03  0.42996517879E+03  0.00000000000E+00 0.  1.
         11    1    1    2    0    0  0.77845548115E+02  0.46970526188E+02 -0.41749723552E+03  0.42728222682E+03  0.00000000000E+00 0. -1.
        -15    1    3    3    0    0 -0.27808922756E+01 -0.12039045641E+02  0.35426211732E+02  0.37561232521E+02  0.17770000000E+01 0. -1.
         15    1    3    3    0    0 -0.10731765324E+02 -0.97304776876E+02 -0.38453536821E+02  0.10519136187E+03  0.17770000000E+01 0.  1.
</event>
<event>
 7    1  0.3970441E-006  0.5324240E+03  0.7546771E-02  0.9330045E-01
        -11   -1    0    0    0    0  0.00000000000E+00  0.00000000000E+00  0.50000000000E+03  0.50000000000E+03  0.00000000000E+00 0.  1.
         11   -1    0    0    0    0 -0.00000000000E+00 -0.00000000000E+00 -0.50000000000E+03  0.50000000000E+03  0.00000000000E+00 0. -1.
         23    2    1    2    0    0  0.34816136913E+02 -0.73608724132E+02  0.21580503915E+03  0.24802880374E+03  0.91192460801E+02 0.  0.
        -11    1    1    2    0    0 -0.18386763723E+03 -0.10562177707E+03  0.18951876726E+03  0.28439520206E+03  0.00000000000E+00 0.  1.
         11    1    1    2    0    0  0.14905150031E+03  0.17923050120E+03 -0.40532380641E+03  0.46757599420E+03  0.00000000000E+00 0. -1.
        -15    1    3    3    0    0  0.46402060783E+02 -0.90268540420E+02  0.18654494792E+03  0.21237640161E+03  0.17770000000E+01 0.  1.
         15    1    3    3    0    0 -0.11585923870E+02  0.16659816288E+02  0.29260091222E+02  0.35652402135E+02  0.17770000000E+01 0. -1.
</event>
<event>
 7    1  0.3970441E-006  0.5224884E+03  0.7546771E-02  0.9350850E-01
        -11   -1    0    0    0    0  0.00000000000E+00  0.00000000000E+00  0.50000000000E+03  0.50000000000E+03  0.00000000000E+00 0. -1.
         11   -1    0    0    0    0 -0.00000000000E+00 -0.00000000000E+00 -0.50000000000E+03  0.50000000000E+03  0.00000000000E+00 0.  1.
         23    2    1    2    0    0 -0.81333916883E+01 -0.16624114043E+02 -0.92534591366E+02  0.13031214405E+03  0.89867074395E+02 0.  0.
        -11    1    1    2    0    0 -0.76489479610E+02 -0.62822151790E+02  0.46714032862E+03  0.47751162275E+03  0.00000000000E+00 0. -1.
         11    1    1    2    0    0  0.84622871298E+02  0.79446265833E+02 -0.37460573725E+03  0.39217623319E+03  0.00000000000E+00 0.  1.
        -15    1    3    3    0    0 -0.42476842363E+02  0.97938594670E+00 -0.17636624790E+02  0.46037480350E+02  0.17770000000E+01 0. -1.
         15    1    3    3    0    0  0.34343450675E+02 -0.17603499989E+02 -0.74897966576E+02  0.84274663703E+02  0.17770000000E+01 0.  1.
</event>
<event>
 7    1  0.3970441E-006  0.4644583E+03  0.7546771E-02  0.9483049E-01
        -11   -1    0    0    0    0  0.00000000000E+00  0.00000000000E+00  0.50000000000E+03  0.50000000000E+03  0.00000000000E+00 0. -1.
         11   -1    0    0    0    0 -0.00000000000E+00 -0.00000000000E+00 -0.50000000000E+03  0.50000000000E+03  0.00000000000E+00 0. -1.
         23    2    1    2    0    0  0.24542657780E+03  0.23012150167E+03  0.24310370439E+03  0.43380919822E+03  0.12609876588E+03 0.  0.
        -11    1    1    2    0    0  0.11492522416E+02  0.14538772594E+02  0.82555504058E+02  0.84610077593E+02  0.00000000000E+00 0. -1.
         11    1    1    2    0    0 -0.25691910021E+03 -0.24466027426E+03 -0.32565920845E+03  0.48158072418E+03  0.00000000000E+00 0. -1.
        -15    1    3    3    0    0  0.21588051928E+03  0.19133334581E+03  0.14195588688E+03  0.32150813266E+03  0.17770000000E+01 0. -1.
         15    1    3    3    0    0  0.29546058521E+02  0.38788155859E+02  0.10114781751E+03  0.11230106556E+03  0.17770000000E+01 0.  1.
</event>
<event>
 7    1  0.3970441E-006  0.5195169E+03  0.7546771E-02  0.9357168E-01
        -11   -1    0    0    0    0  0.00000000000E+00  0.00000000000E+00  0.50000000000E+03  0.50000000000E+03  0.00000000000E+00 0.  1.
         11   -1    0    0    0    0 -0.00000000000E+00 -0.00000000000E+00 -0.50000000000E+03  0.50000000000E+03  0.00000000000E+00 0. -1.
         23    2    1    2    0    0  0.42407301503E+02  0.56631945700E+02 -0.29465897474E+03  0.31726441388E+03  0.93953394975E+02 0.  0.
        -11    1    1    2    0    0 -0.15561661185E+03 -0.63564150327E+01  0.45454049007E+03  0.48048308087E+03  0.00000000000E+00 0.  1.
         11    1    1    2    0    0  0.11320931035E+03 -0.50275530668E+02 -0.15988151532E+03  0.20225250524E+03  0.00000000000E+00 0. -1.
        -15    1    3    3    0    0  0.14034173687E+02 -0.76140074928E+01 -0.18805636689E+01  0.16174838172E+02  0.17770000000E+01 0.  1.
         15    1    3    3    0    0  0.28373127816E+02  0.64245953193E+02 -0.29277841107E+03  0.30108957571E+03  0.17770000000E+01 0. -1.
</event>
<event>
 7    1  0.3970441E-006  0.5146536E+03  0.7546771E-02  0.9367605E-01
        -11   -1    0    0    0    0  0.00000000000E+00  0.00000000000E+00  0.50000000000E+03  0.50000000000E+03  0.00000000000E+00 0. -1.
         11   -1    0    0    0    0 -0.00000000000E+00 -0.00000000000E+00 -0.50000000000E+03  0.50000000000E+03  0.00000000000E+00 0.  1.
         23    2    1    2    0    0 -0.11095079695E+03  0.33589418510E+02  0.28686678594E+03  0.32217462193E+03  0.89808717637E+02 0.  0.
        -11    1    1    2    0    0 -0.13602106478E+02  0.10339670097E+03  0.16177841794E+03  0.19247896401E+03  0.00000000000E+00 0. -1.
         11    1    1    2    0    0  0.12455290343E+03 -0.13698611948E+03 -0.44864520388E+03  0.48534641406E+03  0.00000000000E+00 0.  1.
        -15    1    3    3    0    0 -0.87258884721E+02  0.18579358149E+02  0.27910116630E+03  0.29301864151E+03  0.17770000000E+01 0.  1.
         15    1    3    3    0    0 -0.23691912228E+02  0.15010060361E+02  0.77656196349E+01  0.29155980422E+02  0.17770000000E+01 0. -1.
</event>
<event>
 7    1  0.3970441E-006  0.5213200E+03  0.7546771E-02  0.9353329E-01
        -11   -1    0    0    0    0  0.00000000000E+00  0.00000000000E+00  0.50000000000E+03  0.50000000000E+03  0.00000000000E+00 0.  1.
         11   -1    0    0    0    0 -0.00000000000E+00 -0.00000000000E+00 -0.50000000000E+03  0.50000000000E+03  0.00000000000E+00 0.  1.
         23    2    1    2    0    0  0.12887510695E+03 -0.15038205497E+02 -0.23134955727E+03  0.27779785595E+03  0.82547503325E+02 0.  0.
        -11    1    1    2    0    0 -0.84171291636E+02  0.30398189730E+02  0.47024004738E+03  0.47868001675E+03  0.00000000000E+00 0.  1.
         11    1    1    2    0    0 -0.44703815311E+02 -0.15359984233E+02 -0.23889049011E+03  0.24352212730E+03  0.00000000000E+00 0.  1.
        -15    1    3    3    0    0  0.21802579670E+02 -0.23681244791E+01  0.59617477118E+00  0.22010762076E+02  0.17770000000E+01 0. -1.
         15    1    3    3    0    0  0.10707252728E+03 -0.12670081017E+02 -0.23194573204E+03  0.25578709387E+03  0.17770000000E+01 0.  1.
</event>
<event>
 7    1  0.3970441E-006  0.4249621E+03  0.7546771E-02  0.9585392E-01
        -11   -1    0    0    0    0  0.00000000000E+00  0.00000000000E+00  0.50000000000E+03  0.50000000000E+03  0.00000000000E+00 0.  1.
         11   -1    0    0    0    0 -0.00000000000E+00 -0.00000000000E+00 -0.50000000000E+03  0.50000000000E+03  0.00000000000E+00 0. -1.
         23    2    1    2    0    0 -0.62626417766E+02  0.87704596928E+02  0.22251324563E+02  0.14298175587E+03  0.91293463858E+02 0.  0.
        -11    1    1    2    0    0 -0.10655410677E+03 -0.12424095661E+03  0.38291609585E+03  0.41643046170E+03  0.00000000000E+00 0.  1.
         11    1    1    2    0    0  0.16918052454E+03  0.36536359683E+02 -0.40516742041E+03  0.44058778243E+03  0.00000000000E+00 0. -1.
        -15    1    3    3    0    0 -0.32289129774E+02  0.46360220783E+02  0.57577450699E+02  0.80685677358E+02  0.17770000000E+01 0.  1.
         15    1    3    3    0    0 -0.30337287992E+02  0.41344376145E+02 -0.35326126137E+02  0.62296078515E+02  0.17770000000E+01 0. -1.
</event>
<event>
 7    1  0.3970441E-006  0.5186900E+03  0.7546771E-02  0.9358934E-01
        -11   -1    0    0    0    0  0.00000000000E+00  0.00000000000E+00  0.50000000000E+03  0.50000000000E+03  0.00000000000E+00 0.  1.
         11   -1    0    0    0    0 -0.00000000000E+00 -0.00000000000E+00 -0.50000000000E+03  0.50000000000E+03  0.00000000000E+00 0. -1.
         23    2    1    2    0    0 -0.51708940890E+02  0.42178081821E+02  0.22733786024E+03  0.25267901860E+03  0.87814455454E+02 0.  0.
        -11    1    1    2    0    0 -0.15334548640E+03 -0.64650828823E+02  0.20752650562E+03  0.26601093662E+03  0.00000000000E+00 0.  1.
         11    1    1    2    0    0  0.20505442729E+03  0.22472747002E+02 -0.43486436586E+03  0.48131004478E+03  0.00000000000E+00 0. -1.
        -15    1    3    3    0    0 -0.22384979176E+02  0.65942393273E+02  0.11838219436E+03  0.13735715559E+03  0.17770000000E+01 0. -1.
         15    1    3    3    0    0 -0.29323961714E+02 -0.23764311452E+02  0.10895566588E+03  0.11532186300E+03  0.17770000000E+01 0.  1.
</event>
<event>
 7    1  0.3970441E-006  0.5377785E+03  0.7546771E-02  0.9319032E-01
        -11   -1    0    0    0    0  0.00000000000E+00  0.00000000000E+00  0.50000000000E+03  0.50000000000E+03  0.00000000000E+00 0.  1.
         11   -1    0    0    0    0 -0.00000000000E+00 -0.00000000000E+00 -0.50000000000E+03  0.50000000000E+03  0.00000000000E+00 0. -1.
         23    2    1    2    0    0  0.62057114528E+02 -0.10519359842E+02 -0.16129620132E+03  0.19497222676E+03  0.89643528784E+02 0.  0.
        -11    1    1    2    0    0 -0.36421793809E+03  0.15149844480E+03  0.24091954582E+03  0.46222149751E+03  0.00000000000E+00 0.  1.
         11    1    1    2    0    0  0.30216082356E+03 -0.14097908496E+03 -0.79623344496E+02  0.34280627573E+03  0.00000000000E+00 0. -1.
        -15    1    3    3    0    0  0.39599393441E+02 -0.19545325184E+02 -0.16464482931E+03  0.17047348546E+03  0.17770000000E+01 0.  1.
         15    1    3    3    0    0  0.22457721087E+02  0.90259653428E+01  0.33486279920E+01  0.24498741299E+02  0.17770000000E+01 0. -1.
</event>
<event>
 7    1  0.3970441E-006  0.5225006E+03  0.7546771E-02  0.9350824E-01
        -11   -1    0    0    0    0  0.00000000000E+00  0.00000000000E+00  0.50000000000E+03  0.50000000000E+03  0.00000000000E+00 0.  1.
         11   -1    0    0    0    0 -0.00000000000E+00 -0.00000000000E+00 -0.50000000000E+03  0.50000000000E+03  0.00000000000E+00 0. -1.
         23    2    1    2    0    0 -0.63949193099E+02 -0.32554974600E+02 -0.37938850251E+03  0.39644856255E+03  0.89924975641E+02 0.  0.
        -11    1    1    2    0    0  0.15589978757E+03 -0.15359906704E+02  0.45107094056E+03  0.47749938630E+03  0.00000000000E+00 0.  1.
         11    1    1    2    0    0 -0.91950594467E+02  0.47914881304E+02 -0.71682438053E+02  0.12605205115E+03  0.00000000000E+00 0. -1.
        -15    1    3    3    0    0 -0.42413150763E+02  0.27431041073E+02 -0.14566152194E+03  0.15418097832E+03  0.17770000000E+01 0.  1.
         15    1    3    3    0    0 -0.21536042336E+02 -0.59986015674E+02 -0.23372698056E+03  0.24226758423E+03  0.17770000000E+01 0. -1.
</event>
<event>
 7    1  0.3970441E-006  0.5364156E+03  0.7546771E-02  0.9321822E-01
        -11   -1    0    0    0    0  0.00000000000E+00  0.00000000000E+00  0.50000000000E+03  0.50000000000E+03  0.00000000000E+00 0.  1.
         11   -1    0    0    0    0 -0.00000000000E+00 -0.00000000000E+00 -0.50000000000E+03  0.50000000000E+03  0.00000000000E+00 0. -1.
         23    2    1    2    0    0 -0.93915160084E+02  0.13571525796E+03 -0.32727363293E+03  0.38470136265E+03  0.11682644854E+03 0.  0.
        -11    1    1    2    0    0  0.39213216130E+02 -0.76097782437E+02  0.45561166406E+03  0.46358444456E+03  0.00000000000E+00 0.  1.
         11    1    1    2    0    0  0.54701943954E+02 -0.59617475522E+02 -0.12833803112E+03  0.15171419279E+03  0.00000000000E+00 0. -1.
        -15    1    3    3    0    0 -0.66450953094E+01  0.27858362125E+02  0.57405452233E+00  0.28700747369E+02  0.17770000000E+01 0.  1.
         15    1    3    3    0    0 -0.87270064775E+02  0.10785689583E+03 -0.32784768746E+03  0.35600061529E+03  0.17770000000E+01 0. -1.
</event>
<event>
 7    1  0.3970441E-006  0.4738527E+03  0.7546771E-02  0.9460295E-01
        -11   -1    0    0    0    0  0.00000000000E+00  0.00000000000E+00  0.50000000000E+03  0.50000000000E+03  0.00000000000E+00 0. -1.
         11   -1    0    0    0    0 -0.00000000000E+00 -0.00000000000E+00 -0.50000000000E+03  0.50000000000E+03  0.00000000000E+00 0.  1.
         23    2    1    2    0    0  0.55473978784E+02  0.15881980996E+03 -0.41532062553E+03  0.45780642315E+03  0.93778487558E+02 0.  0.
        -11    1    1    2    0    0 -0.18813017655E+02 -0.14387074688E+03  0.46009138080E+03  0.48242802585E+03  0.00000000000E+00 0. -1.
         11    1    1    2    0    0 -0.36660961130E+02 -0.14949063086E+02 -0.44770755271E+02  0.59765550994E+02  0.00000000000E+00 0.  1.
        -15    1    3    3    0    0  0.78748582450E+02  0.14575074159E+03 -0.36408844510E+03  0.40001021424E+03  0.17770000000E+01 0.  1.
         15    1    3    3    0    0 -0.23274603665E+02  0.13069068374E+02 -0.51232180435E+02  0.57796208917E+02  0.17770000000E+01 0. -1.
</event>
<event>
 7    1  0.3970441E-006  0.5087813E+03  0.7546771E-02  0.9380372E-01
        -11   -1    0    0    0    0  0.00000000000E+00  0.00000000000E+00  0.50000000000E+03  0.50000000000E+03  0.00000000000E+00 0.  1.
         11   -1    0    0    0    0 -0.00000000000E+00 -0.00000000000E+00 -0.50000000000E+03  0.50000000000E+03  0.00000000000E+00 0.  1.
         23    2    1    2    0    0 -0.50376394789E+02 -0.64367979271E+02 -0.38794172262E+03  0.40527506039E+03  0.84071853315E+02 0.  0.
        -11    1    1    2    0    0  0.66688552387E+02  0.12475531660E+03  0.47040888561E+03  0.49121865977E+03  0.00000000000E+00 0.  1.
         11    1    1    2    0    0 -0.16312157597E+02 -0.60387337325E+02 -0.82467162992E+02  0.10350627984E+03  0.00000000000E+00 0.  1.
        -15    1    3    3    0    0 -0.36795407920E+02 -0.84543823637E+02 -0.32294096656E+03  0.33585054082E+03  0.17770000000E+01 0.  1.
         15    1    3    3    0    0 -0.13580986869E+02  0.20175844366E+02 -0.65000756063E+02  0.69424519574E+02  0.17770000000E+01 0. -1.
</event>
<event>
 7    1  0.3970441E-006  0.3934840E+03  0.7546771E-02  0.9675852E-01
        -11   -1    0    0    0    0  0.00000000000E+00  0.00000000000E+00  0.50000000000E+03  0.50000000000E+03  0.00000000000E+00 0.  1.
         11   -1    0    0    0    0 -0.00000000000E+00 -0.00000000000E+00 -0.50000000000E+03  0.50000000000E+03  0.00000000000E+00 0. -1.
         23    2    1    2    0    0 -0.94969281208E+02 -0.80067950903E+02 -0.32399735843E+03  0.35868766397E+03  0.90843331494E+02 0.  0.
        -11    1    1    2    0    0 -0.65168870482E+02  0.16453127368E+03  0.40574954548E+03  0.44266264283E+03  0.00000000000E+00 0.  1.
         11    1    1    2    0    0  0.16013815169E+03 -0.84463322779E+02 -0.81752187046E+02  0.19864969320E+03  0.00000000000E+00 0. -1.
        -15    1    3    3    0    0 -0.69490855842E+02 -0.47923376902E+02 -0.29883697925E+03  0.31053554869E+03  0.17770000000E+01 0.  1.
         15    1    3    3    0    0 -0.25478425365E+02 -0.32144574001E+02 -0.25160379182E+02  0.48152115285E+02  0.17770000000E+01 0. -1.
</event>
<event>
 7    1  0.3970441E-006  0.5207874E+03  0.7546771E-02  0.9354461E-01
        -11   -1    0    0    0    0  0.00000000000E+00  0.00000000000E+00  0.50000000000E+03  0.50000000000E+03  0.00000000000E+00 0. -1.
         11   -1    0    0    0    0 -0.00000000000E+00 -0.00000000000E+00 -0.50000000000E+03  0.50000000000E+03  0.00000000000E+00 0. -1.
         23    2    1    2    0    0  0.23016891083E+02 -0.12767409900E+03 -0.30042400695E+03  0.33970966072E+03  0.91200969317E+02 0.  0.
        -11    1    1    2    0    0 -0.43668659433E+02  0.72561021872E+02  0.47167005501E+03  0.47921257758E+03  0.00000000000E+00 0. -1.
         11    1    1    2    0    0  0.20651768350E+02  0.55113077129E+02 -0.17124604806E+03  0.18107776170E+03  0.00000000000E+00 0. -1.
        -15    1    3    3    0    0  0.43965104282E+01 -0.11189360741E+03 -0.29370279040E+03  0.31433102853E+03  0.17770000000E+01 0. -1.
         15    1    3    3    0    0  0.18620380655E+02 -0.15780491595E+02 -0.67212165505E+01  0.25378632186E+02  0.17770000000E+01 0.  1.
</event>
<event>
 7    1  0.3970441E-006  0.4220720E+03  0.7546771E-02  0.9593343E-01
        -11   -1    0    0    0    0  0.00000000000E+00  0.00000000000E+00  0.50000000000E+03  0.50000000000E+03  0.00000000000E+00 0.  1.
         11   -1    0    0    0    0 -0.00000000000E+00 -0.00000000000E+00 -0.50000000000E+03  0.50000000000E+03  0.00000000000E+00 0. -1.
         23    2    1    2    0    0 -0.40241452355E+01 -0.88526395342E+02 -0.39478310101E+03  0.41567073036E+03  0.95264593696E+02 0.  0.
        -11    1    1    2    0    0  0.58247802879E+02 -0.51263832126E+02  0.42444996291E+03  0.43148413417E+03  0.00000000000E+00 0.  1.
         11    1    1    2    0    0 -0.54223657643E+02  0.13979022747E+03 -0.29666861897E+02  0.15284513548E+03  0.00000000000E+00 0. -1.
        -15    1    3    3    0    0  0.28863263143E+02 -0.16135149304E+01 -0.16968306327E+03  0.17213712871E+03  0.17770000000E+01 0.  1.
         15    1    3    3    0    0 -0.32887408379E+02 -0.86912880411E+02 -0.22510003774E+03  0.24353360165E+03  0.17770000000E+01 0. -1.
</event>
<event>
 7    1  0.3970441E-006  0.4862556E+03  0.7546771E-02  0.9431100E-01
        -11   -1    0    0    0    0  0.00000000000E+00  0.00000000000E+00  0.50000000000E+03  0.50000000000E+03  0.00000000000E+00 0. -1.
         11   -1    0    0    0    0 -0.00000000000E+00 -0.00000000000E+00 -0.50000000000E+03  0.50000000000E+03  0.00000000000E+00 0.  1.
         23    2    1    2    0    0 -0.16191102023E+03 -0.28906622325E+03 -0.34287369813E+03  0.48471220808E+03  0.87230108859E+02 0.  0.
        -11    1    1    2    0    0 -0.33446676237E+02  0.61214056509E+01  0.71758715388E+01  0.34751185458E+02  0.00000000000E+00 0.  1.
         11    1    1    2    0    0  0.19535769646E+03  0.28294481760E+03  0.33569782659E+03  0.48053660647E+03  0.00000000000E+00 0. -1.
        -15    1    3    3    0    0 -0.82881935014E+02 -0.17152044616E+03 -0.25394194275E+03  0.31745605463E+03  0.17770000000E+01 0.  1.
         15    1    3    3    0    0 -0.79029085214E+02 -0.11754577710E+03 -0.88931755376E+02  0.16725615345E+03  0.17770000000E+01 0. -1.
</event>
<event>
 7    1  0.3970441E-006  0.5147825E+03  0.7546771E-02  0.9367327E-01
        -11   -1    0    0    0    0  0.00000000000E+00  0.00000000000E+00  0.50000000000E+03  0.50000000000E+03  0.00000000000E+00 0.  1.
         11   -1    0    0    0    0 -0.00000000000E+00 -0.00000000000E+00 -0.50000000000E+03  0.50000000000E+03  0.00000000000E+00 0. -1.
         23    2    1    2    0    0  0.27524878727E+02  0.32035218634E+01 -0.32834443511E+03  0.34148598542E+03  0.89636648024E+02 0.  0.
        -11    1    1    2    0    0 -0.65281127508E+02  0.83651429147E+02  0.47347319024E+03  0.48521752759E+03  0.00000000000E+00 0.  1.
         11    1    1    2    0    0  0.37756248781E+02 -0.86854951010E+02 -0.14512875513E+03  0.17329648699E+03  0.00000000000E+00 0. -1.
        -15    1    3    3    0    0  0.48281281345E+02 -0.14975058691E+02 -0.28903097434E+03  0.29342357841E+03  0.17770000000E+01 0. -1.
         15    1    3    3    0    0 -0.20756402618E+02  0.18178580554E+02 -0.39313460768E+02  0.48062407005E+02  0.17770000000E+01 0.  1.
</event>
<event>
 6    1  0.3970441E-006  0.5505527E+03  0.7546771E-02  0.9293297E-01
        -11   -1    0    0    0    0  0.00000000000E+00  0.00000000000E+00  0.50000000000E+03  0.50000000000E+03  0.00000000000E+00 0.  1.
         11   -1    0    0    0    0 -0.00000000000E+00 -0.00000000000E+00 -0.50000000000E+03  0.50000000000E+03  0.00000000000E+00 0. -1.
        -11    1    1    2    0    0 -0.85053709897E+02 -0.23662530254E+02  0.31338998281E+03  0.32558766904E+03  0.00000000000E+00 0.  1.
         11    1    1    2    0    0  0.65394020402E+01  0.14728002566E+03 -0.42458065886E+03  0.44944733353E+03  0.00000000000E+00 0. -1.
        -15    1    1    2    0    0  0.16059006097E+02  0.61837197343E+01  0.74262505249E+02  0.76250950692E+02  0.17770000000E+01 0.  1.
         15    1    1    2    0    0  0.62455301760E+02 -0.12980121514E+03  0.36928170796E+02  0.14871404674E+03  0.17770000000E+01 0. -1.
</event>
<event>
 7    1  0.3970441E-006  0.5305896E+03  0.7546771E-02  0.9333850E-01
        -11   -1    0    0    0    0  0.00000000000E+00  0.00000000000E+00  0.50000000000E+03  0.50000000000E+03  0.00000000000E+00 0.  1.
         11   -1    0    0    0    0 -0.00000000000E+00 -0.00000000000E+00 -0.50000000000E+03  0.50000000000E+03  0.00000000000E+00 0.  1.
         23    2    1    2    0    0  0.11464413896E+03 -0.13548031032E+03 -0.33672228786E+03  0.39181452879E+03  0.92943707403E+02 0.  0.
        -11    1    1    2    0    0 -0.71617544464E+02  0.80847435607E+02  0.45681589798E+03  0.46941042294E+03  0.00000000000E+00 0.  1.
         11    1    1    2    0    0 -0.43026594492E+02  0.54632874710E+02 -0.12009361011E+03  0.13877504827E+03  0.00000000000E+00 0.  1.
        -15    1    3    3    0    0 -0.11482937774E+00 -0.19587783912E+02 -0.11439307911E+03  0.11607165348E+03  0.17770000000E+01 0. -1.
         15    1    3    3    0    0  0.11475896833E+03 -0.11589252641E+03 -0.22232920875E+03  0.27574287531E+03  0.17770000000E+01 0.  1.
</event>
<event>
 7    1  0.3970441E-006  0.3907617E+03  0.7546771E-02  0.9684098E-01
        -11   -1    0    0    0    0  0.00000000000E+00  0.00000000000E+00  0.50000000000E+03  0.50000000000E+03  0.00000000000E+00 0. -1.
         11   -1    0    0    0    0 -0.00000000000E+00 -0.00000000000E+00 -0.50000000000E+03  0.50000000000E+03  0.00000000000E+00 0. -1.
         23    2    1    2    0    0 -0.67856523983E+02  0.14177806637E+03 -0.31677737194E+03  0.36511481442E+03  0.90859211904E+02 0.  0.
        -11    1    1    2    0    0 -0.67207090101E+02 -0.36019332875E+02  0.42517855174E+03  0.43196178785E+03  0.00000000000E+00 0. -1.
         11    1    1    2    0    0  0.13506361408E+03 -0.10575873350E+03 -0.10840117980E+03  0.20292339772E+03  0.00000000000E+00 0. -1.
        -15    1    3    3    0    0 -0.58497888020E+02  0.15104552680E+03 -0.25633477104E+03  0.30322834077E+03  0.17770000000E+01 0.  1.
         15    1    3    3    0    0 -0.93586359627E+01 -0.92674604253E+01 -0.60442600895E+02  0.61886473658E+02  0.17770000000E+01 0. -1.
</event>
<event>
 7    1  0.3970441E-006  0.4491455E+03  0.7546771E-02  0.9521393E-01
        -11   -1    0    0    0    0  0.00000000000E+00  0.00000000000E+00  0.50000000000E+03  0.50000000000E+03  0.00000000000E+00 0.  1.
         11   -1    0    0    0    0 -0.00000000000E+00 -0.00000000000E+00 -0.50000000000E+03  0.50000000000E+03  0.00000000000E+00 0. -1.
         23    2    1    2    0    0  0.15333165486E+02 -0.60534856669E+02 -0.44816944981E+03  0.46153370358E+03  0.90873147637E+02 0.  0.
        -11    1    1    2    0    0 -0.16288808606E+02  0.15577317508E+03  0.40435529483E+03  0.43362865659E+03  0.00000000000E+00 0.  1.
         11    1    1    2    0    0  0.95564312013E+00 -0.95238318413E+02  0.43814154987E+02  0.10483763983E+03  0.00000000000E+00 0. -1.
        -15    1    3    3    0    0  0.52685201258E+02 -0.33232578737E+02 -0.29543245285E+03  0.30193314930E+03  0.17770000000E+01 0.  1.
         15    1    3    3    0    0 -0.37352035772E+02 -0.27302277932E+02 -0.15273699696E+03  0.15960055428E+03  0.17770000000E+01 0. -1.
</event>
<event>
 7    1  0.3970441E-006  0.5123878E+03  0.7546771E-02  0.9372510E-01
        -11   -1    0    0    0    0  0.00000000000E+00  0.00000000000E+00  0.50000000000E+03  0.50000000000E+03  0.00000000000E+00 0.  1.
         11   -1    0    0    0    0 -0.00000000000E+00 -0.00000000000E+00 -0.50000000000E+03  0.50000000000E+03  0.00000000000E+00 0.  1.
         23    2    1    2    0    0  0.47762706198E+02 -0.69005203087E+02  0.27632283870E+03  0.30287070358E+03  0.91287226606E+02 0.  0.
        -11    1    1    2    0    0  0.31879978867E+02  0.37280142219E+02  0.20369406073E+03  0.20951709342E+03  0.00000000000E+00 0.  1.
         11    1    1    2    0    0 -0.79642685065E+02  0.31725060869E+02 -0.48001689944E+03  0.48761220300E+03  0.00000000000E+00 0.  1.
        -15    1    3    3    0    0 -0.51620036866E+01 -0.40054348251E+02  0.20720835563E+03  0.21111479690E+03  0.17770000000E+01 0.  1.
         15    1    3    3    0    0  0.52924709884E+02 -0.28950854837E+02  0.69114483072E+02  0.91755906685E+02  0.17770000000E+01 0. -1.
</event>
<event>
 6    1  0.3970441E-006  0.4088179E+03  0.7546771E-02  0.9630700E-01
        -11   -1    0    0    0    0  0.00000000000E+00  0.00000000000E+00  0.50000000000E+03  0.50000000000E+03  0.00000000000E+00 0.  1.
         11   -1    0    0    0    0 -0.00000000000E+00 -0.00000000000E+00 -0.50000000000E+03  0.50000000000E+03  0.00000000000E+00 0. -1.
        -11    1    1    2    0    0  0.88845107506E+02 -0.95456323056E+01  0.41754306255E+03  0.42699740199E+03  0.00000000000E+00 0.  1.
         11    1    1    2    0    0  0.55075145438E+02 -0.62191962488E+02 -0.19176228398E+02  0.85257489868E+02  0.00000000000E+00 0. -1.
        -15    1    1    2    0    0 -0.72421882319E+02  0.87647249957E+01 -0.38460160807E+03  0.39146303031E+03  0.17770000000E+01 0. -1.
         15    1    1    2    0    0 -0.71498370625E+02  0.62972869798E+02 -0.13765226088E+02  0.96282077828E+02  0.17770000000E+01 0.  1.
</event>
<event>
 7    1  0.3970441E-006  0.5144029E+03  0.7546771E-02  0.9368146E-01
        -11   -1    0    0    0    0  0.00000000000E+00  0.00000000000E+00  0.50000000000E+03  0.50000000000E+03  0.00000000000E+00 0.  1.
         11   -1    0    0    0    0 -0.00000000000E+00 -0.00000000000E+00 -0.50000000000E+03  0.50000000000E+03  0.00000000000E+00 0.  1.
         23    2    1    2    0    0  0.39659062747E+02 -0.81698113883E+02  0.28275525940E+03  0.31121723869E+03  0.93049502230E+02 0.  0.
        -11    1    1    2    0    0  0.43817133135E+02  0.41817943425E+02  0.19394779526E+03  0.20318570037E+03  0.00000000000E+00 0.  1.
         11    1    1    2    0    0 -0.83476195882E+02  0.39880170458E+02 -0.47670305466E+03  0.48559706095E+03  0.00000000000E+00 0.  1.
        -15    1    3    3    0    0  0.20828366452E+02  0.18566035732E+02  0.58079208642E+02  0.64458286801E+02  0.17770000000E+01 0. -1.
         15    1    3    3    0    0  0.18830696296E+02 -0.10026414961E+03  0.22467605076E+03  0.24675895189E+03  0.17770000000E+01 0.  1.
</event>
<event>
 7    1  0.3970441E-006  0.3066863E+03  0.7546771E-02  0.9981111E-01
        -11   -1    0    0    0    0  0.00000000000E+00  0.00000000000E+00  0.50000000000E+03  0.50000000000E+03  0.00000000000E+00 0. -1.
         11   -1    0    0    0    0 -0.00000000000E+00 -0.00000000000E+00 -0.50000000000E+03  0.50000000000E+03  0.00000000000E+00 0.  1.
         23    2    1    2    0    0 -0.20656019461E+03 -0.19070401860E+03 -0.11433595661E+03  0.31565077207E+03  0.86761525038E+02 0.  0.
        -11    1    1    2    0    0  0.99430323890E+02 -0.10692056185E+02  0.34544012242E+03  0.35962423105E+03  0.00000000000E+00 0. -1.
         11    1    1    2    0    0  0.10712987072E+03  0.20139607479E+03 -0.23110416582E+03  0.32472499688E+03  0.00000000000E+00 0.  1.
        -15    1    3    3    0    0 -0.18855389961E+03 -0.19888503721E+03 -0.11006530285E+03  0.29533939748E+03  0.17770000000E+01 0.  1.
         15    1    3    3    0    0 -0.18006295007E+02  0.81810186084E+01 -0.42706537598E+01  0.20311374594E+02  0.17770000000E+01 0. -1.
</event>
<event>
 7    1  0.3970441E-006  0.3404315E+03  0.7546771E-02  0.9850889E-01
        -11   -1    0    0    0    0  0.00000000000E+00  0.00000000000E+00  0.50000000000E+03  0.50000000000E+03  0.00000000000E+00 0.  1.
         11   -1    0    0    0    0 -0.00000000000E+00 -0.00000000000E+00 -0.50000000000E+03  0.50000000000E+03  0.00000000000E+00 0. -1.
         23    2    1    2    0    0 -0.14564505267E+03 -0.72996909071E+02 -0.19760077085E+03  0.27256507700E+03  0.93298587657E+02 0.  0.
        -11    1    1    2    0    0 -0.97013537414E+02 -0.19166420279E+02  0.39127146203E+03  0.40357444804E+03  0.00000000000E+00 0.  1.
         11    1    1    2    0    0  0.24265859008E+03  0.92163329351E+02 -0.19367069119E+03  0.32386047496E+03  0.00000000000E+00 0. -1.
        -15    1    3    3    0    0 -0.15637770305E+03 -0.75310797709E+02 -0.19515213691E+03  0.26117660028E+03  0.17770000000E+01 0. -1.
         15    1    3    3    0    0  0.10732650383E+02  0.23138886381E+01 -0.24486339401E+01  0.11388476722E+02  0.17770000000E+01 0.  1.
</event>
<event>
 7    1  0.3970441E-006  0.3489997E+03  0.7546771E-02  0.9820390E-01
        -11   -1    0    0    0    0  0.00000000000E+00  0.00000000000E+00  0.50000000000E+03  0.50000000000E+03  0.00000000000E+00 0.  1.
         11   -1    0    0    0    0 -0.00000000000E+00 -0.00000000000E+00 -0.50000000000E+03  0.50000000000E+03  0.00000000000E+00 0. -1.
         23    2    1    2    0    0 -0.11843793747E+03 -0.23668283544E+03 -0.16240074118E+03  0.32353347155E+03  0.90849308483E+02 0.  0.
        -11    1    1    2    0    0  0.50093284145E+02  0.12083948029E+03  0.39041017999E+03  0.41174218360E+03  0.00000000000E+00 0.  1.
         11    1    1    2    0    0  0.68344653322E+02  0.11584335515E+03 -0.22800943882E+03  0.26472434485E+03  0.00000000000E+00 0. -1.
        -15    1    3    3    0    0 -0.36187063389E+02 -0.16914621537E+03 -0.92106877648E+02  0.19597647912E+03  0.17770000000E+01 0.  1.
         15    1    3    3    0    0 -0.82250874078E+02 -0.67536620074E+02 -0.70293863530E+02  0.12755699243E+03  0.17770000000E+01 0. -1.
</event>
<event>
 7    1  0.3970441E-006  0.5289053E+03  0.7546771E-02  0.9337358E-01
        -11   -1    0    0    0    0  0.00000000000E+00  0.00000000000E+00  0.50000000000E+03  0.50000000000E+03  0.00000000000E+00 0.  1.
         11   -1    0    0    0    0 -0.00000000000E+00 -0.00000000000E+00 -0.50000000000E+03  0.50000000000E+03  0.00000000000E+00 0. -1.
         23    2    1    2    0    0 -0.49828603034E+02  0.78344733686E+01 -0.15048475041E+03  0.18500271050E+03  0.95058267043E+02 0.  0.
        -11    1    1    2    0    0 -0.88726846141E+02  0.49069189694E+02  0.46005434602E+03  0.47109472497E+03  0.00000000000E+00 0.  1.
         11    1    1    2    0    0  0.13855544917E+03 -0.56903663062E+02 -0.30956959560E+03  0.34390256453E+03  0.00000000000E+00 0. -1.
        -15    1    3    3    0    0  0.49107352349E+01  0.41576272315E+02 -0.45315419231E+02  0.61719905130E+02  0.17770000000E+01 0.  1.
         15    1    3    3    0    0 -0.54739338269E+02 -0.33741798947E+02 -0.10516933118E+03  0.12328280537E+03  0.17770000000E+01 0. -1.
</event>
<event>
 7    1  0.3970441E-006  0.3863625E+03  0.7546771E-02  0.9697576E-01
        -11   -1    0    0    0    0  0.00000000000E+00  0.00000000000E+00  0.50000000000E+03  0.50000000000E+03  0.00000000000E+00 0. -1.
         11   -1    0    0    0    0 -0.00000000000E+00 -0.00000000000E+00 -0.50000000000E+03  0.50000000000E+03  0.00000000000E+00 0. -1.
         23    2    1    2    0    0  0.59714736420E+02 -0.25321475463E+03 -0.32874364306E+03  0.42976709124E+03  0.94571709058E+02 0.  0.
        -11    1    1    2    0    0  0.83103909297E+02  0.98791096297E+02  0.33581236400E+03  0.35977198927E+03  0.00000000000E+00 0. -1.
         11    1    1    2    0    0 -0.14281864572E+03  0.15442365833E+03 -0.70687209395E+01  0.21046091949E+03  0.00000000000E+00 0. -1.
        -15    1    3    3    0    0  0.38421566702E+02 -0.21433891938E+02 -0.50368340052E+02  0.66901090574E+02  0.17770000000E+01 0.  1.
         15    1    3    3    0    0  0.21293169718E+02 -0.23178086269E+03 -0.27837530301E+03  0.36286600067E+03  0.17770000000E+01 0. -1.
</event>
<event>
 7    1  0.8391110E-006  0.5066454E+03  0.7546771E-02  0.9385062E-01
        -11   -1    0    0    0    0  0.00000000000E+00  0.00000000000E+00  0.50000000000E+03  0.50000000000E+03  0.00000000000E+00 0.  1.
         11   -1    0    0    0    0 -0.00000000000E+00 -0.00000000000E+00 -0.50000000000E+03  0.50000000000E+03  0.00000000000E+00 0.  1.
         23    2    1    2    0    0  0.50708802540E+02 -0.11882565615E+02  0.32392730936E+03  0.34064233047E+03  0.91628148182E+02 0.  0.
        -11    1    1    2    0    0  0.30010038284E+02 -0.24521860811E+02  0.16141586046E+03  0.16600302426E+03  0.00000000000E+00 0.  1.
         11    1    1    2    0    0 -0.80718840824E+02  0.36404426426E+02 -0.48534316981E+03  0.49335464527E+03  0.00000000000E+00 0.  1.
        -15    1    3    3    0    0  0.48799151173E+02  0.33940031138E+02  0.17870741125E+03  0.18834218708E+03  0.17770000000E+01 0.  1.
         15    1    3    3    0    0  0.19096513666E+01 -0.45822596753E+02  0.14521989811E+03  0.15230014339E+03  0.17770000000E+01 0. -1.
</event>
<event>
 6    1  0.3970441E-006  0.5423805E+03  0.7546771E-02  0.9309674E-01
        -11   -1    0    0    0    0  0.00000000000E+00  0.00000000000E+00  0.50000000000E+03  0.50000000000E+03  0.00000000000E+00 0. -1.
         11   -1    0    0    0    0 -0.00000000000E+00 -0.00000000000E+00 -0.50000000000E+03  0.50000000000E+03  0.00000000000E+00 0.  1.
        -11    1    1    2    0    0 -0.29200561875E+02 -0.13994423809E+02  0.10856249904E+03  0.11328871484E+03  0.00000000000E+00 0.  1.
         11    1    1    2    0    0  0.37038356619E+02  0.65743779649E+02  0.33596073202E+03  0.34433079718E+03  0.00000000000E+00 0. -1.
        -15    1    1    2    0    0  0.12284380243E+03  0.55692391275E+01 -0.69818384275E+02  0.14141916678E+03  0.17770000000E+01 0. -1.
         15    1    1    2    0    0 -0.13068159717E+03 -0.57318594968E+02 -0.37470484679E+03  0.40096132121E+03  0.17770000000E+01 0.  1.
</event>
<event>
 7    1  0.3970441E-006  0.4122210E+03  0.7546771E-02  0.9620965E-01
        -11   -1    0    0    0    0  0.00000000000E+00  0.00000000000E+00  0.50000000000E+03  0.50000000000E+03  0.00000000000E+00 0.  1.
         11   -1    0    0    0    0 -0.00000000000E+00 -0.00000000000E+00 -0.50000000000E+03  0.50000000000E+03  0.00000000000E+00 0. -1.
         23    2    1    2    0    0  0.54846923311E+02  0.81644240096E+02 -0.94255385758E+02  0.16437880213E+03  0.91991009939E+02 0.  0.
        -11    1    1    2    0    0  0.17802207098E+03 -0.49363039972E+02  0.40548030171E+03  0.44558146567E+03  0.00000000000E+00 0.  1.
         11    1    1    2    0    0 -0.23286899429E+03 -0.32281200123E+02 -0.31122491595E+03  0.39003973220E+03  0.00000000000E+00 0. -1.
        -15    1    3    3    0    0 -0.98620052177E+01  0.28920939342E+02 -0.71606447904E+02  0.77873750325E+02  0.17770000000E+01 0. -1.
         15    1    3    3    0    0  0.64708928528E+02  0.52723300754E+02 -0.22648937854E+02  0.86505051810E+02  0.17770000000E+01 0.  1.
</event>
<event>
 7    1  0.3970441E-006  0.5324272E+03  0.7546771E-02  0.9330038E-01
        -11   -1    0    0    0    0  0.00000000000E+00  0.00000000000E+00  0.50000000000E+03  0.50000000000E+03  0.00000000000E+00 0. -1.
         11   -1    0    0    0    0 -0.00000000000E+00 -0.00000000000E+00 -0.50000000000E+03  0.50000000000E+03  0.00000000000E+00 0.  1.
         23    2    1    2    0    0  0.10099806211E+02  0.14894531421E+02 -0.18356655426E+03  0.20599585006E+03  0.91726535120E+02 0.  0.
        -11    1    1    2    0    0  0.21797435119E+03 -0.97536020129E+02  0.40199277772E+03  0.46757276048E+03  0.00000000000E+00 0. -1.
         11    1    1    2    0    0 -0.22807415741E+03  0.82641488707E+02 -0.21842622346E+03  0.32643138946E+03  0.00000000000E+00 0.  1.
        -15    1    3    3    0    0  0.34055354900E+02  0.40555858423E+02 -0.74622622215E+02  0.91521791531E+02  0.17770000000E+01 0.  1.
         15    1    3    3    0    0 -0.23955548689E+02 -0.25661327002E+02 -0.10894393205E+03  0.11447405853E+03  0.17770000000E+01 0. -1.
</event>
<event>
 7    1  0.3970441E-006  0.3855801E+03  0.7546771E-02  0.9699993E-01
        -11   -1    0    0    0    0  0.00000000000E+00  0.00000000000E+00  0.50000000000E+03  0.50000000000E+03  0.00000000000E+00 0.  1.
         11   -1    0    0    0    0 -0.00000000000E+00 -0.00000000000E+00 -0.50000000000E+03  0.50000000000E+03  0.00000000000E+00 0. -1.
         23    2    1    2    0    0 -0.16941296528E+03  0.75516863437E+01 -0.74736397876E+02  0.20688497023E+03  0.91967825734E+02 0.  0.
        -11    1    1    2    0    0 -0.91458571525E+01 -0.15659482706E+03  0.37897474728E+03  0.41015539206E+03  0.00000000000E+00 0.  1.
         11    1    1    2    0    0  0.17855882243E+03  0.14904314072E+03 -0.30423834940E+03  0.38295963770E+03  0.00000000000E+00 0. -1.
        -15    1    3    3    0    0 -0.62844236613E+02  0.37694391371E+02 -0.68263900053E-01  0.73303667065E+02  0.17770000000E+01 0.  1.
         15    1    3    3    0    0 -0.10656872866E+03 -0.30142705027E+02 -0.74668133976E+02  0.13358130317E+03  0.17770000000E+01 0. -1.
</event>
<event>
 7    1  0.3970441E-006  0.4936685E+03  0.7546771E-02  0.9414089E-01
        -11   -1    0    0    0    0  0.00000000000E+00  0.00000000000E+00  0.50000000000E+03  0.50000000000E+03  0.00000000000E+00 0. -1.
         11   -1    0    0    0    0 -0.00000000000E+00 -0.00000000000E+00 -0.50000000000E+03  0.50000000000E+03  0.00000000000E+00 0.  1.
         23    2    1    2    0    0 -0.14142666679E+03 -0.30829807463E+03  0.33798671543E+03  0.48717678010E+03  0.89760739511E+02 0.  0.
        -11    1    1    2    0    0  0.95380313509E+01 -0.54460099163E+01  0.17514718233E+02  0.20673616540E+02  0.00000000000E+00 0. -1.
         11    1    1    2    0    0  0.13188863544E+03  0.31374408455E+03 -0.35550143367E+03  0.49214960336E+03  0.00000000000E+00 0.  1.
        -15    1    3    3    0    0 -0.32172227013E+02 -0.33400425123E+02  0.14041352814E+02  0.48486677626E+02  0.17770000000E+01 0.  1.
         15    1    3    3    0    0 -0.10925443978E+03 -0.27489764951E+03  0.32394536262E+03  0.43869010247E+03  0.17770000000E+01 0. -1.
</event>
<event>
 7    1  0.3970441E-006  0.4074816E+03  0.7546771E-02  0.9634550E-01
        -11   -1    0    0    0    0  0.00000000000E+00  0.00000000000E+00  0.50000000000E+03  0.50000000000E+03  0.00000000000E+00 0. -1.
         11   -1    0    0    0    0 -0.00000000000E+00 -0.00000000000E+00 -0.50000000000E+03  0.50000000000E+03  0.00000000000E+00 0. -1.
         23    2    1    2    0    0 -0.11868500103E+03 -0.18963408084E+02 -0.44810119377E+03  0.47269912472E+03  0.90576168708E+02 0.  0.
        -11    1    1    2    0    0  0.41307762768E+02  0.12092548653E+03  0.32704907596E+03  0.35112733110E+03  0.00000000000E+00 0. -1.
         11    1    1    2    0    0  0.77377238261E+02 -0.10196207845E+03  0.12105211781E+03  0.17617354418E+03  0.00000000000E+00 0. -1.
        -15    1    3    3    0    0 -0.58531747424E+02 -0.17636456657E+02 -0.36499698767E+03  0.37008508319E+03  0.17770000000E+01 0. -1.
         15    1    3    3    0    0 -0.60153253605E+02 -0.13269514267E+01 -0.83104206099E+02  0.10261404153E+03  0.17770000000E+01 0.  1.
</event>
<event>
 7    1  0.3970441E-006  0.5196414E+03  0.7546771E-02  0.9356902E-01
        -11   -1    0    0    0    0  0.00000000000E+00  0.00000000000E+00  0.50000000000E+03  0.50000000000E+03  0.00000000000E+00 0.  1.
         11   -1    0    0    0    0 -0.00000000000E+00 -0.00000000000E+00 -0.50000000000E+03  0.50000000000E+03  0.00000000000E+00 0. -1.
         23    2    1    2    0    0  0.43314643085E+02 -0.58486796731E+02  0.93675973685E+02  0.14879477355E+03  0.89821116070E+02 0.  0.
        -11    1    1    2    0    0  0.98982771942E+02 -0.33381106463E+02  0.35583051839E+03  0.37084665999E+03  0.00000000000E+00 0.  1.
         11    1    1    2    0    0 -0.14229741503E+03  0.91867903193E+02 -0.44950649207E+03  0.48035856646E+03  0.00000000000E+00 0. -1.
        -15    1    3    3    0    0 -0.83686624615E+01  0.82175540884E+01 -0.97111493886E+01  0.15330585704E+02  0.17770000000E+01 0.  1.
         15    1    3    3    0    0  0.51683305546E+02 -0.66704350819E+02  0.10338712307E+03  0.13346418784E+03  0.17770000000E+01 0. -1.
</event>
<event>
 7    1  0.3970441E-006  0.5219545E+03  0.7546771E-02  0.9351982E-01
        -11   -1    0    0    0    0  0.00000000000E+00  0.00000000000E+00  0.50000000000E+03  0.50000000000E+03  0.00000000000E+00 0. -1.
         11   -1    0    0    0    0 -0.00000000000E+00 -0.00000000000E+00 -0.50000000000E+03  0.50000000000E+03  0.00000000000E+00 0.  1.
         23    2    1    2    0    0 -0.44059999139E+02  0.10166413245E+03  0.19581348551E+03  0.24410428027E+03  0.94694768518E+02 0.  0.
        -11    1    1    2    0    0  0.59921618356E+02 -0.13014222430E+01  0.27130878988E+03  0.27785023577E+03  0.00000000000E+00 0. -1.
         11    1    1    2    0    0 -0.15861619217E+02 -0.10036271021E+03 -0.46712227540E+03  0.47804548397E+03  0.00000000000E+00 0.  1.
        -15    1    3    3    0    0 -0.73534220191E+02  0.67035885290E+02  0.12271657427E+03  0.15799875564E+03  0.17770000000E+01 0. -1.
         15    1    3    3    0    0  0.29474221052E+02  0.34628247164E+02  0.73096911248E+02  0.86105524627E+02  0.17770000000E+01 0.  1.
</event>
<event>
 7    1  0.3970441E-006  0.5083819E+03  0.7546771E-02  0.9381247E-01
        -11   -1    0    0    0    0  0.00000000000E+00  0.00000000000E+00  0.50000000000E+03  0.50000000000E+03  0.00000000000E+00 0. -1.
         11   -1    0    0    0    0 -0.00000000000E+00 -0.00000000000E+00 -0.50000000000E+03  0.50000000000E+03  0.00000000000E+00 0. -1.
         23    2    1    2    0    0 -0.11641299944E+02 -0.66349986217E+02 -0.27953188249E+03  0.30184850081E+03  0.91850985706E+02 0.  0.
        -11    1    1    2    0    0  0.43163156208E+01  0.15055896764E+03  0.46797616868E+03  0.49161807104E+03  0.00000000000E+00 0. -1.
         11    1    1    2    0    0  0.73249843232E+01 -0.84208981426E+02 -0.18844428619E+03  0.20653342815E+03  0.00000000000E+00 0. -1.
        -15    1    3    3    0    0 -0.46433376952E+02 -0.34465880534E+02 -0.93801287265E+02  0.11020796086E+03  0.17770000000E+01 0.  1.
         15    1    3    3    0    0  0.34792077008E+02 -0.31884105683E+02 -0.18573059523E+03  0.19164053994E+03  0.17770000000E+01 0. -1.
</event>
<event>
 7    1  0.3970441E-006  0.4320365E+03  0.7546771E-02  0.9566209E-01
        -11   -1    0    0    0    0  0.00000000000E+00  0.00000000000E+00  0.50000000000E+03  0.50000000000E+03  0.00000000000E+00 0. -1.
         11   -1    0    0    0    0 -0.00000000000E+00 -0.00000000000E+00 -0.50000000000E+03  0.50000000000E+03  0.00000000000E+00 0. -1.
         23    2    1    2    0    0 -0.97476238269E+02  0.13876000762E+03 -0.36858885881E+03  0.41585279526E+03  0.91213177454E+02 0.  0.
        -11    1    1    2    0    0  0.81698404129E+02 -0.25754700965E+02  0.44084556872E+03  0.44909102565E+03  0.00000000000E+00 0. -1.
         11    1    1    2    0    0  0.15777834140E+02 -0.11300530666E+03 -0.72256709913E+02  0.13505617909E+03  0.00000000000E+00 0. -1.
        -15    1    3    3    0    0 -0.89063340395E+02  0.81845325078E+02 -0.16702704811E+03  0.20623318930E+03  0.17770000000E+01 0.  1.
         15    1    3    3    0    0 -0.84128978742E+01  0.56914682542E+02 -0.20156181070E+03  0.20961960596E+03  0.17770000000E+01 0. -1.
</event>
<event>
 6    1  0.3970441E-006  0.5275450E+03  0.7546771E-02  0.9340201E-01
        -11   -1    0    0    0    0  0.00000000000E+00  0.00000000000E+00  0.50000000000E+03  0.50000000000E+03  0.00000000000E+00 0.  1.
         11   -1    0    0    0    0 -0.00000000000E+00 -0.00000000000E+00 -0.50000000000E+03  0.50000000000E+03  0.00000000000E+00 0.  1.
        -11    1    1    2    0    0 -0.46249241232E+02 -0.30447501864E+02  0.13304575108E+03  0.14410834315E+03  0.00000000000E+00 0.  1.
         11    1    1    2    0    0  0.82486301397E+02 -0.55488966975E+02 -0.46187735305E+03  0.47245497631E+03  0.00000000000E+00 0.  1.
        -15    1    1    2    0    0  0.38127878895E+02  0.28330986579E+02  0.26620460864E+03  0.27041529421E+03  0.17770000000E+01 0.  1.
         15    1    1    2    0    0 -0.74364939059E+02  0.57605482260E+02  0.62626993325E+02  0.11302138634E+03  0.17770000000E+01 0. -1.
</event>
<event>
 7    1  0.3970441E-006  0.4467154E+03  0.7546771E-02  0.9527628E-01
        -11   -1    0    0    0    0  0.00000000000E+00  0.00000000000E+00  0.50000000000E+03  0.50000000000E+03  0.00000000000E+00 0.  1.
         11   -1    0    0    0    0 -0.00000000000E+00 -0.00000000000E+00 -0.50000000000E+03  0.50000000000E+03  0.00000000000E+00 0. -1.
         23    2    1    2    0    0  0.92096926072E+02 -0.19273161300E+02 -0.40193918562E+03  0.42246809372E+03  0.89838091798E+02 0.  0.
        -11    1    1    2    0    0 -0.70846587578E+02 -0.72067697242E+02  0.45749982244E+03  0.46852863252E+03  0.00000000000E+00 0.  1.
         11    1    1    2    0    0 -0.21250338494E+02  0.91340858542E+02 -0.55560636821E+02  0.10900327375E+03  0.00000000000E+00 0. -1.
        -15    1    3    3    0    0  0.94180850423E+02  0.12910494900E+02 -0.33352552905E+03  0.34681284539E+03  0.17770000000E+01 0. -1.
         15    1    3    3    0    0 -0.20839243506E+01 -0.32183656200E+02 -0.68413656568E+02  0.75655248338E+02  0.17770000000E+01 0.  1.
</event>
<event>
 7    1  0.3970441E-006  0.4265508E+03  0.7546771E-02  0.9581049E-01
        -11   -1    0    0    0    0  0.00000000000E+00  0.00000000000E+00  0.50000000000E+03  0.50000000000E+03  0.00000000000E+00 0. -1.
         11   -1    0    0    0    0 -0.00000000000E+00 -0.00000000000E+00 -0.50000000000E+03  0.50000000000E+03  0.00000000000E+00 0.  1.
         23    2    1    2    0    0 -0.11326094734E+02  0.72117860722E+02 -0.76979079883E+02  0.14032707795E+03  0.91851204731E+02 0.  0.
        -11    1    1    2    0    0  0.42602321394E+02  0.14552952722E+03  0.42319056548E+03  0.44953760220E+03  0.00000000000E+00 0. -1.
         11    1    1    2    0    0 -0.31276226660E+02 -0.21764738794E+03 -0.34621148559E+03  0.41013531985E+03  0.00000000000E+00 0.  1.
        -15    1    3    3    0    0  0.26280680663E+02  0.34029021746E+02  0.40241687587E+01  0.43220367425E+02  0.17770000000E+01 0.  1.
         15    1    3    3    0    0 -0.37606775398E+02  0.38088838975E+02 -0.81003248642E+02  0.97106710529E+02  0.17770000000E+01 0. -1.
</event>
<event>
 7    1  0.3970441E-006  0.5273711E+03  0.7546771E-02  0.9340565E-01
        -11   -1    0    0    0    0  0.00000000000E+00  0.00000000000E+00  0.50000000000E+03  0.50000000000E+03  0.00000000000E+00 0.  1.
         11   -1    0    0    0    0 -0.00000000000E+00 -0.00000000000E+00 -0.50000000000E+03  0.50000000000E+03  0.00000000000E+00 0.  1.
         23    2    1    2    0    0 -0.47352666869E+02  0.61857189246E+02 -0.31074996299E+03  0.33281573243E+03  0.90178630141E+02 0.  0.
        -11    1    1    2    0    0  0.61069950474E+02  0.55418604303E+02  0.46537864479E+03  0.47262886452E+03  0.00000000000E+00 0.  1.
         11    1    1    2    0    0 -0.13717283604E+02 -0.11727579355E+03 -0.15462868180E+03  0.19455540305E+03  0.00000000000E+00 0.  1.
        -15    1    3    3    0    0 -0.19620097332E+02  0.82327457456E+02 -0.22106138576E+03  0.23671512937E+03  0.17770000000E+01 0.  1.
         15    1    3    3    0    0 -0.27732569538E+02 -0.20470268210E+02 -0.89688577226E+02  0.96100603055E+02  0.17770000000E+01 0. -1.
</event>
<event>
 6    1  0.3970441E-006  0.3713316E+03  0.7546771E-02  0.9745118E-01
        -11   -1    0    0    0    0  0.00000000000E+00  0.00000000000E+00  0.50000000000E+03  0.50000000000E+03  0.00000000000E+00 0.  1.
         11   -1    0    0    0    0 -0.00000000000E+00 -0.00000000000E+00 -0.50000000000E+03  0.50000000000E+03  0.00000000000E+00 0.  1.
        -11    1    1    2    0    0  0.39295925268E+02  0.12165656042E+03  0.40806723101E+03  0.42762524886E+03  0.00000000000E+00 0.  1.
         11    1    1    2    0    0  0.89679967535E+02 -0.12235914403E+03 -0.29776418108E+03  0.33418223208E+03  0.00000000000E+00 0.  1.
        -15    1    1    2    0    0 -0.42148988827E+02 -0.79947624040E+02 -0.30884883870E+02  0.95525879371E+02  0.17770000000E+01 0. -1.
         15    1    1    2    0    0 -0.86826903976E+02  0.80650207657E+02 -0.79418166062E+02  0.14266663968E+03  0.17770000000E+01 0.  1.
</event>
<event>
 7    1  0.3970441E-006  0.5110601E+03  0.7546771E-02  0.9375396E-01
        -11   -1    0    0    0    0  0.00000000000E+00  0.00000000000E+00  0.50000000000E+03  0.50000000000E+03  0.00000000000E+00 0.  1.
         11   -1    0    0    0    0 -0.00000000000E+00 -0.00000000000E+00 -0.50000000000E+03  0.50000000000E+03  0.00000000000E+00 0. -1.
         23    2    1    2    0    0 -0.75716330961E+02 -0.29468558875E+01  0.37474559360E+03  0.39384671923E+03  0.94548038529E+02 0.  0.
        -11    1    1    2    0    0  0.78625972228E+01  0.45933439470E+02  0.10755126151E+03  0.11721337444E+03  0.00000000000E+00 0.  1.
         11    1    1    2    0    0  0.67853733738E+02 -0.42986583583E+02 -0.48229685511E+03  0.48893990633E+03  0.00000000000E+00 0. -1.
        -15    1    3    3    0    0 -0.40603703504E+02 -0.44982580871E+02  0.25578102000E+03  0.26286723121E+03  0.17770000000E+01 0.  1.
         15    1    3    3    0    0 -0.35112627457E+02  0.42035724983E+02  0.11896457360E+03  0.13097948802E+03  0.17770000000E+01 0. -1.
</event>
<event>
 7    1  0.3970441E-006  0.5335918E+03  0.7546771E-02  0.9327632E-01
        -11   -1    0    0    0    0  0.00000000000E+00  0.00000000000E+00  0.50000000000E+03  0.50000000000E+03  0.00000000000E+00 0.  1.
         11   -1    0    0    0    0 -0.00000000000E+00 -0.00000000000E+00 -0.50000000000E+03  0.50000000000E+03  0.00000000000E+00 0. -1.
         23    2    1    2    0    0  0.70824941294E+02  0.51295183274E+02  0.54838250357E+02  0.13734741212E+03  0.90607448804E+02 0.  0.
        -11    1    1    2    0    0  0.85670617055E+02 -0.43167778842E+02  0.38445633316E+03  0.39624434868E+03  0.00000000000E+00 0.  1.
         11    1    1    2    0    0 -0.15649555835E+03 -0.81274044320E+01 -0.43929458351E+03  0.46640823920E+03  0.00000000000E+00 0. -1.
        -15    1    3    3    0    0  0.22734577421E+01  0.42623532770E+02 -0.85426361663E+01  0.43566828179E+02  0.17770000000E+01 0.  1.
         15    1    3    3    0    0  0.68551483552E+02  0.86716505035E+01  0.63380886524E+02  0.93780583946E+02  0.17770000000E+01 0. -1.
</event>
<event>
 7    1  0.3970441E-006  0.5139774E+03  0.7546771E-02  0.9369066E-01
        -11   -1    0    0    0    0  0.00000000000E+00  0.00000000000E+00  0.50000000000E+03  0.50000000000E+03  0.00000000000E+00 0.  1.
         11   -1    0    0    0    0 -0.00000000000E+00 -0.00000000000E+00 -0.50000000000E+03  0.50000000000E+03  0.00000000000E+00 0.  1.
         23    2    1    2    0    0  0.25812727896E+02 -0.13362842026E+03  0.28125269043E+03  0.32576049013E+03  0.92162733429E+02 0.  0.
        -11    1    1    2    0    0  0.29695757022E+02  0.10300673419E+02  0.18557387556E+03  0.18821690983E+03  0.00000000000E+00 0.  1.
         11    1    1    2    0    0 -0.55508484918E+02  0.12332774684E+03 -0.46682656599E+03  0.48602260004E+03  0.00000000000E+00 0.  1.
        -15    1    3    3    0    0 -0.11424678970E+02 -0.10412928873E+03  0.24340395778E+03  0.26499448382E+03  0.17770000000E+01 0. -1.
         15    1    3    3    0    0  0.37237406866E+02 -0.29499131528E+02  0.37848732648E+02  0.60766006312E+02  0.17770000000E+01 0.  1.
</event>
<event>
 7    1  0.3970441E-006  0.5216329E+03  0.7546771E-02  0.9352664E-01
        -11   -1    0    0    0    0  0.00000000000E+00  0.00000000000E+00  0.50000000000E+03  0.50000000000E+03  0.00000000000E+00 0. -1.
         11   -1    0    0    0    0 -0.00000000000E+00 -0.00000000000E+00 -0.50000000000E+03  0.50000000000E+03  0.00000000000E+00 0. -1.
         23    2    1    2    0    0 -0.98322736793E+02 -0.55400740460E+01  0.15081647102E+03  0.20311967089E+03  0.93882585077E+02 0.  0.
        -11    1    1    2    0    0 -0.16793918201E+02  0.83627475850E+02  0.30687954507E+03  0.31851317961E+03  0.00000000000E+00 0. -1.
         11    1    1    2    0    0  0.11511665499E+03 -0.78087401804E+02 -0.45769601609E+03  0.47836714950E+03  0.00000000000E+00 0. -1.
        -15    1    3    3    0    0 -0.80790092303E+02 -0.37018111161E+02  0.13931581396E+03  0.16525566047E+03  0.17770000000E+01 0. -1.
         15    1    3    3    0    0 -0.17532644490E+02  0.31478037115E+02  0.11500657058E+02  0.37864010421E+02  0.17770000000E+01 0.  1.
</event>
<event>
 7    1  0.3970441E-006  0.5092880E+03  0.7546771E-02  0.9379264E-01
        -11   -1    0    0    0    0  0.00000000000E+00  0.00000000000E+00  0.50000000000E+03  0.50000000000E+03  0.00000000000E+00 0. -1.
         11   -1    0    0    0    0 -0.00000000000E+00 -0.00000000000E+00 -0.50000000000E+03  0.50000000000E+03  0.00000000000E+00 0. -1.
         23    2    1    2    0    0  0.13319805787E+03  0.34073402128E+02  0.38342379701E+03  0.41589963028E+03  0.83999851228E+02 0.  0.
        -11    1    1    2    0    0  0.39866769124E+01 -0.31800374066E+02  0.87716773723E+02  0.93388381376E+02  0.00000000000E+00 0. -1.
         11    1    1    2    0    0 -0.13718473478E+03 -0.22730280627E+01 -0.47114057073E+03  0.49071198834E+03  0.00000000000E+00 0. -1.
        -15    1    3    3    0    0  0.56477088891E+02 -0.20819098390E+02  0.95405929221E+02  0.11282085573E+03  0.17770000000E+01 0.  1.
         15    1    3    3    0    0  0.76720968978E+02  0.54892500518E+02  0.28801786779E+03  0.30307877456E+03  0.17770000000E+01 0. -1.
</event>
<event>
 7    1  0.3970441E-006  0.4361846E+03  0.7546771E-02  0.9555143E-01
        -11   -1    0    0    0    0  0.00000000000E+00  0.00000000000E+00  0.50000000000E+03  0.50000000000E+03  0.00000000000E+00 0.  1.
         11   -1    0    0    0    0 -0.00000000000E+00 -0.00000000000E+00 -0.50000000000E+03  0.50000000000E+03  0.00000000000E+00 0. -1.
         23    2    1    2    0    0  0.62354021320E+02 -0.54352320702E+02  0.18443099395E+02  0.12352391758E+03  0.89865519295E+02 0.  0.
        -11    1    1    2    0    0 -0.23131013352E+03 -0.23212138802E+03  0.27892945375E+03  0.43033284422E+03  0.00000000000E+00 0.  1.
         11    1    1    2    0    0  0.16895611220E+03  0.28647370872E+03 -0.29737255314E+03  0.44614323821E+03  0.00000000000E+00 0. -1.
        -15    1    3    3    0    0  0.81306424436E+02 -0.57045776646E+02  0.26291109719E+02  0.10275862721E+03  0.17770000000E+01 0. -1.
         15    1    3    3    0    0 -0.18952403117E+02  0.26934559444E+01 -0.78480103246E+01  0.20765290363E+02  0.17770000000E+01 0.  1.
</event>
<event>
 7    1  0.3970441E-006  0.5169893E+03  0.7546771E-02  0.9362577E-01
        -11   -1    0    0    0    0  0.00000000000E+00  0.00000000000E+00  0.50000000000E+03  0.50000000000E+03  0.00000000000E+00 0.  1.
         11   -1    0    0    0    0 -0.00000000000E+00 -0.00000000000E+00 -0.50000000000E+03  0.50000000000E+03  0.00000000000E+00 0. -1.
         23    2    1    2    0    0  0.62722624762E+00 -0.84081768396E+01 -0.22400868379E+03  0.23789472364E+03  0.79642440150E+02 0.  0.
        -11    1    1    2    0    0 -0.12869368123E+03  0.98676587181E+02  0.45497272999E+03  0.48301068050E+03  0.00000000000E+00 0.  1.
         11    1    1    2    0    0  0.12806645498E+03 -0.90268410342E+02 -0.23096404620E+03  0.27909459585E+03  0.00000000000E+00 0. -1.
        -15    1    3    3    0    0  0.21686610378E+02 -0.27731590706E+02 -0.19086843964E+03  0.19409603080E+03  0.17770000000E+01 0. -1.
         15    1    3    3    0    0 -0.21059384130E+02  0.19323413867E+02 -0.33140244150E+02  0.43798692843E+02  0.17770000000E+01 0.  1.
</event>
<event>
 7    1  0.3970441E-006  0.5402389E+03  0.7546771E-02  0.9314017E-01
        -11   -1    0    0    0    0  0.00000000000E+00  0.00000000000E+00  0.50000000000E+03  0.50000000000E+03  0.00000000000E+00 0. -1.
         11   -1    0    0    0    0 -0.00000000000E+00 -0.00000000000E+00 -0.50000000000E+03  0.50000000000E+03  0.00000000000E+00 0.  1.
         23    2    1    2    0    0 -0.12241801444E+03  0.44648084238E+02 -0.28629431792E+03  0.32728622313E+03  0.90400296994E+02 0.  0.
        -11    1    1    2    0    0  0.59553110296E+02  0.77081591759E+02  0.44932411633E+03  0.45976114044E+03  0.00000000000E+00 0. -1.
         11    1    1    2    0    0  0.62864904140E+02 -0.12172967600E+03 -0.16302979842E+03  0.21295263643E+03  0.00000000000E+00 0.  1.
        -15    1    3    3    0    0 -0.76341124236E+02  0.68498381843E+02 -0.22271710989E+03  0.24520616700E+03  0.17770000000E+01 0.  1.
         15    1    3    3    0    0 -0.46076890200E+02 -0.23850297606E+02 -0.63577208026E+02  0.82080056139E+02  0.17770000000E+01 0. -1.
</event>
<event>
 7    1  0.3970441E-006  0.5323070E+03  0.7546771E-02  0.9330287E-01
        -11   -1    0    0    0    0  0.00000000000E+00  0.00000000000E+00  0.50000000000E+03  0.50000000000E+03  0.00000000000E+00 0.  1.
         11   -1    0    0    0    0 -0.00000000000E+00 -0.00000000000E+00 -0.50000000000E+03  0.50000000000E+03  0.00000000000E+00 0. -1.
         23    2    1    2    0    0 -0.34865342676E+02 -0.76460317811E+02  0.60697043824E+02  0.13800431896E+03  0.91100431406E+02 0.  0.
        -11    1    1    2    0    0  0.54127037630E+02 -0.61983851216E+02  0.38562007727E+03  0.39430264773E+03  0.00000000000E+00 0.  1.
         11    1    1    2    0    0 -0.19261694953E+02  0.13844416903E+03 -0.44631712109E+03  0.46769303331E+03  0.00000000000E+00 0. -1.
        -15    1    3    3    0    0 -0.16598719943E+01 -0.28277202947E+02 -0.22538498086E+02  0.36242199251E+02  0.17770000000E+01 0. -1.
         15    1    3    3    0    0 -0.33205470682E+02 -0.48183114864E+02  0.83235541910E+02  0.10176211971E+03  0.17770000000E+01 0.  1.
</event>
<event>
 7    1  0.3970441E-006  0.4766684E+03  0.7546771E-02  0.9453585E-01
        -11   -1    0    0    0    0  0.00000000000E+00  0.00000000000E+00  0.50000000000E+03  0.50000000000E+03  0.00000000000E+00 0.  1.
         11   -1    0    0    0    0 -0.00000000000E+00 -0.00000000000E+00 -0.50000000000E+03  0.50000000000E+03  0.00000000000E+00 0. -1.
         23    2    1    2    0    0 -0.50142463806E+02  0.73396005416E+02  0.43694000215E+03  0.45548679429E+03  0.93007601851E+02 0.  0.
        -11    1    1    2    0    0 -0.31132119544E+02 -0.12459615712E+02  0.42666719807E+02  0.54266931644E+02  0.00000000000E+00 0.  1.
         11    1    1    2    0    0  0.81274583351E+02 -0.60936389704E+02 -0.47960672196E+03  0.49024627407E+03  0.00000000000E+00 0. -1.
        -15    1    3    3    0    0 -0.62591270525E+02  0.86827529584E+02  0.32866365536E+03  0.34565827506E+03  0.17770000000E+01 0.  1.
         15    1    3    3    0    0  0.12448806719E+02 -0.13431524168E+02  0.10827634680E+03  0.10982851922E+03  0.17770000000E+01 0. -1.
</event>
<event>
 7    1  0.3970441E-006  0.5114072E+03  0.7546771E-02  0.9374641E-01
        -11   -1    0    0    0    0  0.00000000000E+00  0.00000000000E+00  0.50000000000E+03  0.50000000000E+03  0.00000000000E+00 0.  1.
         11   -1    0    0    0    0 -0.00000000000E+00 -0.00000000000E+00 -0.50000000000E+03  0.50000000000E+03  0.00000000000E+00 0.  1.
         23    2    1    2    0    0 -0.60851621018E+02 -0.35149401776E+02  0.17918614564E+03  0.21389107547E+03  0.93291570614E+02 0.  0.
        -11    1    1    2    0    0 -0.51380578665E+02 -0.69569264484E+02  0.28466821464E+03  0.29751611528E+03  0.00000000000E+00 0.  1.
         11    1    1    2    0    0  0.11223219968E+03  0.10471866626E+03 -0.46385436028E+03  0.48859280926E+03  0.00000000000E+00 0.  1.
        -15    1    3    3    0    0 -0.58739860994E+02  0.10506644325E+02  0.14493629781E+03  0.15674963795E+03  0.17770000000E+01 0.  1.
         15    1    3    3    0    0 -0.21117600239E+01 -0.45656046101E+02  0.34249847830E+02  0.57141437515E+02  0.17770000000E+01 0. -1.
</event>
<event>
 7    1  0.3970441E-006  0.5157131E+03  0.7546771E-02  0.9365321E-01
        -11   -1    0    0    0    0  0.00000000000E+00  0.00000000000E+00  0.50000000000E+03  0.50000000000E+03  0.00000000000E+00 0.  1.
         11   -1    0    0    0    0 -0.00000000000E+00 -0.00000000000E+00 -0.50000000000E+03  0.50000000000E+03  0.00000000000E+00 0. -1.
         23    2    1    2    0    0  0.78435368150E+02  0.56605010789E+02 -0.76458190675E+02  0.15272150371E+03  0.90120855246E+02 0.  0.
        -11    1    1    2    0    0 -0.27801112849E+03 -0.28642097239E+03  0.27423837874E+03  0.48428694940E+03  0.00000000000E+00 0.  1.
         11    1    1    2    0    0  0.19957576034E+03  0.22981596160E+03 -0.19778018807E+03  0.36299154689E+03  0.00000000000E+00 0. -1.
        -15    1    3    3    0    0  0.17802484264E+02  0.42768906254E+02 -0.77714371148E+02  0.90491927818E+02  0.17770000000E+01 0.  1.
         15    1    3    3    0    0  0.60632883887E+02  0.13836104535E+02  0.12561804738E+01  0.62229575891E+02  0.17770000000E+01 0. -1.
</event>
<event>
 7    1  0.3970441E-006  0.4226254E+03  0.7546771E-02  0.9591815E-01
        -11   -1    0    0    0    0  0.00000000000E+00  0.00000000000E+00  0.50000000000E+03  0.50000000000E+03  0.00000000000E+00 0. -1.
         11   -1    0    0    0    0 -0.00000000000E+00 -0.00000000000E+00 -0.50000000000E+03  0.50000000000E+03  0.00000000000E+00 0.  1.
         23    2    1    2    0    0  0.67512643067E+01 -0.73128878874E+02 -0.40793227983E+03  0.42401419813E+03  0.89363766699E+02 0.  0.
        -11    1    1    2    0    0  0.12986417506E+03  0.93412103742E+01  0.40475307094E+03  0.42517879840E+03  0.00000000000E+00 0. -1.
         11    1    1    2    0    0 -0.13661543936E+03  0.63787668500E+02  0.31792088877E+01  0.15080700347E+03  0.00000000000E+00 0.  1.
        -15    1    3    3    0    0  0.65768556721E+01 -0.93936221492E+02 -0.31583338373E+03  0.32957723336E+03  0.17770000000E+01 0.  1.
         15    1    3    3    0    0  0.17440863455E+00  0.20807342618E+02 -0.92098896093E+02  0.94436964774E+02  0.17770000000E+01 0. -1.
</event>
<event>
 7    1  0.3970441E-006  0.5366141E+03  0.7546771E-02  0.9321415E-01
        -11   -1    0    0    0    0  0.00000000000E+00  0.00000000000E+00  0.50000000000E+03  0.50000000000E+03  0.00000000000E+00 0.  1.
         11   -1    0    0    0    0 -0.00000000000E+00 -0.00000000000E+00 -0.50000000000E+03  0.50000000000E+03  0.00000000000E+00 0. -1.
         23    2    1    2    0    0  0.25581807311E+02 -0.94501882605E+02 -0.14876062559E+03  0.20061756907E+03  0.92372347657E+02 0.  0.
        -11    1    1    2    0    0 -0.20362444164E+03 -0.37494242665E+01  0.41623248746E+03  0.46338585977E+03  0.00000000000E+00 0.  1.
         11    1    1    2    0    0  0.17804263433E+03  0.98251306871E+02 -0.26747186186E+03  0.33599657116E+03  0.00000000000E+00 0. -1.
        -15    1    3    3    0    0 -0.24389347033E+02 -0.76475778331E+02 -0.76382825194E+02  0.11081912576E+03  0.17770000000E+01 0. -1.
         15    1    3    3    0    0  0.49971154344E+02 -0.18026104274E+02 -0.72377800400E+02  0.89798443314E+02  0.17770000000E+01 0.  1.
</event>
<event>
 7    1  0.3970441E-006  0.5260303E+03  0.7546771E-02  0.9343378E-01
        -11   -1    0    0    0    0  0.00000000000E+00  0.00000000000E+00  0.50000000000E+03  0.50000000000E+03  0.00000000000E+00 0.  1.
         11   -1    0    0    0    0 -0.00000000000E+00 -0.00000000000E+00 -0.50000000000E+03  0.50000000000E+03  0.00000000000E+00 0. -1.
         23    2    1    2    0    0  0.64643455962E+02  0.24247634645E+03  0.26064750028E+03  0.37314821517E+03  0.91262895533E+02 0.  0.
        -11    1    1    2    0    0  0.50315665123E+02 -0.21734904491E+02  0.14271948116E+03  0.15288205432E+03  0.00000000000E+00 0.  1.
         11    1    1    2    0    0 -0.11495912109E+03 -0.22074144196E+03 -0.40336698144E+03  0.47396973050E+03  0.00000000000E+00 0. -1.
        -15    1    3    3    0    0  0.20161227337E+02  0.83112901699E+02  0.15438817530E+03  0.17650239636E+03  0.17770000000E+01 0. -1.
         15    1    3    3    0    0  0.44482228625E+02  0.15936344475E+03  0.10625932497E+03  0.19664581882E+03  0.17770000000E+01 0.  1.
</event>
<event>
 7    1  0.3970441E-006  0.4545323E+03  0.7546771E-02  0.9507721E-01
        -11   -1    0    0    0    0  0.00000000000E+00  0.00000000000E+00  0.50000000000E+03  0.50000000000E+03  0.00000000000E+00 0. -1.
         11   -1    0    0    0    0 -0.00000000000E+00 -0.00000000000E+00 -0.50000000000E+03  0.50000000000E+03  0.00000000000E+00 0. -1.
         23    2    1    2    0    0  0.25957129498E+03  0.32769516139E+03  0.12714677069E+03  0.44630579546E+03  0.90891065501E+02 0.  0.
        -11    1    1    2    0    0 -0.16262985739E+00 -0.20167276862E+02  0.92941054982E+02  0.95104075652E+02  0.00000000000E+00 0. -1.
         11    1    1    2    0    0 -0.25940866512E+03 -0.30752788453E+03 -0.22008782567E+03  0.45859012889E+03  0.00000000000E+00 0. -1.
        -15    1    3    3    0    0  0.18632181041E+03  0.16614850280E+03  0.87538103005E+02  0.26455097661E+03  0.17770000000E+01 0. -1.
         15    1    3    3    0    0  0.73249484570E+02  0.16154665859E+03  0.39608667685E+02  0.18175481885E+03  0.17770000000E+01 0.  1.
</event>
<event>
 7    1  0.3970441E-006  0.5154784E+03  0.7546771E-02  0.9365826E-01
        -11   -1    0    0    0    0  0.00000000000E+00  0.00000000000E+00  0.50000000000E+03  0.50000000000E+03  0.00000000000E+00 0.  1.
         11   -1    0    0    0    0 -0.00000000000E+00 -0.00000000000E+00 -0.50000000000E+03  0.50000000000E+03  0.00000000000E+00 0.  1.
         23    2    1    2    0    0 -0.16065817563E+02 -0.15010276862E+03  0.13479706261E+03  0.22300587261E+03  0.93661195208E+02 0.  0.
        -11    1    1    2    0    0 -0.96391281018E+02 -0.25485452201E+03  0.10629245177E+03  0.29247254871E+03  0.00000000000E+00 0.  1.
         11    1    1    2    0    0  0.11245709858E+03  0.40495729063E+03 -0.24108951438E+03  0.48452157868E+03  0.00000000000E+00 0.  1.
        -15    1    3    3    0    0 -0.29556589278E+02 -0.12304197428E+03  0.14365359697E+03  0.19144825164E+03  0.17770000000E+01 0.  1.
         15    1    3    3    0    0  0.13490771715E+02 -0.27060794340E+02 -0.88565343518E+01  0.31557620973E+02  0.17770000000E+01 0. -1.
</event>
<event>
 7    1  0.3970441E-006  0.4448372E+03  0.7546771E-02  0.9532475E-01
        -11   -1    0    0    0    0  0.00000000000E+00  0.00000000000E+00  0.50000000000E+03  0.50000000000E+03  0.00000000000E+00 0. -1.
         11   -1    0    0    0    0 -0.00000000000E+00 -0.00000000000E+00 -0.50000000000E+03  0.50000000000E+03  0.00000000000E+00 0.  1.
         23    2    1    2    0    0  0.17681369048E+02  0.50041740392E+02 -0.24878764198E+02  0.10839673682E+03  0.91181648656E+02 0.  0.
        -11    1    1    2    0    0 -0.94361142936E+02  0.14888291304E+02  0.44730487732E+03  0.45739188863E+03  0.00000000000E+00 0. -1.
         11    1    1    2    0    0  0.76679773888E+02 -0.64930031697E+02 -0.42242611312E+03  0.43421137455E+03  0.00000000000E+00 0.  1.
        -15    1    3    3    0    0  0.13134549046E+02 -0.19657654295E+02  0.14894789192E+02  0.27999146864E+02  0.17770000000E+01 0. -1.
         15    1    3    3    0    0  0.45468200021E+01  0.69699394687E+02 -0.39773553391E+02  0.80397589953E+02  0.17770000000E+01 0.  1.
</event>
<event>
 7    1  0.3970441E-006  0.5163816E+03  0.7546771E-02  0.9363883E-01
        -11   -1    0    0    0    0  0.00000000000E+00  0.00000000000E+00  0.50000000000E+03  0.50000000000E+03  0.00000000000E+00 0.  1.
         11   -1    0    0    0    0 -0.00000000000E+00 -0.00000000000E+00 -0.50000000000E+03  0.50000000000E+03  0.00000000000E+00 0.  1.
         23    2    1    2    0    0 -0.48379775084E+02 -0.59423201322E+02 -0.31060867493E+03  0.33249596671E+03  0.90576483959E+02 0.  0.
        -11    1    1    2    0    0  0.10353041034E+03 -0.85374402134E+01  0.47232967991E+03  0.48361840357E+03  0.00000000000E+00 0.  1.
         11    1    1    2    0    0 -0.55150635253E+02  0.67960641535E+02 -0.16172100498E+03  0.18388562972E+03  0.00000000000E+00 0.  1.
        -15    1    3    3    0    0 -0.44985354635E+02 -0.80650997536E+02 -0.28149815822E+03  0.29626447027E+03  0.17770000000E+01 0.  1.
         15    1    3    3    0    0 -0.33944204486E+01  0.21227796214E+02 -0.29110516710E+02  0.36231496441E+02  0.17770000000E+01 0. -1.
</event>
<event>
 7    1  0.3970441E-006  0.5108927E+03  0.7546771E-02  0.9375761E-01
        -11   -1    0    0    0    0  0.00000000000E+00  0.00000000000E+00  0.50000000000E+03  0.50000000000E+03  0.00000000000E+00 0.  1.
         11   -1    0    0    0    0 -0.00000000000E+00 -0.00000000000E+00 -0.50000000000E+03  0.50000000000E+03  0.00000000000E+00 0. -1.
         23    2    1    2    0    0 -0.65969120473E+02  0.20510507079E+02 -0.25898286415E+03  0.28364050158E+03  0.92775020664E+02 0.  0.
        -11    1    1    2    0    0  0.58143412106E+02 -0.70951013149E+02  0.48042823965E+03  0.48910734618E+03  0.00000000000E+00 0.  1.
         11    1    1    2    0    0  0.78257083665E+01  0.50440506070E+02 -0.22144537550E+03  0.22725215223E+03  0.00000000000E+00 0. -1.
        -15    1    3    3    0    0 -0.70281188320E+02  0.46700670212E+02 -0.15703954371E+03  0.17828340935E+03  0.17770000000E+01 0. -1.
         15    1    3    3    0    0  0.43120678472E+01 -0.26190163133E+02 -0.10194332043E+03  0.10535709223E+03  0.17770000000E+01 0.  1.
</event>
<event>
 7    1  0.3970441E-006  0.5251053E+03  0.7546771E-02  0.9345323E-01
        -11   -1    0    0    0    0  0.00000000000E+00  0.00000000000E+00  0.50000000000E+03  0.50000000000E+03  0.00000000000E+00 0. -1.
         11   -1    0    0    0    0 -0.00000000000E+00 -0.00000000000E+00 -0.50000000000E+03  0.50000000000E+03  0.00000000000E+00 0. -1.
         23    2    1    2    0    0  0.10466472066E+03 -0.13359172228E+02 -0.37405864916E+03  0.39911831543E+03  0.90787584298E+02 0.  0.
        -11    1    1    2    0    0 -0.73383601509E+02 -0.69041101460E+02  0.46408312777E+03  0.47489470006E+03  0.00000000000E+00 0. -1.
         11    1    1    2    0    0 -0.31281119152E+02  0.82400273687E+02 -0.90024478604E+02  0.12598698451E+03  0.00000000000E+00 0. -1.
        -15    1    3    3    0    0  0.29879479066E+02  0.21104098061E+02 -0.36688454503E+02  0.51839817197E+02  0.17770000000E+01 0.  1.
         15    1    3    3    0    0  0.74785241595E+02 -0.34463270288E+02 -0.33737019466E+03  0.34727849823E+03  0.17770000000E+01 0. -1.
</event>
<event>
 7    1  0.3970441E-006  0.4163813E+03  0.7546771E-02  0.9609200E-01
        -11   -1    0    0    0    0  0.00000000000E+00  0.00000000000E+00  0.50000000000E+03  0.50000000000E+03  0.00000000000E+00 0. -1.
         11   -1    0    0    0    0 -0.00000000000E+00 -0.00000000000E+00 -0.50000000000E+03  0.50000000000E+03  0.00000000000E+00 0. -1.
         23    2    1    2    0    0 -0.43101591141E+02  0.17836362136E+03 -0.39915923889E+03  0.44922171003E+03  0.93812143082E+02 0.  0.
        -11    1    1    2    0    0 -0.79369442981E+02 -0.75443701217E+02  0.37292198478E+03  0.38866703908E+03  0.00000000000E+00 0. -1.
         11    1    1    2    0    0  0.12247103412E+03 -0.10291992014E+03  0.26237254107E+02  0.16211125089E+03  0.00000000000E+00 0. -1.
        -15    1    3    3    0    0  0.11393097829E+02  0.55175809260E+02 -0.51411519791E+02  0.76292035638E+02  0.17770000000E+01 0.  1.
         15    1    3    3    0    0 -0.54494688970E+02  0.12318781210E+03 -0.34774771910E+03  0.37292967439E+03  0.17770000000E+01 0. -1.
</event>
<event>
 7    1  0.3970441E-006  0.5198506E+03  0.7546771E-02  0.9356456E-01
        -11   -1    0    0    0    0  0.00000000000E+00  0.00000000000E+00  0.50000000000E+03  0.50000000000E+03  0.00000000000E+00 0.  1.
         11   -1    0    0    0    0 -0.00000000000E+00 -0.00000000000E+00 -0.50000000000E+03  0.50000000000E+03  0.00000000000E+00 0. -1.
         23    2    1    2    0    0  0.21343995487E+02  0.11258642174E+03  0.29024372699E+03  0.32495225002E+03  0.90671248122E+02 0.  0.
        -11    1    1    2    0    0 -0.10932931146E+03  0.74501651590E+02  0.14311529738E+03  0.19489839091E+03  0.00000000000E+00 0.  1.
         11    1    1    2    0    0  0.87985315972E+02 -0.18708807333E+03 -0.43335902437E+03  0.48014935907E+03  0.00000000000E+00 0. -1.
        -15    1    3    3    0    0 -0.26635662922E+02  0.81416126710E+02  0.13957056230E+03  0.16377162091E+03  0.17770000000E+01 0. -1.
         15    1    3    3    0    0  0.47979658409E+02  0.31170295028E+02  0.15067316469E+03  0.16118062911E+03  0.17770000000E+01 0.  1.
</event>
<event>
 7    1  0.3970441E-006  0.3466429E+03  0.7546771E-02  0.9828685E-01
        -11   -1    0    0    0    0  0.00000000000E+00  0.00000000000E+00  0.50000000000E+03  0.50000000000E+03  0.00000000000E+00 0. -1.
         11   -1    0    0    0    0 -0.00000000000E+00 -0.00000000000E+00 -0.50000000000E+03  0.50000000000E+03  0.00000000000E+00 0.  1.
         23    2    1    2    0    0  0.23069464998E+03 -0.17748849988E+02 -0.38751343627E+03  0.45963162060E+03  0.86945501106E+02 0.  0.
        -11    1    1    2    0    0 -0.24506385952E+02 -0.90643537603E+02  0.25641848357E+03  0.27307005068E+03  0.00000000000E+00 0. -1.
         11    1    1    2    0    0 -0.20618826403E+03  0.10839238759E+03  0.13109495270E+03  0.26729832872E+03  0.00000000000E+00 0.  1.
        -15    1    3    3    0    0  0.19939318747E+03  0.16474690828E+01 -0.36639759877E+03  0.41714591629E+03  0.17770000000E+01 0.  1.
         15    1    3    3    0    0  0.31301462510E+02 -0.19396319071E+02 -0.21115837505E+02  0.42485704317E+02  0.17770000000E+01 0. -1.
</event>
<event>
 7    1  0.3970441E-006  0.4135446E+03  0.7546771E-02  0.9617206E-01
        -11   -1    0    0    0    0  0.00000000000E+00  0.00000000000E+00  0.50000000000E+03  0.50000000000E+03  0.00000000000E+00 0.  1.
         11   -1    0    0    0    0 -0.00000000000E+00 -0.00000000000E+00 -0.50000000000E+03  0.50000000000E+03  0.00000000000E+00 0. -1.
         23    2    1    2    0    0 -0.15160429548E+03 -0.75353861610E+02 -0.31767787374E+03  0.37232303709E+03  0.95095455322E+02 0.  0.
        -11    1    1    2    0    0  0.12957949857E+03 -0.35660761559E+02  0.44056736324E+03  0.46061061421E+03  0.00000000000E+00 0.  1.
         11    1    1    2    0    0  0.22024796902E+02  0.11101462317E+03 -0.12288948951E+03  0.16706634870E+03  0.00000000000E+00 0. -1.
        -15    1    3    3    0    0 -0.41623523806E+02 -0.25560401101E+01 -0.19089812242E+02  0.45898036293E+02  0.17770000000E+01 0.  1.
         15    1    3    3    0    0 -0.10998077167E+03 -0.72797821500E+02 -0.29858806149E+03  0.32642500080E+03  0.17770000000E+01 0. -1.
</event>
<event>
 7    1  0.3970441E-006  0.4582133E+03  0.7546771E-02  0.9498494E-01
        -11   -1    0    0    0    0  0.00000000000E+00  0.00000000000E+00  0.50000000000E+03  0.50000000000E+03  0.00000000000E+00 0. -1.
         11   -1    0    0    0    0 -0.00000000000E+00 -0.00000000000E+00 -0.50000000000E+03  0.50000000000E+03  0.00000000000E+00 0.  1.
         23    2    1    2    0    0 -0.72289518922E+00  0.13339958523E+03 -0.43907035095E+03  0.46764831510E+03  0.90089964044E+02 0.  0.
        -11    1    1    2    0    0  0.50621171920E+02 -0.60654706845E+02  0.43703103475E+03  0.44411442427E+03  0.00000000000E+00 0. -1.
         11    1    1    2    0    0 -0.49898276730E+02 -0.72744878387E+02  0.20393161950E+01  0.88237260626E+02  0.00000000000E+00 0.  1.
        -15    1    3    3    0    0 -0.29551533779E+02  0.10984536568E+03 -0.38858680043E+03  0.40489771142E+03  0.17770000000E+01 0.  1.
         15    1    3    3    0    0  0.28828638590E+02  0.23554219554E+02 -0.50483550512E+02  0.62750603687E+02  0.17770000000E+01 0. -1.
</event>
<event>
 7    1  0.3970441E-006  0.5364095E+03  0.7546771E-02  0.9321835E-01
        -11   -1    0    0    0    0  0.00000000000E+00  0.00000000000E+00  0.50000000000E+03  0.50000000000E+03  0.00000000000E+00 0. -1.
         11   -1    0    0    0    0 -0.00000000000E+00 -0.00000000000E+00 -0.50000000000E+03  0.50000000000E+03  0.00000000000E+00 0. -1.
         23    2    1    2    0    0 -0.15508645741E+03  0.21892360074E+02  0.21238169412E+01  0.17939882228E+03  0.87454800532E+02 0.  0.
        -11    1    1    2    0    0  0.33210610389E+03 -0.22750883268E+03  0.22991611969E+03  0.46359050387E+03  0.00000000000E+00 0. -1.
         11    1    1    2    0    0 -0.17701964649E+03  0.20561647261E+03 -0.23203993663E+03  0.35701067385E+03  0.00000000000E+00 0. -1.
        -15    1    3    3    0    0 -0.20861299429E+02 -0.29021782609E+02 -0.93997460991E+00  0.35798030126E+02  0.17770000000E+01 0.  1.
         15    1    3    3    0    0 -0.13422515798E+03  0.50914142682E+02  0.30637915512E+01  0.14360079215E+03  0.17770000000E+01 0. -1.
</event>
<event>
 7    1  0.3970441E-006  0.5205932E+03  0.7546771E-02  0.9354874E-01
        -11   -1    0    0    0    0  0.00000000000E+00  0.00000000000E+00  0.50000000000E+03  0.50000000000E+03  0.00000000000E+00 0. -1.
         11   -1    0    0    0    0 -0.00000000000E+00 -0.00000000000E+00 -0.50000000000E+03  0.50000000000E+03  0.00000000000E+00 0. -1.
         23    2    1    2    0    0  0.39729297880E+02  0.78246431701E+02 -0.31174648513E+03  0.33664122032E+03  0.91872297480E+02 0.  0.
        -11    1    1    2    0    0 -0.89932759974E+02 -0.85370349806E+00  0.47089517086E+03  0.47940681270E+03  0.00000000000E+00 0. -1.
         11    1    1    2    0    0  0.50203462094E+02 -0.77392728203E+02 -0.15914868573E+03  0.18395196697E+03  0.00000000000E+00 0. -1.
        -15    1    3    3    0    0  0.31804196793E+02  0.96071340594E+02 -0.21114845843E+03  0.23415387813E+03  0.17770000000E+01 0.  1.
         15    1    3    3    0    0  0.79251010868E+01 -0.17824908893E+02 -0.10059802670E+03  0.10248734219E+03  0.17770000000E+01 0. -1.
</event>
<event>
 7    1  0.3970441E-006  0.3957159E+03  0.7546771E-02  0.9669144E-01
        -11   -1    0    0    0    0  0.00000000000E+00  0.00000000000E+00  0.50000000000E+03  0.50000000000E+03  0.00000000000E+00 0.  1.
         11   -1    0    0    0    0 -0.00000000000E+00 -0.00000000000E+00 -0.50000000000E+03  0.50000000000E+03  0.00000000000E+00 0. -1.
         23    2    1    2    0    0 -0.52831107704E+01  0.56179201640E+02 -0.34338861399E+03  0.36020167711E+03  0.92981148731E+02 0.  0.
        -11    1    1    2    0    0  0.14217062513E+03  0.62957831402E+02  0.41617651309E+03  0.44427363779E+03  0.00000000000E+00 0.  1.
         11    1    1    2    0    0 -0.13688751436E+03 -0.11913703304E+03 -0.72787899101E+02  0.19552468510E+03  0.00000000000E+00 0. -1.
        -15    1    3    3    0    0  0.32206069251E+02  0.54550343767E+02 -0.14434380592E+03  0.15764283345E+03  0.17770000000E+01 0.  1.
         15    1    3    3    0    0 -0.37489180021E+02  0.16288578729E+01 -0.19904480807E+03  0.20255884366E+03  0.17770000000E+01 0. -1.
</event>
<event>
 7    1  0.3970441E-006  0.5143059E+03  0.7546771E-02  0.9368356E-01
        -11   -1    0    0    0    0  0.00000000000E+00  0.00000000000E+00  0.50000000000E+03  0.50000000000E+03  0.00000000000E+00 0. -1.
         11   -1    0    0    0    0 -0.00000000000E+00 -0.00000000000E+00 -0.50000000000E+03  0.50000000000E+03  0.00000000000E+00 0. -1.
         23    2    1    2    0    0 -0.16536517926E+02 -0.32992742090E+02 -0.32504244378E+03  0.34009733807E+03  0.93014147564E+02 0.  0.
        -11    1    1    2    0    0  0.92228304474E+02 -0.68390675424E+01  0.47680806165E+03  0.48569410193E+03  0.00000000000E+00 0. -1.
         11    1    1    2    0    0 -0.75691786548E+02  0.39831809632E+02 -0.15176561788E+03  0.17420856000E+03  0.00000000000E+00 0. -1.
        -15    1    3    3    0    0 -0.52627119311E+00 -0.51955157283E+02 -0.30114256086E+03  0.30559714498E+03  0.17770000000E+01 0. -1.
         15    1    3    3    0    0 -0.16010246733E+02  0.18962415193E+02 -0.23899882912E+02  0.34500193081E+02  0.17770000000E+01 0.  1.
</event>
<event>
 7    1  0.3970441E-006  0.5149168E+03  0.7546771E-02  0.9367037E-01
        -11   -1    0    0    0    0  0.00000000000E+00  0.00000000000E+00  0.50000000000E+03  0.50000000000E+03  0.00000000000E+00 0.  1.
         11   -1    0    0    0    0 -0.00000000000E+00 -0.00000000000E+00 -0.50000000000E+03  0.50000000000E+03  0.00000000000E+00 0. -1.
         23    2    1    2    0    0 -0.12101110436E+03 -0.15075830792E+02 -0.33269827237E+03  0.36824259114E+03  0.10021725119E+03 0.  0.
        -11    1    1    2    0    0  0.23413592707E+03  0.21935902209E-01  0.42483657539E+03  0.48508323885E+03  0.00000000000E+00 0.  1.
         11    1    1    2    0    0 -0.11312482271E+03  0.15053894890E+02 -0.92138303021E+02  0.14667417001E+03  0.00000000000E+00 0. -1.
        -15    1    3    3    0    0 -0.13065215430E+03 -0.12216176654E+01 -0.32359832594E+03  0.34898497397E+03  0.17770000000E+01 0.  1.
         15    1    3    3    0    0  0.96410499316E+01 -0.13854213127E+02 -0.90999464276E+01  0.19257617172E+02  0.17770000000E+01 0. -1.
</event>
<event>
 7    1  0.3970441E-006  0.5260587E+03  0.7546771E-02  0.9343318E-01
        -11   -1    0    0    0    0  0.00000000000E+00  0.00000000000E+00  0.50000000000E+03  0.50000000000E+03  0.00000000000E+00 0.  1.
         11   -1    0    0    0    0 -0.00000000000E+00 -0.00000000000E+00 -0.50000000000E+03  0.50000000000E+03  0.00000000000E+00 0. -1.
         23    2    1    2    0    0 -0.72888371883E+02  0.47358871359E+01 -0.17002719533E+03  0.21001301680E+03  0.99302954093E+02 0.  0.
        -11    1    1    2    0    0  0.30172548759E+03  0.12950711594E+03  0.34177481345E+03  0.47394133186E+03  0.00000000000E+00 0.  1.
         11    1    1    2    0    0 -0.22883711571E+03 -0.13424300307E+03 -0.17174761811E+03  0.31604565133E+03  0.00000000000E+00 0. -1.
        -15    1    3    3    0    0 -0.26590693156E+02  0.20212096836E+02 -0.35550433670E+00  0.33449632784E+02  0.17770000000E+01 0.  1.
         15    1    3    3    0    0 -0.46297678727E+02 -0.15476209700E+02 -0.16967169100E+03  0.17656338402E+03  0.17770000000E+01 0. -1.
</event>
<event>
 7    1  0.3970441E-006  0.5250129E+03  0.7546771E-02  0.9345518E-01
        -11   -1    0    0    0    0  0.00000000000E+00  0.00000000000E+00  0.50000000000E+03  0.50000000000E+03  0.00000000000E+00 0. -1.
         11   -1    0    0    0    0 -0.00000000000E+00 -0.00000000000E+00 -0.50000000000E+03  0.50000000000E+03  0.00000000000E+00 0. -1.
         23    2    1    2    0    0 -0.48057962115E+02 -0.11878781485E+03 -0.25390164360E+03  0.29812892012E+03  0.89413062299E+02 0.  0.
        -11    1    1    2    0    0  0.82655520638E+02  0.44835538103E+02  0.46558630877E+03  0.47498712770E+03  0.00000000000E+00 0. -1.
         11    1    1    2    0    0 -0.34597558523E+02  0.73952276747E+02 -0.21168466517E+03  0.22688395219E+03  0.00000000000E+00 0. -1.
        -15    1    3    3    0    0  0.56711314632E+01 -0.66291464555E+02 -0.18335980752E+03  0.19506587797E+03  0.17770000000E+01 0.  1.
         15    1    3    3    0    0 -0.53729093578E+02 -0.52496350295E+02 -0.70541836080E+02  0.10306304215E+03  0.17770000000E+01 0. -1.
</event>
<event>
 7    1  0.3970441E-006  0.5135739E+03  0.7546771E-02  0.9369939E-01
        -11   -1    0    0    0    0  0.00000000000E+00  0.00000000000E+00  0.50000000000E+03  0.50000000000E+03  0.00000000000E+00 0.  1.
         11   -1    0    0    0    0 -0.00000000000E+00 -0.00000000000E+00 -0.50000000000E+03  0.50000000000E+03  0.00000000000E+00 0. -1.
         23    2    1    2    0    0  0.16069653861E+03  0.84628744957E+02 -0.44177215446E+03  0.48642607679E+03  0.91990704579E+02 0.  0.
        -11    1    1    2    0    0 -0.13209529521E+03  0.56186970601E+01  0.37526963771E+03  0.39787942616E+03  0.00000000000E+00 0.  1.
         11    1    1    2    0    0 -0.28601243399E+02 -0.90247442017E+02  0.66502516750E+02  0.11569449705E+03  0.00000000000E+00 0. -1.
        -15    1    3    3    0    0  0.13329738669E+03  0.67615923944E+02 -0.42396216548E+03  0.44954107928E+03  0.17770000000E+01 0. -1.
         15    1    3    3    0    0  0.27399151921E+02  0.17012821013E+02 -0.17809988974E+02  0.36884997506E+02  0.17770000000E+01 0.  1.
</event>
<event>
 7    1  0.3970441E-006  0.4027682E+03  0.7546771E-02  0.9648257E-01
        -11   -1    0    0    0    0  0.00000000000E+00  0.00000000000E+00  0.50000000000E+03  0.50000000000E+03  0.00000000000E+00 0.  1.
         11   -1    0    0    0    0 -0.00000000000E+00 -0.00000000000E+00 -0.50000000000E+03  0.50000000000E+03  0.00000000000E+00 0. -1.
         23    2    1    2    0    0  0.11903510198E+03  0.18348255968E+02 -0.99350147391E+02  0.17947245375E+03  0.88509298204E+02 0.  0.
        -11    1    1    2    0    0  0.16320398073E+03  0.14606666540E+03  0.34719435206E+03  0.41050569810E+03  0.00000000000E+00 0.  1.
         11    1    1    2    0    0 -0.28223908270E+03 -0.16441492137E+03 -0.24784420467E+03  0.41002184815E+03  0.00000000000E+00 0. -1.
        -15    1    3    3    0    0  0.11611092653E+03  0.39466636512E+02 -0.64485739635E+02  0.13856742403E+03  0.17770000000E+01 0. -1.
         15    1    3    3    0    0  0.29241754432E+01 -0.21118380545E+02 -0.34864407756E+02  0.40905029716E+02  0.17770000000E+01 0.  1.
</event>
<event>
 7    1  0.3970441E-006  0.5138990E+03  0.7546771E-02  0.9369236E-01
        -11   -1    0    0    0    0  0.00000000000E+00  0.00000000000E+00  0.50000000000E+03  0.50000000000E+03  0.00000000000E+00 0.  1.
         11   -1    0    0    0    0 -0.00000000000E+00 -0.00000000000E+00 -0.50000000000E+03  0.50000000000E+03  0.00000000000E+00 0. -1.
         23    2    1    2    0    0 -0.88105018350E+01 -0.52379974692E+02 -0.28412017084E+03  0.30225713858E+03  0.88395812421E+02 0.  0.
        -11    1    1    2    0    0  0.10269559614E+03  0.40323925727E+02  0.47341499073E+03  0.48610097500E+03  0.00000000000E+00 0.  1.
         11    1    1    2    0    0 -0.93885094309E+02  0.12056048965E+02 -0.18929481989E+03  0.21164188642E+03  0.00000000000E+00 0. -1.
        -15    1    3    3    0    0  0.32588451143E+02 -0.10467339790E+02 -0.48571639206E+02  0.59446902479E+02  0.17770000000E+01 0.  1.
         15    1    3    3    0    0 -0.41398952978E+02 -0.41912634901E+02 -0.23554853163E+03  0.24281023610E+03  0.17770000000E+01 0. -1.
</event>
<event>
 7    1  0.3970441E-006  0.4513970E+03  0.7546771E-02  0.9515654E-01
        -11   -1    0    0    0    0  0.00000000000E+00  0.00000000000E+00  0.50000000000E+03  0.50000000000E+03  0.00000000000E+00 0. -1.
         11   -1    0    0    0    0 -0.00000000000E+00 -0.00000000000E+00 -0.50000000000E+03  0.50000000000E+03  0.00000000000E+00 0. -1.
         23    2    1    2    0    0  0.65441936707E+01  0.21450068074E+02 -0.43320376624E+03  0.44308376543E+03  0.90303866013E+02 0.  0.
        -11    1    1    2    0    0 -0.44025814539E+02 -0.11468580361E+03  0.43938863163E+03  0.45623839766E+03  0.00000000000E+00 0. -1.
         11    1    1    2    0    0  0.37481620869E+02  0.93235735536E+02 -0.61848653920E+01  0.10067783690E+03  0.00000000000E+00 0. -1.
        -15    1    3    3    0    0 -0.73465382208E+01 -0.34464052624E+02 -0.17565983437E+03  0.17916829432E+03  0.17770000000E+01 0.  1.
         15    1    3    3    0    0  0.13890731892E+02  0.55914120697E+02 -0.25754393186E+03  0.26391547112E+03  0.17770000000E+01 0. -1.
</event>
<event>
 7    1  0.3970441E-006  0.5379104E+03  0.7546771E-02  0.9318762E-01
        -11   -1    0    0    0    0  0.00000000000E+00  0.00000000000E+00  0.50000000000E+03  0.50000000000E+03  0.00000000000E+00 0.  1.
         11   -1    0    0    0    0 -0.00000000000E+00 -0.00000000000E+00 -0.50000000000E+03  0.50000000000E+03  0.00000000000E+00 0. -1.
         23    2    1    2    0    0  0.29106364760E+02  0.31817752570E+02 -0.30585999391E+03  0.32259983549E+03  0.93063248021E+02 0.  0.
        -11    1    1    2    0    0 -0.40718070182E+02  0.13653957862E+03  0.43957459724E+03  0.46208964964E+03  0.00000000000E+00 0.  1.
         11    1    1    2    0    0  0.11611705422E+02 -0.16835733120E+03 -0.13371460333E+03  0.21531051487E+03  0.00000000000E+00 0. -1.
        -15    1    3    3    0    0  0.62452597874E+02  0.12661168209E+02 -0.17806866859E+03  0.18913550862E+03  0.17770000000E+01 0. -1.
         15    1    3    3    0    0 -0.33346233114E+02  0.19156584361E+02 -0.12779132533E+03  0.13346432686E+03  0.17770000000E+01 0.  1.
</event>
<event>
 7    1  0.3970441E-006  0.3504695E+03  0.7546771E-02  0.9815252E-01
        -11   -1    0    0    0    0  0.00000000000E+00  0.00000000000E+00  0.50000000000E+03  0.50000000000E+03  0.00000000000E+00 0.  1.
         11   -1    0    0    0    0 -0.00000000000E+00 -0.00000000000E+00 -0.50000000000E+03  0.50000000000E+03  0.00000000000E+00 0.  1.
         23    2    1    2    0    0  0.60450421430E+02 -0.40694446339E+02 -0.25868026460E+03  0.28415567638E+03  0.92296683083E+02 0.  0.
        -11    1    1    2    0    0 -0.10779295567E+03 -0.17294023737E+03  0.40447124458E+03  0.45290687198E+03  0.00000000000E+00 0.  1.
         11    1    1    2    0    0  0.47342534243E+02  0.21363468371E+03 -0.14579097998E+03  0.26293745164E+03  0.00000000000E+00 0.  1.
        -15    1    3    3    0    0  0.75543322099E+02 -0.10939219120E+02 -0.22088898942E+03  0.23371256578E+03  0.17770000000E+01 0.  1.
         15    1    3    3    0    0 -0.15092900669E+02 -0.29755227220E+02 -0.37791275186E+02  0.50443110597E+02  0.17770000000E+01 0. -1.
</event>
<event>
 7    1  0.3970441E-006  0.4609844E+03  0.7546771E-02  0.9491608E-01
        -11   -1    0    0    0    0  0.00000000000E+00  0.00000000000E+00  0.50000000000E+03  0.50000000000E+03  0.00000000000E+00 0.  1.
         11   -1    0    0    0    0 -0.00000000000E+00 -0.00000000000E+00 -0.50000000000E+03  0.50000000000E+03  0.00000000000E+00 0. -1.
         23    2    1    2    0    0  0.15044338451E+03  0.88299421850E+02 -0.44365745250E+03  0.48460138746E+03  0.87043493303E+02 0.  0.
        -11    1    1    2    0    0 -0.10723572678E+03 -0.13955209661E+03  0.39540156924E+03  0.43280098166E+03  0.00000000000E+00 0.  1.
         11    1    1    2    0    0 -0.43207657735E+02  0.51252674762E+02  0.48255883260E+02  0.82597630877E+02  0.00000000000E+00 0. -1.
        -15    1    3    3    0    0  0.14169854243E+02 -0.16645141594E+02 -0.67688443019E+02  0.71152853459E+02  0.17770000000E+01 0.  1.
         15    1    3    3    0    0  0.13627353027E+03  0.10494456344E+03 -0.37596900948E+03  0.41344853400E+03  0.17770000000E+01 0. -1.
</event>
<event>
 7    1  0.3970441E-006  0.5367249E+03  0.7546771E-02  0.9321188E-01
        -11   -1    0    0    0    0  0.00000000000E+00  0.00000000000E+00  0.50000000000E+03  0.50000000000E+03  0.00000000000E+00 0.  1.
         11   -1    0    0    0    0 -0.00000000000E+00 -0.00000000000E+00 -0.50000000000E+03  0.50000000000E+03  0.00000000000E+00 0. -1.
         23    2    1    2    0    0 -0.11812143384E+03 -0.45960952691E+02  0.63207379486E+02  0.16988365627E+03  0.93809389415E+02 0.  0.
        -11    1    1    2    0    0 -0.36356357431E+02 -0.65271818384E+02  0.35915224964E+03  0.36684129187E+03  0.00000000000E+00 0.  1.
         11    1    1    2    0    0  0.15447779127E+03  0.11123277107E+03 -0.42235962912E+03  0.46327505186E+03  0.00000000000E+00 0. -1.
        -15    1    3    3    0    0  0.71702960264E+00 -0.12375468949E+02  0.42936208218E+02  0.44725183826E+02  0.17770000000E+01 0.  1.
         15    1    3    3    0    0 -0.11883846344E+03 -0.33585483742E+02  0.20271171269E+02  0.12515847245E+03  0.17770000000E+01 0. -1.
</event>
<event>
 7    1  0.3970441E-006  0.5214985E+03  0.7546771E-02  0.9352950E-01
        -11   -1    0    0    0    0  0.00000000000E+00  0.00000000000E+00  0.50000000000E+03  0.50000000000E+03  0.00000000000E+00 0.  1.
         11   -1    0    0    0    0 -0.00000000000E+00 -0.00000000000E+00 -0.50000000000E+03  0.50000000000E+03  0.00000000000E+00 0. -1.
         23    2    1    2    0    0 -0.26350013639E+03 -0.32948083387E+02  0.23965942333E+03  0.36974205808E+03  0.93566298676E+02 0.  0.
        -11    1    1    2    0    0 -0.55452831732E+02  0.84349492965E+02  0.11331446980E+03  0.15175645811E+03  0.00000000000E+00 0.  1.
         11    1    1    2    0    0  0.31895296812E+03 -0.51401409578E+02 -0.35297389313E+03  0.47850148381E+03  0.00000000000E+00 0. -1.
        -15    1    3    3    0    0 -0.19710373035E+03 -0.37242620463E+02  0.12264081129E+03  0.23511873516E+03  0.17770000000E+01 0.  1.
         15    1    3    3    0    0 -0.66396406035E+02  0.42945370757E+01  0.11701861204E+03  0.13462332293E+03  0.17770000000E+01 0. -1.
</event>
<event>
 7    1  0.3970441E-006  0.4729636E+03  0.7546771E-02  0.9462425E-01
        -11   -1    0    0    0    0  0.00000000000E+00  0.00000000000E+00  0.50000000000E+03  0.50000000000E+03  0.00000000000E+00 0. -1.
         11   -1    0    0    0    0 -0.00000000000E+00 -0.00000000000E+00 -0.50000000000E+03  0.50000000000E+03  0.00000000000E+00 0.  1.
         23    2    1    2    0    0  0.14496788735E+03  0.27787373672E+03  0.32872288060E+03  0.46330044674E+03  0.91427948659E+02 0.  0.
        -11    1    1    2    0    0  0.59750092813E+02  0.85826260838E+01 -0.88570574099E+01  0.61009692079E+02  0.00000000000E+00 0. -1.
         11    1    1    2    0    0 -0.20471798016E+03 -0.28645636280E+03 -0.31986582319E+03  0.47568986119E+03  0.00000000000E+00 0.  1.
        -15    1    3    3    0    0  0.53116534774E+02  0.10171634885E+03  0.61164007088E+02  0.13004528204E+03  0.17770000000E+01 0.  1.
         15    1    3    3    0    0  0.91851352574E+02  0.17615738787E+03  0.26755887351E+03  0.33325516469E+03  0.17770000000E+01 0. -1.
</event>
<event>
 7    1  0.3970441E-006  0.3615190E+03  0.7546771E-02  0.9777474E-01
        -11   -1    0    0    0    0  0.00000000000E+00  0.00000000000E+00  0.50000000000E+03  0.50000000000E+03  0.00000000000E+00 0.  1.
         11   -1    0    0    0    0 -0.00000000000E+00 -0.00000000000E+00 -0.50000000000E+03  0.50000000000E+03  0.00000000000E+00 0.  1.
         23    2    1    2    0    0 -0.11819619363E+03 -0.79046431188E+02  0.17427379701E+03  0.24278543061E+03  0.91404214986E+02 0.  0.
        -11    1    1    2    0    0  0.35765643650E+01  0.25699426033E+03  0.20105423215E+03  0.32631525542E+03  0.00000000000E+00 0.  1.
         11    1    1    2    0    0  0.11461962927E+03 -0.17794782914E+03 -0.37532802916E+03  0.43089931397E+03  0.00000000000E+00 0.  1.
        -15    1    3    3    0    0 -0.49081452095E+02 -0.68878198106E+02  0.14316932696E+03  0.16629434454E+03  0.17770000000E+01 0.  1.
         15    1    3    3    0    0 -0.69114741536E+02 -0.10168233083E+02  0.31104470051E+02  0.76491086067E+02  0.17770000000E+01 0. -1.
</event>
<event>
 6    1  0.3970441E-006  0.5430200E+03  0.7546771E-02  0.9308382E-01
        -11   -1    0    0    0    0  0.00000000000E+00  0.00000000000E+00  0.50000000000E+03  0.50000000000E+03  0.00000000000E+00 0. -1.
         11   -1    0    0    0    0 -0.00000000000E+00 -0.00000000000E+00 -0.50000000000E+03  0.50000000000E+03  0.00000000000E+00 0.  1.
        -11    1    1    2    0    0 -0.51811489120E+02 -0.89635456841E+02  0.44509748828E+03  0.45697999912E+03  0.00000000000E+00 0. -1.
         11    1    1    2    0    0  0.46667782595E+02  0.66044430039E+02 -0.27386532335E+03  0.28555553577E+03  0.00000000000E+00 0.  1.
        -15    1    1    2    0    0 -0.82489258042E+02 -0.31254673493E+02 -0.89376037494E+02  0.12558887735E+03  0.17770000000E+01 0. -1.
         15    1    1    2    0    0  0.87632964567E+02  0.54845700295E+02 -0.81856127430E+02  0.13187558776E+03  0.17770000000E+01 0.  1.
</event>
<event>
 7    1  0.3970441E-006  0.5355309E+03  0.7546771E-02  0.9323638E-01
        -11   -1    0    0    0    0  0.00000000000E+00  0.00000000000E+00  0.50000000000E+03  0.50000000000E+03  0.00000000000E+00 0.  1.
         11   -1    0    0    0    0 -0.00000000000E+00 -0.00000000000E+00 -0.50000000000E+03  0.50000000000E+03  0.00000000000E+00 0. -1.
         23    2    1    2    0    0  0.40082758019E+02 -0.12772433412E+03  0.11274443493E+03  0.19727758488E+03  0.91032987819E+02 0.  0.
        -11    1    1    2    0    0 -0.10201122505E+03 -0.24891260643E+02  0.32154224728E+03  0.33825328037E+03  0.00000000000E+00 0.  1.
         11    1    1    2    0    0  0.61928467026E+02  0.15261559476E+03 -0.43428668221E+03  0.46446913475E+03  0.00000000000E+00 0. -1.
        -15    1    3    3    0    0 -0.24514234306E+02 -0.73196367321E+02  0.57616087090E+02  0.96340163448E+02  0.17770000000E+01 0.  1.
         15    1    3    3    0    0  0.64596992325E+02 -0.54527966800E+02  0.55128347840E+02  0.10093742143E+03  0.17770000000E+01 0. -1.
</event>
<event>
 7    1  0.3970441E-006  0.4837738E+03  0.7546771E-02  0.9436867E-01
        -11   -1    0    0    0    0  0.00000000000E+00  0.00000000000E+00  0.50000000000E+03  0.50000000000E+03  0.00000000000E+00 0. -1.
         11   -1    0    0    0    0 -0.00000000000E+00 -0.00000000000E+00 -0.50000000000E+03  0.50000000000E+03  0.00000000000E+00 0.  1.
         23    2    1    2    0    0 -0.10667388731E+03 -0.11107009716E+03  0.43372088642E+03  0.46990999605E+03  0.94792997383E+02 0.  0.
        -11    1    1    2    0    0  0.17690635190E+02  0.79612036727E+01  0.36069583384E+02  0.40955514682E+02  0.00000000000E+00 0. -1.
         11    1    1    2    0    0  0.88983252121E+02  0.10310889349E+03 -0.46979046980E+03  0.48913448927E+03  0.00000000000E+00 0.  1.
        -15    1    3    3    0    0 -0.12362667218E+03 -0.88873926860E+02  0.35173135002E+03  0.38327565703E+03  0.17770000000E+01 0.  1.
         15    1    3    3    0    0  0.16952784867E+02 -0.22196170302E+02  0.81989536396E+02  0.86634339024E+02  0.17770000000E+01 0. -1.
</event>
<event>
 6    1  0.3970441E-006  0.5416191E+03  0.7546771E-02  0.9311216E-01
        -11   -1    0    0    0    0  0.00000000000E+00  0.00000000000E+00  0.50000000000E+03  0.50000000000E+03  0.00000000000E+00 0.  1.
         11   -1    0    0    0    0 -0.00000000000E+00 -0.00000000000E+00 -0.50000000000E+03  0.50000000000E+03  0.00000000000E+00 0. -1.
        -11    1    1    2    0    0 -0.20161799721E+03 -0.87060953191E+01  0.41156709512E+03  0.45838094057E+03  0.00000000000E+00 0.  1.
         11    1    1    2    0    0  0.16281398080E+03  0.61871736348E+02 -0.30527047281E+03  0.35146346278E+03  0.00000000000E+00 0. -1.
        -15    1    1    2    0    0 -0.32604440603E+02 -0.17104919480E+02  0.19013889393E+02  0.41476662550E+02  0.17770000000E+01 0.  1.
         15    1    1    2    0    0  0.71408457012E+02 -0.36060721549E+02 -0.12531051170E+03  0.14867893409E+03  0.17770000000E+01 0. -1.
</event>
<event>
 7    1  0.3970441E-006  0.5134712E+03  0.7546771E-02  0.9370161E-01
        -11   -1    0    0    0    0  0.00000000000E+00  0.00000000000E+00  0.50000000000E+03  0.50000000000E+03  0.00000000000E+00 0.  1.
         11   -1    0    0    0    0 -0.00000000000E+00 -0.00000000000E+00 -0.50000000000E+03  0.50000000000E+03  0.00000000000E+00 0. -1.
         23    2    1    2    0    0  0.11297870401E+02 -0.28929233614E+02 -0.11755130490E+03  0.14091570414E+03  0.71234710335E+02 0.  0.
        -11    1    1    2    0    0  0.81976939716E+02  0.36855927510E+02  0.47815442226E+03  0.48652875513E+03  0.00000000000E+00 0.  1.
         11    1    1    2    0    0 -0.93274810117E+02 -0.79266938964E+01 -0.36060311736E+03  0.37255554073E+03  0.00000000000E+00 0. -1.
        -15    1    3    3    0    0  0.40485909196E+02 -0.24307379561E+02 -0.61861127837E+02  0.77845452089E+02  0.17770000000E+01 0.  1.
         15    1    3    3    0    0 -0.29188038795E+02 -0.46218540526E+01 -0.55690177066E+02  0.63070252054E+02  0.17770000000E+01 0. -1.
</event>
<event>
 7    1  0.3970441E-006  0.5356909E+03  0.7546771E-02  0.9323309E-01
        -11   -1    0    0    0    0  0.00000000000E+00  0.00000000000E+00  0.50000000000E+03  0.50000000000E+03  0.00000000000E+00 0.  1.
         11   -1    0    0    0    0 -0.00000000000E+00 -0.00000000000E+00 -0.50000000000E+03  0.50000000000E+03  0.00000000000E+00 0. -1.
         23    2    1    2    0    0  0.70264311705E+02  0.10397516265E+03 -0.19326376530E+03  0.24753842401E+03  0.90423893048E+02 0.  0.
        -11    1    1    2    0    0 -0.10041062925E+03  0.17106314916E+02  0.45299889516E+03  0.46430907755E+03  0.00000000000E+00 0.  1.
         11    1    1    2    0    0  0.30146317541E+02 -0.12108147757E+03 -0.25973512987E+03  0.28815249844E+03  0.00000000000E+00 0. -1.
        -15    1    3    3    0    0 -0.75527751740E+00  0.71908590457E+02 -0.12355609686E+03  0.14297091532E+03  0.17770000000E+01 0.  1.
         15    1    3    3    0    0  0.71019589222E+02  0.32066572198E+02 -0.69707668437E+02  0.10456750869E+03  0.17770000000E+01 0. -1.
</event>
<event>
 7    1  0.3970441E-006  0.3981977E+03  0.7546771E-02  0.9661741E-01
        -11   -1    0    0    0    0  0.00000000000E+00  0.00000000000E+00  0.50000000000E+03  0.50000000000E+03  0.00000000000E+00 0. -1.
         11   -1    0    0    0    0 -0.00000000000E+00 -0.00000000000E+00 -0.50000000000E+03  0.50000000000E+03  0.00000000000E+00 0. -1.
         23    2    1    2    0    0 -0.18620629892E+03  0.17822538657E+02 -0.36020879418E+03  0.41592365973E+03  0.90838795001E+02 0.  0.
        -11    1    1    2    0    0 -0.94212135200E+02  0.11567042968E+03  0.11956481007E+03  0.19118399130E+03  0.00000000000E+00 0. -1.
         11    1    1    2    0    0  0.28041843412E+03 -0.13349296834E+03  0.24064398411E+03  0.39289234897E+03  0.00000000000E+00 0. -1.
        -15    1    3    3    0    0 -0.24458563862E+02 -0.17098288881E+02 -0.15783114510E+02  0.33805876138E+02  0.17770000000E+01 0.  1.
         15    1    3    3    0    0 -0.16174773506E+03  0.34920827538E+02 -0.34442567967E+03  0.38211778359E+03  0.17770000000E+01 0. -1.
</event>
<event>
 7    1  0.3970441E-006  0.5246706E+03  0.7546771E-02  0.9346239E-01
        -11   -1    0    0    0    0  0.00000000000E+00  0.00000000000E+00  0.50000000000E+03  0.50000000000E+03  0.00000000000E+00 0.  1.
         11   -1    0    0    0    0 -0.00000000000E+00 -0.00000000000E+00 -0.50000000000E+03  0.50000000000E+03  0.00000000000E+00 0. -1.
         23    2    1    2    0    0  0.11337375579E+03 -0.56843893859E+02 -0.33897934222E+03  0.37329650065E+03  0.91424538157E+02 0.  0.
        -11    1    1    2    0    0 -0.11856797363E+03  0.18310499246E+03  0.42231767688E+03  0.47532938352E+03  0.00000000000E+00 0.  1.
         11    1    1    2    0    0  0.51942178412E+01 -0.12626109860E+03 -0.83338334654E+02  0.15137411583E+03  0.00000000000E+00 0. -1.
        -15    1    3    3    0    0  0.72886218812E+02 -0.13001478766E+02 -0.86584326443E+02  0.11393613412E+03  0.17770000000E+01 0.  1.
         15    1    3    3    0    0  0.40487536973E+02 -0.43842415092E+02 -0.25239501578E+03  0.25936036654E+03  0.17770000000E+01 0. -1.
</event>
<event>
 7    1  0.3970441E-006  0.5089528E+03  0.7546771E-02  0.9379997E-01
        -11   -1    0    0    0    0  0.00000000000E+00  0.00000000000E+00  0.50000000000E+03  0.50000000000E+03  0.00000000000E+00 0. -1.
         11   -1    0    0    0    0 -0.00000000000E+00 -0.00000000000E+00 -0.50000000000E+03  0.50000000000E+03  0.00000000000E+00 0. -1.
         23    2    1    2    0    0  0.14098184881E+03  0.16564415521E+03 -0.43082348571E+03  0.49104719804E+03  0.90579285740E+02 0.  0.
        -11    1    1    2    0    0  0.20651238181E+02  0.88952340098E+01  0.93630968366E+02  0.96293079002E+02  0.00000000000E+00 0. -1.
         11    1    1    2    0    0 -0.16163308699E+03 -0.17453938922E+03  0.33719251735E+03  0.41265972296E+03  0.00000000000E+00 0. -1.
        -15    1    3    3    0    0  0.14716890133E+03  0.12145431756E+03 -0.34219112568E+03  0.39180066487E+03  0.17770000000E+01 0. -1.
         15    1    3    3    0    0 -0.61870525145E+01  0.44189837655E+02 -0.88632360030E+02  0.99246533160E+02  0.17770000000E+01 0.  1.
</event>
<event>
 7    1  0.3970441E-006  0.5398842E+03  0.7546771E-02  0.9314738E-01
        -11   -1    0    0    0    0  0.00000000000E+00  0.00000000000E+00  0.50000000000E+03  0.50000000000E+03  0.00000000000E+00 0.  1.
         11   -1    0    0    0    0 -0.00000000000E+00 -0.00000000000E+00 -0.50000000000E+03  0.50000000000E+03  0.00000000000E+00 0. -1.
         23    2    1    2    0    0  0.10316360230E+03  0.22896621119E+02 -0.12978451215E+03  0.18869910861E+03  0.87157041595E+02 0.  0.
        -11    1    1    2    0    0  0.87617885937E+00 -0.20186885991E+03  0.41346675979E+03  0.46011581775E+03  0.00000000000E+00 0.  1.
         11    1    1    2    0    0 -0.10403978116E+03  0.17897223879E+03 -0.28368224764E+03  0.35118507364E+03  0.00000000000E+00 0. -1.
        -15    1    3    3    0    0 -0.47386220007E+01 -0.18598666994E+02 -0.31601222829E+02  0.37015671893E+02  0.17770000000E+01 0. -1.
         15    1    3    3    0    0  0.10790222430E+03  0.41495288113E+02 -0.98183289319E+02  0.15168343672E+03  0.17770000000E+01 0.  1.
</event>
<event>
 7    1  0.3970441E-006  0.3626060E+03  0.7546771E-02  0.9773836E-01
        -11   -1    0    0    0    0  0.00000000000E+00  0.00000000000E+00  0.50000000000E+03  0.50000000000E+03  0.00000000000E+00 0. -1.
         11   -1    0    0    0    0 -0.00000000000E+00 -0.00000000000E+00 -0.50000000000E+03  0.50000000000E+03  0.00000000000E+00 0. -1.
         23    2    1    2    0    0 -0.20407201058E+03 -0.21547132622E+02 -0.38378820650E+03  0.44458245873E+03  0.90832322100E+02 0.  0.
        -11    1    1    2    0    0  0.63799337778E+02 -0.14289083688E+03  0.26768077891E+03  0.31006635767E+03  0.00000000000E+00 0. -1.
         11    1    1    2    0    0  0.14027267280E+03  0.16443796950E+03  0.11610742759E+03  0.24535118360E+03  0.00000000000E+00 0. -1.
        -15    1    3    3    0    0 -0.12096255590E+03  0.93164310607E+01 -0.29555165035E+03  0.31948813996E+03  0.17770000000E+01 0. -1.
         15    1    3    3    0    0 -0.83109454678E+02 -0.30863563683E+02 -0.88236556142E+02  0.12509431877E+03  0.17770000000E+01 0.  1.
</event>
<event>
 7    1  0.3970441E-006  0.4284828E+03  0.7546771E-02  0.9575796E-01
        -11   -1    0    0    0    0  0.00000000000E+00  0.00000000000E+00  0.50000000000E+03  0.50000000000E+03  0.00000000000E+00 0.  1.
         11   -1    0    0    0    0 -0.00000000000E+00 -0.00000000000E+00 -0.50000000000E+03  0.50000000000E+03  0.00000000000E+00 0. -1.
         23    2    1    2    0    0  0.98871884899E+02 -0.76240899348E+01 -0.41260264981E+03  0.43533505432E+03  0.97169370246E+02 0.  0.
        -11    1    1    2    0    0 -0.15467268870E+03 -0.11775954145E+03  0.37495787815E+03  0.42235572758E+03  0.00000000000E+00 0.  1.
         11    1    1    2    0    0  0.55800803802E+02  0.12538363139E+03  0.37644771666E+02  0.14230921811E+03  0.00000000000E+00 0. -1.
        -15    1    3    3    0    0  0.33758889433E+02 -0.22324450777E+02 -0.40484303427E+02  0.57272858067E+02  0.17770000000E+01 0.  1.
         15    1    3    3    0    0  0.65112995466E+02  0.14700360842E+02 -0.37211834639E+03  0.37806219625E+03  0.17770000000E+01 0. -1.
</event>
<event>
 7    1  0.3970441E-006  0.5213485E+03  0.7546771E-02  0.9353268E-01
        -11   -1    0    0    0    0  0.00000000000E+00  0.00000000000E+00  0.50000000000E+03  0.50000000000E+03  0.00000000000E+00 0.  1.
         11   -1    0    0    0    0 -0.00000000000E+00 -0.00000000000E+00 -0.50000000000E+03  0.50000000000E+03  0.00000000000E+00 0.  1.
         23    2    1    2    0    0 -0.51727841294E+02 -0.39742124706E+02 -0.19662587863E+03  0.22681640360E+03  0.92351170823E+02 0.  0.
        -11    1    1    2    0    0  0.24808244585E+03  0.17332321077E+03  0.37083877664E+03  0.47865147402E+03  0.00000000000E+00 0.  1.
         11    1    1    2    0    0 -0.19635460455E+03 -0.13358108606E+03 -0.17421289800E+03  0.29453212238E+03  0.00000000000E+00 0.  1.
        -15    1    3    3    0    0 -0.77927152210E+02 -0.20839513608E+02 -0.14251025786E+03  0.16376586245E+03  0.17770000000E+01 0. -1.
         15    1    3    3    0    0  0.26199310916E+02 -0.18902611098E+02 -0.54115620773E+02  0.63050541151E+02  0.17770000000E+01 0.  1.
</event>
<event>
 7    1  0.3970441E-006  0.5260435E+03  0.7546771E-02  0.9343350E-01
        -11   -1    0    0    0    0  0.00000000000E+00  0.00000000000E+00  0.50000000000E+03  0.50000000000E+03  0.00000000000E+00 0. -1.
         11   -1    0    0    0    0 -0.00000000000E+00 -0.00000000000E+00 -0.50000000000E+03  0.50000000000E+03  0.00000000000E+00 0.  1.
         23    2    1    2    0    0  0.23411974366E+01  0.30746990172E+02 -0.27056739365E+03  0.28756145338E+03  0.92379739960E+02 0.  0.
        -11    1    1    2    0    0  0.82962269733E+02  0.89594214203E+02  0.45795733536E+03  0.47395651955E+03  0.00000000000E+00 0. -1.
         11    1    1    2    0    0 -0.85303467169E+02 -0.12034120438E+03 -0.18738994171E+03  0.23848202707E+03  0.00000000000E+00 0.  1.
        -15    1    3    3    0    0  0.22680832596E+02 -0.25679180784E+02 -0.13529564896E+03  0.13957761586E+03  0.17770000000E+01 0. -1.
         15    1    3    3    0    0 -0.20339635160E+02  0.56426170956E+02 -0.13527174469E+03  0.14798383752E+03  0.17770000000E+01 0.  1.
</event>
<event>
 7    1  0.3970441E-006  0.5107157E+03  0.7546771E-02  0.9376147E-01
        -11   -1    0    0    0    0  0.00000000000E+00  0.00000000000E+00  0.50000000000E+03  0.50000000000E+03  0.00000000000E+00 0.  1.
         11   -1    0    0    0    0 -0.00000000000E+00 -0.00000000000E+00 -0.50000000000E+03  0.50000000000E+03  0.00000000000E+00 0. -1.
         23    2    1    2    0    0  0.71442186332E+02 -0.16322982492E+02 -0.23999579135E+03  0.26745160178E+03  0.92530825569E+02 0.  0.
        -11    1    1    2    0    0 -0.19540058731E+03  0.61953430252E+02  0.44427408553E+03  0.48928425288E+03  0.00000000000E+00 0.  1.
         11    1    1    2    0    0  0.12395840098E+03 -0.45630447760E+02 -0.20427829418E+03  0.24326414534E+03  0.00000000000E+00 0. -1.
        -15    1    3    3    0    0  0.22403711182E+02 -0.51489841255E+02 -0.13691554901E+03  0.14799376784E+03  0.17770000000E+01 0.  1.
         15    1    3    3    0    0  0.49038475150E+02  0.35166858763E+02 -0.10308024234E+03  0.11945783394E+03  0.17770000000E+01 0. -1.
</event>
<event>
 7    1  0.3970441E-006  0.5404369E+03  0.7546771E-02  0.9313614E-01
        -11   -1    0    0    0    0  0.00000000000E+00  0.00000000000E+00  0.50000000000E+03  0.50000000000E+03  0.00000000000E+00 0. -1.
         11   -1    0    0    0    0 -0.00000000000E+00 -0.00000000000E+00 -0.50000000000E+03  0.50000000000E+03  0.00000000000E+00 0.  1.
         23    2    1    2    0    0  0.97770507869E+02  0.27327066738E+02  0.73893653755E+02  0.15737255704E+03  0.94868376500E+02 0.  0.
        -11    1    1    2    0    0 -0.56115007190E+02  0.14459946662E+03  0.35025762893E+03  0.38306436327E+03  0.00000000000E+00 0. -1.
         11    1    1    2    0    0 -0.41655500679E+02 -0.17192653336E+03 -0.42415128269E+03  0.45956307969E+03  0.00000000000E+00 0.  1.
        -15    1    3    3    0    0  0.54907430497E+02 -0.16448214587E+02  0.76993201579E+02  0.96002502599E+02  0.17770000000E+01 0. -1.
         15    1    3    3    0    0  0.42863077372E+02  0.43775281325E+02 -0.30995478236E+01  0.61370054445E+02  0.17770000000E+01 0.  1.
</event>
<event>
 7    1  0.3970441E-006  0.5386811E+03  0.7546771E-02  0.9317189E-01
        -11   -1    0    0    0    0  0.00000000000E+00  0.00000000000E+00  0.50000000000E+03  0.50000000000E+03  0.00000000000E+00 0.  1.
         11   -1    0    0    0    0 -0.00000000000E+00 -0.00000000000E+00 -0.50000000000E+03  0.50000000000E+03  0.00000000000E+00 0. -1.
         23    2    1    2    0    0 -0.21708446557E+03  0.69661491002E+02  0.22042481435E+03  0.34110948220E+03  0.12565902890E+03 0.  0.
        -11    1    1    2    0    0  0.31655936779E+02  0.75308454731E+01  0.19487359251E+03  0.19757157950E+03  0.00000000000E+00 0.  1.
         11    1    1    2    0    0  0.18542852879E+03 -0.77192336475E+02 -0.41529840686E+03  0.46131893831E+03  0.00000000000E+00 0. -1.
        -15    1    3    3    0    0 -0.16217028666E+03  0.99957268373E+02  0.19723813933E+03  0.27422016467E+03  0.17770000000E+01 0.  1.
         15    1    3    3    0    0 -0.54914178904E+02 -0.30295777372E+02  0.23186675020E+02  0.66889317523E+02  0.17770000000E+01 0. -1.
</event>
<event>
 7    1  0.3970441E-006  0.5235008E+03  0.7546771E-02  0.9348708E-01
        -11   -1    0    0    0    0  0.00000000000E+00  0.00000000000E+00  0.50000000000E+03  0.50000000000E+03  0.00000000000E+00 0.  1.
         11   -1    0    0    0    0 -0.00000000000E+00 -0.00000000000E+00 -0.50000000000E+03  0.50000000000E+03  0.00000000000E+00 0. -1.
         23    2    1    2    0    0 -0.35778101889E+01 -0.21731482077E+03  0.22247618207E+03  0.32433072538E+03  0.91957793512E+02 0.  0.
        -11    1    1    2    0    0  0.12897407981E+03 -0.76486629498E+02  0.13108850076E+03  0.19917005997E+03  0.00000000000E+00 0.  1.
         11    1    1    2    0    0 -0.12539626962E+03  0.29380145027E+03 -0.35356468283E+03  0.47649921465E+03  0.00000000000E+00 0. -1.
        -15    1    3    3    0    0  0.41879830446E+02 -0.68365739281E+02  0.72094514259E+02  0.10783585313E+03  0.17770000000E+01 0.  1.
         15    1    3    3    0    0 -0.45457640635E+02 -0.14894908149E+03  0.15038166781E+03  0.21649487225E+03  0.17770000000E+01 0. -1.
</event>
<event>
 7    1  0.3970441E-006  0.5293880E+03  0.7546771E-02  0.9336351E-01
        -11   -1    0    0    0    0  0.00000000000E+00  0.00000000000E+00  0.50000000000E+03  0.50000000000E+03  0.00000000000E+00 0. -1.
         11   -1    0    0    0    0 -0.00000000000E+00 -0.00000000000E+00 -0.50000000000E+03  0.50000000000E+03  0.00000000000E+00 0. -1.
         23    2    1    2    0    0  0.11295979969E+03 -0.30480315007E+02 -0.33570543355E+03  0.36725900504E+03  0.92152442856E+02 0.  0.
        -11    1    1    2    0    0 -0.10603766859E+03 -0.83444564424E+02  0.45085325716E+03  0.47061198665E+03  0.00000000000E+00 0. -1.
         11    1    1    2    0    0 -0.69221310975E+01  0.11392487943E+03 -0.11514782361E+03  0.16212900831E+03  0.00000000000E+00 0. -1.
        -15    1    3    3    0    0  0.39912276175E+02  0.17547088626E+02 -0.41072893937E+02  0.59925207168E+02  0.17770000000E+01 0.  1.
         15    1    3    3    0    0  0.73047523514E+02 -0.48027403633E+02 -0.29463253961E+03  0.30733379788E+03  0.17770000000E+01 0. -1.
</event>
<event>
 7    1  0.3970441E-006  0.4655075E+03  0.7546771E-02  0.9480479E-01
        -11   -1    0    0    0    0  0.00000000000E+00  0.00000000000E+00  0.50000000000E+03  0.50000000000E+03  0.00000000000E+00 0. -1.
         11   -1    0    0    0    0 -0.00000000000E+00 -0.00000000000E+00 -0.50000000000E+03  0.50000000000E+03  0.00000000000E+00 0. -1.
         23    2    1    2    0    0  0.79460107267E+01  0.36198827071E+02 -0.42821440699E+03  0.43925370251E+03  0.90568993847E+02 0.  0.
        -11    1    1    2    0    0  0.76747984062E+01 -0.90464198800E+02  0.47734127980E+03  0.48589851944E+03  0.00000000000E+00 0. -1.
         11    1    1    2    0    0 -0.15620809133E+02  0.54265371729E+02 -0.49126872806E+02  0.74847778047E+02  0.00000000000E+00 0. -1.
        -15    1    3    3    0    0  0.30600222742E+02 -0.19599585845E+02 -0.12891132243E+03  0.13394702004E+03  0.17770000000E+01 0.  1.
         15    1    3    3    0    0 -0.22654212016E+02  0.55798412916E+02 -0.29930308456E+03  0.30530668248E+03  0.17770000000E+01 0. -1.
</event>
<event>
 7    1  0.3970441E-006  0.5192105E+03  0.7546771E-02  0.9357822E-01
        -11   -1    0    0    0    0  0.00000000000E+00  0.00000000000E+00  0.50000000000E+03  0.50000000000E+03  0.00000000000E+00 0. -1.
         11   -1    0    0    0    0 -0.00000000000E+00 -0.00000000000E+00 -0.50000000000E+03  0.50000000000E+03  0.00000000000E+00 0.  1.
         23    2    1    2    0    0 -0.65495738073E+02 -0.56337567462E+02  0.22559461109E+03  0.25829491817E+03  0.91431520740E+02 0.  0.
        -11    1    1    2    0    0  0.77782774033E+02 -0.29699314450E+02  0.24727456944E+03  0.26091554555E+03  0.00000000000E+00 0. -1.
         11    1    1    2    0    0 -0.12287035960E+02  0.86036881912E+02 -0.47286918053E+03  0.48078953628E+03  0.00000000000E+00 0.  1.
        -15    1    3    3    0    0 -0.82116720603E+02 -0.66583616757E+02  0.19771332762E+03  0.22421028404E+03  0.17770000000E+01 0.  1.
         15    1    3    3    0    0  0.16620982530E+02  0.10246049296E+02  0.27881283473E+02  0.34084634127E+02  0.17770000000E+01 0. -1.
</event>
<event>
 7    1  0.3970441E-006  0.5257186E+03  0.7546771E-02  0.9344033E-01
        -11   -1    0    0    0    0  0.00000000000E+00  0.00000000000E+00  0.50000000000E+03  0.50000000000E+03  0.00000000000E+00 0.  1.
         11   -1    0    0    0    0 -0.00000000000E+00 -0.00000000000E+00 -0.50000000000E+03  0.50000000000E+03  0.00000000000E+00 0.  1.
         23    2    1    2    0    0  0.70917082561E+02  0.51098619063E+02 -0.40602914267E+03  0.42508512600E+03  0.90539484101E+02 0.  0.
        -11    1    1    2    0    0  0.25901112120E+01 -0.82859913245E+02  0.46698003995E+03  0.47428138443E+03  0.00000000000E+00 0.  1.
         11    1    1    2    0    0 -0.73507193773E+02  0.31761294182E+02 -0.60950897285E+02  0.10063348958E+03  0.00000000000E+00 0.  1.
        -15    1    3    3    0    0  0.81898299514E+02  0.97379299971E+01 -0.24836141234E+03  0.26170347268E+03  0.17770000000E+01 0.  1.
         15    1    3    3    0    0 -0.10981216954E+02  0.41360689066E+02 -0.15766773033E+03  0.16338165332E+03  0.17770000000E+01 0. -1.
</event>
<event>
 7    1  0.3970441E-006  0.3395717E+03  0.7546771E-02  0.9854003E-01
        -11   -1    0    0    0    0  0.00000000000E+00  0.00000000000E+00  0.50000000000E+03  0.50000000000E+03  0.00000000000E+00 0.  1.
         11   -1    0    0    0    0 -0.00000000000E+00 -0.00000000000E+00 -0.50000000000E+03  0.50000000000E+03  0.00000000000E+00 0. -1.
         23    2    1    2    0    0 -0.17049150539E+03  0.18435151791E+03 -0.58596106639E+02  0.27355514321E+03  0.91356866730E+02 0.  0.
        -11    1    1    2    0    0  0.39642993229E+02 -0.68729295871E+02  0.36513807897E+03  0.37365906886E+03  0.00000000000E+00 0.  1.
         11    1    1    2    0    0  0.13084851216E+03 -0.11562222204E+03 -0.30654197233E+03  0.35278578793E+03  0.00000000000E+00 0. -1.
        -15    1    3    3    0    0 -0.88837476699E+02  0.53558653672E+02 -0.59008377106E+02  0.11935565737E+03  0.17770000000E+01 0.  1.
         15    1    3    3    0    0 -0.81654028694E+02  0.13079286424E+03  0.41227046677E+00  0.15419948584E+03  0.17770000000E+01 0. -1.
</event>
<event>
 7    1  0.3970441E-006  0.3497791E+03  0.7546771E-02  0.9817662E-01
        -11   -1    0    0    0    0  0.00000000000E+00  0.00000000000E+00  0.50000000000E+03  0.50000000000E+03  0.00000000000E+00 0. -1.
         11   -1    0    0    0    0 -0.00000000000E+00 -0.00000000000E+00 -0.50000000000E+03  0.50000000000E+03  0.00000000000E+00 0. -1.
         23    2    1    2    0    0  0.17250075973E+03 -0.11361849974E+03 -0.27472197957E+03  0.35589191841E+03  0.92310432457E+02 0.  0.
        -11    1    1    2    0    0  0.37020298095E+02  0.27353150030E+03  0.26146254640E+03  0.38020079865E+03  0.00000000000E+00 0. -1.
         11    1    1    2    0    0 -0.20952105782E+03 -0.15991300056E+03  0.13259433177E+02  0.26390728294E+03  0.00000000000E+00 0. -1.
        -15    1    3    3    0    0  0.23441908557E+02 -0.58794328199E+02 -0.11096957677E+03  0.12776423914E+03  0.17770000000E+01 0. -1.
         15    1    3    3    0    0  0.14905885117E+03 -0.54824171541E+02 -0.16375240280E+03  0.22812767927E+03  0.17770000000E+01 0.  1.
</event>
<event>
 7    1  0.3970441E-006  0.5255313E+03  0.7546771E-02  0.9344426E-01
        -11   -1    0    0    0    0  0.00000000000E+00  0.00000000000E+00  0.50000000000E+03  0.50000000000E+03  0.00000000000E+00 0.  1.
         11   -1    0    0    0    0 -0.00000000000E+00 -0.00000000000E+00 -0.50000000000E+03  0.50000000000E+03  0.00000000000E+00 0. -1.
         23    2    1    2    0    0 -0.51409374221E+02  0.13317058695E+03  0.28022449059E+03  0.32750474935E+03  0.91412618011E+02 0.  0.
        -11    1    1    2    0    0 -0.29381881885E+01 -0.66742868945E+02  0.18641694715E+03  0.19802656814E+03  0.00000000000E+00 0.  1.
         11    1    1    2    0    0  0.54347562409E+02 -0.66427718009E+02 -0.46664143774E+03  0.47446868251E+03  0.00000000000E+00 0. -1.
        -15    1    3    3    0    0 -0.23455077337E+02  0.11408542411E+03  0.13468137998E+03  0.17806700000E+03  0.17770000000E+01 0.  1.
         15    1    3    3    0    0 -0.27954296884E+02  0.19085162847E+02  0.14554311061E+03  0.14943774935E+03  0.17770000000E+01 0. -1.
</event>
<event>
 7    1  0.3970441E-006  0.5279314E+03  0.7546771E-02  0.9339392E-01
        -11   -1    0    0    0    0  0.00000000000E+00  0.00000000000E+00  0.50000000000E+03  0.50000000000E+03  0.00000000000E+00 0.  1.
         11   -1    0    0    0    0 -0.00000000000E+00 -0.00000000000E+00 -0.50000000000E+03  0.50000000000E+03  0.00000000000E+00 0. -1.
         23    2    1    2    0    0 -0.61028097797E+01 -0.87600580578E+02 -0.27900875688E+03  0.31607859963E+03  0.11978601223E+03 0.  0.
        -11    1    1    2    0    0 -0.11081332485E+03  0.65088993494E+02  0.45423847661E+03  0.47206860060E+03  0.00000000000E+00 0.  1.
         11    1    1    2    0    0  0.11691613463E+03  0.22511587084E+02 -0.17522971973E+03  0.21185279976E+03  0.00000000000E+00 0. -1.
        -15    1    3    3    0    0 -0.59174187594E+02 -0.64161102934E+02 -0.19828864998E+03  0.21665589779E+03  0.17770000000E+01 0.  1.
         15    1    3    3    0    0  0.53071377814E+02 -0.23439477644E+02 -0.80720106902E+02  0.99422701847E+02  0.17770000000E+01 0. -1.
</event>
<event>
 7    1  0.5043041E-006  0.5091987E+03  0.7546771E-02  0.9379459E-01
        -11   -1    0    0    0    0  0.00000000000E+00  0.00000000000E+00  0.50000000000E+03  0.50000000000E+03  0.00000000000E+00 0. -1.
         11   -1    0    0    0    0 -0.00000000000E+00 -0.00000000000E+00 -0.50000000000E+03  0.50000000000E+03  0.00000000000E+00 0. -1.
         23    2    1    2    0    0  0.40276350525E+02  0.11059120366E+00  0.27673601762E+03  0.29411897554E+03  0.91109558693E+02 0.  0.
        -11    1    1    2    0    0  0.54758049134E+02  0.48079497163E+02  0.20235908077E+03  0.21507970514E+03  0.00000000000E+00 0. -1.
         11    1    1    2    0    0 -0.95034399659E+02 -0.48190088367E+02 -0.47909509839E+03  0.49080131931E+03  0.00000000000E+00 0. -1.
        -15    1    3    3    0    0 -0.60022857999E+01  0.38327104889E+02  0.91698126044E+02  0.99582621240E+02  0.17770000000E+01 0.  1.
         15    1    3    3    0    0  0.46278636325E+02 -0.38216513686E+02  0.18503789158E+03  0.19453635430E+03  0.17770000000E+01 0. -1.
</event>
<event>
 7    1  0.3970441E-006  0.3741065E+03  0.7546771E-02  0.9736162E-01
        -11   -1    0    0    0    0  0.00000000000E+00  0.00000000000E+00  0.50000000000E+03  0.50000000000E+03  0.00000000000E+00 0. -1.
         11   -1    0    0    0    0 -0.00000000000E+00 -0.00000000000E+00 -0.50000000000E+03  0.50000000000E+03  0.00000000000E+00 0. -1.
         23    2    1    2    0    0 -0.17284080307E+03  0.57690019436E+02 -0.42181706820E+03  0.46847055792E+03  0.91284955306E+02 0.  0.
        -11    1    1    2    0    0 -0.36947239790E+02  0.33380955198E+02  0.22299378138E+03  0.22848547707E+03  0.00000000000E+00 0. -1.
         11    1    1    2    0    0  0.20978804286E+03 -0.91070974633E+02  0.19882328682E+03  0.30304396501E+03  0.00000000000E+00 0. -1.
        -15    1    3    3    0    0 -0.43177253369E+02  0.38924564747E+02 -0.59562303285E+02  0.83247958838E+02  0.17770000000E+01 0.  1.
         15    1    3    3    0    0 -0.12966354970E+03  0.18765454689E+02 -0.36225476491E+03  0.38522259908E+03  0.17770000000E+01 0. -1.
</event>
<event>
 7    1  0.3970441E-006  0.5143326E+03  0.7546771E-02  0.9368298E-01
        -11   -1    0    0    0    0  0.00000000000E+00  0.00000000000E+00  0.50000000000E+03  0.50000000000E+03  0.00000000000E+00 0. -1.
         11   -1    0    0    0    0 -0.00000000000E+00 -0.00000000000E+00 -0.50000000000E+03  0.50000000000E+03  0.00000000000E+00 0.  1.
         23    2    1    2    0    0  0.49099453275E+01  0.24792452946E+02 -0.30956499074E+03  0.32405055907E+03  0.92409458699E+02 0.  0.
        -11    1    1    2    0    0  0.44869330618E+02 -0.11443924090E+03  0.46985449396E+03  0.48566741932E+03  0.00000000000E+00 0. -1.
         11    1    1    2    0    0 -0.49779275946E+02  0.89646787956E+02 -0.16028950323E+03  0.19028202161E+03  0.00000000000E+00 0.  1.
        -15    1    3    3    0    0 -0.38474547658E+02 -0.10316407850E+02 -0.12205068404E+03  0.12839877839E+03  0.17770000000E+01 0.  1.
         15    1    3    3    0    0  0.43384492985E+02  0.35108860796E+02 -0.18751430669E+03  0.19565178067E+03  0.17770000000E+01 0. -1.
</event>
<event>
 7    1  0.3970441E-006  0.3853156E+03  0.7546771E-02  0.9700812E-01
        -11   -1    0    0    0    0  0.00000000000E+00  0.00000000000E+00  0.50000000000E+03  0.50000000000E+03  0.00000000000E+00 0. -1.
         11   -1    0    0    0    0 -0.00000000000E+00 -0.00000000000E+00 -0.50000000000E+03  0.50000000000E+03  0.00000000000E+00 0.  1.
         23    2    1    2    0    0  0.76173563615E+02  0.49357839560E+01 -0.31941595685E+03  0.34035871048E+03  0.89390852734E+02 0.  0.
        -11    1    1    2    0    0  0.94191176858E+02  0.36473583615E+02  0.43701049987E+03  0.44853146723E+03  0.00000000000E+00 0. -1.
         11    1    1    2    0    0 -0.17036474047E+03 -0.41409367571E+02 -0.11759454301E+03  0.21110982229E+03  0.00000000000E+00 0.  1.
        -15    1    3    3    0    0 -0.15945521148E+02  0.18220862655E+02 -0.74011399119E+02  0.77891619634E+02  0.17770000000E+01 0. -1.
         15    1    3    3    0    0  0.92119084763E+02 -0.13285078699E+02 -0.24540455773E+03  0.26246709085E+03  0.17770000000E+01 0.  1.
</event>
<event>
 7    1  0.3970441E-006  0.4161960E+03  0.7546771E-02  0.9609721E-01
        -11   -1    0    0    0    0  0.00000000000E+00  0.00000000000E+00  0.50000000000E+03  0.50000000000E+03  0.00000000000E+00 0. -1.
         11   -1    0    0    0    0 -0.00000000000E+00 -0.00000000000E+00 -0.50000000000E+03  0.50000000000E+03  0.00000000000E+00 0. -1.
         23    2    1    2    0    0  0.77499444399E+02  0.26864775071E+02 -0.95099910884E+02  0.15818742429E+03  0.96184136584E+02 0.  0.
        -11    1    1    2    0    0  0.58005275787E+02  0.13379009923E+03  0.42574442687E+03  0.45002524338E+03  0.00000000000E+00 0. -1.
         11    1    1    2    0    0 -0.13550472019E+03 -0.16065487430E+03 -0.33064451598E+03  0.39178733233E+03  0.00000000000E+00 0. -1.
        -15    1    3    3    0    0  0.64054945503E+02 -0.11068814967E+02 -0.12403846607E+02  0.66200965611E+02  0.17770000000E+01 0.  1.
         15    1    3    3    0    0  0.13444498896E+02  0.37933590038E+02 -0.82696064277E+02  0.91986458676E+02  0.17770000000E+01 0. -1.
</event>
<event>
 7    1  0.3970441E-006  0.5184330E+03  0.7546771E-02  0.9359484E-01
        -11   -1    0    0    0    0  0.00000000000E+00  0.00000000000E+00  0.50000000000E+03  0.50000000000E+03  0.00000000000E+00 0.  1.
         11   -1    0    0    0    0 -0.00000000000E+00 -0.00000000000E+00 -0.50000000000E+03  0.50000000000E+03  0.00000000000E+00 0. -1.
         23    2    1    2    0    0  0.41736185165E+02  0.32995876847E+02  0.10799872637E+03  0.15126626061E+03  0.91581218921E+02 0.  0.
        -11    1    1    2    0    0  0.61693150815E+02 -0.10533359565E+02  0.36179333675E+03  0.36716674011E+03  0.00000000000E+00 0.  1.
         11    1    1    2    0    0 -0.10342933598E+03 -0.22462517283E+02 -0.46979206313E+03  0.48156699929E+03  0.00000000000E+00 0. -1.
        -15    1    3    3    0    0 -0.18523857553E+02  0.41050895103E+02  0.44512697104E+02  0.63347037972E+02  0.17770000000E+01 0. -1.
         15    1    3    3    0    0  0.60260042718E+02 -0.80550182557E+01  0.63486029269E+02  0.87919222636E+02  0.17770000000E+01 0.  1.
</event>
<event>
 7    1  0.3970441E-006  0.5240993E+03  0.7546771E-02  0.9347444E-01
        -11   -1    0    0    0    0  0.00000000000E+00  0.00000000000E+00  0.50000000000E+03  0.50000000000E+03  0.00000000000E+00 0.  1.
         11   -1    0    0    0    0 -0.00000000000E+00 -0.00000000000E+00 -0.50000000000E+03  0.50000000000E+03  0.00000000000E+00 0. -1.
         23    2    1    2    0    0 -0.51178687230E+02 -0.11091286503E+02 -0.12740541503E+03  0.16571581582E+03  0.92126636596E+02 0.  0.
        -11    1    1    2    0    0  0.15505304891E+03 -0.17950704883E+03  0.41257395630E+03  0.47590072282E+03  0.00000000000E+00 0.  1.
         11    1    1    2    0    0 -0.10387436168E+03  0.19059833534E+03 -0.28516854127E+03  0.35838346137E+03  0.00000000000E+00 0. -1.
        -15    1    3    3    0    0 -0.77599675985E+02 -0.61294833367E+01 -0.10472838940E+03  0.13050085653E+03  0.17770000000E+01 0. -1.
         15    1    3    3    0    0  0.26420988755E+02 -0.49618031665E+01 -0.22677025630E+02  0.35214959291E+02  0.17770000000E+01 0.  1.
</event>
<event>
 7    1  0.3970441E-006  0.4098882E+03  0.7546771E-02  0.9627627E-01
        -11   -1    0    0    0    0  0.00000000000E+00  0.00000000000E+00  0.50000000000E+03  0.50000000000E+03  0.00000000000E+00 0.  1.
         11   -1    0    0    0    0 -0.00000000000E+00 -0.00000000000E+00 -0.50000000000E+03  0.50000000000E+03  0.00000000000E+00 0.  1.
         23    2    1    2    0    0 -0.13149321315E+03 -0.47168774873E+02 -0.15613163868E+02  0.16825931530E+03  0.92477391139E+02 0.  0.
        -11    1    1    2    0    0  0.41992397229E+02  0.54620335277E+02  0.41586657143E+03  0.42153498987E+03  0.00000000000E+00 0.  1.
         11    1    1    2    0    0  0.89500815926E+02 -0.74515604040E+01 -0.40025340756E+03  0.41020569483E+03  0.00000000000E+00 0.  1.
        -15    1    3    3    0    0 -0.30060246007E+02  0.25468229827E+02 -0.18257674879E+02  0.43459746220E+02  0.17770000000E+01 0.  1.
         15    1    3    3    0    0 -0.10143296715E+03 -0.72637004699E+02  0.26445110115E+01  0.12479956908E+03  0.17770000000E+01 0. -1.
</event>
<event>
 7    1  0.3970441E-006  0.5215526E+03  0.7546771E-02  0.9352835E-01
        -11   -1    0    0    0    0  0.00000000000E+00  0.00000000000E+00  0.50000000000E+03  0.50000000000E+03  0.00000000000E+00 0. -1.
         11   -1    0    0    0    0 -0.00000000000E+00 -0.00000000000E+00 -0.50000000000E+03  0.50000000000E+03  0.00000000000E+00 0.  1.
         23    2    1    2    0    0  0.10656252841E+02 -0.10693846264E+02 -0.33661168688E+03  0.34906005199E+03  0.91145916419E+02 0.  0.
        -11    1    1    2    0    0 -0.10560305362E+03 -0.58364260856E+02  0.46298325320E+03  0.47844736871E+03  0.00000000000E+00 0. -1.
         11    1    1    2    0    0  0.94946800780E+02  0.69058107120E+02 -0.12637156632E+03  0.17249257930E+03  0.00000000000E+00 0.  1.
        -15    1    3    3    0    0  0.21152958315E+02  0.35198578241E+02 -0.20960574421E+03  0.21359801799E+03  0.17770000000E+01 0.  1.
         15    1    3    3    0    0 -0.10496705474E+02 -0.45892424505E+02 -0.12700594268E+03  0.13546203401E+03  0.17770000000E+01 0. -1.
</event>
<event>
 7    1  0.3970441E-006  0.4233834E+03  0.7546771E-02  0.9589727E-01
        -11   -1    0    0    0    0  0.00000000000E+00  0.00000000000E+00  0.50000000000E+03  0.50000000000E+03  0.00000000000E+00 0. -1.
         11   -1    0    0    0    0 -0.00000000000E+00 -0.00000000000E+00 -0.50000000000E+03  0.50000000000E+03  0.00000000000E+00 0.  1.
         23    2    1    2    0    0  0.23558556297E+02 -0.87839736598E+02 -0.71142150759E+02  0.14539710787E+03  0.88364520381E+02 0.  0.
        -11    1    1    2    0    0  0.25411106918E+03  0.10681745508E+03  0.36004505464E+03  0.45344773190E+03  0.00000000000E+00 0. -1.
         11    1    1    2    0    0 -0.27766962548E+03 -0.18977718483E+02 -0.28890290388E+03  0.40115516023E+03  0.00000000000E+00 0.  1.
        -15    1    3    3    0    0  0.53004764453E+02 -0.38833199391E+02 -0.20105447278E+02  0.68737974722E+02  0.17770000000E+01 0.  1.
         15    1    3    3    0    0 -0.29446208156E+02 -0.49006537207E+02 -0.51036703481E+02  0.76659133148E+02  0.17770000000E+01 0. -1.
</event>
<event>
 7    1  0.3970441E-006  0.4509816E+03  0.7546771E-02  0.9516710E-01
        -11   -1    0    0    0    0  0.00000000000E+00  0.00000000000E+00  0.50000000000E+03  0.50000000000E+03  0.00000000000E+00 0.  1.
         11   -1    0    0    0    0 -0.00000000000E+00 -0.00000000000E+00 -0.50000000000E+03  0.50000000000E+03  0.00000000000E+00 0.  1.
         23    2    1    2    0    0  0.27773740182E+02 -0.44751580954E+01 -0.42510995371E+03  0.43556724124E+03  0.90603207520E+02 0.  0.
        -11    1    1    2    0    0 -0.43679384806E+02 -0.92197369162E+02  0.45156931728E+03  0.46295042051E+03  0.00000000000E+00 0.  1.
         11    1    1    2    0    0  0.15905644624E+02  0.96672527257E+02 -0.26459363570E+02  0.10148233826E+03  0.00000000000E+00 0.  1.
        -15    1    3    3    0    0  0.21097965474E+02  0.40547445078E+02 -0.27221844966E+03  0.27603489184E+03  0.17770000000E+01 0.  1.
         15    1    3    3    0    0  0.66757747077E+01 -0.45022603174E+02 -0.15289150406E+03  0.15953234940E+03  0.17770000000E+01 0. -1.
</event>
<event>
 7    1  0.3970441E-006  0.5267844E+03  0.7546771E-02  0.9341795E-01
        -11   -1    0    0    0    0  0.00000000000E+00  0.00000000000E+00  0.50000000000E+03  0.50000000000E+03  0.00000000000E+00 0. -1.
         11   -1    0    0    0    0 -0.00000000000E+00 -0.00000000000E+00 -0.50000000000E+03  0.50000000000E+03  0.00000000000E+00 0.  1.
         23    2    1    2    0    0 -0.13523845620E+02 -0.16972233441E+02  0.55622063653E+02  0.11229180395E+03  0.95103544424E+02 0.  0.
        -11    1    1    2    0    0 -0.24965693993E+02 -0.81324665835E+02  0.40566877876E+03  0.41449263590E+03  0.00000000000E+00 0. -1.
         11    1    1    2    0    0  0.38489539613E+02  0.98296899276E+02 -0.46129084242E+03  0.47321556015E+03  0.00000000000E+00 0.  1.
        -15    1    3    3    0    0 -0.40791211653E+02 -0.19308358153E+02 -0.53061965138E+01  0.45475807778E+02  0.17770000000E+01 0.  1.
         15    1    3    3    0    0  0.27267366033E+02  0.23361247116E+01  0.60928260167E+02  0.66815996176E+02  0.17770000000E+01 0. -1.
</event>
<event>
 7    1  0.3970441E-006  0.4786844E+03  0.7546771E-02  0.9448810E-01
        -11   -1    0    0    0    0  0.00000000000E+00  0.00000000000E+00  0.50000000000E+03  0.50000000000E+03  0.00000000000E+00 0.  1.
         11   -1    0    0    0    0 -0.00000000000E+00 -0.00000000000E+00 -0.50000000000E+03  0.50000000000E+03  0.00000000000E+00 0.  1.
         23    2    1    2    0    0  0.81236381181E+02  0.73582270539E+02 -0.45577973311E+03  0.47755196025E+03  0.91142797115E+02 0.  0.
        -11    1    1    2    0    0 -0.13069078987E+03 -0.71295665676E+02  0.44830771652E+03  0.47238010457E+03  0.00000000000E+00 0.  1.
         11    1    1    2    0    0  0.49454408693E+02 -0.22866048630E+01  0.74720165894E+01  0.50067935177E+02  0.00000000000E+00 0.  1.
        -15    1    3    3    0    0  0.94813433749E+02  0.70558920339E+02 -0.44327497897E+03  0.45876357001E+03  0.17770000000E+01 0.  1.
         15    1    3    3    0    0 -0.13577052568E+02  0.30233502002E+01 -0.12504754133E+02  0.18788390240E+02  0.17770000000E+01 0. -1.
</event>
<event>
 7    1  0.3970441E-006  0.5129823E+03  0.7546771E-02  0.9371220E-01
        -11   -1    0    0    0    0  0.00000000000E+00  0.00000000000E+00  0.50000000000E+03  0.50000000000E+03  0.00000000000E+00 0.  1.
         11   -1    0    0    0    0 -0.00000000000E+00 -0.00000000000E+00 -0.50000000000E+03  0.50000000000E+03  0.00000000000E+00 0. -1.
         23    2    1    2    0    0 -0.49025106733E+02  0.51925632721E+02 -0.19308044576E+03  0.22304131775E+03  0.85834948975E+02 0.  0.
        -11    1    1    2    0    0  0.13654679029E+03 -0.16352630977E+02  0.46719778047E+03  0.48701765939E+03  0.00000000000E+00 0.  1.
         11    1    1    2    0    0 -0.87521683560E+02 -0.35573001744E+02 -0.27411733471E+03  0.28994102286E+03  0.00000000000E+00 0. -1.
        -15    1    3    3    0    0 -0.64535266492E+02  0.63811083297E+02 -0.17025327372E+03  0.19294037917E+03  0.17770000000E+01 0. -1.
         15    1    3    3    0    0  0.15510159759E+02 -0.11885450576E+02 -0.22827172041E+02  0.30100938582E+02  0.17770000000E+01 0.  1.
</event>
<event>
 7    1  0.3970441E-006  0.5224824E+03  0.7546771E-02  0.9350863E-01
        -11   -1    0    0    0    0  0.00000000000E+00  0.00000000000E+00  0.50000000000E+03  0.50000000000E+03  0.00000000000E+00 0.  1.
         11   -1    0    0    0    0 -0.00000000000E+00 -0.00000000000E+00 -0.50000000000E+03  0.50000000000E+03  0.00000000000E+00 0. -1.
         23    2    1    2    0    0 -0.43481985670E+02  0.12838849137E+02 -0.24367839691E+03  0.26466171996E+03  0.92796259453E+02 0.  0.
        -11    1    1    2    0    0 -0.48467716299E+02  0.69935932577E+02  0.46987541403E+03  0.47751760062E+03  0.00000000000E+00 0.  1.
         11    1    1    2    0    0  0.91949701969E+02 -0.82774781714E+02 -0.22619701712E+03  0.25782067942E+03  0.00000000000E+00 0. -1.
        -15    1    3    3    0    0  0.16516180872E+02  0.35005755728E+02 -0.10539306409E+03  0.11228999444E+03  0.17770000000E+01 0.  1.
         15    1    3    3    0    0 -0.59998166542E+02 -0.22166906591E+02 -0.13828533283E+03  0.15237172553E+03  0.17770000000E+01 0. -1.
</event>
<event>
 7    1  0.3970441E-006  0.5153111E+03  0.7546771E-02  0.9366187E-01
        -11   -1    0    0    0    0  0.00000000000E+00  0.00000000000E+00  0.50000000000E+03  0.50000000000E+03  0.00000000000E+00 0.  1.
         11   -1    0    0    0    0 -0.00000000000E+00 -0.00000000000E+00 -0.50000000000E+03  0.50000000000E+03  0.00000000000E+00 0.  1.
         23    2    1    2    0    0 -0.30699953491E+02  0.19127247732E+02 -0.47647251109E+03  0.48468894755E+03  0.81172552621E+02 0.  0.
        -11    1    1    2    0    0  0.97053249562E+02 -0.25887336959E+02  0.40616354368E+03  0.41839970325E+03  0.00000000000E+00 0.  1.
         11    1    1    2    0    0 -0.66353296072E+02  0.67600892274E+01  0.70308967413E+02  0.96911349204E+02  0.00000000000E+00 0.  1.
        -15    1    3    3    0    0 -0.35376212180E+02  0.47411528668E+02 -0.35241112911E+03  0.35734589838E+03  0.17770000000E+01 0.  1.
         15    1    3    3    0    0  0.46762586894E+01 -0.28284280936E+02 -0.12406138198E+03  0.12734304917E+03  0.17770000000E+01 0. -1.
</event>
<event>
 6    1  0.3970441E-006  0.3892685E+03  0.7546771E-02  0.9688651E-01
        -11   -1    0    0    0    0  0.00000000000E+00  0.00000000000E+00  0.50000000000E+03  0.50000000000E+03  0.00000000000E+00 0.  1.
         11   -1    0    0    0    0 -0.00000000000E+00 -0.00000000000E+00 -0.50000000000E+03  0.50000000000E+03  0.00000000000E+00 0. -1.
        -11    1    1    2    0    0 -0.33342646090E+02 -0.11514108633E+03  0.40819614200E+03  0.42543306424E+03  0.00000000000E+00 0.  1.
         11    1    1    2    0    0  0.10731276452E+03 -0.86812166768E+02 -0.17220996895E+03  0.22070037412E+03  0.00000000000E+00 0. -1.
        -15    1    1    2    0    0 -0.44036792588E+02  0.18516239482E+03 -0.10280910489E+03  0.21632665424E+03  0.17770000000E+01 0.  1.
         15    1    1    2    0    0 -0.29933325846E+02  0.16790858280E+02 -0.13317706815E+03  0.13753990740E+03  0.17770000000E+01 0. -1.
</event>
<event>
 7    1  0.3970441E-006  0.4699947E+03  0.7546771E-02  0.9469571E-01
        -11   -1    0    0    0    0  0.00000000000E+00  0.00000000000E+00  0.50000000000E+03  0.50000000000E+03  0.00000000000E+00 0.  1.
         11   -1    0    0    0    0 -0.00000000000E+00 -0.00000000000E+00 -0.50000000000E+03  0.50000000000E+03  0.00000000000E+00 0.  1.
         23    2    1    2    0    0 -0.28017348255E+02  0.47138614849E+02 -0.45888100887E+03  0.47116178020E+03  0.91731248802E+02 0.  0.
        -11    1    1    2    0    0 -0.33942273776E+02 -0.71485952649E+02  0.45534757641E+03  0.46217284074E+03  0.00000000000E+00 0.  1.
         11    1    1    2    0    0  0.61959622031E+02  0.24347337800E+02  0.35334324576E+01  0.66665379059E+02  0.00000000000E+00 0.  1.
        -15    1    3    3    0    0  0.13870780741E+02  0.61031727952E+02 -0.27858063026E+03  0.28553037608E+03  0.17770000000E+01 0.  1.
         15    1    3    3    0    0 -0.41888128996E+02 -0.13893113102E+02 -0.18030037860E+03  0.18563140412E+03  0.17770000000E+01 0. -1.
</event>
<event>
 7    1  0.3970441E-006  0.4533913E+03  0.7546771E-02  0.9510600E-01
        -11   -1    0    0    0    0  0.00000000000E+00  0.00000000000E+00  0.50000000000E+03  0.50000000000E+03  0.00000000000E+00 0.  1.
         11   -1    0    0    0    0 -0.00000000000E+00 -0.00000000000E+00 -0.50000000000E+03  0.50000000000E+03  0.00000000000E+00 0. -1.
         23    2    1    2    0    0 -0.18018648824E+03  0.13852465399E+03  0.35618326173E+03  0.43199079189E+03  0.89962648020E+02 0.  0.
        -11    1    1    2    0    0  0.38379785119E+02 -0.36568689274E+02  0.81240304814E+02  0.97006515592E+02  0.00000000000E+00 0.  1.
         11    1    1    2    0    0  0.14180670312E+03 -0.10195596471E+03 -0.43742356654E+03  0.47100269251E+03  0.00000000000E+00 0. -1.
        -15    1    3    3    0    0 -0.82158189742E+02  0.60056371576E+02  0.83031220740E+02  0.13135477629E+03  0.17770000000E+01 0. -1.
         15    1    3    3    0    0 -0.98028298501E+02  0.78468282413E+02  0.27315204099E+03  0.30063601560E+03  0.17770000000E+01 0.  1.
</event>
<event>
 7    1  0.3970441E-006  0.4059617E+03  0.7546771E-02  0.9638948E-01
        -11   -1    0    0    0    0  0.00000000000E+00  0.00000000000E+00  0.50000000000E+03  0.50000000000E+03  0.00000000000E+00 0. -1.
         11   -1    0    0    0    0 -0.00000000000E+00 -0.00000000000E+00 -0.50000000000E+03  0.50000000000E+03  0.00000000000E+00 0. -1.
         23    2    1    2    0    0  0.10486465025E+03  0.13794016963E+03 -0.32484264800E+03  0.38014620492E+03  0.94680018425E+02 0.  0.
        -11    1    1    2    0    0  0.19440398878E+02 -0.69305118276E+02  0.43451497108E+03  0.44043658865E+03  0.00000000000E+00 0. -1.
         11    1    1    2    0    0 -0.12430504913E+03 -0.68635051350E+02 -0.10967232308E+03  0.17941720643E+03  0.00000000000E+00 0. -1.
        -15    1    3    3    0    0  0.10796056809E+02 -0.12913349615E+02 -0.50236788511E+02  0.53011339257E+02  0.17770000000E+01 0.  1.
         15    1    3    3    0    0  0.94068593438E+02  0.15085351924E+03 -0.27460585949E+03  0.32713486566E+03  0.17770000000E+01 0. -1.
</event>
<event>
 7    1  0.3970441E-006  0.4602599E+03  0.7546771E-02  0.9493403E-01
        -11   -1    0    0    0    0  0.00000000000E+00  0.00000000000E+00  0.50000000000E+03  0.50000000000E+03  0.00000000000E+00 0. -1.
         11   -1    0    0    0    0 -0.00000000000E+00 -0.00000000000E+00 -0.50000000000E+03  0.50000000000E+03  0.00000000000E+00 0. -1.
         23    2    1    2    0    0  0.11276871544E+03  0.10624984423E+03 -0.42977159201E+03  0.46597458570E+03  0.91776253122E+02 0.  0.
        -11    1    1    2    0    0 -0.93251488924E+02 -0.24233337704E+02  0.43878458179E+03  0.44923824866E+03  0.00000000000E+00 0. -1.
         11    1    1    2    0    0 -0.19517226519E+02 -0.82016506525E+02 -0.90129897786E+01  0.84787165646E+02  0.00000000000E+00 0. -1.
        -15    1    3    3    0    0  0.62564425559E+02  0.21407698336E+00 -0.15885155017E+03  0.17073759368E+03  0.17770000000E+01 0.  1.
         15    1    3    3    0    0  0.50204289885E+02  0.10603576725E+03 -0.27092004183E+03  0.29523699202E+03  0.17770000000E+01 0. -1.
</event>
<event>
 7    1  0.3970441E-006  0.5160313E+03  0.7546771E-02  0.9364636E-01
        -11   -1    0    0    0    0  0.00000000000E+00  0.00000000000E+00  0.50000000000E+03  0.50000000000E+03  0.00000000000E+00 0. -1.
         11   -1    0    0    0    0 -0.00000000000E+00 -0.00000000000E+00 -0.50000000000E+03  0.50000000000E+03  0.00000000000E+00 0.  1.
         23    2    1    2    0    0 -0.11350112240E+03 -0.17285549107E+00  0.19868924027E+03  0.24640882822E+03  0.91418607290E+02 0.  0.
        -11    1    1    2    0    0 -0.16302280699E+03  0.11448122321E+03  0.18169720411E+03  0.26962243981E+03  0.00000000000E+00 0. -1.
         11    1    1    2    0    0  0.27652392939E+03 -0.11430836772E+03 -0.38038644438E+03  0.48396873197E+03  0.00000000000E+00 0.  1.
        -15    1    3    3    0    0 -0.43403153453E+02  0.42829864244E+02  0.10749165889E+03  0.12359549126E+03  0.17770000000E+01 0. -1.
         15    1    3    3    0    0 -0.70097968943E+02 -0.43002719735E+02  0.91197581384E+02  0.12281333695E+03  0.17770000000E+01 0.  1.
</event>
<event>
 7    1  0.3970441E-006  0.5128233E+03  0.7546771E-02  0.9371565E-01
        -11   -1    0    0    0    0  0.00000000000E+00  0.00000000000E+00  0.50000000000E+03  0.50000000000E+03  0.00000000000E+00 0.  1.
         11   -1    0    0    0    0 -0.00000000000E+00 -0.00000000000E+00 -0.50000000000E+03  0.50000000000E+03  0.00000000000E+00 0. -1.
         23    2    1    2    0    0  0.29765432413E+02  0.11314848048E+02 -0.27506990995E+03  0.29097464233E+03  0.89379977444E+02 0.  0.
        -11    1    1    2    0    0 -0.89048847374E+02  0.65921268886E+02  0.47441103487E+03  0.48717670400E+03  0.00000000000E+00 0.  1.
         11    1    1    2    0    0  0.59283414961E+02 -0.77236116934E+02 -0.19934112493E+03  0.22184865367E+03  0.00000000000E+00 0. -1.
        -15    1    3    3    0    0 -0.17768845409E+02 -0.24181208111E+02 -0.51214283276E+02  0.59384536989E+02  0.17770000000E+01 0.  1.
         15    1    3    3    0    0  0.47534277822E+02  0.35496056159E+02 -0.22385562667E+03  0.23159010534E+03  0.17770000000E+01 0. -1.
</event>
<event>
 7    1  0.5312559E-006  0.5206977E+03  0.7546771E-02  0.9354652E-01
        -11   -1    0    0    0    0  0.00000000000E+00  0.00000000000E+00  0.50000000000E+03  0.50000000000E+03  0.00000000000E+00 0.  1.
         11   -1    0    0    0    0 -0.00000000000E+00 -0.00000000000E+00 -0.50000000000E+03  0.50000000000E+03  0.00000000000E+00 0. -1.
         23    2    1    2    0    0 -0.64960883763E+02 -0.11027552944E+03  0.24636874664E+03  0.29193291941E+03  0.90258857193E+02 0.  0.
        -11    1    1    2    0    0  0.15099336508E+02  0.38800642235E+02  0.22494412945E+03  0.22876481630E+03  0.00000000000E+00 0.  1.
         11    1    1    2    0    0  0.49861547254E+02  0.71474887209E+02 -0.47131287609E+03  0.47930226430E+03  0.00000000000E+00 0. -1.
        -15    1    3    3    0    0  0.16791904447E+02 -0.12486845609E+02  0.77847382865E+02  0.80630404415E+02  0.17770000000E+01 0. -1.
         15    1    3    3    0    0 -0.81752788209E+02 -0.97788683835E+02  0.16852136377E+03  0.21130251499E+03  0.17770000000E+01 0.  1.
</event>
<event>
 7    1  0.3970441E-006  0.4699924E+03  0.7546771E-02  0.9469576E-01
        -11   -1    0    0    0    0  0.00000000000E+00  0.00000000000E+00  0.50000000000E+03  0.50000000000E+03  0.00000000000E+00 0.  1.
         11   -1    0    0    0    0 -0.00000000000E+00 -0.00000000000E+00 -0.50000000000E+03  0.50000000000E+03  0.00000000000E+00 0. -1.
         23    2    1    2    0    0 -0.70437926521E+02  0.10390192969E+02 -0.46217951651E+03  0.47654108026E+03  0.91717163557E+02 0.  0.
        -11    1    1    2    0    0  0.63645048995E+02 -0.74736402253E+02  0.44611940774E+03  0.45679179945E+03  0.00000000000E+00 0.  1.
         11    1    1    2    0    0  0.67928775257E+01  0.64346209284E+02  0.16060108776E+02  0.66667120293E+02  0.00000000000E+00 0. -1.
        -15    1    3    3    0    0 -0.86550308602E+02  0.29057287118E+02 -0.37040622261E+03  0.38149601483E+03  0.17770000000E+01 0.  1.
         15    1    3    3    0    0  0.16112382081E+02 -0.18667094149E+02 -0.91773293905E+02  0.95045065434E+02  0.17770000000E+01 0. -1.
</event>
<event>
 7    1  0.3970441E-006  0.5103035E+03  0.7546771E-02  0.9377046E-01
        -11   -1    0    0    0    0  0.00000000000E+00  0.00000000000E+00  0.50000000000E+03  0.50000000000E+03  0.00000000000E+00 0.  1.
         11   -1    0    0    0    0 -0.00000000000E+00 -0.00000000000E+00 -0.50000000000E+03  0.50000000000E+03  0.00000000000E+00 0. -1.
         23    2    1    2    0    0  0.14743135198E+03  0.13613933136E+03  0.29546480770E+03  0.36879525101E+03  0.91872539348E+02 0.  0.
        -11    1    1    2    0    0  0.18096177500E+01  0.70754290090E+02  0.12253623031E+03  0.14150820478E+03  0.00000000000E+00 0.  1.
         11    1    1    2    0    0 -0.14924096973E+03 -0.20689362145E+03 -0.41800103800E+03  0.48969654421E+03  0.00000000000E+00 0. -1.
        -15    1    3    3    0    0 -0.12192308938E+02  0.26373694361E+01  0.16345534914E+02  0.20638370948E+02  0.17770000000E+01 0. -1.
         15    1    3    3    0    0  0.15962366092E+03  0.13350196193E+03  0.27911927278E+03  0.34815688006E+03  0.17770000000E+01 0.  1.
</event>
<event>
 7    1  0.3970441E-006  0.5296925E+03  0.7546771E-02  0.9335717E-01
        -11   -1    0    0    0    0  0.00000000000E+00  0.00000000000E+00  0.50000000000E+03  0.50000000000E+03  0.00000000000E+00 0. -1.
         11   -1    0    0    0    0 -0.00000000000E+00 -0.00000000000E+00 -0.50000000000E+03  0.50000000000E+03  0.00000000000E+00 0.  1.
         23    2    1    2    0    0  0.43586322847E+01 -0.39506742439E+01 -0.17855330763E+03  0.20101576906E+03  0.92149065340E+02 0.  0.
        -11    1    1    2    0    0 -0.24379275893E+03  0.48702897498E+02  0.39922709830E+03  0.47030751382E+03  0.00000000000E+00 0. -1.
         11    1    1    2    0    0  0.23943412665E+03 -0.44752223254E+02 -0.22067379068E+03  0.32867671713E+03  0.00000000000E+00 0.  1.
        -15    1    3    3    0    0  0.40237354849E+02  0.11048700185E+02 -0.14050748848E+03  0.14658318645E+03  0.17770000000E+01 0.  1.
         15    1    3    3    0    0 -0.35878722564E+02 -0.14999374429E+02 -0.38045819145E+02  0.54432582609E+02  0.17770000000E+01 0. -1.
</event>
<event>
 7    1  0.3970441E-006  0.5257432E+03  0.7546771E-02  0.9343981E-01
        -11   -1    0    0    0    0  0.00000000000E+00  0.00000000000E+00  0.50000000000E+03  0.50000000000E+03  0.00000000000E+00 0.  1.
         11   -1    0    0    0    0 -0.00000000000E+00 -0.00000000000E+00 -0.50000000000E+03  0.50000000000E+03  0.00000000000E+00 0. -1.
         23    2    1    2    0    0 -0.76139998729E+02  0.12375043110E+03  0.23584382024E+03  0.29286891636E+03  0.95070636995E+02 0.  0.
        -11    1    1    2    0    0 -0.14446724509E+02 -0.58145007576E+02  0.22503525358E+03  0.23287424741E+03  0.00000000000E+00 0.  1.
         11    1    1    2    0    0  0.90586723238E+02 -0.65605423528E+02 -0.46087907382E+03  0.47425683623E+03  0.00000000000E+00 0. -1.
        -15    1    3    3    0    0 -0.40263377378E+02  0.10950187175E+03  0.22380142682E+03  0.25239262241E+03  0.17770000000E+01 0.  1.
         15    1    3    3    0    0 -0.35876621351E+02  0.14248559356E+02  0.12042393425E+02  0.40476293947E+02  0.17770000000E+01 0. -1.
</event>
<event>
 7    1  0.3970441E-006  0.3463925E+03  0.7546771E-02  0.9829570E-01
        -11   -1    0    0    0    0  0.00000000000E+00  0.00000000000E+00  0.50000000000E+03  0.50000000000E+03  0.00000000000E+00 0.  1.
         11   -1    0    0    0    0 -0.00000000000E+00 -0.00000000000E+00 -0.50000000000E+03  0.50000000000E+03  0.00000000000E+00 0.  1.
         23    2    1    2    0    0 -0.95582530106E+02  0.28438131548E+03 -0.16830078299E+03  0.35774282311E+03  0.98214160259E+02 0.  0.
        -11    1    1    2    0    0 -0.57401503381E+02  0.42587596860E+02  0.26013083748E+03  0.26977154891E+03  0.00000000000E+00 0.  1.
         11    1    1    2    0    0  0.15298403349E+03 -0.32696891234E+03 -0.91830054490E+02  0.37248562798E+03  0.00000000000E+00 0.  1.
        -15    1    3    3    0    0 -0.71139671496E+02  0.14066862231E+03 -0.37878060569E+02  0.16213087110E+03  0.17770000000E+01 0. -1.
         15    1    3    3    0    0 -0.24442858610E+02  0.14371269317E+03 -0.13042272242E+03  0.19561195201E+03  0.17770000000E+01 0.  1.
</event>
<event>
 7    1  0.3970441E-006  0.4221608E+03  0.7546771E-02  0.9593098E-01
        -11   -1    0    0    0    0  0.00000000000E+00  0.00000000000E+00  0.50000000000E+03  0.50000000000E+03  0.00000000000E+00 0. -1.
         11   -1    0    0    0    0 -0.00000000000E+00 -0.00000000000E+00 -0.50000000000E+03  0.50000000000E+03  0.00000000000E+00 0.  1.
         23    2    1    2    0    0 -0.57026480160E+02 -0.34997092443E+02 -0.39417689061E+03  0.41010550214E+03  0.91292310054E+02 0.  0.
        -11    1    1    2    0    0 -0.82135914813E+02 -0.14421890032E+02  0.42993690389E+03  0.43794981532E+03  0.00000000000E+00 0. -1.
         11    1    1    2    0    0  0.13916239497E+03  0.49418982475E+02 -0.35760013282E+02  0.15194468254E+03  0.00000000000E+00 0.  1.
        -15    1    3    3    0    0 -0.12465768230E+02  0.30363913528E+02 -0.14445017700E+03  0.14814308619E+03  0.17770000000E+01 0. -1.
         15    1    3    3    0    0 -0.44560711930E+02 -0.65361005971E+02 -0.24972671361E+03  0.26196241594E+03  0.17770000000E+01 0.  1.
</event>
<event>
 7    1  0.3970441E-006  0.4767365E+03  0.7546771E-02  0.9453423E-01
        -11   -1    0    0    0    0  0.00000000000E+00  0.00000000000E+00  0.50000000000E+03  0.50000000000E+03  0.00000000000E+00 0.  1.
         11   -1    0    0    0    0 -0.00000000000E+00 -0.00000000000E+00 -0.50000000000E+03  0.50000000000E+03  0.00000000000E+00 0. -1.
         23    2    1    2    0    0 -0.98521601691E+01 -0.14731498049E+03 -0.44034061638E+03  0.47218005625E+03  0.85178509909E+02 0.  0.
        -11    1    1    2    0    0 -0.40330594500E+02  0.16297723574E+03  0.44443553424E+03  0.47509060222E+03  0.00000000000E+00 0.  1.
         11    1    1    2    0    0  0.50182754669E+02 -0.15662255254E+02 -0.40949178640E+01  0.52729341529E+02  0.00000000000E+00 0. -1.
        -15    1    3    3    0    0 -0.11450951463E+02 -0.13244609997E+03 -0.43696911378E+03  0.45674747707E+03  0.17770000000E+01 0. -1.
         15    1    3    3    0    0  0.15987912943E+01 -0.14868880512E+02 -0.33715026036E+01  0.15432579178E+02  0.17770000000E+01 0.  1.
</event>
<event>
 7    1  0.3970441E-006  0.4684803E+03  0.7546771E-02  0.9473238E-01
        -11   -1    0    0    0    0  0.00000000000E+00  0.00000000000E+00  0.50000000000E+03  0.50000000000E+03  0.00000000000E+00 0.  1.
         11   -1    0    0    0    0 -0.00000000000E+00 -0.00000000000E+00 -0.50000000000E+03  0.50000000000E+03  0.00000000000E+00 0.  1.
         23    2    1    2    0    0  0.84216364384E+02  0.32657306764E+02 -0.45169926165E+03  0.47004883359E+03  0.93567020226E+02 0.  0.
        -11    1    1    2    0    0 -0.10955136143E+03  0.32161695154E+02  0.44570802495E+03  0.46009946634E+03  0.00000000000E+00 0.  1.
         11    1    1    2    0    0  0.25334997044E+02 -0.64819001917E+02  0.59912366960E+01  0.69851700065E+02  0.00000000000E+00 0.  1.
        -15    1    3    3    0    0  0.91584420297E+01 -0.30517353315E+02 -0.11437260784E+03  0.11874105047E+03  0.17770000000E+01 0.  1.
         15    1    3    3    0    0  0.75057922354E+02  0.63174660079E+02 -0.33732665381E+03  0.35130778312E+03  0.17770000000E+01 0. -1.
</event>
<event>
 6    1  0.3970441E-006  0.3790490E+03  0.7546771E-02  0.9720414E-01
        -11   -1    0    0    0    0  0.00000000000E+00  0.00000000000E+00  0.50000000000E+03  0.50000000000E+03  0.00000000000E+00 0.  1.
         11   -1    0    0    0    0 -0.00000000000E+00 -0.00000000000E+00 -0.50000000000E+03  0.50000000000E+03  0.00000000000E+00 0. -1.
        -11    1    1    2    0    0 -0.22953835095E+02  0.84116144337E+02  0.29147995494E+03  0.30424162834E+03  0.00000000000E+00 0.  1.
         11    1    1    2    0    0 -0.41572189678E+02  0.13456087746E+02 -0.87153803681E+01  0.44556381216E+02  0.00000000000E+00 0. -1.
        -15    1    1    2    0    0  0.43058178099E+02  0.59787511258E+02  0.16251418910E+03  0.17844487270E+03  0.17770000000E+01 0.  1.
         15    1    1    2    0    0  0.21467846674E+02 -0.15735974334E+03 -0.44527876368E+03  0.47275711774E+03  0.17770000000E+01 0. -1.
</event>
<event>
 7    1  0.3970441E-006  0.5229473E+03  0.7546771E-02  0.9349878E-01
        -11   -1    0    0    0    0  0.00000000000E+00  0.00000000000E+00  0.50000000000E+03  0.50000000000E+03  0.00000000000E+00 0.  1.
         11   -1    0    0    0    0 -0.00000000000E+00 -0.00000000000E+00 -0.50000000000E+03  0.50000000000E+03  0.00000000000E+00 0. -1.
         23    2    1    2    0    0  0.78920854368E+01  0.13217922667E+03 -0.30083277988E+03  0.34116867364E+03  0.91444351636E+02 0.  0.
        -11    1    1    2    0    0 -0.47060874723E+02 -0.74768216142E+02  0.46880083485E+03  0.47705265414E+03  0.00000000000E+00 0.  1.
         11    1    1    2    0    0  0.39168789287E+02 -0.57411010529E+02 -0.16796805496E+03  0.18177867221E+03  0.00000000000E+00 0. -1.
        -15    1    3    3    0    0 -0.17053485579E+02  0.34834645523E+02 -0.21667853882E+02  0.44462653092E+02  0.17770000000E+01 0.  1.
         15    1    3    3    0    0  0.24945571016E+02  0.97344581149E+02 -0.27916492600E+03  0.29670602055E+03  0.17770000000E+01 0. -1.
</event>
<event>
 7    1  0.3970441E-006  0.5215362E+03  0.7546771E-02  0.9352870E-01
        -11   -1    0    0    0    0  0.00000000000E+00  0.00000000000E+00  0.50000000000E+03  0.50000000000E+03  0.00000000000E+00 0. -1.
         11   -1    0    0    0    0 -0.00000000000E+00 -0.00000000000E+00 -0.50000000000E+03  0.50000000000E+03  0.00000000000E+00 0.  1.
         23    2    1    2    0    0  0.90040221512E+01 -0.97713969832E+01 -0.24551194991E+03  0.26405589099E+03  0.96295604282E+02 0.  0.
        -11    1    1    2    0    0 -0.46405327769E+02  0.16696876339E+03  0.44597706573E+03  0.47846375573E+03  0.00000000000E+00 0. -1.
         11    1    1    2    0    0  0.37401305617E+02 -0.15719736640E+03 -0.20046511582E+03  0.25748035328E+03  0.00000000000E+00 0.  1.
        -15    1    3    3    0    0  0.38127501605E+01  0.38387580161E+02 -0.53254505750E+02  0.65782546971E+02  0.17770000000E+01 0. -1.
         15    1    3    3    0    0  0.51912719908E+01 -0.48158977144E+02 -0.19225744416E+03  0.19827334402E+03  0.17770000000E+01 0.  1.
</event>
<event>
 7    1  0.3970441E-006  0.4317531E+03  0.7546771E-02  0.9566970E-01
        -11   -1    0    0    0    0  0.00000000000E+00  0.00000000000E+00  0.50000000000E+03  0.50000000000E+03  0.00000000000E+00 0.  1.
         11   -1    0    0    0    0 -0.00000000000E+00 -0.00000000000E+00 -0.50000000000E+03  0.50000000000E+03  0.00000000000E+00 0. -1.
         23    2    1    2    0    0 -0.52906637596E+02 -0.43609193980E+02  0.64313813714E+02  0.13139181929E+03  0.91796892324E+02 0.  0.
        -11    1    1    2    0    0  0.29818736515E+02  0.13531573158E+03  0.38514316880E+03  0.40931010827E+03  0.00000000000E+00 0.  1.
         11    1    1    2    0    0  0.23087901081E+02 -0.91706537597E+02 -0.44945698252E+03  0.45929807244E+03  0.00000000000E+00 0. -1.
        -15    1    3    3    0    0 -0.34769028429E+02 -0.34430560741E+02 -0.13626149108E+02  0.50824979285E+02  0.17770000000E+01 0.  1.
         15    1    3    3    0    0 -0.18137609167E+02 -0.91786332390E+01  0.77939962822E+02  0.80566840004E+02  0.17770000000E+01 0. -1.
</event>
<event>
 7    1  0.3970441E-006  0.4562515E+03  0.7546771E-02  0.9503400E-01
        -11   -1    0    0    0    0  0.00000000000E+00  0.00000000000E+00  0.50000000000E+03  0.50000000000E+03  0.00000000000E+00 0.  1.
         11   -1    0    0    0    0 -0.00000000000E+00 -0.00000000000E+00 -0.50000000000E+03  0.50000000000E+03  0.00000000000E+00 0. -1.
         23    2    1    2    0    0  0.36756937921E+02 -0.12411798895E+03  0.38981894296E+03  0.42154162233E+03  0.94774381541E+02 0.  0.
        -11    1    1    2    0    0 -0.34196715964E+02 -0.63504490072E+02  0.58234169774E+02  0.92700885493E+02  0.00000000000E+00 0.  1.
         11    1    1    2    0    0 -0.25602219570E+01  0.18762247903E+03 -0.44805311274E+03  0.48575749218E+03  0.00000000000E+00 0. -1.
        -15    1    3    3    0    0 -0.16561884636E+02  0.73826395964E+01  0.36681343872E+02  0.40957027570E+02  0.17770000000E+01 0. -1.
         15    1    3    3    0    0  0.53318822556E+02 -0.13150062855E+03  0.35313759909E+03  0.38058459476E+03  0.17770000000E+01 0.  1.
</event>
<event>
 7    1  0.3970441E-006  0.4115857E+03  0.7546771E-02  0.9622775E-01
        -11   -1    0    0    0    0  0.00000000000E+00  0.00000000000E+00  0.50000000000E+03  0.50000000000E+03  0.00000000000E+00 0.  1.
         11   -1    0    0    0    0 -0.00000000000E+00 -0.00000000000E+00 -0.50000000000E+03  0.50000000000E+03  0.00000000000E+00 0. -1.
         23    2    1    2    0    0 -0.40455838930E+02 -0.64326117653E+02 -0.43781929269E+03  0.45360502660E+03  0.91089312129E+02 0.  0.
        -11    1    1    2    0    0 -0.87001685006E+02 -0.21396037953E+02  0.36604604474E+03  0.37685115166E+03  0.00000000000E+00 0.  1.
         11    1    1    2    0    0  0.12745752394E+03  0.85722155606E+02  0.71773247950E+02  0.16954382174E+03  0.00000000000E+00 0. -1.
        -15    1    3    3    0    0 -0.58819711140E+02 -0.20988184126E+02 -0.15898666029E+03  0.17082206582E+03  0.17770000000E+01 0.  1.
         15    1    3    3    0    0  0.18363872209E+02 -0.43337933527E+02 -0.27883263240E+03  0.28278296078E+03  0.17770000000E+01 0. -1.
</event>
<event>
 7    1  0.3970441E-006  0.5184279E+03  0.7546771E-02  0.9359494E-01
        -11   -1    0    0    0    0  0.00000000000E+00  0.00000000000E+00  0.50000000000E+03  0.50000000000E+03  0.00000000000E+00 0.  1.
         11   -1    0    0    0    0 -0.00000000000E+00 -0.00000000000E+00 -0.50000000000E+03  0.50000000000E+03  0.00000000000E+00 0. -1.
         23    2    1    2    0    0  0.24980125993E+01  0.25206511877E+01 -0.19034934695E+03  0.21075548273E+03  0.90401359869E+02 0.  0.
        -11    1    1    2    0    0 -0.10713873917E+03  0.11255447770E+03  0.45581187233E+03  0.48157209516E+03  0.00000000000E+00 0.  1.
         11    1    1    2    0    0  0.10464072657E+03 -0.11507512889E+03 -0.26546252537E+03  0.30767242211E+03  0.00000000000E+00 0. -1.
        -15    1    3    3    0    0 -0.25157001492E+02 -0.25486810676E+02 -0.33628254782E+02  0.49157598509E+02  0.17770000000E+01 0.  1.
         15    1    3    3    0    0  0.27655014091E+02  0.28007461864E+02 -0.15672109217E+03  0.16159788422E+03  0.17770000000E+01 0. -1.
</event>
<event>
 7    1  0.3970441E-006  0.3791101E+03  0.7546771E-02  0.9720221E-01
        -11   -1    0    0    0    0  0.00000000000E+00  0.00000000000E+00  0.50000000000E+03  0.50000000000E+03  0.00000000000E+00 0.  1.
         11   -1    0    0    0    0 -0.00000000000E+00 -0.00000000000E+00 -0.50000000000E+03  0.50000000000E+03  0.00000000000E+00 0. -1.
         23    2    1    2    0    0  0.13115962784E+03  0.71572830243E+02  0.12727066358E+03  0.21678779909E+03  0.92052213563E+02 0.  0.
        -11    1    1    2    0    0 -0.17199676897E+03  0.21451967132E+03  0.20491196435E+03  0.34291469939E+03  0.00000000000E+00 0.  1.
         11    1    1    2    0    0  0.40837141130E+02 -0.28609250157E+03 -0.33218262793E+03  0.44029750152E+03  0.00000000000E+00 0. -1.
        -15    1    3    3    0    0 -0.11323904560E+02  0.17326509011E+02  0.27932785088E+02  0.34811448415E+02  0.17770000000E+01 0. -1.
         15    1    3    3    0    0  0.14248353240E+03  0.54246321232E+02  0.99337878489E+02  0.18197635068E+03  0.17770000000E+01 0.  1.
</event>
<event>
 7    1  0.3970441E-006  0.5346993E+03  0.7546771E-02  0.9325348E-01
        -11   -1    0    0    0    0  0.00000000000E+00  0.00000000000E+00  0.50000000000E+03  0.50000000000E+03  0.00000000000E+00 0.  1.
         11   -1    0    0    0    0 -0.00000000000E+00 -0.00000000000E+00 -0.50000000000E+03  0.50000000000E+03  0.00000000000E+00 0. -1.
         23    2    1    2    0    0 -0.60347820155E+02 -0.11539609546E+03  0.14677006222E+03  0.21612035364E+03  0.90600429627E+02 0.  0.
        -11    1    1    2    0    0 -0.40523850941E+01  0.66761586506E+02  0.31147878762E+03  0.31857897984E+03  0.00000000000E+00 0.  1.
         11    1    1    2    0    0  0.64400205249E+02  0.48634508953E+02 -0.45824884983E+03  0.46530066653E+03  0.00000000000E+00 0. -1.
        -15    1    3    3    0    0 -0.82339302911E+02 -0.10555070115E+03  0.11716998212E+03  0.17791198317E+03  0.17770000000E+01 0.  1.
         15    1    3    3    0    0  0.21991482756E+02 -0.98453943100E+01  0.29600080098E+02  0.38208370467E+02  0.17770000000E+01 0. -1.
</event>
<event>
 7    1  0.3970441E-006  0.5168062E+03  0.7546771E-02  0.9362970E-01
        -11   -1    0    0    0    0  0.00000000000E+00  0.00000000000E+00  0.50000000000E+03  0.50000000000E+03  0.00000000000E+00 0.  1.
         11   -1    0    0    0    0 -0.00000000000E+00 -0.00000000000E+00 -0.50000000000E+03  0.50000000000E+03  0.00000000000E+00 0. -1.
         23    2    1    2    0    0  0.17863375704E+02  0.12319204956E+01 -0.23330481045E+03  0.25133752412E+03  0.91754011519E+02 0.  0.
        -11    1    1    2    0    0 -0.36404271986E+02 -0.13270345730E+03  0.46318543387E+03  0.48319377557E+03  0.00000000000E+00 0.  1.
         11    1    1    2    0    0  0.18540896282E+02  0.13147153681E+03 -0.22988062342E+03  0.26546870032E+03  0.00000000000E+00 0. -1.
        -15    1    3    3    0    0 -0.10981980268E+02 -0.40687893853E+02 -0.11717158190E+03  0.12453291104E+03  0.17770000000E+01 0.  1.
         15    1    3    3    0    0  0.28845355972E+02  0.41919814349E+02 -0.11613322855E+03  0.12680461308E+03  0.17770000000E+01 0. -1.
</event>
<event>
 7    1  0.3970441E-006  0.5285664E+03  0.7546771E-02  0.9338065E-01
        -11   -1    0    0    0    0  0.00000000000E+00  0.00000000000E+00  0.50000000000E+03  0.50000000000E+03  0.00000000000E+00 0. -1.
         11   -1    0    0    0    0 -0.00000000000E+00 -0.00000000000E+00 -0.50000000000E+03  0.50000000000E+03  0.00000000000E+00 0.  1.
         23    2    1    2    0    0 -0.15497623620E+02 -0.33963037005E+02 -0.27429896044E+03  0.29121747747E+03  0.90410371456E+02 0.  0.
        -11    1    1    2    0    0  0.27616458628E+02 -0.11908276599E+03  0.45530897861E+03  0.47143360078E+03  0.00000000000E+00 0. -1.
         11    1    1    2    0    0 -0.12118835008E+02  0.15304580299E+03 -0.18101001817E+03  0.23734892174E+03  0.00000000000E+00 0.  1.
        -15    1    3    3    0    0 -0.49935203389E+02 -0.31745789816E+02 -0.21045193538E+03  0.21861952004E+03  0.17770000000E+01 0.  1.
         15    1    3    3    0    0  0.34437579769E+02 -0.22172471883E+01 -0.63847025065E+02  0.72597957437E+02  0.17770000000E+01 0. -1.
</event>
<event>
 7    1  0.3970441E-006  0.4823813E+03  0.7546771E-02  0.9440119E-01
        -11   -1    0    0    0    0  0.00000000000E+00  0.00000000000E+00  0.50000000000E+03  0.50000000000E+03  0.00000000000E+00 0.  1.
         11   -1    0    0    0    0 -0.00000000000E+00 -0.00000000000E+00 -0.50000000000E+03  0.50000000000E+03  0.00000000000E+00 0. -1.
         23    2    1    2    0    0  0.20644235377E+03  0.17651827066E+03  0.39526669068E+03  0.48837798233E+03  0.92196266495E+02 0.  0.
        -11    1    1    2    0    0  0.66147864591E+01 -0.42646125628E+02 -0.11470263489E+00  0.43156234633E+02  0.00000000000E+00 0.  1.
         11    1    1    2    0    0 -0.21305714023E+03 -0.13387214503E+03 -0.39515198805E+03  0.46846578304E+03  0.00000000000E+00 0. -1.
        -15    1    3    3    0    0  0.16822868200E+03  0.12968722896E+03  0.23343609413E+03  0.31561881214E+03  0.17770000000E+01 0.  1.
         15    1    3    3    0    0  0.38213671772E+02  0.46831041694E+02  0.16183059655E+03  0.17275917019E+03  0.17770000000E+01 0. -1.
</event>
<event>
 7    1  0.3970441E-006  0.4436107E+03  0.7546771E-02  0.9535655E-01
        -11   -1    0    0    0    0  0.00000000000E+00  0.00000000000E+00  0.50000000000E+03  0.50000000000E+03  0.00000000000E+00 0.  1.
         11   -1    0    0    0    0 -0.00000000000E+00 -0.00000000000E+00 -0.50000000000E+03  0.50000000000E+03  0.00000000000E+00 0. -1.
         23    2    1    2    0    0  0.13853809289E+03 -0.88153758375E+02 -0.43852688013E+03  0.47756295608E+03  0.93790533238E+02 0.  0.
        -11    1    1    2    0    0 -0.31404457253E+02  0.89301275778E+02  0.39601423998E+03  0.40717101574E+03  0.00000000000E+00 0.  1.
         11    1    1    2    0    0 -0.10713363564E+03 -0.11475174023E+01  0.42512640153E+02  0.11526602819E+03  0.00000000000E+00 0. -1.
        -15    1    3    3    0    0  0.32965725947E+02  0.20752330458E+01 -0.19002120799E+03  0.19287888141E+03  0.17770000000E+01 0.  1.
         15    1    3    3    0    0  0.10557236694E+03 -0.90228991421E+02 -0.24850567214E+03  0.28468407467E+03  0.17770000000E+01 0. -1.
</event>
<event>
 7    1  0.3970441E-006  0.3953221E+03  0.7546771E-02  0.9670324E-01
        -11   -1    0    0    0    0  0.00000000000E+00  0.00000000000E+00  0.50000000000E+03  0.50000000000E+03  0.00000000000E+00 0. -1.
         11   -1    0    0    0    0 -0.00000000000E+00 -0.00000000000E+00 -0.50000000000E+03  0.50000000000E+03  0.00000000000E+00 0. -1.
         23    2    1    2    0    0  0.21824258234E+03  0.12000927063E+02 -0.36676098767E+03  0.43648642603E+03  0.90735500405E+02 0.  0.
        -11    1    1    2    0    0 -0.47535000250E+02 -0.10608069436E+03  0.34893049532E+03  0.36778414937E+03  0.00000000000E+00 0. -1.
         11    1    1    2    0    0 -0.17070758209E+03  0.94079767294E+02  0.17830492347E+02  0.19572942460E+03  0.00000000000E+00 0. -1.
        -15    1    3    3    0    0  0.38451073269E+02  0.82279605310E+01 -0.16353332805E+02  0.42623627167E+02  0.17770000000E+01 0.  1.
         15    1    3    3    0    0  0.17979150907E+03  0.37729665320E+01 -0.35040765486E+03  0.39386279886E+03  0.17770000000E+01 0. -1.
</event>
<event>
 7    1  0.3970441E-006  0.5086275E+03  0.7546771E-02  0.9380709E-01
        -11   -1    0    0    0    0  0.00000000000E+00  0.00000000000E+00  0.50000000000E+03  0.50000000000E+03  0.00000000000E+00 0. -1.
         11   -1    0    0    0    0 -0.00000000000E+00 -0.00000000000E+00 -0.50000000000E+03  0.50000000000E+03  0.00000000000E+00 0. -1.
         23    2    1    2    0    0 -0.74662206114E+02  0.72965550345E+02  0.25929513582E+03  0.29410376193E+03  0.91458399078E+02 0.  0.
        -11    1    1    2    0    0 -0.44311805588E+02  0.14232740782E+02  0.20941429525E+03  0.21452378442E+03  0.00000000000E+00 0. -1.
         11    1    1    2    0    0  0.11897401170E+03 -0.87198291127E+02 -0.46870943107E+03  0.49137245365E+03  0.00000000000E+00 0. -1.
        -15    1    3    3    0    0 -0.10344784282E+02  0.60557256095E+02  0.66852662654E+02  0.90810968834E+02  0.17770000000E+01 0.  1.
         15    1    3    3    0    0 -0.64317421832E+02  0.12408294250E+02  0.19244247317E+03  0.20329279309E+03  0.17770000000E+01 0. -1.
</event>
<event>
 7    1  0.3970441E-006  0.4526178E+03  0.7546771E-02  0.9512557E-01
        -11   -1    0    0    0    0  0.00000000000E+00  0.00000000000E+00  0.50000000000E+03  0.50000000000E+03  0.00000000000E+00 0.  1.
         11   -1    0    0    0    0 -0.00000000000E+00 -0.00000000000E+00 -0.50000000000E+03  0.50000000000E+03  0.00000000000E+00 0.  1.
         23    2    1    2    0    0 -0.41404713533E+02 -0.24124105674E+02 -0.41972637584E+03  0.43095004062E+03  0.85155059484E+02 0.  0.
        -11    1    1    2    0    0  0.79321944827E+02 -0.55496102429E+02  0.46144614323E+03  0.47149160270E+03  0.00000000000E+00 0.  1.
         11    1    1    2    0    0 -0.37917231294E+02  0.79620208102E+02 -0.41719767386E+02  0.97558356679E+02  0.00000000000E+00 0.  1.
        -15    1    3    3    0    0 -0.35543487971E+02 -0.51974511929E+02 -0.34991054378E+03  0.35553514005E+03  0.17770000000E+01 0.  1.
         15    1    3    3    0    0 -0.58612255620E+01  0.27850406255E+02 -0.69815832060E+02  0.75414900576E+02  0.17770000000E+01 0. -1.
</event>
<event>
 7    1  0.3970441E-006  0.5140665E+03  0.7546771E-02  0.9368873E-01
        -11   -1    0    0    0    0  0.00000000000E+00  0.00000000000E+00  0.50000000000E+03  0.50000000000E+03  0.00000000000E+00 0.  1.
         11   -1    0    0    0    0 -0.00000000000E+00 -0.00000000000E+00 -0.50000000000E+03  0.50000000000E+03  0.00000000000E+00 0.  1.
         23    2    1    2    0    0  0.64797807416E+02  0.22534564823E+01  0.18620469690E+03  0.21802541434E+03  0.93054060823E+02 0.  0.
        -11    1    1    2    0    0  0.19025885120E+02  0.70619619171E+02  0.28686447482E+03  0.29604111510E+03  0.00000000000E+00 0.  1.
         11    1    1    2    0    0 -0.83823692537E+02 -0.72873075653E+02 -0.47306917172E+03  0.48593347057E+03  0.00000000000E+00 0.  1.
        -15    1    3    3    0    0  0.17960660765E+02 -0.41643673011E+02  0.50530576119E+02  0.67921113720E+02  0.17770000000E+01 0.  1.
         15    1    3    3    0    0  0.46837146651E+02  0.43897129493E+02  0.13567412078E+03  0.15010430062E+03  0.17770000000E+01 0. -1.
</event>
<event>
 7    1  0.3970441E-006  0.5083719E+03  0.7546771E-02  0.9381269E-01
        -11   -1    0    0    0    0  0.00000000000E+00  0.00000000000E+00  0.50000000000E+03  0.50000000000E+03  0.00000000000E+00 0.  1.
         11   -1    0    0    0    0 -0.00000000000E+00 -0.00000000000E+00 -0.50000000000E+03  0.50000000000E+03  0.00000000000E+00 0. -1.
         23    2    1    2    0    0 -0.39771514516E+02  0.12694268070E+03  0.31003029725E+03  0.34970124075E+03  0.92064949990E+02 0.  0.
        -11    1    1    2    0    0 -0.29889494998E+02  0.16816421928E+02  0.15492003545E+03  0.15867070095E+03  0.00000000000E+00 0.  1.
         11    1    1    2    0    0  0.69661009514E+02 -0.14375910262E+03 -0.46495033270E+03  0.49162805830E+03  0.00000000000E+00 0. -1.
        -15    1    3    3    0    0 -0.58875474447E+02  0.60023313879E+02  0.22250145817E+03  0.23786377681E+03  0.17770000000E+01 0. -1.
         15    1    3    3    0    0  0.19103959932E+02  0.66919366818E+02  0.87528839080E+02  0.11183746394E+03  0.17770000000E+01 0.  1.
</event>
<event>
 7    1  0.3970441E-006  0.5371740E+03  0.7546771E-02  0.9320268E-01
        -11   -1    0    0    0    0  0.00000000000E+00  0.00000000000E+00  0.50000000000E+03  0.50000000000E+03  0.00000000000E+00 0. -1.
         11   -1    0    0    0    0 -0.00000000000E+00 -0.00000000000E+00 -0.50000000000E+03  0.50000000000E+03  0.00000000000E+00 0.  1.
         23    2    1    2    0    0  0.49634083973E+02 -0.68050642443E+02  0.12229688479E+03  0.17093009342E+03  0.84653036436E+02 0.  0.
        -11    1    1    2    0    0 -0.13129753890E+03  0.76700876223E+02  0.33318544201E+03  0.36624391722E+03  0.00000000000E+00 0. -1.
         11    1    1    2    0    0  0.81663454926E+02 -0.86502337801E+01 -0.45548232679E+03  0.46282598937E+03  0.00000000000E+00 0.  1.
        -15    1    3    3    0    0  0.24556201897E+02 -0.71333620143E+02  0.12438894165E+03  0.14548972111E+03  0.17770000000E+01 0.  1.
         15    1    3    3    0    0  0.25077882076E+02  0.32829776996E+01 -0.20920568689E+01  0.25440372303E+02  0.17770000000E+01 0. -1.
</event>
<event>
 7    1  0.3970441E-006  0.3990151E+03  0.7546771E-02  0.9659315E-01
        -11   -1    0    0    0    0  0.00000000000E+00  0.00000000000E+00  0.50000000000E+03  0.50000000000E+03  0.00000000000E+00 0.  1.
         11   -1    0    0    0    0 -0.00000000000E+00 -0.00000000000E+00 -0.50000000000E+03  0.50000000000E+03  0.00000000000E+00 0. -1.
         23    2    1    2    0    0 -0.43570277425E+02 -0.13625829301E+03  0.83806444670E+02  0.18492920411E+03  0.81918245088E+02 0.  0.
        -11    1    1    2    0    0 -0.16000448224E+03  0.50166282742E+02  0.31628402165E+03  0.35798557599E+03  0.00000000000E+00 0.  1.
         11    1    1    2    0    0  0.20357475967E+03  0.86092010265E+02 -0.40009046632E+03  0.45708521990E+03  0.00000000000E+00 0. -1.
        -15    1    3    3    0    0 -0.31240656807E+02 -0.63300669688E+02 -0.32198141505E+01  0.70685771927E+02  0.17770000000E+01 0. -1.
         15    1    3    3    0    0 -0.12329620618E+02 -0.72957623319E+02  0.87026258820E+02  0.11424343219E+03  0.17770000000E+01 0.  1.
</event>
<event>
 7    1  0.4522755E-006  0.4312805E+03  0.7546771E-02  0.9568240E-01
        -11   -1    0    0    0    0  0.00000000000E+00  0.00000000000E+00  0.50000000000E+03  0.50000000000E+03  0.00000000000E+00 0. -1.
         11   -1    0    0    0    0 -0.00000000000E+00 -0.00000000000E+00 -0.50000000000E+03  0.50000000000E+03  0.00000000000E+00 0. -1.
         23    2    1    2    0    0 -0.15133491868E+02 -0.40259830489E+02 -0.23308741081E+02  0.13605289753E+03  0.12695360172E+03 0.  0.
        -11    1    1    2    0    0 -0.68163355228E+02 -0.23750144095E+02  0.43403658648E+03  0.43999780766E+03  0.00000000000E+00 0. -1.
         11    1    1    2    0    0  0.83296847096E+02  0.64009974585E+02 -0.41072784540E+03  0.42394929481E+03  0.00000000000E+00 0. -1.
        -15    1    3    3    0    0  0.12129691648E+02  0.34357681834E+02  0.23913115188E+02  0.43618511294E+02  0.17770000000E+01 0.  1.
         15    1    3    3    0    0 -0.27263183516E+02 -0.74617512323E+02 -0.47221856269E+02  0.92434386238E+02  0.17770000000E+01 0. -1.
</event>
<event>
 7    1  0.3970441E-006  0.3958027E+03  0.7546771E-02  0.9668884E-01
        -11   -1    0    0    0    0  0.00000000000E+00  0.00000000000E+00  0.50000000000E+03  0.50000000000E+03  0.00000000000E+00 0.  1.
         11   -1    0    0    0    0 -0.00000000000E+00 -0.00000000000E+00 -0.50000000000E+03  0.50000000000E+03  0.00000000000E+00 0. -1.
         23    2    1    2    0    0  0.36204705273E+03 -0.14089777484E+03 -0.25059892647E+03  0.47128919450E+03  0.91561081048E+02 0.  0.
        -11    1    1    2    0    0 -0.18371545375E+03  0.64360178907E+02  0.27090260287E+03  0.33358929961E+03  0.00000000000E+00 0.  1.
         11    1    1    2    0    0 -0.17833159897E+03  0.76537595934E+02 -0.20303676398E+02  0.19512150589E+03  0.00000000000E+00 0. -1.
        -15    1    3    3    0    0  0.34639970272E+03 -0.11516787443E+03 -0.21144930141E+03  0.42186533176E+03  0.17770000000E+01 0. -1.
         15    1    3    3    0    0  0.15647350011E+02 -0.25729900408E+02 -0.39149625054E+02  0.49423862741E+02  0.17770000000E+01 0.  1.
</event>
<event>
 7    1  0.3970441E-006  0.4472177E+03  0.7546771E-02  0.9526335E-01
        -11   -1    0    0    0    0  0.00000000000E+00  0.00000000000E+00  0.50000000000E+03  0.50000000000E+03  0.00000000000E+00 0. -1.
         11   -1    0    0    0    0 -0.00000000000E+00 -0.00000000000E+00 -0.50000000000E+03  0.50000000000E+03  0.00000000000E+00 0. -1.
         23    2    1    2    0    0  0.26081819786E+02  0.66243052349E+02 -0.44171362141E+03  0.45641933904E+03  0.90217993774E+02 0.  0.
        -11    1    1    2    0    0  0.28697337534E+01 -0.16326348428E+03  0.40362793637E+03  0.43540637534E+03  0.00000000000E+00 0. -1.
         11    1    1    2    0    0 -0.28951553539E+02  0.97020431927E+02  0.38085685047E+02  0.10817428562E+03  0.00000000000E+00 0. -1.
        -15    1    3    3    0    0  0.36447928529E+02  0.76646301544E+02 -0.42769743959E+03  0.43604055384E+03  0.17770000000E+01 0. -1.
         15    1    3    3    0    0 -0.10366108744E+02 -0.10403249195E+02 -0.14016181826E+02  0.20378785201E+02  0.17770000000E+01 0.  1.
</event>
<event>
 7    1  0.3970441E-006  0.5156867E+03  0.7546771E-02  0.9365378E-01
        -11   -1    0    0    0    0  0.00000000000E+00  0.00000000000E+00  0.50000000000E+03  0.50000000000E+03  0.00000000000E+00 0.  1.
         11   -1    0    0    0    0 -0.00000000000E+00 -0.00000000000E+00 -0.50000000000E+03  0.50000000000E+03  0.00000000000E+00 0.  1.
         23    2    1    2    0    0  0.33582389328E+01 -0.21667353880E+03  0.31781230476E+03  0.39578285294E+03  0.93170303407E+02 0.  0.
        -11    1    1    2    0    0  0.33638599467E+02  0.26325970582E+01  0.11505844452E+03  0.11990384312E+03  0.00000000000E+00 0.  1.
         11    1    1    2    0    0 -0.36996838400E+02  0.21404094174E+03 -0.43287074927E+03  0.48431330394E+03  0.00000000000E+00 0.  1.
        -15    1    3    3    0    0  0.39805300136E+02 -0.99526590716E+02  0.19289768687E+03  0.22068683583E+03  0.17770000000E+01 0. -1.
         15    1    3    3    0    0 -0.36447061204E+02 -0.11714694809E+03  0.12491461789E+03  0.17509601711E+03  0.17770000000E+01 0.  1.
</event>
<event>
 7    1  0.3970441E-006  0.5162255E+03  0.7546771E-02  0.9364218E-01
        -11   -1    0    0    0    0  0.00000000000E+00  0.00000000000E+00  0.50000000000E+03  0.50000000000E+03  0.00000000000E+00 0. -1.
         11   -1    0    0    0    0 -0.00000000000E+00 -0.00000000000E+00 -0.50000000000E+03  0.50000000000E+03  0.00000000000E+00 0.  1.
         23    2    1    2    0    0 -0.65037548406E+02 -0.96841091550E+02 -0.32861771447E+03  0.36064330801E+03  0.92010399603E+02 0.  0.
        -11    1    1    2    0    0  0.18223578793E+00  0.12742544808E+03  0.46669095078E+03  0.48377445320E+03  0.00000000000E+00 0. -1.
         11    1    1    2    0    0  0.64855312618E+02 -0.30584356526E+02 -0.13807323631E+03  0.15558223878E+03  0.00000000000E+00 0.  1.
        -15    1    3    3    0    0 -0.55418298280E+02 -0.10276512397E+03 -0.32909538249E+03  0.34919734677E+03  0.17770000000E+01 0.  1.
         15    1    3    3    0    0 -0.96192501259E+01  0.59240324172E+01  0.47766801443E+00  0.11445961244E+02  0.17770000000E+01 0. -1.
</event>
<event>
 7    1  0.3970441E-006  0.5155923E+03  0.7546771E-02  0.9365581E-01
        -11   -1    0    0    0    0  0.00000000000E+00  0.00000000000E+00  0.50000000000E+03  0.50000000000E+03  0.00000000000E+00 0.  1.
         11   -1    0    0    0    0 -0.00000000000E+00 -0.00000000000E+00 -0.50000000000E+03  0.50000000000E+03  0.00000000000E+00 0. -1.
         23    2    1    2    0    0 -0.24471724601E+02 -0.11607691656E+02 -0.29193179218E+03  0.31152534237E+03  0.10531032165E+03 0.  0.
        -11    1    1    2    0    0  0.70311202740E+02 -0.67052962850E+02  0.47456409251E+03  0.48440772388E+03  0.00000000000E+00 0.  1.
         11    1    1    2    0    0 -0.45839478138E+02  0.78660654507E+02 -0.18263230033E+03  0.20406693374E+03  0.00000000000E+00 0. -1.
        -15    1    3    3    0    0  0.13484936910E+02  0.41256159720E+02 -0.10782966260E+03  0.11625105636E+03  0.17770000000E+01 0.  1.
         15    1    3    3    0    0 -0.37956661511E+02 -0.52863851377E+02 -0.18410212958E+03  0.19527428602E+03  0.17770000000E+01 0. -1.
</event>
<event>
 7    1  0.3970441E-006  0.5253392E+03  0.7546771E-02  0.9344831E-01
        -11   -1    0    0    0    0  0.00000000000E+00  0.00000000000E+00  0.50000000000E+03  0.50000000000E+03  0.00000000000E+00 0.  1.
         11   -1    0    0    0    0 -0.00000000000E+00 -0.00000000000E+00 -0.50000000000E+03  0.50000000000E+03  0.00000000000E+00 0. -1.
         23    2    1    2    0    0 -0.43329325024E+02 -0.15103379523E+03  0.10683928879E+03  0.21169983041E+03  0.93346381044E+02 0.  0.
        -11    1    1    2    0    0  0.13383399871E+03 -0.19028738448E+03  0.21035406342E+03  0.31363937875E+03  0.00000000000E+00 0.  1.
         11    1    1    2    0    0 -0.90504673683E+02  0.34132117971E+03 -0.31719335222E+03  0.47466079085E+03  0.00000000000E+00 0. -1.
        -15    1    3    3    0    0 -0.56328656458E+01 -0.97537793936E+01  0.55587672768E+02  0.56745153807E+02  0.17770000000E+01 0.  1.
         15    1    3    3    0    0 -0.37696459378E+02 -0.14128001584E+03  0.51251616027E+02  0.15495467660E+03  0.17770000000E+01 0. -1.
</event>
<event>
 7    1  0.3970441E-006  0.3309509E+03  0.7546771E-02  0.9885780E-01
        -11   -1    0    0    0    0  0.00000000000E+00  0.00000000000E+00  0.50000000000E+03  0.50000000000E+03  0.00000000000E+00 0. -1.
         11   -1    0    0    0    0 -0.00000000000E+00 -0.00000000000E+00 -0.50000000000E+03  0.50000000000E+03  0.00000000000E+00 0. -1.
         23    2    1    2    0    0 -0.58177725884E+02  0.12327549666E+03 -0.23327580309E+03  0.28507828930E+03  0.90942481039E+02 0.  0.
        -11    1    1    2    0    0 -0.11367398299E+03  0.10700759683E+03  0.36637768645E+03  0.39825244421E+03  0.00000000000E+00 0. -1.
         11    1    1    2    0    0  0.17185170888E+03 -0.23028309349E+03 -0.13310188336E+03  0.31666926650E+03  0.00000000000E+00 0. -1.
        -15    1    3    3    0    0 -0.13994040802E+02  0.11403801502E+03 -0.19268930673E+03  0.22434979096E+03  0.17770000000E+01 0. -1.
         15    1    3    3    0    0 -0.44183685082E+02  0.92374816347E+01 -0.40586496358E+02  0.60728498334E+02  0.17770000000E+01 0.  1.
</event>
<event>
 7    1  0.3970441E-006  0.3837123E+03  0.7546771E-02  0.9705789E-01
        -11   -1    0    0    0    0  0.00000000000E+00  0.00000000000E+00  0.50000000000E+03  0.50000000000E+03  0.00000000000E+00 0.  1.
         11   -1    0    0    0    0 -0.00000000000E+00 -0.00000000000E+00 -0.50000000000E+03  0.50000000000E+03  0.00000000000E+00 0. -1.
         23    2    1    2    0    0  0.57624694549E+02  0.94975778875E+02 -0.15094853618E+03  0.21002084172E+03  0.94774940707E+02 0.  0.
        -11    1    1    2    0    0 -0.79464737268E+02  0.61937321853E+02  0.44483982680E+03  0.45610672853E+03  0.00000000000E+00 0.  1.
         11    1    1    2    0    0  0.21840042719E+02 -0.15691310073E+03 -0.29389129062E+03  0.33387242975E+03  0.00000000000E+00 0. -1.
        -15    1    3    3    0    0 -0.90352240781E+01  0.38726019982E+02 -0.10310782509E+03  0.11052475389E+03  0.17770000000E+01 0.  1.
         15    1    3    3    0    0  0.66659918627E+02  0.56249758894E+02 -0.47840711086E+02  0.99496087828E+02  0.17770000000E+01 0. -1.
</event>
<event>
 7    1  0.3970441E-006  0.5280415E+03  0.7546771E-02  0.9339162E-01
        -11   -1    0    0    0    0  0.00000000000E+00  0.00000000000E+00  0.50000000000E+03  0.50000000000E+03  0.00000000000E+00 0. -1.
         11   -1    0    0    0    0 -0.00000000000E+00 -0.00000000000E+00 -0.50000000000E+03  0.50000000000E+03  0.00000000000E+00 0. -1.
         23    2    1    2    0    0  0.11747434060E+03 -0.34931947423E+01 -0.15023581631E+03  0.20873695207E+03  0.84781433998E+02 0.  0.
        -11    1    1    2    0    0 -0.79458922764E+02  0.74463800040E+02  0.45922351909E+03  0.47195849225E+03  0.00000000000E+00 0. -1.
         11    1    1    2    0    0 -0.38015417832E+02 -0.70970605298E+02 -0.30898770278E+03  0.31930455568E+03  0.00000000000E+00 0. -1.
        -15    1    3    3    0    0  0.26993816378E+02  0.33711910811E+02 -0.25437970982E+02  0.50153834847E+02  0.17770000000E+01 0.  1.
         15    1    3    3    0    0  0.90480524217E+02 -0.37205105553E+02 -0.12479784533E+03  0.15858311723E+03  0.17770000000E+01 0. -1.
</event>
<event>
 7    1  0.3970441E-006  0.5159794E+03  0.7546771E-02  0.9364748E-01
        -11   -1    0    0    0    0  0.00000000000E+00  0.00000000000E+00  0.50000000000E+03  0.50000000000E+03  0.00000000000E+00 0. -1.
         11   -1    0    0    0    0 -0.00000000000E+00 -0.00000000000E+00 -0.50000000000E+03  0.50000000000E+03  0.00000000000E+00 0.  1.
         23    2    1    2    0    0  0.11533356862E+03  0.13428236637E+02 -0.26000050964E+03  0.30018259434E+03  0.95011448468E+02 0.  0.
        -11    1    1    2    0    0 -0.96493396534E+02 -0.52536512810E+02  0.47138609455E+03  0.48402056866E+03  0.00000000000E+00 0. -1.
         11    1    1    2    0    0 -0.18840172087E+02  0.39108276172E+02 -0.21138558491E+03  0.21579683700E+03  0.00000000000E+00 0.  1.
        -15    1    3    3    0    0  0.55116978383E+02  0.30035072613E+02 -0.21279550516E+03  0.22186723877E+03  0.17770000000E+01 0.  1.
         15    1    3    3    0    0  0.60216590239E+02 -0.16606835976E+02 -0.47205004481E+02  0.78315355571E+02  0.17770000000E+01 0. -1.
</event>
<event>
 7    1  0.3970441E-006  0.4601943E+03  0.7546771E-02  0.9493566E-01
        -11   -1    0    0    0    0  0.00000000000E+00  0.00000000000E+00  0.50000000000E+03  0.50000000000E+03  0.00000000000E+00 0.  1.
         11   -1    0    0    0    0 -0.00000000000E+00 -0.00000000000E+00 -0.50000000000E+03  0.50000000000E+03  0.00000000000E+00 0. -1.
         23    2    1    2    0    0  0.60414276558E+02  0.59147141889E+02 -0.40858654565E+03  0.42701991733E+03  0.90855793999E+02 0.  0.
        -11    1    1    2    0    0 -0.32168389360E+02 -0.10110362682E+03  0.47657465584E+03  0.48824189826E+03  0.00000000000E+00 0.  1.
         11    1    1    2    0    0 -0.28245887198E+02  0.41956484929E+02 -0.67988110184E+02  0.84738184413E+02  0.00000000000E+00 0. -1.
        -15    1    3    3    0    0 -0.24131406590E+01  0.41161326326E+02 -0.63069294729E+02  0.75372221006E+02  0.17770000000E+01 0.  1.
         15    1    3    3    0    0  0.62827417217E+02  0.17985815563E+02 -0.34551725092E+03  0.35164769632E+03  0.17770000000E+01 0. -1.
</event>
<event>
 7    1  0.3970441E-006  0.5329226E+03  0.7546771E-02  0.9329014E-01
        -11   -1    0    0    0    0  0.00000000000E+00  0.00000000000E+00  0.50000000000E+03  0.50000000000E+03  0.00000000000E+00 0. -1.
         11   -1    0    0    0    0 -0.00000000000E+00 -0.00000000000E+00 -0.50000000000E+03  0.50000000000E+03  0.00000000000E+00 0.  1.
         23    2    1    2    0    0 -0.67286278647E+02 -0.17626833318E+02 -0.21524128946E+03  0.24404713548E+03  0.91608095180E+02 0.  0.
        -11    1    1    2    0    0 -0.89091650145E+02  0.56283054203E+02  0.45503427424E+03  0.46707739727E+03  0.00000000000E+00 0. -1.
         11    1    1    2    0    0  0.15637792879E+03 -0.38656220885E+02 -0.23979298478E+03  0.28887546724E+03  0.00000000000E+00 0.  1.
        -15    1    3    3    0    0 -0.13156611297E+02 -0.49132964641E+02 -0.77404662206E+02  0.92637919318E+02  0.17770000000E+01 0.  1.
         15    1    3    3    0    0 -0.54129667350E+02  0.31506131323E+02 -0.13783662725E+03  0.15140921617E+03  0.17770000000E+01 0. -1.
</event>
<event>
 7    1  0.3970441E-006  0.5210836E+03  0.7546771E-02  0.9353831E-01
        -11   -1    0    0    0    0  0.00000000000E+00  0.00000000000E+00  0.50000000000E+03  0.50000000000E+03  0.00000000000E+00 0.  1.
         11   -1    0    0    0    0 -0.00000000000E+00 -0.00000000000E+00 -0.50000000000E+03  0.50000000000E+03  0.00000000000E+00 0.  1.
         23    2    1    2    0    0  0.10034403016E+03  0.58692943109E+02  0.40230230304E+02  0.15031805115E+03  0.86390156338E+02 0.  0.
        -11    1    1    2    0    0  0.13889518816E+03  0.27589808893E+03  0.20507433601E+03  0.37076557561E+03  0.00000000000E+00 0.  1.
         11    1    1    2    0    0 -0.23923921832E+03 -0.33459103204E+03 -0.24530456631E+03  0.47891637324E+03  0.00000000000E+00 0.  1.
        -15    1    3    3    0    0  0.76554365187E+02  0.32650047621E+02 -0.15171664105E+02  0.84616390608E+02  0.17770000000E+01 0.  1.
         15    1    3    3    0    0  0.23789664969E+02  0.26042895488E+02  0.55401894409E+02  0.65701660541E+02  0.17770000000E+01 0. -1.
</event>
<event>
 7    1  0.3970441E-006  0.5128631E+03  0.7546771E-02  0.9371479E-01
        -11   -1    0    0    0    0  0.00000000000E+00  0.00000000000E+00  0.50000000000E+03  0.50000000000E+03  0.00000000000E+00 0. -1.
         11   -1    0    0    0    0 -0.00000000000E+00 -0.00000000000E+00 -0.50000000000E+03  0.50000000000E+03  0.00000000000E+00 0. -1.
         23    2    1    2    0    0 -0.24397024646E+02  0.54173002425E+02 -0.21319737931E+03  0.24289362733E+03  0.10007128786E+03 0.  0.
        -11    1    1    2    0    0  0.10378557181E+03 -0.70373837178E+02  0.47072118415E+03  0.48713689563E+03  0.00000000000E+00 0. -1.
         11    1    1    2    0    0 -0.79388547165E+02  0.16200834754E+02 -0.25752380485E+03  0.26996947703E+03  0.00000000000E+00 0. -1.
        -15    1    3    3    0    0  0.38707679750E+02  0.28853580836E+02 -0.85032959477E+02  0.97798647869E+02  0.17770000000E+01 0. -1.
         15    1    3    3    0    0 -0.63104704396E+02  0.25319421589E+02 -0.12816441983E+03  0.14509497947E+03  0.17770000000E+01 0.  1.
</event>
<event>
 7    1  0.3970441E-006  0.3761389E+03  0.7546771E-02  0.9729655E-01
        -11   -1    0    0    0    0  0.00000000000E+00  0.00000000000E+00  0.50000000000E+03  0.50000000000E+03  0.00000000000E+00 0. -1.
         11   -1    0    0    0    0 -0.00000000000E+00 -0.00000000000E+00 -0.50000000000E+03  0.50000000000E+03  0.00000000000E+00 0.  1.
         23    2    1    2    0    0  0.14552882650E+03 -0.62520518804E+02 -0.12408184226E+03  0.22127946008E+03  0.92091483105E+02 0.  0.
        -11    1    1    2    0    0 -0.35495002503E+02  0.12630174841E+03  0.42885566545E+03  0.44847431213E+03  0.00000000000E+00 0. -1.
         11    1    1    2    0    0 -0.11003382399E+03 -0.63781229603E+02 -0.30477382319E+03  0.33024622780E+03  0.00000000000E+00 0.  1.
        -15    1    3    3    0    0  0.33594650226E+02 -0.46233124896E+02 -0.55799467144E+01  0.57449072193E+02  0.17770000000E+01 0. -1.
         15    1    3    3    0    0  0.11193417627E+03 -0.16287393908E+02 -0.11850189554E+03  0.16383038788E+03  0.17770000000E+01 0.  1.
</event>
<event>
 7    1  0.3970441E-006  0.4049992E+03  0.7546771E-02  0.9641744E-01
        -11   -1    0    0    0    0  0.00000000000E+00  0.00000000000E+00  0.50000000000E+03  0.50000000000E+03  0.00000000000E+00 0.  1.
         11   -1    0    0    0    0 -0.00000000000E+00 -0.00000000000E+00 -0.50000000000E+03  0.50000000000E+03  0.00000000000E+00 0. -1.
         23    2    1    2    0    0 -0.22901830393E+03 -0.14940122192E+03 -0.33002082991E+03  0.43814910966E+03  0.91053750474E+02 0.  0.
        -11    1    1    2    0    0  0.74419672027E+02  0.65007551075E+02  0.36853767353E+03  0.38155508920E+03  0.00000000000E+00 0.  1.
         11    1    1    2    0    0  0.15459863190E+03  0.84393670849E+02 -0.38516843628E+02  0.18029580114E+03  0.00000000000E+00 0. -1.
        -15    1    3    3    0    0 -0.54791763383E+01 -0.13598217717E+02  0.26091250939E+01  0.14996604989E+02  0.17770000000E+01 0.  1.
         15    1    3    3    0    0 -0.22353912759E+03 -0.13580300421E+03 -0.33262995500E+03  0.42315250467E+03  0.17770000000E+01 0. -1.
</event>
<event>
 7    1  0.3970441E-006  0.5279396E+03  0.7546771E-02  0.9339375E-01
        -11   -1    0    0    0    0  0.00000000000E+00  0.00000000000E+00  0.50000000000E+03  0.50000000000E+03  0.00000000000E+00 0. -1.
         11   -1    0    0    0    0 -0.00000000000E+00 -0.00000000000E+00 -0.50000000000E+03  0.50000000000E+03  0.00000000000E+00 0.  1.
         23    2    1    2    0    0  0.67332358490E+02  0.24897545935E+02 -0.24042811574E+03  0.26668591074E+03  0.90344683603E+02 0.  0.
        -11    1    1    2    0    0  0.45969327446E+02 -0.12805568615E+03  0.45202827610E+03  0.47206037772E+03  0.00000000000E+00 0. -1.
         11    1    1    2    0    0 -0.11330168594E+03  0.10315814021E+03 -0.21160016036E+03  0.26125371154E+03  0.00000000000E+00 0.  1.
        -15    1    3    3    0    0  0.59989246611E+02 -0.22963689052E+02 -0.10799002254E+03  0.12566241850E+03  0.17770000000E+01 0. -1.
         15    1    3    3    0    0  0.73431118784E+01  0.47861234987E+02 -0.13243809320E+03  0.14102349225E+03  0.17770000000E+01 0.  1.
</event>
<event>
 7    1  0.3970441E-006  0.3719868E+03  0.7546771E-02  0.9742996E-01
        -11   -1    0    0    0    0  0.00000000000E+00  0.00000000000E+00  0.50000000000E+03  0.50000000000E+03  0.00000000000E+00 0. -1.
         11   -1    0    0    0    0 -0.00000000000E+00 -0.00000000000E+00 -0.50000000000E+03  0.50000000000E+03  0.00000000000E+00 0.  1.
         23    2    1    2    0    0 -0.11393471581E+03 -0.10968597837E+03 -0.28081317711E+03  0.33415082522E+03  0.88253046631E+02 0.  0.
        -11    1    1    2    0    0 -0.76936509103E+02  0.12014864028E+03  0.41067606928E+03  0.43475252279E+03  0.00000000000E+00 0. -1.
         11    1    1    2    0    0  0.19087122492E+03 -0.10462661908E+02 -0.12986289217E+03  0.23109665198E+03  0.00000000000E+00 0.  1.
        -15    1    3    3    0    0 -0.45502013089E+02 -0.28512079687E+02 -0.17956911587E+03  0.18743424710E+03  0.17770000000E+01 0.  1.
         15    1    3    3    0    0 -0.68432702726E+02 -0.81173898687E+02 -0.10124406124E+03  0.14671657812E+03  0.17770000000E+01 0. -1.
</event>
<event>
 7    1  0.3970441E-006  0.4613571E+03  0.7546771E-02  0.9490686E-01
        -11   -1    0    0    0    0  0.00000000000E+00  0.00000000000E+00  0.50000000000E+03  0.50000000000E+03  0.00000000000E+00 0.  1.
         11   -1    0    0    0    0 -0.00000000000E+00 -0.00000000000E+00 -0.50000000000E+03  0.50000000000E+03  0.00000000000E+00 0. -1.
         23    2    1    2    0    0 -0.94485292300E+01 -0.42832153796E+01 -0.44261123370E+03  0.45242446222E+03  0.93142735503E+02 0.  0.
        -11    1    1    2    0    0  0.91419385214E+02  0.14982490638E+01  0.45546919564E+03  0.46455563382E+03  0.00000000000E+00 0.  1.
         11    1    1    2    0    0 -0.81970855984E+02  0.27849663158E+01 -0.12857961932E+02  0.83019903957E+02  0.00000000000E+00 0. -1.
        -15    1    3    3    0    0 -0.49959192302E+02  0.53612991781E+01 -0.19776890095E+03  0.20405969797E+03  0.17770000000E+01 0. -1.
         15    1    3    3    0    0  0.40510663072E+02 -0.96445145577E+01 -0.24484233275E+03  0.24836476425E+03  0.17770000000E+01 0.  1.
</event>
<event>
 7    1  0.3970441E-006  0.3447320E+03  0.7546771E-02  0.9835462E-01
        -11   -1    0    0    0    0  0.00000000000E+00  0.00000000000E+00  0.50000000000E+03  0.50000000000E+03  0.00000000000E+00 0.  1.
         11   -1    0    0    0    0 -0.00000000000E+00 -0.00000000000E+00 -0.50000000000E+03  0.50000000000E+03  0.00000000000E+00 0. -1.
         23    2    1    2    0    0  0.90434106302E+02 -0.15443084141E+03 -0.20163110328E+03  0.28466785423E+03  0.91397336181E+02 0.  0.
        -11    1    1    2    0    0 -0.19391866902E+03  0.20385664892E+01  0.40005666362E+03  0.44458288322E+03  0.00000000000E+00 0.  1.
         11    1    1    2    0    0  0.10348456271E+03  0.15239227492E+03 -0.19842556034E+03  0.27074926255E+03  0.00000000000E+00 0. -1.
        -15    1    3    3    0    0  0.45911643905E+02 -0.12978515598E+03 -0.18598351585E+03  0.23139812371E+03  0.17770000000E+01 0. -1.
         15    1    3    3    0    0  0.44522462397E+02 -0.24645685430E+02 -0.15647587424E+02  0.53269730517E+02  0.17770000000E+01 0.  1.
</event>
<event>
 7    1  0.3970441E-006  0.5137595E+03  0.7546771E-02  0.9369537E-01
        -11   -1    0    0    0    0  0.00000000000E+00  0.00000000000E+00  0.50000000000E+03  0.50000000000E+03  0.00000000000E+00 0.  1.
         11   -1    0    0    0    0 -0.00000000000E+00 -0.00000000000E+00 -0.50000000000E+03  0.50000000000E+03  0.00000000000E+00 0.  1.
         23    2    1    2    0    0 -0.28155491858E+02 -0.88184928049E+02 -0.36498591360E+03  0.38836922661E+03  0.95113751871E+02 0.  0.
        -11    1    1    2    0    0 -0.31632764806E+02  0.12545840970E+03  0.46871037360E+03  0.48624053584E+03  0.00000000000E+00 0.  1.
         11    1    1    2    0    0  0.59788256665E+02 -0.37273481653E+02 -0.10372446000E+03  0.12539023755E+03  0.00000000000E+00 0.  1.
        -15    1    3    3    0    0  0.14776078638E+02  0.11252324112E+02 -0.22878342983E+02  0.29521578624E+02  0.17770000000E+01 0. -1.
         15    1    3    3    0    0 -0.42931570496E+02 -0.99437252161E+02 -0.34210757062E+03  0.35884764798E+03  0.17770000000E+01 0.  1.
</event>
<event>
 7    1  0.3970441E-006  0.3198096E+03  0.7546771E-02  0.9928422E-01
        -11   -1    0    0    0    0  0.00000000000E+00  0.00000000000E+00  0.50000000000E+03  0.50000000000E+03  0.00000000000E+00 0.  1.
         11   -1    0    0    0    0 -0.00000000000E+00 -0.00000000000E+00 -0.50000000000E+03  0.50000000000E+03  0.00000000000E+00 0. -1.
         23    2    1    2    0    0 -0.23686229017E+03  0.20503433715E+03 -0.84969324475E+02  0.33786159606E+03  0.93743522834E+02 0.  0.
        -11    1    1    2    0    0  0.14751498497E+03 -0.38740508566E+02  0.32367465355E+03  0.35780829944E+03  0.00000000000E+00 0.  1.
         11    1    1    2    0    0  0.89347305199E+02 -0.16629382859E+03 -0.23870532908E+03  0.30433010450E+03  0.00000000000E+00 0. -1.
        -15    1    3    3    0    0 -0.13029495878E+03  0.51984724457E+02 -0.30574751507E+02  0.14358677174E+03  0.17770000000E+01 0.  1.
         15    1    3    3    0    0 -0.10656733139E+03  0.15304961270E+03 -0.54394572968E+02  0.19427482432E+03  0.17770000000E+01 0. -1.
</event>
<event>
 7    1  0.3970441E-006  0.3194059E+03  0.7546771E-02  0.9930002E-01
        -11   -1    0    0    0    0  0.00000000000E+00  0.00000000000E+00  0.50000000000E+03  0.50000000000E+03  0.00000000000E+00 0.  1.
         11   -1    0    0    0    0 -0.00000000000E+00 -0.00000000000E+00 -0.50000000000E+03  0.50000000000E+03  0.00000000000E+00 0. -1.
         23    2    1    2    0    0 -0.21569321257E+03  0.43892255827E+02 -0.24920283048E+03  0.34402196159E+03  0.88311761770E+02 0.  0.
        -11    1    1    2    0    0  0.35841503510E+02  0.19770845249E+03  0.28918952863E+03  0.35214177405E+03  0.00000000000E+00 0.  1.
         11    1    1    2    0    0  0.17985170906E+03 -0.24160070832E+03 -0.39986698147E+02  0.30383626436E+03  0.00000000000E+00 0. -1.
        -15    1    3    3    0    0 -0.12953280916E+03  0.10822641537E+02 -0.20234232191E+03  0.24050249725E+03  0.17770000000E+01 0. -1.
         15    1    3    3    0    0 -0.86160403409E+02  0.33069614290E+02 -0.46860508575E+02  0.10351946434E+03  0.17770000000E+01 0.  1.
</event>
<event>
 7    1  0.3970441E-006  0.5093203E+03  0.7546771E-02  0.9379193E-01
        -11   -1    0    0    0    0  0.00000000000E+00  0.00000000000E+00  0.50000000000E+03  0.50000000000E+03  0.00000000000E+00 0.  1.
         11   -1    0    0    0    0 -0.00000000000E+00 -0.00000000000E+00 -0.50000000000E+03  0.50000000000E+03  0.00000000000E+00 0.  1.
         23    2    1    2    0    0 -0.99883495523E+01  0.50128421885E+02 -0.39041036818E+03  0.40376944022E+03  0.89425273106E+02 0.  0.
        -11    1    1    2    0    0 -0.30168894228E+02 -0.81041386004E+02  0.48299965360E+03  0.49067966516E+03  0.00000000000E+00 0.  1.
         11    1    1    2    0    0  0.40157243780E+02  0.30912964118E+02 -0.92589285426E+02  0.10555089462E+03  0.00000000000E+00 0.  1.
        -15    1    3    3    0    0  0.36079032794E+02  0.40757749572E+01 -0.10857061998E+03  0.11449474137E+03  0.17770000000E+01 0. -1.
         15    1    3    3    0    0 -0.46067382346E+02  0.46052646928E+02 -0.28183974820E+03  0.28927469885E+03  0.17770000000E+01 0.  1.
</event>
<event>
 7    1  0.3970441E-006  0.3405349E+03  0.7546771E-02  0.9850516E-01
        -11   -1    0    0    0    0  0.00000000000E+00  0.00000000000E+00  0.50000000000E+03  0.50000000000E+03  0.00000000000E+00 0. -1.
         11   -1    0    0    0    0 -0.00000000000E+00 -0.00000000000E+00 -0.50000000000E+03  0.50000000000E+03  0.00000000000E+00 0.  1.
         23    2    1    2    0    0  0.55383657967E+02 -0.14023560056E+03 -0.20774304962E+03  0.27216308240E+03  0.90455489181E+02 0.  0.
        -11    1    1    2    0    0 -0.10603556733E+03 -0.10078536925E+03  0.39320067845E+03  0.41953308061E+03  0.00000000000E+00 0. -1.
         11    1    1    2    0    0  0.50651909361E+02  0.24102096981E+03 -0.18545762883E+03  0.30830383698E+03  0.00000000000E+00 0.  1.
        -15    1    3    3    0    0 -0.27649915312E+01 -0.91630815675E+02 -0.71588007718E+02  0.11632648941E+03  0.17770000000E+01 0. -1.
         15    1    3    3    0    0  0.58148649498E+02 -0.48604784883E+02 -0.13615504191E+03  0.15583659300E+03  0.17770000000E+01 0.  1.
</event>
<event>
 7    1  0.3970441E-006  0.5344081E+03  0.7546771E-02  0.9325948E-01
        -11   -1    0    0    0    0  0.00000000000E+00  0.00000000000E+00  0.50000000000E+03  0.50000000000E+03  0.00000000000E+00 0. -1.
         11   -1    0    0    0    0 -0.00000000000E+00 -0.00000000000E+00 -0.50000000000E+03  0.50000000000E+03  0.00000000000E+00 0. -1.
         23    2    1    2    0    0  0.56573249345E+02  0.18907558380E+02 -0.18127451403E+03  0.21148515748E+03  0.91145455688E+02 0.  0.
        -11    1    1    2    0    0  0.12145201237E+03  0.73287913568E+01  0.44941237215E+03  0.46559186283E+03  0.00000000000E+00 0. -1.
         11    1    1    2    0    0 -0.17802526171E+03 -0.26236349737E+02 -0.26813785812E+03  0.32292297969E+03  0.00000000000E+00 0. -1.
        -15    1    3    3    0    0  0.74873605554E+02  0.12556673409E+02 -0.17545006858E+03  0.19117952597E+03  0.17770000000E+01 0. -1.
         15    1    3    3    0    0 -0.18300356209E+02  0.63508849704E+01 -0.58244454482E+01  0.20305631511E+02  0.17770000000E+01 0.  1.
</event>
<event>
 7    1  0.3970441E-006  0.5151123E+03  0.7546771E-02  0.9366616E-01
        -11   -1    0    0    0    0  0.00000000000E+00  0.00000000000E+00  0.50000000000E+03  0.50000000000E+03  0.00000000000E+00 0. -1.
         11   -1    0    0    0    0 -0.00000000000E+00 -0.00000000000E+00 -0.50000000000E+03  0.50000000000E+03  0.00000000000E+00 0.  1.
         23    2    1    2    0    0  0.13552230498E+03  0.82747672269E+02  0.29879026909E+03  0.35007373868E+03  0.89791565294E+02 0.  0.
        -11    1    1    2    0    0  0.10326198209E+03 -0.42997665035E+02  0.12135028139E+03  0.16503856197E+03  0.00000000000E+00 0. -1.
         11    1    1    2    0    0 -0.23878428707E+03 -0.39750007235E+02 -0.42014055048E+03  0.48488769935E+03  0.00000000000E+00 0.  1.
        -15    1    3    3    0    0 -0.92471769900E+01 -0.54178490448E+01  0.33805856826E+02  0.35508549045E+02  0.17770000000E+01 0.  1.
         15    1    3    3    0    0  0.14476948197E+03  0.88165521314E+02  0.26498441227E+03  0.31456518964E+03  0.17770000000E+01 0. -1.
</event>
<event>
 7    1  0.3970441E-006  0.4599831E+03  0.7546771E-02  0.9494090E-01
        -11   -1    0    0    0    0  0.00000000000E+00  0.00000000000E+00  0.50000000000E+03  0.50000000000E+03  0.00000000000E+00 0. -1.
         11   -1    0    0    0    0 -0.00000000000E+00 -0.00000000000E+00 -0.50000000000E+03  0.50000000000E+03  0.00000000000E+00 0.  1.
         23    2    1    2    0    0 -0.19858493110E+03  0.19771925519E+03  0.35017540990E+03  0.45906309284E+03  0.97914384955E+02 0.  0.
        -11    1    1    2    0    0  0.36935523040E+02 -0.59021314487E+02  0.51283249556E+02  0.86473811706E+02  0.00000000000E+00 0. -1.
         11    1    1    2    0    0  0.16164940806E+03 -0.13869794070E+03 -0.40145865945E+03  0.45446309545E+03  0.00000000000E+00 0.  1.
        -15    1    3    3    0    0 -0.18632972451E+03  0.12852030664E+03  0.26020542060E+03  0.34488585661E+03  0.17770000000E+01 0. -1.
         15    1    3    3    0    0 -0.12255206587E+02  0.69198948554E+02  0.89969989298E+02  0.11417723623E+03  0.17770000000E+01 0.  1.
</event>
<event>
 7    1  0.3970441E-006  0.5168570E+03  0.7546771E-02  0.9362861E-01
        -11   -1    0    0    0    0  0.00000000000E+00  0.00000000000E+00  0.50000000000E+03  0.50000000000E+03  0.00000000000E+00 0.  1.
         11   -1    0    0    0    0 -0.00000000000E+00 -0.00000000000E+00 -0.50000000000E+03  0.50000000000E+03  0.00000000000E+00 0. -1.
         23    2    1    2    0    0 -0.51062330781E+01 -0.22356618419E+02 -0.25620765762E+03  0.27309497475E+03  0.91720278077E+02 0.  0.
        -11    1    1    2    0    0 -0.38594644460E+02 -0.73756340833E+02  0.47591762697E+03  0.48314297269E+03  0.00000000000E+00 0.  1.
         11    1    1    2    0    0  0.43700877538E+02  0.96112959252E+02 -0.21970996936E+03  0.24376205256E+03  0.00000000000E+00 0. -1.
        -15    1    3    3    0    0  0.30843675114E+02  0.17745511628E+02 -0.14779395017E+03  0.15202777678E+03  0.17770000000E+01 0.  1.
         15    1    3    3    0    0 -0.35949908192E+02 -0.40102130047E+02 -0.10841370745E+03  0.12106719797E+03  0.17770000000E+01 0. -1.
</event>
<event>
 7    1  0.3970441E-006  0.5200836E+03  0.7546771E-02  0.9355959E-01
        -11   -1    0    0    0    0  0.00000000000E+00  0.00000000000E+00  0.50000000000E+03  0.50000000000E+03  0.00000000000E+00 0.  1.
         11   -1    0    0    0    0 -0.00000000000E+00 -0.00000000000E+00 -0.50000000000E+03  0.50000000000E+03  0.00000000000E+00 0.  1.
         23    2    1    2    0    0 -0.41193184963E+00 -0.56401833195E+02 -0.20552013200E+03  0.23322381249E+03  0.94728483466E+02 0.  0.
        -11    1    1    2    0    0 -0.14227445271E+03  0.60412665594E+02  0.45434349329E+03  0.47991636767E+03  0.00000000000E+00 0.  1.
         11    1    1    2    0    0  0.14268638456E+03 -0.40108323990E+01 -0.24882336129E+03  0.28685981984E+03  0.00000000000E+00 0.  1.
        -15    1    3    3    0    0  0.23506933500E+02  0.27720718253E+01 -0.70880811205E+01  0.24772140153E+02  0.17770000000E+01 0. -1.
         15    1    3    3    0    0 -0.23918865350E+02 -0.59173905020E+02 -0.19843205088E+03  0.20845167234E+03  0.17770000000E+01 0.  1.
</event>
<event>
 7    1  0.3970441E-006  0.3937698E+03  0.7546771E-02  0.9674990E-01
        -11   -1    0    0    0    0  0.00000000000E+00  0.00000000000E+00  0.50000000000E+03  0.50000000000E+03  0.00000000000E+00 0. -1.
         11   -1    0    0    0    0 -0.00000000000E+00 -0.00000000000E+00 -0.50000000000E+03  0.50000000000E+03  0.00000000000E+00 0. -1.
         23    2    1    2    0    0  0.16718109953E+03  0.90983802838E+02  0.26830458854E+03  0.34139991842E+03  0.91318013839E+02 0.  0.
        -11    1    1    2    0    0 -0.60328333484E+02 -0.61821037930E+02  0.17848385825E+03  0.19828725680E+03  0.00000000000E+00 0. -1.
         11    1    1    2    0    0 -0.10685276604E+03 -0.29162764908E+02 -0.44678844679E+03  0.46031282478E+03  0.00000000000E+00 0. -1.
        -15    1    3    3    0    0  0.51897722630E+02  0.76025554156E+02  0.14639391714E+03  0.17293812536E+03  0.17770000000E+01 0.  1.
         15    1    3    3    0    0  0.11528337690E+03  0.14958248682E+02  0.12191067140E+03  0.16846179306E+03  0.17770000000E+01 0. -1.
</event>
<event>
 7    1  0.3970441E-006  0.3367437E+03  0.7546771E-02  0.9864315E-01
        -11   -1    0    0    0    0  0.00000000000E+00  0.00000000000E+00  0.50000000000E+03  0.50000000000E+03  0.00000000000E+00 0. -1.
         11   -1    0    0    0    0 -0.00000000000E+00 -0.00000000000E+00 -0.50000000000E+03  0.50000000000E+03  0.00000000000E+00 0.  1.
         23    2    1    2    0    0 -0.45620811310E+02  0.23569798454E+03 -0.10573421508E+03  0.27722770614E+03  0.89669830333E+02 0.  0.
        -11    1    1    2    0    0 -0.72085172193E+02 -0.60932621786E+02  0.37167671328E+03  0.38347442632E+03  0.00000000000E+00 0. -1.
         11    1    1    2    0    0  0.11770598350E+03 -0.17476536275E+03 -0.26594249820E+03  0.33929786754E+03  0.00000000000E+00 0.  1.
        -15    1    3    3    0    0  0.19797320726E+02  0.43283547114E+02  0.10553955697E+01  0.47641063669E+02  0.17770000000E+01 0.  1.
         15    1    3    3    0    0 -0.65418132036E+02  0.19241443742E+03 -0.10678961065E+03  0.22958664247E+03  0.17770000000E+01 0. -1.
</event>
<event>
 7    1  0.3970441E-006  0.5101761E+03  0.7546771E-02  0.9377323E-01
        -11   -1    0    0    0    0  0.00000000000E+00  0.00000000000E+00  0.50000000000E+03  0.50000000000E+03  0.00000000000E+00 0.  1.
         11   -1    0    0    0    0 -0.00000000000E+00 -0.00000000000E+00 -0.50000000000E+03  0.50000000000E+03  0.00000000000E+00 0.  1.
         23    2    1    2    0    0 -0.10561965136E+03  0.13715324219E+02  0.37130865968E+03  0.39756763347E+03  0.94054673228E+02 0.  0.
        -11    1    1    2    0    0 -0.73073058701E+02 -0.12546706721E+02  0.84756005500E+02  0.11260849091E+03  0.00000000000E+00 0.  1.
         11    1    1    2    0    0  0.17869271006E+03 -0.11686174977E+01 -0.45606466518E+03  0.48982387562E+03  0.00000000000E+00 0.  1.
        -15    1    3    3    0    0 -0.31905707800E+02 -0.38545771534E+02  0.16251362693E+03  0.17005171967E+03  0.17770000000E+01 0.  1.
         15    1    3    3    0    0 -0.73713943556E+02  0.52261095753E+02  0.20879503275E+03  0.22751591380E+03  0.17770000000E+01 0. -1.
</event>
<event>
 7    1  0.3970441E-006  0.5172083E+03  0.7546771E-02  0.9362107E-01
        -11   -1    0    0    0    0  0.00000000000E+00  0.00000000000E+00  0.50000000000E+03  0.50000000000E+03  0.00000000000E+00 0. -1.
         11   -1    0    0    0    0 -0.00000000000E+00 -0.00000000000E+00 -0.50000000000E+03  0.50000000000E+03  0.00000000000E+00 0. -1.
         23    2    1    2    0    0  0.49377985011E+02  0.59347796165E+00  0.11070117199E+03  0.15156586261E+03  0.90988590534E+02 0.  0.
        -11    1    1    2    0    0  0.99815273876E+02 -0.95467529211E+02  0.33855168273E+03  0.36564242083E+03  0.00000000000E+00 0. -1.
         11    1    1    2    0    0 -0.14919325889E+03  0.94874051249E+02 -0.44925285473E+03  0.48279171656E+03  0.00000000000E+00 0. -1.
        -15    1    3    3    0    0  0.18602839298E+01  0.38667582830E+02  0.23926278530E+02  0.45544123128E+02  0.17770000000E+01 0. -1.
         15    1    3    3    0    0  0.47517701081E+02 -0.38074104868E+02  0.86774893464E+02  0.10602173948E+03  0.17770000000E+01 0.  1.
</event>
<event>
 7    1  0.3970441E-006  0.5126943E+03  0.7546771E-02  0.9371845E-01
        -11   -1    0    0    0    0  0.00000000000E+00  0.00000000000E+00  0.50000000000E+03  0.50000000000E+03  0.00000000000E+00 0.  1.
         11   -1    0    0    0    0 -0.00000000000E+00 -0.00000000000E+00 -0.50000000000E+03  0.50000000000E+03  0.00000000000E+00 0. -1.
         23    2    1    2    0    0 -0.29988990503E+02  0.47704685641E+02  0.15847943022E+03  0.19152456279E+03  0.91601592590E+02 0.  0.
        -11    1    1    2    0    0  0.15098731958E+01  0.11087045190E+03  0.30142240955E+03  0.32116974609E+03  0.00000000000E+00 0.  1.
         11    1    1    2    0    0  0.28479117307E+02 -0.15857513754E+03 -0.45990183978E+03  0.48730569112E+03  0.00000000000E+00 0. -1.
        -15    1    3    3    0    0 -0.43278692018E+02  0.55479881047E+02  0.16110020088E+03  0.17580527534E+03  0.17770000000E+01 0. -1.
         15    1    3    3    0    0  0.13289701516E+02 -0.77751954067E+01 -0.26207706636E+01  0.15719287448E+02  0.17770000000E+01 0.  1.
</event>
<event>
 7    1  0.3970441E-006  0.4348091E+03  0.7546771E-02  0.9558798E-01
        -11   -1    0    0    0    0  0.00000000000E+00  0.00000000000E+00  0.50000000000E+03  0.50000000000E+03  0.00000000000E+00 0. -1.
         11   -1    0    0    0    0 -0.00000000000E+00 -0.00000000000E+00 -0.50000000000E+03  0.50000000000E+03  0.00000000000E+00 0.  1.
         23    2    1    2    0    0 -0.16519523403E+02 -0.64844473363E+02 -0.44621819249E+03  0.46036859072E+03  0.91383059855E+02 0.  0.
        -11    1    1    2    0    0 -0.22086167269E+02  0.16587441497E+03  0.37358579180E+03  0.40935127233E+03  0.00000000000E+00 0. -1.
         11    1    1    2    0    0  0.38605690672E+02 -0.10102994161E+03  0.72632400691E+02  0.13028013695E+03  0.00000000000E+00 0.  1.
        -15    1    3    3    0    0 -0.36935898085E+02 -0.67407705966E+02 -0.42006814322E+03  0.42704620601E+03  0.17770000000E+01 0.  1.
         15    1    3    3    0    0  0.20416374682E+02  0.25632326028E+01 -0.26150049270E+02  0.33322384704E+02  0.17770000000E+01 0. -1.
</event>
<event>
 7    1  0.3970441E-006  0.5163669E+03  0.7546771E-02  0.9363914E-01
        -11   -1    0    0    0    0  0.00000000000E+00  0.00000000000E+00  0.50000000000E+03  0.50000000000E+03  0.00000000000E+00 0.  1.
         11   -1    0    0    0    0 -0.00000000000E+00 -0.00000000000E+00 -0.50000000000E+03  0.50000000000E+03  0.00000000000E+00 0. -1.
         23    2    1    2    0    0 -0.42220114628E+02  0.17260110065E+02 -0.19408559821E+03  0.21982552701E+03  0.92593700735E+02 0.  0.
        -11    1    1    2    0    0  0.10456738246E+03  0.89459540890E+02  0.46364172682E+03  0.48363312312E+03  0.00000000000E+00 0.  1.
         11    1    1    2    0    0 -0.62347267827E+02 -0.10671965096E+03 -0.26955612862E+03  0.29654134987E+03  0.00000000000E+00 0. -1.
        -15    1    3    3    0    0 -0.69528785351E+02  0.20390072056E+02 -0.16240921760E+03  0.17784802141E+03  0.17770000000E+01 0.  1.
         15    1    3    3    0    0  0.27308670723E+02 -0.31299619909E+01 -0.31676380608E+02  0.41977505597E+02  0.17770000000E+01 0. -1.
</event>
<event>
 7    1  0.3970441E-006  0.5001077E+03  0.7546771E-02  0.9399569E-01
        -11   -1    0    0    0    0  0.00000000000E+00  0.00000000000E+00  0.50000000000E+03  0.50000000000E+03  0.00000000000E+00 0. -1.
         11   -1    0    0    0    0 -0.00000000000E+00 -0.00000000000E+00 -0.50000000000E+03  0.50000000000E+03  0.00000000000E+00 0. -1.
         23    2    1    2    0    0  0.11509819918E+03  0.53587895855E+02 -0.47542845185E+03  0.50010771731E+03  0.89197858981E+02 0.  0.
        -11    1    1    2    0    0  0.13225843940E+02  0.29977999674E+01  0.56788673324E+02  0.58385470542E+02  0.00000000000E+00 0. -1.
         11    1    1    2    0    0 -0.12832404312E+03 -0.56585695822E+02  0.41863977852E+03  0.44150681215E+03  0.00000000000E+00 0. -1.
        -15    1    3    3    0    0  0.11671306503E+03  0.43497510799E+02 -0.47343133462E+03  0.48954505341E+03  0.17770000000E+01 0. -1.
         15    1    3    3    0    0 -0.16148658476E+01  0.10090385056E+02 -0.19971172287E+01  0.10562663893E+02  0.17770000000E+01 0.  1.
</event>
<event>
 7    1  0.3970441E-006  0.4707926E+03  0.7546771E-02  0.9467645E-01
        -11   -1    0    0    0    0  0.00000000000E+00  0.00000000000E+00  0.50000000000E+03  0.50000000000E+03  0.00000000000E+00 0.  1.
         11   -1    0    0    0    0 -0.00000000000E+00 -0.00000000000E+00 -0.50000000000E+03  0.50000000000E+03  0.00000000000E+00 0. -1.
         23    2    1    2    0    0  0.21980504814E+02 -0.29053055877E+02 -0.45994766046E+03  0.46992014407E+03  0.89139602806E+02 0.  0.
        -11    1    1    2    0    0 -0.51941803285E+00  0.89988734182E+02  0.45660562555E+03  0.46538901938E+03  0.00000000000E+00 0.  1.
         11    1    1    2    0    0 -0.21461086781E+02 -0.60935678304E+02  0.33420349127E+01  0.64690836550E+02  0.00000000000E+00 0. -1.
        -15    1    3    3    0    0 -0.18976105083E+02 -0.47112684603E+02 -0.27204552657E+03  0.27675191755E+03  0.17770000000E+01 0.  1.
         15    1    3    3    0    0  0.40956609896E+02  0.18059628725E+02 -0.18790213389E+03  0.19316822651E+03  0.17770000000E+01 0. -1.
</event>
<event>
 7    1  0.3970441E-006  0.5158237E+03  0.7546771E-02  0.9365083E-01
        -11   -1    0    0    0    0  0.00000000000E+00  0.00000000000E+00  0.50000000000E+03  0.50000000000E+03  0.00000000000E+00 0. -1.
         11   -1    0    0    0    0 -0.00000000000E+00 -0.00000000000E+00 -0.50000000000E+03  0.50000000000E+03  0.00000000000E+00 0.  1.
         23    2    1    2    0    0  0.91764658778E+02 -0.51623077654E+02 -0.29947680379E+03  0.33025698039E+03  0.91091285781E+02 0.  0.
        -11    1    1    2    0    0 -0.98420680961E+02 -0.11269719440E+02  0.47393363553E+03  0.48417633968E+03  0.00000000000E+00 0. -1.
         11    1    1    2    0    0  0.66560221831E+01  0.62892797094E+02 -0.17445683174E+03  0.18556667993E+03  0.00000000000E+00 0.  1.
        -15    1    3    3    0    0  0.56691405751E+02 -0.58034773851E+01 -0.24262160599E+03  0.24923081121E+03  0.17770000000E+01 0.  1.
         15    1    3    3    0    0  0.35073253026E+02 -0.45819600269E+02 -0.56855197799E+02  0.81026169183E+02  0.17770000000E+01 0. -1.
</event>
<event>
 7    1  0.3970441E-006  0.3288552E+03  0.7546771E-02  0.9893662E-01
        -11   -1    0    0    0    0  0.00000000000E+00  0.00000000000E+00  0.50000000000E+03  0.50000000000E+03  0.00000000000E+00 0.  1.
         11   -1    0    0    0    0 -0.00000000000E+00 -0.00000000000E+00 -0.50000000000E+03  0.50000000000E+03  0.00000000000E+00 0.  1.
         23    2    1    2    0    0  0.16509382657E+03 -0.13037984263E+03 -0.15945317038E+03  0.29129476590E+03  0.12317650815E+03 0.  0.
        -11    1    1    2    0    0  0.48333007618E+02  0.54646693669E+02  0.38335938129E+03  0.39023935729E+03  0.00000000000E+00 0.  1.
         11    1    1    2    0    0 -0.21342683419E+03  0.75733148961E+02 -0.22390621092E+03  0.31846587681E+03  0.00000000000E+00 0.  1.
        -15    1    3    3    0    0  0.16174063848E+03 -0.11490334644E+03 -0.86193682705E+02  0.21632226382E+03  0.17770000000E+01 0. -1.
         15    1    3    3    0    0  0.33531880981E+01 -0.15476496192E+02 -0.73259487672E+02  0.74972502078E+02  0.17770000000E+01 0.  1.
</event>
<event>
 7    1  0.3970441E-006  0.5334092E+03  0.7546771E-02  0.9328009E-01
        -11   -1    0    0    0    0  0.00000000000E+00  0.00000000000E+00  0.50000000000E+03  0.50000000000E+03  0.00000000000E+00 0.  1.
         11   -1    0    0    0    0 -0.00000000000E+00 -0.00000000000E+00 -0.50000000000E+03  0.50000000000E+03  0.00000000000E+00 0. -1.
         23    2    1    2    0    0  0.10739803887E+03  0.33408353017E+02 -0.34361124275E+03  0.37239808966E+03  0.89225524602E+02 0.  0.
        -11    1    1    2    0    0 -0.12230682902E+02 -0.98738305872E+02  0.45585980361E+03  0.46659083060E+03  0.00000000000E+00 0.  1.
         11    1    1    2    0    0 -0.95167355964E+02  0.65329952855E+02 -0.11224856087E+03  0.16101107974E+03  0.00000000000E+00 0. -1.
        -15    1    3    3    0    0 -0.14948712346E+02  0.74209014209E+01 -0.62454680398E+02  0.64670538975E+02  0.17770000000E+01 0.  1.
         15    1    3    3    0    0  0.12234675121E+03  0.25987451596E+02 -0.28115656235E+03  0.30772755069E+03  0.17770000000E+01 0. -1.
</event>
<event>
 7    1  0.3970441E-006  0.3519443E+03  0.7546771E-02  0.9810124E-01
        -11   -1    0    0    0    0  0.00000000000E+00  0.00000000000E+00  0.50000000000E+03  0.50000000000E+03  0.00000000000E+00 0.  1.
         11   -1    0    0    0    0 -0.00000000000E+00 -0.00000000000E+00 -0.50000000000E+03  0.50000000000E+03  0.00000000000E+00 0. -1.
         23    2    1    2    0    0 -0.57214045214E+02 -0.13425010294E+03 -0.19159684524E+03  0.25604762724E+03  0.86916622101E+02 0.  0.
        -11    1    1    2    0    0 -0.16349530854E+03  0.28987545713E+02  0.39333655907E+03  0.42694805588E+03  0.00000000000E+00 0.  1.
         11    1    1    2    0    0  0.22070935375E+03  0.10526255723E+03 -0.20173971383E+03  0.31700431688E+03  0.00000000000E+00 0. -1.
        -15    1    3    3    0    0  0.22781646322E+02 -0.22215821671E+02 -0.42299887287E+02  0.52962102820E+02  0.17770000000E+01 0. -1.
         15    1    3    3    0    0 -0.79995691536E+02 -0.11203428127E+03 -0.14929695795E+03  0.20308552442E+03  0.17770000000E+01 0.  1.
</event>
<event>
 7    1  0.3970441E-006  0.5229193E+03  0.7546771E-02  0.9349938E-01
        -11   -1    0    0    0    0  0.00000000000E+00  0.00000000000E+00  0.50000000000E+03  0.50000000000E+03  0.00000000000E+00 0. -1.
         11   -1    0    0    0    0 -0.00000000000E+00 -0.00000000000E+00 -0.50000000000E+03  0.50000000000E+03  0.00000000000E+00 0.  1.
         23    2    1    2    0    0  0.30321026583E+02  0.49884553425E+02 -0.17026509225E+03  0.20211185241E+03  0.91930223117E+02 0.  0.
        -11    1    1    2    0    0 -0.85220318434E+02  0.64346276835E+02  0.46497643772E+03  0.47708074123E+03  0.00000000000E+00 0. -1.
         11    1    1    2    0    0  0.54899291850E+02 -0.11423083026E+03 -0.29471134547E+03  0.32080740636E+03  0.00000000000E+00 0.  1.
        -15    1    3    3    0    0  0.32649875461E+02 -0.25325649519E+01 -0.11277889802E+02  0.34681072363E+02  0.17770000000E+01 0. -1.
         15    1    3    3    0    0 -0.23288488779E+01  0.52417118376E+02 -0.15898720245E+03  0.16743078005E+03  0.17770000000E+01 0.  1.
</event>
<event>
 7    1  0.3970441E-006  0.3496188E+03  0.7546771E-02  0.9818223E-01
        -11   -1    0    0    0    0  0.00000000000E+00  0.00000000000E+00  0.50000000000E+03  0.50000000000E+03  0.00000000000E+00 0. -1.
         11   -1    0    0    0    0 -0.00000000000E+00 -0.00000000000E+00 -0.50000000000E+03  0.50000000000E+03  0.00000000000E+00 0.  1.
         23    2    1    2    0    0 -0.79891765027E+02  0.12668263194E+03 -0.24328580141E+03  0.30194208988E+03  0.97723390875E+02 0.  0.
        -11    1    1    2    0    0 -0.14330175343E+03 -0.24053311607E+03  0.33013838819E+03  0.43287749747E+03  0.00000000000E+00 0. -1.
         11    1    1    2    0    0  0.22319351846E+03  0.11385048413E+03 -0.86852586782E+02  0.26518041265E+03  0.00000000000E+00 0.  1.
        -15    1    3    3    0    0  0.17281772122E+02  0.65376751876E+01 -0.56758889158E+02  0.59717083586E+02  0.17770000000E+01 0. -1.
         15    1    3    3    0    0 -0.97173537149E+02  0.12014495675E+03 -0.18652691225E+03  0.24222500630E+03  0.17770000000E+01 0.  1.
</event>
<event>
 7    1  0.3970441E-006  0.3885481E+03  0.7546771E-02  0.9690856E-01
        -11   -1    0    0    0    0  0.00000000000E+00  0.00000000000E+00  0.50000000000E+03  0.50000000000E+03  0.00000000000E+00 0. -1.
         11   -1    0    0    0    0 -0.00000000000E+00 -0.00000000000E+00 -0.50000000000E+03  0.50000000000E+03  0.00000000000E+00 0. -1.
         23    2    1    2    0    0  0.40853332197E+02 -0.75769217302E+02 -0.45237942162E+03  0.46908745559E+03  0.89364035528E+02 0.  0.
        -11    1    1    2    0    0 -0.12916153158E+03 -0.26627596005E+02  0.29683466013E+03  0.32481155393E+03  0.00000000000E+00 0. -1.
         11    1    1    2    0    0  0.88308199383E+02  0.10239681331E+03  0.15554476148E+03  0.20610099048E+03  0.00000000000E+00 0. -1.
        -15    1    3    3    0    0 -0.13673258550E+02 -0.10295051691E+02 -0.13125135237E+02  0.21641926732E+02  0.17770000000E+01 0.  1.
         15    1    3    3    0    0  0.54526590747E+02 -0.65474165611E+02 -0.43925428638E+03  0.44744552886E+03  0.17770000000E+01 0. -1.
</event>
<event>
 7    1  0.3970441E-006  0.5281772E+03  0.7546771E-02  0.9338878E-01
        -11   -1    0    0    0    0  0.00000000000E+00  0.00000000000E+00  0.50000000000E+03  0.50000000000E+03  0.00000000000E+00 0.  1.
         11   -1    0    0    0    0 -0.00000000000E+00 -0.00000000000E+00 -0.50000000000E+03  0.50000000000E+03  0.00000000000E+00 0. -1.
         23    2    1    2    0    0  0.11231741499E+02 -0.22492681427E+02  0.43105389136E+02  0.10288685480E+03  0.89975316527E+02 0.  0.
        -11    1    1    2    0    0 -0.59873468041E+02 -0.24146994605E+03  0.34493382506E+03  0.42529038396E+03  0.00000000000E+00 0.  1.
         11    1    1    2    0    0  0.48641726542E+02  0.26396262748E+03 -0.38803921419E+03  0.47182276123E+03  0.00000000000E+00 0. -1.
        -15    1    3    3    0    0 -0.21983320936E+02  0.23733459741E+02  0.30632129265E+02  0.44587314149E+02  0.17770000000E+01 0.  1.
         15    1    3    3    0    0  0.33215062435E+02 -0.46226141168E+02  0.12473259872E+02  0.58299540656E+02  0.17770000000E+01 0. -1.
</event>
<event>
 7    1  0.3970441E-006  0.5247929E+03  0.7546771E-02  0.9345981E-01
        -11   -1    0    0    0    0  0.00000000000E+00  0.00000000000E+00  0.50000000000E+03  0.50000000000E+03  0.00000000000E+00 0.  1.
         11   -1    0    0    0    0 -0.00000000000E+00 -0.00000000000E+00 -0.50000000000E+03  0.50000000000E+03  0.00000000000E+00 0. -1.
         23    2    1    2    0    0 -0.22820178809E+03  0.85432584193E+02  0.23213863642E+03  0.34832789046E+03  0.89828671510E+02 0.  0.
        -11    1    1    2    0    0 -0.11480171041E+02 -0.26982919318E+02  0.17401156721E+03  0.17646500442E+03  0.00000000000E+00 0.  1.
         11    1    1    2    0    0  0.23968195913E+03 -0.58449664874E+02 -0.40615020362E+03  0.47520710512E+03  0.00000000000E+00 0. -1.
        -15    1    3    3    0    0  0.15772040112E+01  0.15467306964E+02  0.21875008968E+01  0.15800887519E+02  0.17770000000E+01 0. -1.
         15    1    3    3    0    0 -0.22977899210E+03  0.69965277229E+02  0.22995113552E+03  0.33252700294E+03  0.17770000000E+01 0.  1.
</event>
<event>
 6    1  0.3970441E-006  0.5160552E+03  0.7546771E-02  0.9364585E-01
        -11   -1    0    0    0    0  0.00000000000E+00  0.00000000000E+00  0.50000000000E+03  0.50000000000E+03  0.00000000000E+00 0.  1.
         11   -1    0    0    0    0 -0.00000000000E+00 -0.00000000000E+00 -0.50000000000E+03  0.50000000000E+03  0.00000000000E+00 0.  1.
        -11    1    1    2    0    0 -0.48990906260E+02 -0.60343812617E+01  0.17124154206E+03  0.17821388380E+03  0.00000000000E+00 0.  1.
         11    1    1    2    0    0  0.33077465175E+02  0.63229985476E+02  0.29728648223E+03  0.30573093118E+03  0.00000000000E+00 0.  1.
        -15    1    1    2    0    0  0.38953307503E+02  0.64569704530E+02 -0.28342593817E+03  0.29329170984E+03  0.17770000000E+01 0. -1.
         15    1    1    2    0    0 -0.23039866418E+02 -0.12176530874E+03 -0.18510208612E+03  0.22276347517E+03  0.17770000000E+01 0.  1.
</event>
<event>
 7    1  0.3970441E-006  0.3731968E+03  0.7546771E-02  0.9739089E-01
        -11   -1    0    0    0    0  0.00000000000E+00  0.00000000000E+00  0.50000000000E+03  0.50000000000E+03  0.00000000000E+00 0.  1.
         11   -1    0    0    0    0 -0.00000000000E+00 -0.00000000000E+00 -0.50000000000E+03  0.50000000000E+03  0.00000000000E+00 0.  1.
         23    2    1    2    0    0  0.21535946996E+03  0.14113451366E+03  0.17419074982E+03  0.32043696933E+03  0.77709598806E+02 0.  0.
        -11    1    1    2    0    0 -0.43525386366E+02 -0.10724909028E+02  0.22306079271E+03  0.22752054891E+03  0.00000000000E+00 0.  1.
         11    1    1    2    0    0 -0.17183408360E+03 -0.13040960463E+03 -0.39725154253E+03  0.45204248175E+03  0.00000000000E+00 0.  1.
        -15    1    3    3    0    0  0.55736130613E+01  0.90157351568E+01  0.33911936218E+02  0.35574229296E+02  0.17770000000E+01 0. -1.
         15    1    3    3    0    0  0.20978585690E+03  0.13211877850E+03  0.14027881360E+03  0.28486274004E+03  0.17770000000E+01 0.  1.
</event>
<event>
 7    1  0.3970441E-006  0.4873448E+03  0.7546771E-02  0.9428581E-01
        -11   -1    0    0    0    0  0.00000000000E+00  0.00000000000E+00  0.50000000000E+03  0.50000000000E+03  0.00000000000E+00 0.  1.
         11   -1    0    0    0    0 -0.00000000000E+00 -0.00000000000E+00 -0.50000000000E+03  0.50000000000E+03  0.00000000000E+00 0. -1.
         23    2    1    2    0    0  0.93936556272E+02  0.67881896403E+02 -0.46299254104E+03  0.48582365408E+03  0.90722110570E+02 0.  0.
        -11    1    1    2    0    0 -0.68215660775E+02 -0.88414607778E+02  0.46777447779E+03  0.48091941250E+03  0.00000000000E+00 0.  1.
         11    1    1    2    0    0 -0.25720895497E+02  0.20532711375E+02 -0.47819367539E+01  0.33256933423E+02  0.00000000000E+00 0. -1.
        -15    1    3    3    0    0 -0.12744436346E+02  0.81224718312E+01 -0.14727205720E+02  0.21176485160E+02  0.17770000000E+01 0.  1.
         15    1    3    3    0    0  0.10668099262E+03  0.59759424571E+02 -0.44826533532E+03  0.46464716892E+03  0.17770000000E+01 0. -1.
</event>
<event>
 7    1  0.3970441E-006  0.4377169E+03  0.7546771E-02  0.9551088E-01
        -11   -1    0    0    0    0  0.00000000000E+00  0.00000000000E+00  0.50000000000E+03  0.50000000000E+03  0.00000000000E+00 0.  1.
         11   -1    0    0    0    0 -0.00000000000E+00 -0.00000000000E+00 -0.50000000000E+03  0.50000000000E+03  0.00000000000E+00 0. -1.
         23    2    1    2    0    0 -0.27170256029E+01  0.81900598196E+02  0.17731194675E+02  0.12056051981E+03  0.86633443080E+02 0.  0.
        -11    1    1    2    0    0  0.72853726349E+02 -0.16130293430E+02  0.42239396370E+03  0.42893415856E+03  0.00000000000E+00 0.  1.
         11    1    1    2    0    0 -0.70136700746E+02 -0.65770304766E+02 -0.44012515837E+03  0.45050532163E+03  0.00000000000E+00 0. -1.
        -15    1    3    3    0    0  0.18004378624E+02  0.68952079611E+02 -0.21368258693E+02  0.74419803419E+02  0.17770000000E+01 0.  1.
         15    1    3    3    0    0 -0.20721404227E+02  0.12948518586E+02  0.39099453368E+02  0.46140716394E+02  0.17770000000E+01 0. -1.
</event>
<event>
 7    1  0.3970441E-006  0.5131471E+03  0.7546771E-02  0.9370863E-01
        -11   -1    0    0    0    0  0.00000000000E+00  0.00000000000E+00  0.50000000000E+03  0.50000000000E+03  0.00000000000E+00 0.  1.
         11   -1    0    0    0    0 -0.00000000000E+00 -0.00000000000E+00 -0.50000000000E+03  0.50000000000E+03  0.00000000000E+00 0.  1.
         23    2    1    2    0    0  0.70366137795E+02  0.92937919301E+02 -0.25225998486E+03  0.29300908658E+03  0.92899809836E+02 0.  0.
        -11    1    1    2    0    0 -0.16500122845E+03 -0.81674167257E+02  0.45069908341E+03  0.48685289233E+03  0.00000000000E+00 0.  1.
         11    1    1    2    0    0  0.94635090655E+02 -0.11263752045E+02 -0.19843909855E+03  0.22013802109E+03  0.00000000000E+00 0.  1.
        -15    1    3    3    0    0  0.55735729686E+02  0.11097777056E+03 -0.22620613137E+03  0.25805989367E+03  0.17770000000E+01 0.  1.
         15    1    3    3    0    0  0.14630408109E+02 -0.18039851257E+02 -0.26053853483E+02  0.34949192911E+02  0.17770000000E+01 0. -1.
</event>
<event>
 7    1  0.3970441E-006  0.4802990E+03  0.7546771E-02  0.9445004E-01
        -11   -1    0    0    0    0  0.00000000000E+00  0.00000000000E+00  0.50000000000E+03  0.50000000000E+03  0.00000000000E+00 0.  1.
         11   -1    0    0    0    0 -0.00000000000E+00 -0.00000000000E+00 -0.50000000000E+03  0.50000000000E+03  0.00000000000E+00 0.  1.
         23    2    1    2    0    0 -0.16804175316E+03  0.51495383366E+02 -0.43811779951E+03  0.47934141844E+03  0.83253731878E+02 0.  0.
        -11    1    1    2    0    0  0.12581949140E+03 -0.50818911785E+02  0.45528376866E+03  0.47507516902E+03  0.00000000000E+00 0.  1.
         11    1    1    2    0    0  0.42222261758E+02 -0.67647158160E+00 -0.17165969155E+02  0.45583412540E+02  0.00000000000E+00 0.  1.
        -15    1    3    3    0    0 -0.66523617750E+02  0.43067638514E+02 -0.10873135396E+03  0.13455808511E+03  0.17770000000E+01 0. -1.
         15    1    3    3    0    0 -0.10151813541E+03  0.84277448520E+01 -0.32938644555E+03  0.34478333333E+03  0.17770000000E+01 0.  1.
</event>
<event>
 7    1  0.3970441E-006  0.5144483E+03  0.7546771E-02  0.9368048E-01
        -11   -1    0    0    0    0  0.00000000000E+00  0.00000000000E+00  0.50000000000E+03  0.50000000000E+03  0.00000000000E+00 0. -1.
         11   -1    0    0    0    0 -0.00000000000E+00 -0.00000000000E+00 -0.50000000000E+03  0.50000000000E+03  0.00000000000E+00 0.  1.
         23    2    1    2    0    0  0.79884292714E+02  0.17612778635E+03  0.23686607233E+03  0.31896886001E+03  0.90736431972E+02 0.  0.
        -11    1    1    2    0    0  0.35338263904E+02  0.22551175954E+02  0.19093160298E+03  0.19547947578E+03  0.00000000000E+00 0. -1.
         11    1    1    2    0    0 -0.11522255662E+03 -0.19867896230E+03 -0.42779767532E+03  0.48555166421E+03  0.00000000000E+00 0.  1.
        -15    1    3    3    0    0 -0.19705021217E+01  0.94211689967E+02  0.13551604893E+03  0.16506811519E+03  0.17770000000E+01 0.  1.
         15    1    3    3    0    0  0.81854794836E+02  0.81916096381E+02  0.10135002340E+03  0.15390074482E+03  0.17770000000E+01 0. -1.
</event>
<event>
 7    1  0.3970441E-006  0.5120410E+03  0.7546771E-02  0.9373263E-01
        -11   -1    0    0    0    0  0.00000000000E+00  0.00000000000E+00  0.50000000000E+03  0.50000000000E+03  0.00000000000E+00 0.  1.
         11   -1    0    0    0    0 -0.00000000000E+00 -0.00000000000E+00 -0.50000000000E+03  0.50000000000E+03  0.00000000000E+00 0.  1.
         23    2    1    2    0    0 -0.36973660931E+02 -0.13031118290E+02 -0.36908175066E+03  0.38250308583E+03  0.92468428939E+02 0.  0.
        -11    1    1    2    0    0  0.24012644000E+02  0.76334420400E+02  0.48135272623E+03  0.48795901248E+03  0.00000000000E+00 0.  1.
         11    1    1    2    0    0  0.12961016930E+02 -0.63303302110E+02 -0.11227097557E+03  0.12953790169E+03  0.00000000000E+00 0.  1.
        -15    1    3    3    0    0 -0.57711299371E+02 -0.35211115972E+02 -0.28981500069E+03  0.29760092257E+03  0.17770000000E+01 0.  1.
         15    1    3    3    0    0  0.20737638441E+02  0.22179997682E+02 -0.79266749979E+02  0.84902163261E+02  0.17770000000E+01 0. -1.
</event>
<event>
 7    1  0.3970441E-006  0.5087267E+03  0.7546771E-02  0.9380492E-01
        -11   -1    0    0    0    0  0.00000000000E+00  0.00000000000E+00  0.50000000000E+03  0.50000000000E+03  0.00000000000E+00 0. -1.
         11   -1    0    0    0    0 -0.00000000000E+00 -0.00000000000E+00 -0.50000000000E+03  0.50000000000E+03  0.00000000000E+00 0.  1.
         23    2    1    2    0    0  0.69385194217E+02  0.51871353226E+02  0.30316592278E+03  0.32774972263E+03  0.89472685688E+02 0.  0.
        -11    1    1    2    0    0  0.80630011332E+01  0.71758585498E+02  0.16594689590E+03  0.18097701191E+03  0.00000000000E+00 0. -1.
         11    1    1    2    0    0 -0.77448195350E+02 -0.12362993872E+03 -0.46911281868E+03  0.49127326547E+03  0.00000000000E+00 0.  1.
        -15    1    3    3    0    0 -0.19658619373E+02  0.11637218284E+01  0.29409327861E+02  0.35438423475E+02  0.17770000000E+01 0.  1.
         15    1    3    3    0    0  0.89043813590E+02  0.50707631398E+02  0.27375659492E+03  0.29231129915E+03  0.17770000000E+01 0. -1.
</event>
<event>
 7    1  0.3970441E-006  0.5322220E+03  0.7546771E-02  0.9330463E-01
        -11   -1    0    0    0    0  0.00000000000E+00  0.00000000000E+00  0.50000000000E+03  0.50000000000E+03  0.00000000000E+00 0.  1.
         11   -1    0    0    0    0 -0.00000000000E+00 -0.00000000000E+00 -0.50000000000E+03  0.50000000000E+03  0.00000000000E+00 0. -1.
         23    2    1    2    0    0  0.34626334920E+02  0.64929592675E+02  0.30882425756E+02  0.11649726335E+03  0.84870802244E+02 0.  0.
        -11    1    1    2    0    0  0.27834835952E+02  0.98631325357E+02  0.40289475170E+03  0.41572478563E+03  0.00000000000E+00 0.  1.
         11    1    1    2    0    0 -0.62461170872E+02 -0.16356091803E+03 -0.43377717746E+03  0.46777795102E+03  0.00000000000E+00 0. -1.
        -15    1    3    3    0    0  0.10041968793E+02 -0.22393196382E+01  0.42718728006E+02  0.43976165603E+02  0.17770000000E+01 0. -1.
         15    1    3    3    0    0  0.24584366127E+02  0.67168912313E+02 -0.11836302250E+02  0.72521097751E+02  0.17770000000E+01 0.  1.
</event>
<event>
 7    1  0.3970441E-006  0.5365002E+03  0.7546771E-02  0.9321649E-01
        -11   -1    0    0    0    0  0.00000000000E+00  0.00000000000E+00  0.50000000000E+03  0.50000000000E+03  0.00000000000E+00 0. -1.
         11   -1    0    0    0    0 -0.00000000000E+00 -0.00000000000E+00 -0.50000000000E+03  0.50000000000E+03  0.00000000000E+00 0. -1.
         23    2    1    2    0    0 -0.10994365275E+03 -0.69796008209E+02  0.12773940952E+03  0.20577411936E+03  0.95218390613E+02 0.  0.
        -11    1    1    2    0    0 -0.87583735475E+00  0.74190695651E+02  0.32229595867E+03  0.33072603675E+03  0.00000000000E+00 0. -1.
         11    1    1    2    0    0  0.11081949010E+03 -0.43946874422E+01 -0.45003536819E+03  0.46349984389E+03  0.00000000000E+00 0. -1.
        -15    1    3    3    0    0 -0.28331994338E+02 -0.61118671766E+02  0.97010763211E+02  0.11812044636E+03  0.17770000000E+01 0. -1.
         15    1    3    3    0    0 -0.81611658410E+02 -0.86773364424E+01  0.30728646313E+02  0.87653672994E+02  0.17770000000E+01 0.  1.
</event>
<event>
 7    1  0.3970441E-006  0.5148919E+03  0.7546771E-02  0.9367091E-01
        -11   -1    0    0    0    0  0.00000000000E+00  0.00000000000E+00  0.50000000000E+03  0.50000000000E+03  0.00000000000E+00 0.  1.
         11   -1    0    0    0    0 -0.00000000000E+00 -0.00000000000E+00 -0.50000000000E+03  0.50000000000E+03  0.00000000000E+00 0. -1.
         23    2    1    2    0    0  0.33137999268E+02  0.58014139838E+02  0.16604379754E+03  0.20493264901E+03  0.99815231870E+02 0.  0.
        -11    1    1    2    0    0 -0.19970415347E+02  0.81427736643E+02  0.29840478723E+03  0.30995920833E+03  0.00000000000E+00 0.  1.
         11    1    1    2    0    0 -0.13167583921E+02 -0.13944187648E+03 -0.46444858477E+03  0.48510814266E+03  0.00000000000E+00 0. -1.
        -15    1    3    3    0    0  0.58429051479E+02  0.41500173412E+02  0.15818446911E+03  0.17367124819E+03  0.17770000000E+01 0.  1.
         15    1    3    3    0    0 -0.25291052212E+02  0.16513966426E+02  0.78593284258E+01  0.31261400823E+02  0.17770000000E+01 0. -1.
</event>
<event>
 7    1  0.3970441E-006  0.4287302E+03  0.7546771E-02  0.9575125E-01
        -11   -1    0    0    0    0  0.00000000000E+00  0.00000000000E+00  0.50000000000E+03  0.50000000000E+03  0.00000000000E+00 0. -1.
         11   -1    0    0    0    0 -0.00000000000E+00 -0.00000000000E+00 -0.50000000000E+03  0.50000000000E+03  0.00000000000E+00 0. -1.
         23    2    1    2    0    0 -0.46646106922E+02 -0.31234050220E+02 -0.37446771637E+02  0.13988843199E+03  0.12253606617E+03 0.  0.
        -11    1    1    2    0    0  0.62547509245E+02 -0.47817330066E+02  0.44130961051E+03  0.44827765982E+03  0.00000000000E+00 0. -1.
         11    1    1    2    0    0 -0.15901402323E+02  0.79051380286E+02 -0.40386283887E+03  0.41183390820E+03  0.00000000000E+00 0. -1.
        -15    1    3    3    0    0 -0.63881247065E+02  0.25376484382E+02 -0.41896637016E+02  0.80518728309E+02  0.17770000000E+01 0.  1.
         15    1    3    3    0    0  0.17235140144E+02 -0.56610534603E+02  0.44498653787E+01  0.59369703677E+02  0.17770000000E+01 0. -1.
</event>
<event>
 7    1  0.3970441E-006  0.4518457E+03  0.7546771E-02  0.9514514E-01
        -11   -1    0    0    0    0  0.00000000000E+00  0.00000000000E+00  0.50000000000E+03  0.50000000000E+03  0.00000000000E+00 0.  1.
         11   -1    0    0    0    0 -0.00000000000E+00 -0.00000000000E+00 -0.50000000000E+03  0.50000000000E+03  0.00000000000E+00 0.  1.
         23    2    1    2    0    0 -0.43562745686E+02 -0.74611085248E+02 -0.42379179659E+03  0.44224279799E+03  0.92275016467E+02 0.  0.
        -11    1    1    2    0    0 -0.60412671223E+01  0.16160563514E+03  0.42799222778E+03  0.45752620171E+03  0.00000000000E+00 0.  1.
         11    1    1    2    0    0  0.49604012809E+02 -0.86994549893E+02 -0.42004311869E+01  0.10023100029E+03  0.00000000000E+00 0.  1.
        -15    1    3    3    0    0 -0.52896024406E+02 -0.28290722826E+02 -0.34631746153E+03  0.35147872807E+03  0.17770000000E+01 0.  1.
         15    1    3    3    0    0  0.93332787198E+01 -0.46320362422E+02 -0.77474335057E+02  0.90764069918E+02  0.17770000000E+01 0. -1.
</event>
<event>
 7    1  0.3970441E-006  0.5412466E+03  0.7546771E-02  0.9311971E-01
        -11   -1    0    0    0    0  0.00000000000E+00  0.00000000000E+00  0.50000000000E+03  0.50000000000E+03  0.00000000000E+00 0.  1.
         11   -1    0    0    0    0 -0.00000000000E+00 -0.00000000000E+00 -0.50000000000E+03  0.50000000000E+03  0.00000000000E+00 0. -1.
         23    2    1    2    0    0 -0.13000417788E+03 -0.23660089299E+02 -0.24066974123E+03  0.28924423736E+03  0.90991309517E+02 0.  0.
        -11    1    1    2    0    0  0.69645369670E+01  0.94586506631E+02  0.44884246975E+03  0.45875339199E+03  0.00000000000E+00 0.  1.
         11    1    1    2    0    0  0.12303964092E+03 -0.70926417332E+02 -0.20817272852E+03  0.25200237065E+03  0.00000000000E+00 0. -1.
        -15    1    3    3    0    0 -0.22676068390E+02 -0.77301539238E+01 -0.13725477320E+03  0.13934127118E+03  0.17770000000E+01 0. -1.
         15    1    3    3    0    0 -0.10732810949E+03 -0.15929935375E+02 -0.10341496803E+03  0.14990296618E+03  0.17770000000E+01 0.  1.
</event>
<event>
 7    1  0.3970441E-006  0.5244172E+03  0.7546771E-02  0.9346773E-01
        -11   -1    0    0    0    0  0.00000000000E+00  0.00000000000E+00  0.50000000000E+03  0.50000000000E+03  0.00000000000E+00 0.  1.
         11   -1    0    0    0    0 -0.00000000000E+00 -0.00000000000E+00 -0.50000000000E+03  0.50000000000E+03  0.00000000000E+00 0. -1.
         23    2    1    2    0    0  0.53875114159E+02  0.28513387336E+02 -0.15884148243E+03  0.19501341078E+03  0.95310401627E+02 0.  0.
        -11    1    1    2    0    0 -0.39248898945E+02  0.92580354254E+02  0.46483047015E+03  0.47558276255E+03  0.00000000000E+00 0.  1.
         11    1    1    2    0    0 -0.14626215214E+02 -0.12109374159E+03 -0.30598898771E+03  0.32940382667E+03  0.00000000000E+00 0. -1.
        -15    1    3    3    0    0  0.86051911431E+01  0.39983674957E+02 -0.14719609812E+02  0.43503657544E+02  0.17770000000E+01 0.  1.
         15    1    3    3    0    0  0.45269923016E+02 -0.11470287621E+02 -0.14412187262E+03  0.15150975323E+03  0.17770000000E+01 0. -1.
</event>
<event>
 7    1  0.3970441E-006  0.5157721E+03  0.7546771E-02  0.9365194E-01
        -11   -1    0    0    0    0  0.00000000000E+00  0.00000000000E+00  0.50000000000E+03  0.50000000000E+03  0.00000000000E+00 0. -1.
         11   -1    0    0    0    0 -0.00000000000E+00 -0.00000000000E+00 -0.50000000000E+03  0.50000000000E+03  0.00000000000E+00 0. -1.
         23    2    1    2    0    0 -0.62823340090E+02  0.88586996183E+02  0.23743210290E+03  0.27727132512E+03  0.93332503947E+02 0.  0.
        -11    1    1    2    0    0 -0.27619804909E+02 -0.31327054579E+02  0.23481567093E+03  0.23850081191E+03  0.00000000000E+00 0. -1.
         11    1    1    2    0    0  0.90443144999E+02 -0.57259941604E+02 -0.47224777383E+03  0.48422786297E+03  0.00000000000E+00 0. -1.
        -15    1    3    3    0    0 -0.38333166477E+02  0.87541845090E+02  0.10262743820E+03  0.14024462590E+03  0.17770000000E+01 0.  1.
         15    1    3    3    0    0 -0.24490173613E+02  0.10451510933E+01  0.13480466470E+03  0.13702669922E+03  0.17770000000E+01 0. -1.
</event>
<event>
 7    1  0.3970441E-006  0.5172162E+03  0.7546771E-02  0.9362090E-01
        -11   -1    0    0    0    0  0.00000000000E+00  0.00000000000E+00  0.50000000000E+03  0.50000000000E+03  0.00000000000E+00 0.  1.
         11   -1    0    0    0    0 -0.00000000000E+00 -0.00000000000E+00 -0.50000000000E+03  0.50000000000E+03  0.00000000000E+00 0. -1.
         23    2    1    2    0    0 -0.61370481064E+02  0.10261124477E+03  0.36839999541E+03  0.39733347398E+03  0.88656243030E+02 0.  0.
        -11    1    1    2    0    0  0.52736030101E+02 -0.15976510072E+02  0.10646846312E+03  0.11988274014E+03  0.00000000000E+00 0.  1.
         11    1    1    2    0    0  0.86344509631E+01 -0.86634734701E+02 -0.47486845853E+03  0.48278378588E+03  0.00000000000E+00 0. -1.
        -15    1    3    3    0    0 -0.63469685493E+02  0.11751672189E+03  0.32586304483E+03  0.35217674911E+03  0.17770000000E+01 0.  1.
         15    1    3    3    0    0  0.20992044289E+01 -0.14905477116E+02  0.42536950581E+02  0.45156724870E+02  0.17770000000E+01 0. -1.
</event>
<event>
 7    1  0.3970441E-006  0.5102358E+03  0.7546771E-02  0.9377193E-01
        -11   -1    0    0    0    0  0.00000000000E+00  0.00000000000E+00  0.50000000000E+03  0.50000000000E+03  0.00000000000E+00 0. -1.
         11   -1    0    0    0    0 -0.00000000000E+00 -0.00000000000E+00 -0.50000000000E+03  0.50000000000E+03  0.00000000000E+00 0. -1.
         23    2    1    2    0    0 -0.89152466519E+01 -0.33784082603E+02 -0.22177505955E+03  0.24233936408E+03  0.91232365328E+02 0.  0.
        -11    1    1    2    0    0 -0.32853023394E+02  0.91691646557E+02  0.47998158509E+03  0.48976423024E+03  0.00000000000E+00 0. -1.
         11    1    1    2    0    0  0.41768270046E+02 -0.57907563954E+02 -0.25820652554E+03  0.26789640569E+03  0.00000000000E+00 0. -1.
        -15    1    3    3    0    0  0.16974552532E+02 -0.34861932418E+02 -0.21045849987E+03  0.21400800841E+03  0.17770000000E+01 0.  1.
         15    1    3    3    0    0 -0.25889799184E+02  0.10778498158E+01 -0.11316559673E+02  0.28331355665E+02  0.17770000000E+01 0. -1.
</event>
<event>
 7    1  0.3970441E-006  0.5170217E+03  0.7546771E-02  0.9362508E-01
        -11   -1    0    0    0    0  0.00000000000E+00  0.00000000000E+00  0.50000000000E+03  0.50000000000E+03  0.00000000000E+00 0.  1.
         11   -1    0    0    0    0 -0.00000000000E+00 -0.00000000000E+00 -0.50000000000E+03  0.50000000000E+03  0.00000000000E+00 0. -1.
         23    2    1    2    0    0 -0.20320516841E+02  0.26330855518E+02  0.88050427218E+02  0.12150926611E+03  0.76846513651E+02 0.  0.
        -11    1    1    2    0    0 -0.55988585040E+02 -0.50631234270E+02  0.38824198103E+03  0.39551242631E+03  0.00000000000E+00 0.  1.
         11    1    1    2    0    0  0.76309101881E+02  0.24300378752E+02 -0.47629240824E+03  0.48297830758E+03  0.00000000000E+00 0. -1.
        -15    1    3    3    0    0 -0.69378843437E+01  0.16489259961E+02 -0.10989410232E+02  0.21070234918E+02  0.17770000000E+01 0.  1.
         15    1    3    3    0    0 -0.13382632497E+02  0.98415955569E+01  0.99039837451E+02  0.10043903119E+03  0.17770000000E+01 0. -1.
</event>
<event>
 7    1  0.3970441E-006  0.5155046E+03  0.7546771E-02  0.9365770E-01
        -11   -1    0    0    0    0  0.00000000000E+00  0.00000000000E+00  0.50000000000E+03  0.50000000000E+03  0.00000000000E+00 0.  1.
         11   -1    0    0    0    0 -0.00000000000E+00 -0.00000000000E+00 -0.50000000000E+03  0.50000000000E+03  0.00000000000E+00 0. -1.
         23    2    1    2    0    0  0.28485770756E+02 -0.18175385907E+02 -0.24954042844E+03  0.26767574057E+03  0.90763940385E+02 0.  0.
        -11    1    1    2    0    0 -0.37453666085E+02  0.15014447322E+03  0.45911831829E+03  0.48449537679E+03  0.00000000000E+00 0.  1.
         11    1    1    2    0    0  0.89678953289E+01 -0.13196908731E+03 -0.20957788985E+03  0.24782888263E+03  0.00000000000E+00 0. -1.
        -15    1    3    3    0    0 -0.25855972857E+02  0.14285558086E+02 -0.47692311736E+02  0.56127736725E+02  0.17770000000E+01 0.  1.
         15    1    3    3    0    0  0.54341743613E+02 -0.32460943993E+02 -0.20184811671E+03  0.21154800385E+03  0.17770000000E+01 0. -1.
</event>
<event>
 7    1  0.3970441E-006  0.5095728E+03  0.7546771E-02  0.9378641E-01
        -11   -1    0    0    0    0  0.00000000000E+00  0.00000000000E+00  0.50000000000E+03  0.50000000000E+03  0.00000000000E+00 0.  1.
         11   -1    0    0    0    0 -0.00000000000E+00 -0.00000000000E+00 -0.50000000000E+03  0.50000000000E+03  0.00000000000E+00 0. -1.
         23    2    1    2    0    0 -0.11406229078E+03 -0.20509031834E+02  0.23642889152E+03  0.27859368452E+03  0.91021940997E+02 0.  0.
        -11    1    1    2    0    0 -0.77914594519E+02  0.34818809168E+02  0.21463532907E+03  0.23097912892E+03  0.00000000000E+00 0.  1.
         11    1    1    2    0    0  0.19197688530E+03 -0.14309777334E+02 -0.45106422059E+03  0.49042718656E+03  0.00000000000E+00 0. -1.
        -15    1    3    3    0    0 -0.26534950639E+02 -0.24426724522E+02  0.15437534035E+03  0.15854233477E+03  0.17770000000E+01 0. -1.
         15    1    3    3    0    0 -0.87527340143E+02  0.39176926882E+01  0.82053551172E+02  0.12005134975E+03  0.17770000000E+01 0.  1.
</event>
<event>
 7    1  0.3970441E-006  0.4736895E+03  0.7546771E-02  0.9460686E-01
        -11   -1    0    0    0    0  0.00000000000E+00  0.00000000000E+00  0.50000000000E+03  0.50000000000E+03  0.00000000000E+00 0. -1.
         11   -1    0    0    0    0 -0.00000000000E+00 -0.00000000000E+00 -0.50000000000E+03  0.50000000000E+03  0.00000000000E+00 0.  1.
         23    2    1    2    0    0  0.21476085840E+03  0.50714965308E+02 -0.37943633369E+03  0.45700169600E+03  0.12721786360E+03 0.  0.
        -11    1    1    2    0    0 -0.19398717147E+03 -0.98195533851E+02  0.42279605118E+03  0.47542600524E+03  0.00000000000E+00 0. -1.
         11    1    1    2    0    0 -0.20773686928E+02  0.47480568544E+02 -0.43359717494E+02  0.67572298755E+02  0.00000000000E+00 0.  1.
        -15    1    3    3    0    0  0.11917673572E+03 -0.18075922720E+02 -0.11103321871E+03  0.16389437668E+03  0.17770000000E+01 0. -1.
         15    1    3    3    0    0  0.95584122676E+02  0.68790888028E+02 -0.26840311498E+03  0.29310731933E+03  0.17770000000E+01 0.  1.
</event>
<event>
 7    1  0.3970441E-006  0.5230898E+03  0.7546771E-02  0.9349577E-01
        -11   -1    0    0    0    0  0.00000000000E+00  0.00000000000E+00  0.50000000000E+03  0.50000000000E+03  0.00000000000E+00 0. -1.
         11   -1    0    0    0    0 -0.00000000000E+00 -0.00000000000E+00 -0.50000000000E+03  0.50000000000E+03  0.00000000000E+00 0.  1.
         23    2    1    2    0    0  0.45670723635E+02 -0.74491724454E+02  0.51925144176E+02  0.13571904259E+03  0.89936677251E+02 0.  0.
        -11    1    1    2    0    0  0.20779353276E+03 -0.10747652865E+03  0.30875029176E+03  0.38737075151E+03  0.00000000000E+00 0. -1.
         11    1    1    2    0    0 -0.25346425639E+03  0.18196825310E+03 -0.36067543593E+03  0.47691020590E+03  0.00000000000E+00 0.  1.
        -15    1    3    3    0    0  0.25406827899E+02 -0.53689596870E+02 -0.16240766853E+02  0.61603570943E+02  0.17770000000E+01 0.  1.
         15    1    3    3    0    0  0.20263895736E+02 -0.20802127584E+02  0.68165911029E+02  0.74115471649E+02  0.17770000000E+01 0. -1.
</event>
<event>
 7    1  0.3970441E-006  0.5233557E+03  0.7546771E-02  0.9349014E-01
        -11   -1    0    0    0    0  0.00000000000E+00  0.00000000000E+00  0.50000000000E+03  0.50000000000E+03  0.00000000000E+00 0.  1.
         11   -1    0    0    0    0 -0.00000000000E+00 -0.00000000000E+00 -0.50000000000E+03  0.50000000000E+03  0.00000000000E+00 0. -1.
         23    2    1    2    0    0  0.58588437323E+02 -0.40234292258E+02 -0.40074155515E+03  0.41718538764E+03  0.91643059593E+02 0.  0.
        -11    1    1    2    0    0 -0.31729813694E+02  0.12490616917E+03  0.45889155419E+03  0.47664430206E+03  0.00000000000E+00 0.  1.
         11    1    1    2    0    0 -0.26858623629E+02 -0.84671876908E+02 -0.58149999042E+02  0.10617031031E+03  0.00000000000E+00 0. -1.
        -15    1    3    3    0    0  0.77139311511E+01 -0.47858571988E+02 -0.90292041200E+02  0.10249760036E+03  0.17770000000E+01 0.  1.
         15    1    3    3    0    0  0.50874506172E+02  0.76242797309E+01 -0.31044951395E+03  0.31468778728E+03  0.17770000000E+01 0. -1.
</event>
<event>
 7    1  0.3970441E-006  0.4989937E+03  0.7546771E-02  0.9402064E-01
        -11   -1    0    0    0    0  0.00000000000E+00  0.00000000000E+00  0.50000000000E+03  0.50000000000E+03  0.00000000000E+00 0.  1.
         11   -1    0    0    0    0 -0.00000000000E+00 -0.00000000000E+00 -0.50000000000E+03  0.50000000000E+03  0.00000000000E+00 0. -1.
         23    2    1    2    0    0 -0.81238587836E+02 -0.11924624829E+03 -0.46657300596E+03  0.49698797601E+03  0.92126557103E+02 0.  0.
        -11    1    1    2    0    0  0.89834318270E+02  0.12522341814E+03  0.46774222682E+03  0.49247730906E+03  0.00000000000E+00 0.  1.
         11    1    1    2    0    0 -0.85957304345E+01 -0.59771698489E+01 -0.11692208569E+01  0.10534714923E+02  0.00000000000E+00 0. -1.
        -15    1    3    3    0    0 -0.64275973961E+02 -0.15815845294E+02 -0.17066301109E+03  0.18305890548E+03  0.17770000000E+01 0.  1.
         15    1    3    3    0    0 -0.16962613875E+02 -0.10343040299E+03 -0.29590999487E+03  0.31392907054E+03  0.17770000000E+01 0. -1.
</event>
<event>
 7    1  0.3970441E-006  0.5107316E+03  0.7546771E-02  0.9376112E-01
        -11   -1    0    0    0    0  0.00000000000E+00  0.00000000000E+00  0.50000000000E+03  0.50000000000E+03  0.00000000000E+00 0.  1.
         11   -1    0    0    0    0 -0.00000000000E+00 -0.00000000000E+00 -0.50000000000E+03  0.50000000000E+03  0.00000000000E+00 0.  1.
         23    2    1    2    0    0 -0.50471913642E+01 -0.82060199357E+02  0.13370518000E+03  0.17467430672E+03  0.76646512053E+02 0.  0.
        -11    1    1    2    0    0 -0.14608696219E+02 -0.94561027977E+02  0.32214799336E+03  0.33605733386E+03  0.00000000000E+00 0.  1.
         11    1    1    2    0    0  0.19655887583E+02  0.17662122733E+03 -0.45585317336E+03  0.48926835942E+03  0.00000000000E+00 0.  1.
        -15    1    3    3    0    0 -0.41744295809E+01 -0.17483165463E+02  0.10035411991E+03  0.10196663204E+03  0.17770000000E+01 0. -1.
         15    1    3    3    0    0 -0.87276178332E+00 -0.64577033894E+02  0.33351060091E+02  0.72707674684E+02  0.17770000000E+01 0.  1.
</event>
<event>
 7    1  0.3970441E-006  0.5147982E+03  0.7546771E-02  0.9367293E-01
        -11   -1    0    0    0    0  0.00000000000E+00  0.00000000000E+00  0.50000000000E+03  0.50000000000E+03  0.00000000000E+00 0.  1.
         11   -1    0    0    0    0 -0.00000000000E+00 -0.00000000000E+00 -0.50000000000E+03  0.50000000000E+03  0.00000000000E+00 0. -1.
         23    2    1    2    0    0 -0.20543757926E+03 -0.17867087324E+02 -0.42964469415E+03  0.48520180628E+03  0.91117494641E+02 0.  0.
        -11    1    1    2    0    0  0.58615845617E+02 -0.24067796731E+02  0.32150657752E+03  0.32769125039E+03  0.00000000000E+00 0.  1.
         11    1    1    2    0    0  0.14682173365E+03  0.41934884055E+02  0.10813811663E+03  0.18710694332E+03  0.00000000000E+00 0. -1.
        -15    1    3    3    0    0 -0.87626627193E+02 -0.18178284743E+02 -0.95491691718E+02  0.13088428762E+03  0.17770000000E+01 0.  1.
         15    1    3    3    0    0 -0.11781095207E+03  0.31119741943E+00 -0.33415300243E+03  0.35431751866E+03  0.17770000000E+01 0. -1.
</event>
<event>
 6    1  0.3970441E-006  0.5229440E+03  0.7546771E-02  0.9349885E-01
        -11   -1    0    0    0    0  0.00000000000E+00  0.00000000000E+00  0.50000000000E+03  0.50000000000E+03  0.00000000000E+00 0. -1.
         11   -1    0    0    0    0 -0.00000000000E+00 -0.00000000000E+00 -0.50000000000E+03  0.50000000000E+03  0.00000000000E+00 0. -1.
        -11    1    1    2    0    0  0.38836010815E+03 -0.23725403327E+03  0.14307137303E+03  0.47705604250E+03  0.00000000000E+00 0. -1.
         11    1    1    2    0    0 -0.15564749917E+03  0.50305163292E+02 -0.86450577580E+02  0.18501474486E+03  0.00000000000E+00 0. -1.
        -15    1    1    2    0    0 -0.22973459266E+03  0.20780651454E+03 -0.62412537108E+02  0.31600634973E+03  0.17770000000E+01 0. -1.
         15    1    1    2    0    0 -0.29780163206E+01 -0.20857644564E+02  0.57917416596E+01  0.21922862915E+02  0.17770000000E+01 0.  1.
</event>
<event>
 7    1  0.3970441E-006  0.4669364E+03  0.7546771E-02  0.9476992E-01
        -11   -1    0    0    0    0  0.00000000000E+00  0.00000000000E+00  0.50000000000E+03  0.50000000000E+03  0.00000000000E+00 0.  1.
         11   -1    0    0    0    0 -0.00000000000E+00 -0.00000000000E+00 -0.50000000000E+03  0.50000000000E+03  0.00000000000E+00 0. -1.
         23    2    1    2    0    0  0.33603259242E+03  0.84715487515E+02  0.27324593554E+03  0.45125377313E+03  0.94191345068E+02 0.  0.
        -11    1    1    2    0    0 -0.19887690200E+02  0.29220889641E+02  0.63710554632E+02  0.72858873066E+02  0.00000000000E+00 0.  1.
         11    1    1    2    0    0 -0.31614490222E+03 -0.11393637716E+03 -0.33695649017E+03  0.47588735380E+03  0.00000000000E+00 0. -1.
        -15    1    3    3    0    0  0.31110268921E+03  0.78192441342E+02  0.21125697144E+03  0.38409843377E+03  0.17770000000E+01 0.  1.
         15    1    3    3    0    0  0.24929903209E+02  0.65230461733E+01  0.61988964100E+02  0.67155339360E+02  0.17770000000E+01 0. -1.
</event>
<event>
 7    1  0.3970441E-006  0.5136899E+03  0.7546771E-02  0.9369688E-01
        -11   -1    0    0    0    0  0.00000000000E+00  0.00000000000E+00  0.50000000000E+03  0.50000000000E+03  0.00000000000E+00 0. -1.
         11   -1    0    0    0    0 -0.00000000000E+00 -0.00000000000E+00 -0.50000000000E+03  0.50000000000E+03  0.00000000000E+00 0.  1.
         23    2    1    2    0    0 -0.59706675962E+02 -0.16670873526E+03 -0.44368557027E+03  0.48631008850E+03  0.91016082886E+02 0.  0.
        -11    1    1    2    0    0 -0.67592336267E+02  0.53688998977E+02  0.18312450183E+03  0.20244953866E+03  0.00000000000E+00 0. -1.
         11    1    1    2    0    0  0.12729901223E+03  0.11301973628E+03  0.26056106843E+03  0.31124037284E+03  0.00000000000E+00 0.  1.
        -15    1    3    3    0    0 -0.75250754540E+02 -0.94804237457E+02 -0.32324930805E+03  0.34517211994E+03  0.17770000000E+01 0.  1.
         15    1    3    3    0    0  0.15544078578E+02 -0.71904497801E+02 -0.12043626222E+03  0.14113796856E+03  0.17770000000E+01 0. -1.
</event>
<event>
 7    1  0.3970441E-006  0.5333069E+03  0.7546771E-02  0.9328220E-01
        -11   -1    0    0    0    0  0.00000000000E+00  0.00000000000E+00  0.50000000000E+03  0.50000000000E+03  0.00000000000E+00 0. -1.
         11   -1    0    0    0    0 -0.00000000000E+00 -0.00000000000E+00 -0.50000000000E+03  0.50000000000E+03  0.00000000000E+00 0.  1.
         23    2    1    2    0    0 -0.13865267255E+03  0.70525523245E+02 -0.28442554238E+03  0.33676163835E+03  0.91170712783E+02 0.  0.
        -11    1    1    2    0    0  0.89128534743E+02  0.71458965322E+01  0.45804744090E+03  0.46669306580E+03  0.00000000000E+00 0. -1.
         11    1    1    2    0    0  0.49524137812E+02 -0.77671419777E+02 -0.17362189853E+03  0.19654529586E+03  0.00000000000E+00 0.  1.
        -15    1    3    3    0    0 -0.11076910608E+03  0.26809083734E+02 -0.12527541035E+03  0.16936826149E+03  0.17770000000E+01 0.  1.
         15    1    3    3    0    0 -0.27883566479E+02  0.43716439511E+02 -0.15915013203E+03  0.16739337686E+03  0.17770000000E+01 0. -1.
</event>
<event>
 7    1  0.3970441E-006  0.4835372E+03  0.7546771E-02  0.9437419E-01
        -11   -1    0    0    0    0  0.00000000000E+00  0.00000000000E+00  0.50000000000E+03  0.50000000000E+03  0.00000000000E+00 0.  1.
         11   -1    0    0    0    0 -0.00000000000E+00 -0.00000000000E+00 -0.50000000000E+03  0.50000000000E+03  0.00000000000E+00 0. -1.
         23    2    1    2    0    0 -0.98476595152E+02  0.91112339572E+02 -0.46055954828E+03  0.48878038012E+03  0.93766008078E+02 0.  0.
        -11    1    1    2    0    0  0.60118383315E+02 -0.10479484753E+03  0.45420883773E+03  0.47000196633E+03  0.00000000000E+00 0.  1.
         11    1    1    2    0    0  0.38358211837E+02  0.13682507956E+02  0.63507105455E+01  0.41217653545E+02  0.00000000000E+00 0. -1.
        -15    1    3    3    0    0 -0.15715753955E+02  0.70564145690E+02 -0.14695358121E+03  0.16378277180E+03  0.17770000000E+01 0.  1.
         15    1    3    3    0    0 -0.82760841197E+02  0.20548193882E+02 -0.31360596706E+03  0.32499760832E+03  0.17770000000E+01 0. -1.
</event>
<event>
 7    1  0.3970441E-006  0.4960945E+03  0.7546771E-02  0.9408591E-01
        -11   -1    0    0    0    0  0.00000000000E+00  0.00000000000E+00  0.50000000000E+03  0.50000000000E+03  0.00000000000E+00 0. -1.
         11   -1    0    0    0    0 -0.00000000000E+00 -0.00000000000E+00 -0.50000000000E+03  0.50000000000E+03  0.00000000000E+00 0. -1.
         23    2    1    2    0    0  0.10377134392E+03  0.12805584398E+03 -0.45549209762E+03  0.49280447320E+03  0.90644397606E+02 0.  0.
        -11    1    1    2    0    0 -0.11504342917E+03 -0.11901164901E+03  0.46243174668E+03  0.49116380519E+03  0.00000000000E+00 0. -1.
         11    1    1    2    0    0  0.11272085256E+02 -0.90441949714E+01 -0.69396490583E+01  0.16031721609E+02  0.00000000000E+00 0. -1.
        -15    1    3    3    0    0  0.17677617345E+02  0.41663506887E+02 -0.24809736979E+03  0.25219795516E+03  0.17770000000E+01 0. -1.
         15    1    3    3    0    0  0.86093726573E+02  0.86392337094E+02 -0.20739472783E+03  0.24060651804E+03  0.17770000000E+01 0.  1.
</event>
<event>
 7    1  0.3970441E-006  0.4613717E+03  0.7546771E-02  0.9490650E-01
        -11   -1    0    0    0    0  0.00000000000E+00  0.00000000000E+00  0.50000000000E+03  0.50000000000E+03  0.00000000000E+00 0. -1.
         11   -1    0    0    0    0 -0.00000000000E+00 -0.00000000000E+00 -0.50000000000E+03  0.50000000000E+03  0.00000000000E+00 0. -1.
         23    2    1    2    0    0  0.50155846989E+02 -0.13888911065E+02 -0.41347363758E+03  0.42737279049E+03  0.94755169970E+02 0.  0.
        -11    1    1    2    0    0 -0.57079907983E+02  0.60420189306E+02  0.48221698662E+03  0.48932804677E+03  0.00000000000E+00 0. -1.
         11    1    1    2    0    0  0.69240609935E+01 -0.46531278241E+02 -0.68743349044E+02  0.83299162740E+02  0.00000000000E+00 0. -1.
        -15    1    3    3    0    0 -0.11266956288E+02 -0.38856914593E+02 -0.12605426441E+03  0.13239954464E+03  0.17770000000E+01 0.  1.
         15    1    3    3    0    0  0.61422803278E+02  0.24968003529E+02 -0.28741937317E+03  0.29497324585E+03  0.17770000000E+01 0. -1.
</event>
<event>
 7    1  0.3970441E-006  0.4554970E+03  0.7546771E-02  0.9505294E-01
        -11   -1    0    0    0    0  0.00000000000E+00  0.00000000000E+00  0.50000000000E+03  0.50000000000E+03  0.00000000000E+00 0.  1.
         11   -1    0    0    0    0 -0.00000000000E+00 -0.00000000000E+00 -0.50000000000E+03  0.50000000000E+03  0.00000000000E+00 0. -1.
         23    2    1    2    0    0 -0.87964071809E+01  0.55343803116E+02 -0.43986093642E+03  0.45299663144E+03  0.92671416256E+02 0.  0.
        -11    1    1    2    0    0 -0.83813494995E+02 -0.69449861796E+02  0.44006325870E+03  0.45332511171E+03  0.00000000000E+00 0.  1.
         11    1    1    2    0    0  0.92609902175E+02  0.14106058681E+02 -0.20232228129E+00  0.93678256852E+02  0.00000000000E+00 0. -1.
        -15    1    3    3    0    0 -0.49080916982E+02  0.45128836622E+02 -0.26984218336E+03  0.27796314496E+03  0.17770000000E+01 0.  1.
         15    1    3    3    0    0  0.40284509801E+02  0.10214966493E+02 -0.17001875306E+03  0.17503348649E+03  0.17770000000E+01 0. -1.
</event>
<event>
 7    1  0.3970441E-006  0.5087353E+03  0.7546771E-02  0.9380473E-01
        -11   -1    0    0    0    0  0.00000000000E+00  0.00000000000E+00  0.50000000000E+03  0.50000000000E+03  0.00000000000E+00 0. -1.
         11   -1    0    0    0    0 -0.00000000000E+00 -0.00000000000E+00 -0.50000000000E+03  0.50000000000E+03  0.00000000000E+00 0.  1.
         23    2    1    2    0    0  0.89269975911E+02 -0.23788011862E+02 -0.38304660696E+03  0.40416977630E+03  0.89963919791E+02 0.  0.
        -11    1    1    2    0    0 -0.82977324489E+02  0.61832286627E+02  0.48024218511E+03  0.49126471927E+03  0.00000000000E+00 0. -1.
         11    1    1    2    0    0 -0.62926514225E+01 -0.38044274765E+02 -0.97195578149E+02  0.10456550443E+03  0.00000000000E+00 0.  1.
        -15    1    3    3    0    0  0.72498675135E+02 -0.21286916562E+02 -0.37924314179E+03  0.38670105901E+03  0.17770000000E+01 0.  1.
         15    1    3    3    0    0  0.16771300777E+02 -0.25010953000E+01 -0.38034651632E+01  0.17468717288E+02  0.17770000000E+01 0. -1.
</event>
<event>
 7    1  0.3970441E-006  0.4581191E+03  0.7546771E-02  0.9498729E-01
        -11   -1    0    0    0    0  0.00000000000E+00  0.00000000000E+00  0.50000000000E+03  0.50000000000E+03  0.00000000000E+00 0.  1.
         11   -1    0    0    0    0 -0.00000000000E+00 -0.00000000000E+00 -0.50000000000E+03  0.50000000000E+03  0.00000000000E+00 0.  1.
         23    2    1    2    0    0  0.22740893192E+03 -0.49487457289E+02 -0.37490326691E+03  0.45086902707E+03  0.92555871186E+02 0.  0.
        -11    1    1    2    0    0 -0.18540754620E+03 -0.13788411703E+02  0.42104475350E+03  0.46026596978E+03  0.00000000000E+00 0.  1.
         11    1    1    2    0    0 -0.42001385718E+02  0.63275868992E+02 -0.46141486596E+02  0.88865003147E+02  0.00000000000E+00 0.  1.
        -15    1    3    3    0    0  0.12306509851E+03 -0.66532738263E+02 -0.25608468197E+03  0.29181183286E+03  0.17770000000E+01 0.  1.
         15    1    3    3    0    0  0.10434383341E+03  0.17045280974E+02 -0.11881858494E+03  0.15905719421E+03  0.17770000000E+01 0. -1.
</event>
<event>
 7    1  0.3970441E-006  0.5149391E+03  0.7546771E-02  0.9366989E-01
        -11   -1    0    0    0    0  0.00000000000E+00  0.00000000000E+00  0.50000000000E+03  0.50000000000E+03  0.00000000000E+00 0.  1.
         11   -1    0    0    0    0 -0.00000000000E+00 -0.00000000000E+00 -0.50000000000E+03  0.50000000000E+03  0.00000000000E+00 0.  1.
         23    2    1    2    0    0  0.16368152949E+02 -0.55782340550E+02 -0.47260058810E+03  0.48506094444E+03  0.92483609400E+02 0.  0.
        -11    1    1    2    0    0 -0.66595054781E+01 -0.68001922562E+02  0.25910795746E+03  0.26796556515E+03  0.00000000000E+00 0.  1.
         11    1    1    2    0    0 -0.97086474712E+01  0.12378426311E+03  0.21349263063E+03  0.24697349041E+03  0.00000000000E+00 0.  1.
        -15    1    3    3    0    0  0.48322424451E+02 -0.45762842850E+01 -0.22811525776E+03  0.23322891680E+03  0.17770000000E+01 0.  1.
         15    1    3    3    0    0 -0.31954271502E+02 -0.51206056265E+02 -0.24448533034E+03  0.25183202764E+03  0.17770000000E+01 0. -1.
</event>
<event>
 7    1  0.3970441E-006  0.3783258E+03  0.7546771E-02  0.9722702E-01
        -11   -1    0    0    0    0  0.00000000000E+00  0.00000000000E+00  0.50000000000E+03  0.50000000000E+03  0.00000000000E+00 0. -1.
         11   -1    0    0    0    0 -0.00000000000E+00 -0.00000000000E+00 -0.50000000000E+03  0.50000000000E+03  0.00000000000E+00 0.  1.
         23    2    1    2    0    0 -0.13921873555E+02  0.16946278437E+03 -0.99731030651E+02  0.21809246152E+03  0.93309107000E+02 0.  0.
        -11    1    1    2    0    0  0.76220664883E+01 -0.81105519538E+02  0.43118914828E+03  0.43881691261E+03  0.00000000000E+00 0. -1.
         11    1    1    2    0    0  0.62998070663E+01 -0.88357264829E+02 -0.33145811763E+03  0.34309062587E+03  0.00000000000E+00 0.  1.
        -15    1    3    3    0    0 -0.40070307396E+02  0.12777903488E+03 -0.38164536538E+02  0.13925803700E+03  0.17770000000E+01 0. -1.
         15    1    3    3    0    0  0.26148433841E+02  0.41683749482E+02 -0.61566494114E+02  0.78834424522E+02  0.17770000000E+01 0.  1.
</event>
<event>
 7    1  0.3970441E-006  0.4096023E+03  0.7546771E-02  0.9628447E-01
        -11   -1    0    0    0    0  0.00000000000E+00  0.00000000000E+00  0.50000000000E+03  0.50000000000E+03  0.00000000000E+00 0.  1.
         11   -1    0    0    0    0 -0.00000000000E+00 -0.00000000000E+00 -0.50000000000E+03  0.50000000000E+03  0.00000000000E+00 0. -1.
         23    2    1    2    0    0 -0.11572542590E+02 -0.11586987718E+03 -0.36153216513E+03  0.39098116927E+03  0.92741663364E+02 0.  0.
        -11    1    1    2    0    0 -0.11574300580E+03  0.23259733256E+03  0.35002705798E+03  0.43590928394E+03  0.00000000000E+00 0.  1.
         11    1    1    2    0    0  0.12731554839E+03 -0.11672745538E+03  0.11505107143E+02  0.17310954679E+03  0.00000000000E+00 0. -1.
        -15    1    3    3    0    0  0.91591226250E+01  0.11466324039E+02 -0.14362706945E+02  0.20610948402E+02  0.17770000000E+01 0.  1.
         15    1    3    3    0    0 -0.20731665215E+02 -0.12733620122E+03 -0.34716945818E+03  0.37037022087E+03  0.17770000000E+01 0. -1.
</event>
<event>
 7    1  0.3970441E-006  0.5240079E+03  0.7546771E-02  0.9347637E-01
        -11   -1    0    0    0    0  0.00000000000E+00  0.00000000000E+00  0.50000000000E+03  0.50000000000E+03  0.00000000000E+00 0.  1.
         11   -1    0    0    0    0 -0.00000000000E+00 -0.00000000000E+00 -0.50000000000E+03  0.50000000000E+03  0.00000000000E+00 0. -1.
         23    2    1    2    0    0 -0.15840587462E+02 -0.92578475147E+01 -0.23578016187E+03  0.25270089547E+03  0.89043954810E+02 0.  0.
        -11    1    1    2    0    0 -0.95783088920E+02 -0.10772262671E+03  0.45364071819E+03  0.47599208568E+03  0.00000000000E+00 0.  1.
         11    1    1    2    0    0  0.11162367638E+03  0.11698047423E+03 -0.21786055632E+03  0.27130701885E+03  0.00000000000E+00 0. -1.
        -15    1    3    3    0    0  0.22822073234E+01 -0.40629736303E+02 -0.55704971449E+02  0.69008590157E+02  0.17770000000E+01 0. -1.
         15    1    3    3    0    0 -0.18122794785E+02  0.31371888789E+02 -0.18007519042E+03  0.18369230531E+03  0.17770000000E+01 0.  1.
</event>
<event>
 7    1  0.3970441E-006  0.5138170E+03  0.7546771E-02  0.9369413E-01
        -11   -1    0    0    0    0  0.00000000000E+00  0.00000000000E+00  0.50000000000E+03  0.50000000000E+03  0.00000000000E+00 0. -1.
         11   -1    0    0    0    0 -0.00000000000E+00 -0.00000000000E+00 -0.50000000000E+03  0.50000000000E+03  0.00000000000E+00 0. -1.
         23    2    1    2    0    0 -0.12896748111E+03  0.89961341994E+02 -0.45052878547E+03  0.48618303714E+03  0.93124136666E+02 0.  0.
        -11    1    1    2    0    0  0.89074815744E+01 -0.10346492739E+03  0.31779215635E+03  0.33432946186E+03  0.00000000000E+00 0. -1.
         11    1    1    2    0    0  0.12005999953E+03  0.13503585395E+02  0.13273662912E+03  0.17948750100E+03  0.00000000000E+00 0. -1.
        -15    1    3    3    0    0 -0.62461897669E+02 -0.45069936534E+01 -0.11005212868E+03  0.12663502836E+03  0.17770000000E+01 0.  1.
         15    1    3    3    0    0 -0.66505583436E+02  0.94468335647E+02 -0.34047665680E+03  0.35954800878E+03  0.17770000000E+01 0. -1.
</event>
<event>
 7    1  0.3970441E-006  0.4044639E+03  0.7546771E-02  0.9643302E-01
        -11   -1    0    0    0    0  0.00000000000E+00  0.00000000000E+00  0.50000000000E+03  0.50000000000E+03  0.00000000000E+00 0.  1.
         11   -1    0    0    0    0 -0.00000000000E+00 -0.00000000000E+00 -0.50000000000E+03  0.50000000000E+03  0.00000000000E+00 0. -1.
         23    2    1    2    0    0  0.12899401288E+03  0.77673833560E+02 -0.48229731058E+01  0.17716330220E+03  0.93224968756E+02 0.  0.
        -11    1    1    2    0    0  0.99617175525E+02 -0.48798187598E+02  0.37264104615E+03  0.38880096971E+03  0.00000000000E+00 0.  1.
         11    1    1    2    0    0 -0.22861118841E+03 -0.28875645962E+02 -0.36781807305E+03  0.43403572808E+03  0.00000000000E+00 0. -1.
        -15    1    3    3    0    0  0.10375553331E+03  0.72499978244E+02 -0.40689387108E+02  0.13296706920E+03  0.17770000000E+01 0.  1.
         15    1    3    3    0    0  0.25238479566E+02  0.51738553156E+01  0.35866414002E+02  0.44196233007E+02  0.17770000000E+01 0. -1.
</event>
<event>
 7    1  0.3970441E-006  0.4874248E+03  0.7546771E-02  0.9428396E-01
        -11   -1    0    0    0    0  0.00000000000E+00  0.00000000000E+00  0.50000000000E+03  0.50000000000E+03  0.00000000000E+00 0. -1.
         11   -1    0    0    0    0 -0.00000000000E+00 -0.00000000000E+00 -0.50000000000E+03  0.50000000000E+03  0.00000000000E+00 0.  1.
         23    2    1    2    0    0 -0.14671868490E+03 -0.63346374504E+01  0.44914886162E+03  0.48155192289E+03  0.92687941055E+02 0.  0.
        -11    1    1    2    0    0  0.14401930976E+02  0.24924742482E+02  0.17065274576E+02  0.33464638052E+02  0.00000000000E+00 0. -1.
         11    1    1    2    0    0  0.13231675392E+03 -0.18590105032E+02 -0.46621413619E+03  0.48498343906E+03  0.00000000000E+00 0.  1.
        -15    1    3    3    0    0 -0.27405432568E+02  0.28864178734E+02  0.18941531559E+03  0.19356011484E+03  0.17770000000E+01 0.  1.
         15    1    3    3    0    0 -0.11931325233E+03 -0.35198816184E+02  0.25973354603E+03  0.28799180805E+03  0.17770000000E+01 0. -1.
</event>
<event>
 7    1  0.3970441E-006  0.5246234E+03  0.7546771E-02  0.9346338E-01
        -11   -1    0    0    0    0  0.00000000000E+00  0.00000000000E+00  0.50000000000E+03  0.50000000000E+03  0.00000000000E+00 0. -1.
         11   -1    0    0    0    0 -0.00000000000E+00 -0.00000000000E+00 -0.50000000000E+03  0.50000000000E+03  0.00000000000E+00 0.  1.
         23    2    1    2    0    0  0.61632077843E+02  0.10643309230E+02 -0.11528243807E+03  0.16309138764E+03  0.96937955118E+02 0.  0.
        -11    1    1    2    0    0 -0.78482261494E+02 -0.19081384816E+03  0.42826808935E+03  0.47537663633E+03  0.00000000000E+00 0. -1.
         11    1    1    2    0    0  0.16850183651E+02  0.18017053893E+03 -0.31298565128E+03  0.36153197603E+03  0.00000000000E+00 0.  1.
        -15    1    3    3    0    0  0.66750272353E+02  0.19744010191E+02 -0.12850023485E+03  0.14615366189E+03  0.17770000000E+01 0. -1.
         15    1    3    3    0    0 -0.51181945104E+01 -0.91007009616E+01  0.13217796775E+02  0.16937725751E+02  0.17770000000E+01 0.  1.
</event>
<event>
 7    1  0.3970441E-006  0.5125010E+03  0.7546771E-02  0.9372264E-01
        -11   -1    0    0    0    0  0.00000000000E+00  0.00000000000E+00  0.50000000000E+03  0.50000000000E+03  0.00000000000E+00 0.  1.
         11   -1    0    0    0    0 -0.00000000000E+00 -0.00000000000E+00 -0.50000000000E+03  0.50000000000E+03  0.00000000000E+00 0. -1.
         23    2    1    2    0    0  0.67302186250E+01  0.81422668441E+02  0.34349702981E+03  0.36518148741E+03  0.93232840131E+02 0.  0.
        -11    1    1    2    0    0 -0.34770071711E+02  0.88395652290E+02  0.11260684218E+03  0.14731955110E+03  0.00000000000E+00 0.  1.
         11    1    1    2    0    0  0.28039853086E+02 -0.16981832073E+03 -0.45610387199E+03  0.48749896149E+03  0.00000000000E+00 0. -1.
        -15    1    3    3    0    0  0.48904834269E+02  0.44010365630E+02  0.21503370716E+03  0.22488051948E+03  0.17770000000E+01 0.  1.
         15    1    3    3    0    0 -0.42174615644E+02  0.37412302810E+02  0.12846332265E+03  0.14030096793E+03  0.17770000000E+01 0. -1.
</event>
<event>
 7    1  0.3970441E-006  0.4125952E+03  0.7546771E-02  0.9619901E-01
        -11   -1    0    0    0    0  0.00000000000E+00  0.00000000000E+00  0.50000000000E+03  0.50000000000E+03  0.00000000000E+00 0.  1.
         11   -1    0    0    0    0 -0.00000000000E+00 -0.00000000000E+00 -0.50000000000E+03  0.50000000000E+03  0.00000000000E+00 0. -1.
         23    2    1    2    0    0 -0.99388974745E+02 -0.91050316981E+02  0.40920624607E+02  0.16287265772E+03  0.81759871531E+02 0.  0.
        -11    1    1    2    0    0  0.70223147938E+02 -0.12287180428E+02  0.38824370105E+03  0.39473464089E+03  0.00000000000E+00 0.  1.
         11    1    1    2    0    0  0.29165826808E+02  0.10333749741E+03 -0.42916432566E+03  0.44239270139E+03  0.00000000000E+00 0. -1.
        -15    1    3    3    0    0 -0.11338827121E+03 -0.74843513318E+02  0.31908386582E+02  0.13956989073E+03  0.17770000000E+01 0.  1.
         15    1    3    3    0    0  0.13999296467E+02 -0.16206803662E+02  0.90122380259E+01  0.23302766998E+02  0.17770000000E+01 0. -1.
</event>
<event>
 6    1  0.3970441E-006  0.3604973E+03  0.7546771E-02  0.9780906E-01
        -11   -1    0    0    0    0  0.00000000000E+00  0.00000000000E+00  0.50000000000E+03  0.50000000000E+03  0.00000000000E+00 0.  1.
         11   -1    0    0    0    0 -0.00000000000E+00 -0.00000000000E+00 -0.50000000000E+03  0.50000000000E+03  0.00000000000E+00 0.  1.
        -11    1    1    2    0    0 -0.60828596670E+02  0.27941804419E+02  0.36319704950E+03  0.36931417434E+03  0.00000000000E+00 0.  1.
         11    1    1    2    0    0 -0.30081095590E+02 -0.19417459646E+03 -0.22535576150E+03  0.29898806910E+03  0.00000000000E+00 0.  1.
        -15    1    1    2    0    0  0.33826814940E+02 -0.59710137038E+02 -0.31911366176E+02  0.75703678209E+02  0.17770000000E+01 0. -1.
         15    1    1    2    0    0  0.57082877320E+02  0.22594292908E+03 -0.10592992182E+03  0.25599407835E+03  0.17770000000E+01 0.  1.
</event>
<event>
 7    1  0.3970441E-006  0.4570969E+03  0.7546771E-02  0.9501282E-01
        -11   -1    0    0    0    0  0.00000000000E+00  0.00000000000E+00  0.50000000000E+03  0.50000000000E+03  0.00000000000E+00 0.  1.
         11   -1    0    0    0    0 -0.00000000000E+00 -0.00000000000E+00 -0.50000000000E+03  0.50000000000E+03  0.00000000000E+00 0.  1.
         23    2    1    2    0    0 -0.28943901794E+03  0.23619870933E+03 -0.29046544898E+03  0.48213185315E+03  0.92283104518E+02 0.  0.
        -11    1    1    2    0    0 -0.11751470194E+02 -0.96051089589E+01  0.89406183078E+02  0.90685284046E+02  0.00000000000E+00 0.  1.
         11    1    1    2    0    0  0.30119048813E+03 -0.22659360037E+03  0.20105926590E+03  0.42718286280E+03  0.00000000000E+00 0.  1.
        -15    1    3    3    0    0 -0.49746153702E+02  0.74137558247E+02 -0.10767601914E+03  0.13988688351E+03  0.17770000000E+01 0. -1.
         15    1    3    3    0    0 -0.23969286424E+03  0.16206115109E+03 -0.18278942983E+03  0.34224496964E+03  0.17770000000E+01 0.  1.
</event>
<event>
 6    1  0.3970441E-006  0.3015637E+03  0.7546771E-02  0.1000245E+00
        -11   -1    0    0    0    0  0.00000000000E+00  0.00000000000E+00  0.50000000000E+03  0.50000000000E+03  0.00000000000E+00 0. -1.
         11   -1    0    0    0    0 -0.00000000000E+00 -0.00000000000E+00 -0.50000000000E+03  0.50000000000E+03  0.00000000000E+00 0. -1.
        -11    1    1    2    0    0  0.52401948418E+02  0.70180797749E+02  0.12808187766E+03  0.15516531815E+03  0.00000000000E+00 0. -1.
         11    1    1    2    0    0  0.17862803068E+03  0.17823483279E+03 -0.94098226989E+02  0.26931413867E+03  0.00000000000E+00 0. -1.
        -15    1    1    2    0    0 -0.79819234902E+01  0.33354496845E+02  0.16239963781E+03  0.16599106497E+03  0.17770000000E+01 0.  1.
         15    1    1    2    0    0 -0.22304805561E+03 -0.28177012738E+03 -0.19638328848E+03  0.40952947821E+03  0.17770000000E+01 0. -1.
</event>
<event>
 7    1  0.3970441E-006  0.3479873E+03  0.7546771E-02  0.9823944E-01
        -11   -1    0    0    0    0  0.00000000000E+00  0.00000000000E+00  0.50000000000E+03  0.50000000000E+03  0.00000000000E+00 0.  1.
         11   -1    0    0    0    0 -0.00000000000E+00 -0.00000000000E+00 -0.50000000000E+03  0.50000000000E+03  0.00000000000E+00 0. -1.
         23    2    1    2    0    0  0.16025506437E+03  0.21415284602E+02 -0.18280256050E+03  0.26247875509E+03  0.96633434570E+02 0.  0.
        -11    1    1    2    0    0 -0.40991652329E+02  0.81861532861E+02  0.43254153316E+03  0.44212419526E+03  0.00000000000E+00 0.  1.
         11    1    1    2    0    0 -0.11926341204E+03 -0.10327681746E+03 -0.24973897266E+03  0.29539704965E+03  0.00000000000E+00 0. -1.
        -15    1    3    3    0    0  0.14649055292E+03  0.23948284911E+02 -0.10118589866E+03  0.17965173604E+03  0.17770000000E+01 0. -1.
         15    1    3    3    0    0  0.13764511448E+02 -0.25330003090E+01 -0.81616661835E+02  0.82827019046E+02  0.17770000000E+01 0.  1.
</event>
<event>
 7    1  0.3970441E-006  0.3597921E+03  0.7546771E-02  0.9783282E-01
        -11   -1    0    0    0    0  0.00000000000E+00  0.00000000000E+00  0.50000000000E+03  0.50000000000E+03  0.00000000000E+00 0. -1.
         11   -1    0    0    0    0 -0.00000000000E+00 -0.00000000000E+00 -0.50000000000E+03  0.50000000000E+03  0.00000000000E+00 0. -1.
         23    2    1    2    0    0 -0.12784187924E+03  0.65040728516E+01 -0.25376852588E+03  0.29810841748E+03  0.89912817743E+02 0.  0.
        -11    1    1    2    0    0 -0.42446696715E+01  0.84085773747E+02  0.44474384103E+03  0.45264281581E+03  0.00000000000E+00 0. -1.
         11    1    1    2    0    0  0.13208654891E+03 -0.90589846599E+02 -0.19097531515E+03  0.24924876671E+03  0.00000000000E+00 0. -1.
        -15    1    3    3    0    0  0.80375955668E+01  0.15429096365E+02 -0.14153874361E+02  0.22497774235E+02  0.17770000000E+01 0.  1.
         15    1    3    3    0    0 -0.13587947481E+03 -0.89250235132E+01 -0.23961465152E+03  0.27561064324E+03  0.17770000000E+01 0. -1.
</event>
<event>
 7    1  0.3970441E-006  0.5126537E+03  0.7546771E-02  0.9371933E-01
        -11   -1    0    0    0    0  0.00000000000E+00  0.00000000000E+00  0.50000000000E+03  0.50000000000E+03  0.00000000000E+00 0. -1.
         11   -1    0    0    0    0 -0.00000000000E+00 -0.00000000000E+00 -0.50000000000E+03  0.50000000000E+03  0.00000000000E+00 0. -1.
         23    2    1    2    0    0  0.15893819342E+02 -0.10792708497E+02 -0.20459920454E+03  0.22538794609E+03  0.92573191001E+02 0.  0.
        -11    1    1    2    0    0  0.47971891232E+01  0.99364338602E+02  0.47708506614E+03  0.48734632978E+03  0.00000000000E+00 0. -1.
         11    1    1    2    0    0 -0.20691008465E+02 -0.88571630105E+02 -0.27248586160E+03  0.28726572413E+03  0.00000000000E+00 0. -1.
        -15    1    3    3    0    0 -0.24157287232E+02  0.18518937286E+02 -0.14323827611E+03  0.14644755729E+03  0.17770000000E+01 0. -1.
         15    1    3    3    0    0  0.40051106574E+02 -0.29311645783E+02 -0.61360928437E+02  0.78940388800E+02  0.17770000000E+01 0.  1.
</event>
<event>
 7    1  0.3970441E-006  0.4745244E+03  0.7546771E-02  0.9458690E-01
        -11   -1    0    0    0    0  0.00000000000E+00  0.00000000000E+00  0.50000000000E+03  0.50000000000E+03  0.00000000000E+00 0.  1.
         11   -1    0    0    0    0 -0.00000000000E+00 -0.00000000000E+00 -0.50000000000E+03  0.50000000000E+03  0.00000000000E+00 0. -1.
         23    2    1    2    0    0 -0.21922886781E+02 -0.37213356711E+02 -0.45655128465E+03  0.46743389967E+03  0.90498221896E+02 0.  0.
        -11    1    1    2    0    0  0.92608119374E+01  0.92995960455E+02  0.46539425287E+03  0.47468497122E+03  0.00000000000E+00 0.  1.
         11    1    1    2    0    0  0.12662074843E+02 -0.55782603743E+02 -0.88429682174E+01  0.57881129106E+02  0.00000000000E+00 0. -1.
        -15    1    3    3    0    0  0.28661925996E+02 -0.38084394187E+02 -0.26765264022E+03  0.27186949191E+03  0.17770000000E+01 0.  1.
         15    1    3    3    0    0 -0.50584812777E+02  0.87103747594E+00 -0.18889864443E+03  0.19556440777E+03  0.17770000000E+01 0. -1.
</event>
<event>
 7    1  0.3970441E-006  0.5349330E+03  0.7546771E-02  0.9324867E-01
        -11   -1    0    0    0    0  0.00000000000E+00  0.00000000000E+00  0.50000000000E+03  0.50000000000E+03  0.00000000000E+00 0.  1.
         11   -1    0    0    0    0 -0.00000000000E+00 -0.00000000000E+00 -0.50000000000E+03  0.50000000000E+03  0.00000000000E+00 0. -1.
         23    2    1    2    0    0 -0.29961697810E+02 -0.96820058610E+01  0.61996993547E+02  0.11484962723E+03  0.91407686178E+02 0.  0.
        -11    1    1    2    0    0 -0.68962475378E+02  0.29167159090E+03  0.29434999400E+03  0.42008339519E+03  0.00000000000E+00 0.  1.
         11    1    1    2    0    0  0.98924173188E+02 -0.28198958504E+03 -0.35634698754E+03  0.46506697758E+03  0.00000000000E+00 0. -1.
        -15    1    3    3    0    0  0.17107180361E+02 -0.14606588394E+02  0.63578585131E+02  0.67464081264E+02  0.17770000000E+01 0.  1.
         15    1    3    3    0    0 -0.47068878172E+02  0.49245825329E+01 -0.15815915847E+01  0.47385545965E+02  0.17770000000E+01 0. -1.
</event>
<event>
 7    1  0.3970441E-006  0.4523288E+03  0.7546771E-02  0.9513289E-01
        -11   -1    0    0    0    0  0.00000000000E+00  0.00000000000E+00  0.50000000000E+03  0.50000000000E+03  0.00000000000E+00 0.  1.
         11   -1    0    0    0    0 -0.00000000000E+00 -0.00000000000E+00 -0.50000000000E+03  0.50000000000E+03  0.00000000000E+00 0. -1.
         23    2    1    2    0    0 -0.22582792363E+03  0.20629906628E+02  0.31606028337E+03  0.40873231174E+03  0.12547571798E+03 0.  0.
        -11    1    1    2    0    0 -0.14275686468E+02  0.27641761009E+02  0.10206280003E+03  0.10669900340E+03  0.00000000000E+00 0.  1.
         11    1    1    2    0    0  0.24010361010E+03 -0.48271667637E+02 -0.41812308340E+03  0.48456868486E+03  0.00000000000E+00 0. -1.
        -15    1    3    3    0    0 -0.22117248249E+03 -0.14860605608E+01  0.31641589111E+03  0.38605912664E+03  0.17770000000E+01 0.  1.
         15    1    3    3    0    0 -0.46554411343E+01  0.22115967189E+02 -0.35560773839E+00  0.22673185103E+02  0.17770000000E+01 0. -1.
</event>
<event>
 7    1  0.3970441E-006  0.4655391E+03  0.7546771E-02  0.9480402E-01
        -11   -1    0    0    0    0  0.00000000000E+00  0.00000000000E+00  0.50000000000E+03  0.50000000000E+03  0.00000000000E+00 0. -1.
         11   -1    0    0    0    0 -0.00000000000E+00 -0.00000000000E+00 -0.50000000000E+03  0.50000000000E+03  0.00000000000E+00 0.  1.
         23    2    1    2    0    0 -0.65112147990E+02  0.24215874917E+03  0.34955758054E+03  0.43975077853E+03  0.91158068688E+02 0.  0.
        -11    1    1    2    0    0  0.10537582100E+02 -0.10456525578E+02  0.73411052741E+02  0.74897010809E+02  0.00000000000E+00 0. -1.
         11    1    1    2    0    0  0.54574565890E+02 -0.23170222360E+03 -0.42296863328E+03  0.48535221066E+03  0.00000000000E+00 0.  1.
        -15    1    3    3    0    0 -0.54522079041E+01  0.28588411400E+02  0.10788717618E+03  0.11175788272E+03  0.17770000000E+01 0.  1.
         15    1    3    3    0    0 -0.59659940086E+02  0.21357033777E+03  0.24167040436E+03  0.32799289581E+03  0.17770000000E+01 0. -1.
</event>
<event>
 7    1  0.3970441E-006  0.5245902E+03  0.7546771E-02  0.9346408E-01
        -11   -1    0    0    0    0  0.00000000000E+00  0.00000000000E+00  0.50000000000E+03  0.50000000000E+03  0.00000000000E+00 0. -1.
         11   -1    0    0    0    0 -0.00000000000E+00 -0.00000000000E+00 -0.50000000000E+03  0.50000000000E+03  0.00000000000E+00 0. -1.
         23    2    1    2    0    0 -0.37189687406E+03 -0.63172351330E+02 -0.27659672506E+03  0.47540980860E+03  0.84915881288E+02 0.  0.
        -11    1    1    2    0    0  0.10483922272E+03 -0.10804942878E+01  0.22062087344E+03  0.24426624794E+03  0.00000000000E+00 0. -1.
         11    1    1    2    0    0  0.26705765134E+03  0.64252845618E+02  0.55975851619E+02  0.28032394345E+03  0.00000000000E+00 0. -1.
        -15    1    3    3    0    0 -0.31114756045E+03 -0.72013245855E+02 -0.25990352611E+03  0.41176657534E+03  0.17770000000E+01 0. -1.
         15    1    3    3    0    0 -0.60749313610E+02  0.88408945249E+01 -0.16693198945E+02  0.63643233263E+02  0.17770000000E+01 0.  1.
</event>
<event>
 7    1  0.3970441E-006  0.4099365E+03  0.7546771E-02  0.9627489E-01
        -11   -1    0    0    0    0  0.00000000000E+00  0.00000000000E+00  0.50000000000E+03  0.50000000000E+03  0.00000000000E+00 0.  1.
         11   -1    0    0    0    0 -0.00000000000E+00 -0.00000000000E+00 -0.50000000000E+03  0.50000000000E+03  0.00000000000E+00 0. -1.
         23    2    1    2    0    0  0.25280881196E+01  0.11070988155E+03  0.84860281659E+02  0.16834130208E+03  0.94204338965E+02 0.  0.
        -11    1    1    2    0    0 -0.30647806074E+03  0.37893255400E+02  0.21765239812E+03  0.37780585878E+03  0.00000000000E+00 0.  1.
         11    1    1    2    0    0  0.30394997262E+03 -0.14860313695E+03 -0.30251267978E+03  0.45385283914E+03  0.00000000000E+00 0. -1.
        -15    1    3    3    0    0 -0.15777105229E+01  0.17804455872E+02  0.72283391158E+02  0.74481770828E+02  0.17770000000E+01 0.  1.
         15    1    3    3    0    0  0.41057986425E+01  0.92905425678E+02  0.12576890501E+02  0.93859531251E+02  0.17770000000E+01 0. -1.
</event>
<event>
 7    1  0.3970441E-006  0.5314612E+03  0.7546771E-02  0.9332040E-01
        -11   -1    0    0    0    0  0.00000000000E+00  0.00000000000E+00  0.50000000000E+03  0.50000000000E+03  0.00000000000E+00 0.  1.
         11   -1    0    0    0    0 -0.00000000000E+00 -0.00000000000E+00 -0.50000000000E+03  0.50000000000E+03  0.00000000000E+00 0. -1.
         23    2    1    2    0    0  0.35477907860E+02  0.22408376894E+02 -0.37131001082E+03  0.38636347411E+03  0.98207905453E+02 0.  0.
        -11    1    1    2    0    0 -0.14272124475E+03 -0.95783609225E+02  0.43587237829E+03  0.46853877497E+03  0.00000000000E+00 0.  1.
         11    1    1    2    0    0  0.10724333689E+03  0.73375232331E+02 -0.64562367470E+02  0.14509775091E+03  0.00000000000E+00 0. -1.
        -15    1    3    3    0    0 -0.19202231961E+02  0.36909885572E+02 -0.23675260432E+03  0.24038722667E+03  0.17770000000E+01 0.  1.
         15    1    3    3    0    0  0.54680139821E+02 -0.14501508678E+02 -0.13455740650E+03  0.14597624745E+03  0.17770000000E+01 0. -1.
</event>
<event>
 7    1  0.3970441E-006  0.4470360E+03  0.7546771E-02  0.9526802E-01
        -11   -1    0    0    0    0  0.00000000000E+00  0.00000000000E+00  0.50000000000E+03  0.50000000000E+03  0.00000000000E+00 0.  1.
         11   -1    0    0    0    0 -0.00000000000E+00 -0.00000000000E+00 -0.50000000000E+03  0.50000000000E+03  0.00000000000E+00 0. -1.
         23    2    1    2    0    0  0.18310081159E+02  0.67785403977E+02 -0.40853954074E+03  0.42458741716E+03  0.91868375414E+02 0.  0.
        -11    1    1    2    0    0  0.64566213604E+02 -0.12882825064E+03  0.44380076184E+03  0.46660971948E+03  0.00000000000E+00 0.  1.
         11    1    1    2    0    0 -0.82876294763E+02  0.61042846661E+02 -0.35261221105E+02  0.10880286336E+03  0.00000000000E+00 0. -1.
        -15    1    3    3    0    0  0.34520439533E+02 -0.90801440886E+01 -0.15908527948E+03  0.16305027948E+03  0.17770000000E+01 0.  1.
         15    1    3    3    0    0 -0.16210358374E+02  0.76865548065E+02 -0.24945426126E+03  0.26153713768E+03  0.17770000000E+01 0. -1.
</event>
<event>
 6    1  0.3970441E-006  0.3702899E+03  0.7546771E-02  0.9748502E-01
        -11   -1    0    0    0    0  0.00000000000E+00  0.00000000000E+00  0.50000000000E+03  0.50000000000E+03  0.00000000000E+00 0.  1.
         11   -1    0    0    0    0 -0.00000000000E+00 -0.00000000000E+00 -0.50000000000E+03  0.50000000000E+03  0.00000000000E+00 0. -1.
        -11    1    1    2    0    0 -0.86061663776E+02 -0.42063044942E+02  0.24012652827E+03  0.25852786948E+03  0.00000000000E+00 0.  1.
         11    1    1    2    0    0  0.17487670571E+03 -0.23344435700E+03 -0.27365631666E+03  0.39995738481E+03  0.00000000000E+00 0. -1.
        -15    1    1    2    0    0 -0.10340244282E+03  0.87072420536E+02  0.64831562633E+02  0.14993318793E+03  0.17770000000E+01 0.  1.
         15    1    1    2    0    0  0.14587400889E+02  0.18843498140E+03 -0.31301774239E+02  0.19158155778E+03  0.17770000000E+01 0. -1.
</event>
<event>
 7    1  0.3970441E-006  0.3579474E+03  0.7546771E-02  0.9789525E-01
        -11   -1    0    0    0    0  0.00000000000E+00  0.00000000000E+00  0.50000000000E+03  0.50000000000E+03  0.00000000000E+00 0. -1.
         11   -1    0    0    0    0 -0.00000000000E+00 -0.00000000000E+00 -0.50000000000E+03  0.50000000000E+03  0.00000000000E+00 0. -1.
         23    2    1    2    0    0 -0.66146658361E+02 -0.42648709015E+02 -0.21751592996E+03  0.24766166043E+03  0.88480650256E+02 0.  0.
        -11    1    1    2    0    0  0.35380397318E+03 -0.12587842216E+03  0.18125168492E+03  0.41698297554E+03  0.00000000000E+00 0. -1.
         11    1    1    2    0    0 -0.28765731482E+03  0.16852713117E+03  0.36264245041E+02  0.33535536402E+03  0.00000000000E+00 0. -1.
        -15    1    3    3    0    0  0.64103167670E+01 -0.22690771886E+02 -0.78844381842E+01  0.24925596970E+02  0.17770000000E+01 0.  1.
         15    1    3    3    0    0 -0.72556975128E+02 -0.19957937128E+02 -0.20963149178E+03  0.22273606346E+03  0.17770000000E+01 0. -1.
</event>
<event>
 7    1  0.3970441E-006  0.5106725E+03  0.7546771E-02  0.9376241E-01
        -11   -1    0    0    0    0  0.00000000000E+00  0.00000000000E+00  0.50000000000E+03  0.50000000000E+03  0.00000000000E+00 0.  1.
         11   -1    0    0    0    0 -0.00000000000E+00 -0.00000000000E+00 -0.50000000000E+03  0.50000000000E+03  0.00000000000E+00 0. -1.
         23    2    1    2    0    0 -0.41248698120E+02  0.36481712262E+02  0.19966941779E+03  0.22765499040E+03  0.94480409760E+02 0.  0.
        -11    1    1    2    0    0 -0.26320873652E+02  0.63400529444E+02  0.27456603867E+03  0.28301753500E+03  0.00000000000E+00 0.  1.
         11    1    1    2    0    0  0.67569571772E+02 -0.99882241706E+02 -0.47423545646E+03  0.48932747460E+03  0.00000000000E+00 0. -1.
        -15    1    3    3    0    0  0.19057012200E+02  0.39285059420E+02  0.11979421816E+03  0.12751587368E+03  0.17770000000E+01 0.  1.
         15    1    3    3    0    0 -0.60305710319E+02 -0.28033471578E+01  0.79875199627E+02  0.10013911672E+03  0.17770000000E+01 0. -1.
</event>
<event>
 7    1  0.3970441E-006  0.5311995E+03  0.7546771E-02  0.9332583E-01
        -11   -1    0    0    0    0  0.00000000000E+00  0.00000000000E+00  0.50000000000E+03  0.50000000000E+03  0.00000000000E+00 0.  1.
         11   -1    0    0    0    0 -0.00000000000E+00 -0.00000000000E+00 -0.50000000000E+03  0.50000000000E+03  0.00000000000E+00 0. -1.
         23    2    1    2    0    0  0.25470603721E+02  0.12583360024E+03 -0.30077786468E+03  0.33898548631E+03  0.89224376953E+02 0.  0.
        -11    1    1    2    0    0 -0.38778509828E+02 -0.31167078555E+03  0.34803947435E+03  0.46880051951E+03  0.00000000000E+00 0.  1.
         11    1    1    2    0    0  0.13307906107E+02  0.18583718531E+03 -0.47261609671E+02  0.19221399418E+03  0.00000000000E+00 0. -1.
        -15    1    3    3    0    0  0.58401236140E+02  0.92746040591E+02 -0.20886451910E+03  0.23588149036E+03  0.17770000000E+01 0. -1.
         15    1    3    3    0    0 -0.32930632419E+02  0.33087559645E+02 -0.91913345584E+02  0.10310399595E+03  0.17770000000E+01 0.  1.
</event>
<event>
 7    1  0.3970441E-006  0.3907403E+03  0.7546771E-02  0.9684163E-01
        -11   -1    0    0    0    0  0.00000000000E+00  0.00000000000E+00  0.50000000000E+03  0.50000000000E+03  0.00000000000E+00 0. -1.
         11   -1    0    0    0    0 -0.00000000000E+00 -0.00000000000E+00 -0.50000000000E+03  0.50000000000E+03  0.00000000000E+00 0.  1.
         23    2    1    2    0    0 -0.58011597131E+02  0.15417042997E+02 -0.35780344553E+03  0.37328679988E+03  0.87844742112E+02 0.  0.
        -11    1    1    2    0    0  0.13764882380E+03  0.17058787049E+03  0.36329763240E+03  0.42430247461E+03  0.00000000000E+00 0. -1.
         11    1    1    2    0    0 -0.79637226669E+02 -0.18600491349E+03 -0.54941868785E+01  0.20241072551E+03  0.00000000000E+00 0.  1.
        -15    1    3    3    0    0 -0.62147317824E+02 -0.22658470977E+02 -0.25859545207E+03  0.26692781979E+03  0.17770000000E+01 0.  1.
         15    1    3    3    0    0  0.41357206931E+01  0.38075513974E+02 -0.99207993456E+02  0.10635898008E+03  0.17770000000E+01 0. -1.
</event>
<event>
 7    1  0.3970441E-006  0.3181740E+03  0.7546771E-02  0.9934839E-01
        -11   -1    0    0    0    0  0.00000000000E+00  0.00000000000E+00  0.50000000000E+03  0.50000000000E+03  0.00000000000E+00 0. -1.
         11   -1    0    0    0    0 -0.00000000000E+00 -0.00000000000E+00 -0.50000000000E+03  0.50000000000E+03  0.00000000000E+00 0.  1.
         23    2    1    2    0    0 -0.71884225287E+02 -0.41286078606E+02 -0.28014125582E+03  0.30623601840E+03  0.91812273792E+02 0.  0.
        -11    1    1    2    0    0  0.27963273993E+00 -0.25606880794E+03  0.29111770631E+03  0.38771230510E+03  0.00000000000E+00 0. -1.
         11    1    1    2    0    0  0.71604592547E+02  0.29735488655E+03 -0.10976450491E+02  0.30605167651E+03  0.00000000000E+00 0.  1.
        -15    1    3    3    0    0  0.20449392038E+02  0.18324998143E+01 -0.33035420759E+02  0.38936261300E+02  0.17770000000E+01 0. -1.
         15    1    3    3    0    0 -0.92333617325E+02 -0.43118578420E+02 -0.24710583506E+03  0.26729975710E+03  0.17770000000E+01 0.  1.
</event>
<event>
 7    1  0.3970441E-006  0.3717001E+03  0.7546771E-02  0.9743924E-01
        -11   -1    0    0    0    0  0.00000000000E+00  0.00000000000E+00  0.50000000000E+03  0.50000000000E+03  0.00000000000E+00 0. -1.
         11   -1    0    0    0    0 -0.00000000000E+00 -0.00000000000E+00 -0.50000000000E+03  0.50000000000E+03  0.00000000000E+00 0. -1.
         23    2    1    2    0    0  0.21250976088E+02 -0.11975046917E+03 -0.28403323372E+03  0.32261532530E+03  0.92811590910E+02 0.  0.
        -11    1    1    2    0    0 -0.75971781250E+02 -0.47360760940E+02  0.43592548454E+03  0.44502334916E+03  0.00000000000E+00 0. -1.
         11    1    1    2    0    0  0.54720805162E+02  0.16711123011E+03 -0.15189225082E+03  0.23236132554E+03  0.00000000000E+00 0. -1.
        -15    1    3    3    0    0  0.42020803692E+02 -0.31001279857E+02 -0.53829069716E+02  0.75017023209E+02  0.17770000000E+01 0.  1.
         15    1    3    3    0    0 -0.20769827604E+02 -0.88749189315E+02 -0.23020416400E+03  0.24759830209E+03  0.17770000000E+01 0. -1.
</event>
<event>
 7    1  0.3970441E-006  0.4792548E+03  0.7546771E-02  0.9447464E-01
        -11   -1    0    0    0    0  0.00000000000E+00  0.00000000000E+00  0.50000000000E+03  0.50000000000E+03  0.00000000000E+00 0.  1.
         11   -1    0    0    0    0 -0.00000000000E+00 -0.00000000000E+00 -0.50000000000E+03  0.50000000000E+03  0.00000000000E+00 0. -1.
         23    2    1    2    0    0  0.43073449176E+02 -0.13939533276E+03 -0.44540299678E+03  0.47758974041E+03  0.91770092016E+02 0.  0.
        -11    1    1    2    0    0 -0.21773424402E+01  0.16645102365E+03  0.44308097588E+03  0.47331959106E+03  0.00000000000E+00 0.  1.
         11    1    1    2    0    0 -0.40896106736E+02 -0.27055690886E+02  0.23220208985E+01  0.49090668528E+02  0.00000000000E+00 0. -1.
        -15    1    3    3    0    0  0.50833581149E+02 -0.23810167904E+02 -0.13166138372E+03  0.14313928447E+03  0.17770000000E+01 0.  1.
         15    1    3    3    0    0 -0.77601319726E+01 -0.11558516486E+03 -0.31374161306E+03  0.33445045594E+03  0.17770000000E+01 0. -1.
</event>
<event>
 7    1  0.3970441E-006  0.4106966E+03  0.7546771E-02  0.9625313E-01
        -11   -1    0    0    0    0  0.00000000000E+00  0.00000000000E+00  0.50000000000E+03  0.50000000000E+03  0.00000000000E+00 0. -1.
         11   -1    0    0    0    0 -0.00000000000E+00 -0.00000000000E+00 -0.50000000000E+03  0.50000000000E+03  0.00000000000E+00 0.  1.
         23    2    1    2    0    0  0.89197019176E+02 -0.10766473253E+02 -0.45223482512E+03  0.46990224199E+03  0.90662863375E+02 0.  0.
        -11    1    1    2    0    0  0.37520043997E+02 -0.48336310670E+02  0.35391954187E+03  0.35917014735E+03  0.00000000000E+00 0. -1.
         11    1    1    2    0    0 -0.12671706317E+03  0.59102783923E+02  0.98315283248E+02  0.17092761066E+03  0.00000000000E+00 0.  1.
        -15    1    3    3    0    0  0.66787891474E+02 -0.41462126300E+02 -0.38215437045E+03  0.39016003249E+03  0.17770000000E+01 0.  1.
         15    1    3    3    0    0  0.22409127702E+02  0.30695653047E+02 -0.70080454668E+02  0.79742209499E+02  0.17770000000E+01 0. -1.
</event>
<event>
 7    1  0.3970441E-006  0.5434795E+03  0.7546771E-02  0.9307454E-01
        -11   -1    0    0    0    0  0.00000000000E+00  0.00000000000E+00  0.50000000000E+03  0.50000000000E+03  0.00000000000E+00 0.  1.
         11   -1    0    0    0    0 -0.00000000000E+00 -0.00000000000E+00 -0.50000000000E+03  0.50000000000E+03  0.00000000000E+00 0. -1.
         23    2    1    2    0    0 -0.12064561452E+03  0.28312511878E+01 -0.90913442839E+02  0.18361241936E+03  0.10433065785E+03 0.  0.
        -11    1    1    2    0    0  0.97205714334E+02 -0.13078093517E+03  0.42644851639E+03  0.45652047165E+03  0.00000000000E+00 0.  1.
         11    1    1    2    0    0  0.23439900190E+02  0.12794968398E+03 -0.33553507355E+03  0.35986710899E+03  0.00000000000E+00 0. -1.
        -15    1    3    3    0    0 -0.10828414094E+02 -0.17549863616E+01  0.22854311612E+02  0.25412827808E+02  0.17770000000E+01 0.  1.
         15    1    3    3    0    0 -0.10981720043E+03  0.45862375493E+01 -0.11376775445E+03  0.15819959155E+03  0.17770000000E+01 0. -1.
</event>
<event>
 7    1  0.3970441E-006  0.5148592E+03  0.7546771E-02  0.9367161E-01
        -11   -1    0    0    0    0  0.00000000000E+00  0.00000000000E+00  0.50000000000E+03  0.50000000000E+03  0.00000000000E+00 0. -1.
         11   -1    0    0    0    0 -0.00000000000E+00 -0.00000000000E+00 -0.50000000000E+03  0.50000000000E+03  0.00000000000E+00 0.  1.
         23    2    1    2    0    0 -0.12231926511E+03 -0.47394611065E+02  0.25843948802E+03  0.30337613630E+03  0.89654109418E+02 0.  0.
        -11    1    1    2    0    0 -0.14122144826E+03 -0.10069659119E+03  0.12100331837E+03  0.21148310566E+03  0.00000000000E+00 0. -1.
         11    1    1    2    0    0  0.26354071337E+03  0.14809120225E+03 -0.37944280639E+03  0.48514075803E+03  0.00000000000E+00 0.  1.
        -15    1    3    3    0    0  0.11455435263E+02 -0.18778982104E+02  0.34803644072E+02  0.41210781788E+02  0.17770000000E+01 0.  1.
         15    1    3    3    0    0 -0.13377470037E+03 -0.28615628962E+02  0.22363584395E+03  0.26216535451E+03  0.17770000000E+01 0. -1.
</event>
<event>
 7    1  0.3970441E-006  0.3998946E+03  0.7546771E-02  0.9656712E-01
        -11   -1    0    0    0    0  0.00000000000E+00  0.00000000000E+00  0.50000000000E+03  0.50000000000E+03  0.00000000000E+00 0. -1.
         11   -1    0    0    0    0 -0.00000000000E+00 -0.00000000000E+00 -0.50000000000E+03  0.50000000000E+03  0.00000000000E+00 0. -1.
         23    2    1    2    0    0  0.18550993047E+03  0.14055689912E+01 -0.37416233323E+03  0.42727346934E+03  0.90273230040E+02 0.  0.
        -11    1    1    2    0    0 -0.46376340787E+02 -0.12755357822E+03  0.35959474004E+03  0.38435537900E+03  0.00000000000E+00 0. -1.
         11    1    1    2    0    0 -0.13913358968E+03  0.12614800923E+03  0.14567593195E+02  0.18837115167E+03  0.00000000000E+00 0. -1.
        -15    1    3    3    0    0  0.92398075724E+02  0.34655710030E+02 -0.12543997035E+03  0.15961443082E+03  0.17770000000E+01 0.  1.
         15    1    3    3    0    0  0.93111854743E+02 -0.33250141039E+02 -0.24872236288E+03  0.26765903852E+03  0.17770000000E+01 0. -1.
</event>
<event>
 7    1  0.3970441E-006  0.5381617E+03  0.7546771E-02  0.9318249E-01
        -11   -1    0    0    0    0  0.00000000000E+00  0.00000000000E+00  0.50000000000E+03  0.50000000000E+03  0.00000000000E+00 0. -1.
         11   -1    0    0    0    0 -0.00000000000E+00 -0.00000000000E+00 -0.50000000000E+03  0.50000000000E+03  0.00000000000E+00 0.  1.
         23    2    1    2    0    0 -0.93154657204E+02  0.13474733079E+03 -0.20922014390E+03  0.27918656552E+03  0.85658837477E+02 0.  0.
        -11    1    1    2    0    0  0.43880966612E+02 -0.68346298615E+02  0.45464040560E+03  0.46183834203E+03  0.00000000000E+00 0. -1.
         11    1    1    2    0    0  0.49273690592E+02 -0.66401032171E+02 -0.24542026170E+03  0.25897509245E+03  0.00000000000E+00 0.  1.
        -15    1    3    3    0    0 -0.63329009153E+02  0.21207069843E+02 -0.64897239423E+02  0.93140284654E+02  0.17770000000E+01 0.  1.
         15    1    3    3    0    0 -0.29825648051E+02  0.11354026094E+03 -0.14432290448E+03  0.18604628087E+03  0.17770000000E+01 0. -1.
</event>
<event>
 7    1  0.3970441E-006  0.5125039E+03  0.7546771E-02  0.9372258E-01
        -11   -1    0    0    0    0  0.00000000000E+00  0.00000000000E+00  0.50000000000E+03  0.50000000000E+03  0.00000000000E+00 0.  1.
         11   -1    0    0    0    0 -0.00000000000E+00 -0.00000000000E+00 -0.50000000000E+03  0.50000000000E+03  0.00000000000E+00 0. -1.
         23    2    1    2    0    0  0.25052216456E+02  0.19008363790E+02  0.24384372849E+03  0.26281639528E+03  0.92864214085E+02 0.  0.
        -11    1    1    2    0    0  0.11152184262E+03  0.14870306935E+02  0.22290267753E+03  0.24968750681E+03  0.00000000000E+00 0.  1.
         11    1    1    2    0    0 -0.13657405908E+03 -0.33878670725E+02 -0.46674640602E+03  0.48749609791E+03  0.00000000000E+00 0. -1.
        -15    1    3    3    0    0 -0.33554905808E+01  0.37402798479E+02  0.21515302389E+03  0.21841293475E+03  0.17770000000E+01 0.  1.
         15    1    3    3    0    0  0.28407707037E+02 -0.18394434689E+02  0.28690704606E+02  0.44403460523E+02  0.17770000000E+01 0. -1.
</event>
<event>
 7    1  0.3970441E-006  0.3242375E+03  0.7546771E-02  0.9911254E-01
        -11   -1    0    0    0    0  0.00000000000E+00  0.00000000000E+00  0.50000000000E+03  0.50000000000E+03  0.00000000000E+00 0. -1.
         11   -1    0    0    0    0 -0.00000000000E+00 -0.00000000000E+00 -0.50000000000E+03  0.50000000000E+03  0.00000000000E+00 0.  1.
         23    2    1    2    0    0 -0.19247913391E+03 -0.80977525080E+02 -0.18597730535E+03  0.29380381623E+03  0.90152913260E+02 0.  0.
        -11    1    1    2    0    0  0.13010851176E+03 -0.18210045773E+03  0.33086568247E+03  0.39945074962E+03  0.00000000000E+00 0. -1.
         11    1    1    2    0    0  0.62370622149E+02  0.26307798281E+03 -0.14488837712E+03  0.30674543415E+03  0.00000000000E+00 0.  1.
        -15    1    3    3    0    0 -0.19189592320E+03 -0.58140920334E+02 -0.14714366613E+03  0.24871435055E+03  0.17770000000E+01 0.  1.
         15    1    3    3    0    0 -0.58321070153E+00 -0.22836604746E+02 -0.38833639220E+02  0.45089465677E+02  0.17770000000E+01 0. -1.
</event>
<event>
 7    1  0.3970441E-006  0.5251713E+03  0.7546771E-02  0.9345184E-01
        -11   -1    0    0    0    0  0.00000000000E+00  0.00000000000E+00  0.50000000000E+03  0.50000000000E+03  0.00000000000E+00 0. -1.
         11   -1    0    0    0    0 -0.00000000000E+00 -0.00000000000E+00 -0.50000000000E+03  0.50000000000E+03  0.00000000000E+00 0.  1.
         23    2    1    2    0    0 -0.20643046981E+02  0.44151269101E+02  0.60828626405E+02  0.11976038504E+03  0.90922813872E+02 0.  0.
        -11    1    1    2    0    0 -0.10296548931E+03  0.37252850187E+02  0.39034385861E+03  0.40541089624E+03  0.00000000000E+00 0. -1.
         11    1    1    2    0    0  0.12360853629E+03 -0.81404119288E+02 -0.45117248502E+03  0.47482871872E+03  0.00000000000E+00 0.  1.
        -15    1    3    3    0    0 -0.13224794373E+02  0.72104134733E+02  0.36420728096E+02  0.81875079212E+02  0.17770000000E+01 0.  1.
         15    1    3    3    0    0 -0.74182526076E+01 -0.27952865632E+02  0.24407898309E+02  0.37885305827E+02  0.17770000000E+01 0. -1.
</event>
<event>
 7    1  0.3970441E-006  0.5179546E+03  0.7546771E-02  0.9360507E-01
        -11   -1    0    0    0    0  0.00000000000E+00  0.00000000000E+00  0.50000000000E+03  0.50000000000E+03  0.00000000000E+00 0. -1.
         11   -1    0    0    0    0 -0.00000000000E+00 -0.00000000000E+00 -0.50000000000E+03  0.50000000000E+03  0.00000000000E+00 0. -1.
         23    2    1    2    0    0  0.68941704311E+02 -0.57107288055E+01  0.16669310260E+03  0.20565718126E+03  0.98603827182E+02 0.  0.
        -11    1    1    2    0    0  0.83197871929E+02  0.11915846133E+03  0.27642190120E+03  0.31229744197E+03  0.00000000000E+00 0. -1.
         11    1    1    2    0    0 -0.15213957624E+03 -0.11344773252E+03 -0.44311500379E+03  0.48204537677E+03  0.00000000000E+00 0. -1.
        -15    1    3    3    0    0  0.91152894450E+02 -0.69189459504E+01  0.15621306614E+03  0.18100387217E+03  0.17770000000E+01 0. -1.
         15    1    3    3    0    0 -0.22211190138E+02  0.12082171449E+01  0.10480036459E+02  0.24653309092E+02  0.17770000000E+01 0.  1.
</event>
<event>
 7    1  0.3970441E-006  0.3830325E+03  0.7546771E-02  0.9707907E-01
        -11   -1    0    0    0    0  0.00000000000E+00  0.00000000000E+00  0.50000000000E+03  0.50000000000E+03  0.00000000000E+00 0.  1.
         11   -1    0    0    0    0 -0.00000000000E+00 -0.00000000000E+00 -0.50000000000E+03  0.50000000000E+03  0.00000000000E+00 0. -1.
         23    2    1    2    0    0 -0.17986928162E+03  0.21654822386E+03 -0.32901854937E+03  0.44244004872E+03  0.90850972260E+02 0.  0.
        -11    1    1    2    0    0  0.44185474905E+02 -0.50068088542E+02  0.33610466452E+03  0.34267406554E+03  0.00000000000E+00 0.  1.
         11    1    1    2    0    0  0.13568380672E+03 -0.16648013531E+03 -0.70861151541E+01  0.21488588573E+03  0.00000000000E+00 0. -1.
        -15    1    3    3    0    0 -0.11358334307E+03  0.73680331532E+02 -0.12153238440E+03  0.18194297256E+03  0.17770000000E+01 0.  1.
         15    1    3    3    0    0 -0.66285938550E+02  0.14286789232E+03 -0.20748616497E+03  0.26049707616E+03  0.17770000000E+01 0. -1.
</event>
<event>
 6    1  0.3970441E-006  0.4658894E+03  0.7546771E-02  0.9479546E-01
        -11   -1    0    0    0    0  0.00000000000E+00  0.00000000000E+00  0.50000000000E+03  0.50000000000E+03  0.00000000000E+00 0. -1.
         11   -1    0    0    0    0 -0.00000000000E+00 -0.00000000000E+00 -0.50000000000E+03  0.50000000000E+03  0.00000000000E+00 0.  1.
        -11    1    1    2    0    0  0.10072976041E+03 -0.11775091116E+03  0.40983946431E+03  0.43815539278E+03  0.00000000000E+00 0. -1.
         11    1    1    2    0    0 -0.28187393677E+02  0.67201906172E+02  0.41049552246E+02  0.83640248057E+02  0.00000000000E+00 0.  1.
        -15    1    1    2    0    0 -0.78212099872E+02  0.88104158840E+02 -0.37881725660E+03  0.39671796909E+03  0.17770000000E+01 0. -1.
         15    1    1    2    0    0  0.56697331433E+01 -0.37555153853E+02 -0.72071759958E+02  0.81486390074E+02  0.17770000000E+01 0.  1.
</event>
<event>
 7    1  0.3970441E-006  0.3939386E+03  0.7546771E-02  0.9674482E-01
        -11   -1    0    0    0    0  0.00000000000E+00  0.00000000000E+00  0.50000000000E+03  0.50000000000E+03  0.00000000000E+00 0. -1.
         11   -1    0    0    0    0 -0.00000000000E+00 -0.00000000000E+00 -0.50000000000E+03  0.50000000000E+03  0.00000000000E+00 0.  1.
         23    2    1    2    0    0  0.12017031310E+02 -0.10398040529E+03 -0.32036731849E+03  0.34900080198E+03  0.90609090594E+02 0.  0.
        -11    1    1    2    0    0  0.76192359771E+02 -0.20727737944E+02  0.44617539718E+03  0.45310859610E+03  0.00000000000E+00 0. -1.
         11    1    1    2    0    0 -0.88209391082E+02  0.12470814323E+03 -0.12580807869E+03  0.19789060192E+03  0.00000000000E+00 0.  1.
        -15    1    3    3    0    0 -0.10289993659E+02 -0.27984940568E+02 -0.14808206219E+02  0.33338889732E+02  0.17770000000E+01 0. -1.
         15    1    3    3    0    0  0.22307024970E+02 -0.75995464720E+02 -0.30555911228E+03  0.31566191225E+03  0.17770000000E+01 0.  1.
</event>
<event>
 7    1  0.3970441E-006  0.5324734E+03  0.7546771E-02  0.9329943E-01
        -11   -1    0    0    0    0  0.00000000000E+00  0.00000000000E+00  0.50000000000E+03  0.50000000000E+03  0.00000000000E+00 0. -1.
         11   -1    0    0    0    0 -0.00000000000E+00 -0.00000000000E+00 -0.50000000000E+03  0.50000000000E+03  0.00000000000E+00 0.  1.
         23    2    1    2    0    0  0.12366269546E+02 -0.13007757380E+03  0.88928821343E+02  0.19658727501E+03  0.11689791103E+03 0.  0.
        -11    1    1    2    0    0  0.12652801099E+03 -0.96181350586E+02  0.29590416887E+03  0.33588609218E+03  0.00000000000E+00 0. -1.
         11    1    1    2    0    0 -0.13889428054E+03  0.22625892439E+03 -0.38483299021E+03  0.46752663281E+03  0.00000000000E+00 0.  1.
        -15    1    3    3    0    0  0.57098042538E+02 -0.37107268989E+02  0.15278346971E+02  0.69812044009E+02  0.17770000000E+01 0. -1.
         15    1    3    3    0    0 -0.44731772992E+02 -0.92970304813E+02  0.73650474372E+02  0.12677523100E+03  0.17770000000E+01 0.  1.
</event>
<event>
 7    1  0.3970441E-006  0.5268828E+03  0.7546771E-02  0.9341588E-01
        -11   -1    0    0    0    0  0.00000000000E+00  0.00000000000E+00  0.50000000000E+03  0.50000000000E+03  0.00000000000E+00 0. -1.
         11   -1    0    0    0    0 -0.00000000000E+00 -0.00000000000E+00 -0.50000000000E+03  0.50000000000E+03  0.00000000000E+00 0.  1.
         23    2    1    2    0    0  0.26755508142E+02  0.14981104574E+03  0.22683162858E+03  0.28787230468E+03  0.90877221759E+02 0.  0.
        -11    1    1    2    0    0 -0.10053398895E+02 -0.45698093769E+02  0.23438566859E+03  0.23901051911E+03  0.00000000000E+00 0. -1.
         11    1    1    2    0    0 -0.16702109247E+02 -0.10411295197E+03 -0.46121729717E+03  0.47311717622E+03  0.00000000000E+00 0.  1.
        -15    1    3    3    0    0 -0.60987401273E+01  0.71892889491E+02  0.39368929973E+02  0.82212240979E+02  0.17770000000E+01 0.  1.
         15    1    3    3    0    0  0.32854248269E+02  0.77918156247E+02  0.18746269861E+03  0.20566006370E+03  0.17770000000E+01 0. -1.
</event>
<event>
 7    1  0.3970441E-006  0.5271779E+03  0.7546771E-02  0.9340970E-01
        -11   -1    0    0    0    0  0.00000000000E+00  0.00000000000E+00  0.50000000000E+03  0.50000000000E+03  0.00000000000E+00 0. -1.
         11   -1    0    0    0    0 -0.00000000000E+00 -0.00000000000E+00 -0.50000000000E+03  0.50000000000E+03  0.00000000000E+00 0.  1.
         23    2    1    2    0    0 -0.38708009844E+02 -0.65696779428E+02  0.93219456471E+02  0.15003299782E+03  0.89474334397E+02 0.  0.
        -11    1    1    2    0    0  0.61048123212E+02 -0.16966964256E+02  0.37178420321E+03  0.37714485941E+03  0.00000000000E+00 0. -1.
         11    1    1    2    0    0 -0.22340113368E+02  0.82663743684E+02 -0.46500365968E+03  0.47282214278E+03  0.00000000000E+00 0.  1.
        -15    1    3    3    0    0  0.12880132921E+02  0.81579068216E+01  0.45608569770E+02  0.48122225980E+02  0.17770000000E+01 0. -1.
         15    1    3    3    0    0 -0.51588142765E+02 -0.73854686250E+02  0.47610886701E+02  0.10191077184E+03  0.17770000000E+01 0.  1.
</event>
<event>
 7    1  0.3970441E-006  0.4430027E+03  0.7546771E-02  0.9537235E-01
        -11   -1    0    0    0    0  0.00000000000E+00  0.00000000000E+00  0.50000000000E+03  0.50000000000E+03  0.00000000000E+00 0.  1.
         11   -1    0    0    0    0 -0.00000000000E+00 -0.00000000000E+00 -0.50000000000E+03  0.50000000000E+03  0.00000000000E+00 0. -1.
         23    2    1    2    0    0  0.13515881776E+03  0.10703736298E+03 -0.37847283499E+03  0.42548887401E+03  0.89856507774E+02 0.  0.
        -11    1    1    2    0    0 -0.39123177375E+02 -0.11641627862E+03  0.44215760901E+03  0.45889729150E+03  0.00000000000E+00 0.  1.
         11    1    1    2    0    0 -0.96035640388E+02  0.93789156421E+01 -0.63684774018E+02  0.11561383449E+03  0.00000000000E+00 0. -1.
        -15    1    3    3    0    0  0.11211177837E+03  0.49749885310E+02 -0.18157124882E+03  0.21912411566E+03  0.17770000000E+01 0.  1.
         15    1    3    3    0    0  0.23047039390E+02  0.57287477672E+02 -0.19690158618E+03  0.20636475835E+03  0.17770000000E+01 0. -1.
</event>
<event>
 7    1  0.3970441E-006  0.5322496E+03  0.7546771E-02  0.9330406E-01
        -11   -1    0    0    0    0  0.00000000000E+00  0.00000000000E+00  0.50000000000E+03  0.50000000000E+03  0.00000000000E+00 0.  1.
         11   -1    0    0    0    0 -0.00000000000E+00 -0.00000000000E+00 -0.50000000000E+03  0.50000000000E+03  0.00000000000E+00 0. -1.
         23    2    1    2    0    0  0.82490049253E+02  0.96197488283E+02  0.13154952767E+03  0.19830845229E+03  0.77216572320E+02 0.  0.
        -11    1    1    2    0    0 -0.56930058235E+01 -0.60099948957E+02  0.32843916950E+03  0.33394116584E+03  0.00000000000E+00 0.  1.
         11    1    1    2    0    0 -0.76797043430E+02 -0.36097539326E+02 -0.45998869717E+03  0.46775038188E+03  0.00000000000E+00 0. -1.
        -15    1    3    3    0    0  0.74052516390E+02  0.89620546077E+02  0.14180826873E+03  0.18338037047E+03  0.17770000000E+01 0.  1.
         15    1    3    3    0    0  0.84375328636E+01  0.65769422055E+01 -0.10258741064E+02  0.14928081820E+02  0.17770000000E+01 0. -1.
</event>
<event>
 7    1  0.3970441E-006  0.3965137E+03  0.7546771E-02  0.9666758E-01
        -11   -1    0    0    0    0  0.00000000000E+00  0.00000000000E+00  0.50000000000E+03  0.50000000000E+03  0.00000000000E+00 0. -1.
         11   -1    0    0    0    0 -0.00000000000E+00 -0.00000000000E+00 -0.50000000000E+03  0.50000000000E+03  0.00000000000E+00 0. -1.
         23    2    1    2    0    0  0.15361747987E+02 -0.17988652890E+03 -0.27610274129E+03  0.34512922940E+03  0.10142147041E+03 0.  0.
        -11    1    1    2    0    0  0.16841620721E+01  0.90937593677E+02  0.44984089176E+03  0.45894368963E+03  0.00000000000E+00 0. -1.
         11    1    1    2    0    0 -0.17045910059E+02  0.88948935224E+02 -0.17373815047E+03  0.19592708097E+03  0.00000000000E+00 0. -1.
        -15    1    3    3    0    0 -0.32540308238E+02 -0.12379246412E+03 -0.13590088159E+03  0.18669668765E+03  0.17770000000E+01 0. -1.
         15    1    3    3    0    0  0.47902056225E+02 -0.56094064778E+02 -0.14020185970E+03  0.15843254175E+03  0.17770000000E+01 0.  1.
</event>
<event>
 7    1  0.3970441E-006  0.3676933E+03  0.7546771E-02  0.9756989E-01
        -11   -1    0    0    0    0  0.00000000000E+00  0.00000000000E+00  0.50000000000E+03  0.50000000000E+03  0.00000000000E+00 0.  1.
         11   -1    0    0    0    0 -0.00000000000E+00 -0.00000000000E+00 -0.50000000000E+03  0.50000000000E+03  0.00000000000E+00 0. -1.
         23    2    1    2    0    0 -0.51900040196E+01 -0.10376903211E+03 -0.29357038381E+03  0.32405388083E+03  0.89623653479E+02 0.  0.
        -11    1    1    2    0    0 -0.12316224861E+03 -0.53553497544E+02  0.41716338555E+03  0.43824902375E+03  0.00000000000E+00 0.  1.
         11    1    1    2    0    0  0.12835225263E+03  0.15732252965E+03 -0.12359300174E+03  0.23769709542E+03  0.00000000000E+00 0. -1.
        -15    1    3    3    0    0  0.24902871808E+02 -0.10026468313E+03 -0.19188296284E+03  0.21793436825E+03  0.17770000000E+01 0. -1.
         15    1    3    3    0    0 -0.30092875828E+02 -0.35043489801E+01 -0.10168742097E+03  0.10611951258E+03  0.17770000000E+01 0.  1.
</event>
<event>
 7    1  0.3970441E-006  0.5193335E+03  0.7546771E-02  0.9357559E-01
        -11   -1    0    0    0    0  0.00000000000E+00  0.00000000000E+00  0.50000000000E+03  0.50000000000E+03  0.00000000000E+00 0.  1.
         11   -1    0    0    0    0 -0.00000000000E+00 -0.00000000000E+00 -0.50000000000E+03  0.50000000000E+03  0.00000000000E+00 0. -1.
         23    2    1    2    0    0 -0.30791035664E+02  0.13475431347E+03 -0.36583586428E+03  0.40129285439E+03  0.89962561768E+02 0.  0.
        -11    1    1    2    0    0  0.10938461016E+03 -0.11942340244E+03  0.45256307367E+03  0.48066649315E+03  0.00000000000E+00 0.  1.
         11    1    1    2    0    0 -0.78593574493E+02 -0.15330911033E+02 -0.86727209389E+02  0.11804065246E+03  0.00000000000E+00 0. -1.
        -15    1    3    3    0    0 -0.32278713858E+02  0.30551180852E+02 -0.42298112363E+02  0.61380600015E+02  0.17770000000E+01 0.  1.
         15    1    3    3    0    0  0.14876781935E+01  0.10420313262E+03 -0.32353775191E+03  0.33991225438E+03  0.17770000000E+01 0. -1.
</event>
<event>
 7    1  0.3970441E-006  0.3674429E+03  0.7546771E-02  0.9757811E-01
        -11   -1    0    0    0    0  0.00000000000E+00  0.00000000000E+00  0.50000000000E+03  0.50000000000E+03  0.00000000000E+00 0. -1.
         11   -1    0    0    0    0 -0.00000000000E+00 -0.00000000000E+00 -0.50000000000E+03  0.50000000000E+03  0.00000000000E+00 0. -1.
         23    2    1    2    0    0 -0.42334872609E+02  0.51848264139E+02 -0.44827540596E+03  0.46305431587E+03  0.94804936195E+02 0.  0.
        -11    1    1    2    0    0  0.16006100718E+02  0.11152621144E+03  0.27578151770E+03  0.29790894012E+03  0.00000000000E+00 0. -1.
         11    1    1    2    0    0  0.26328771891E+02 -0.16337447558E+03  0.17249388826E+03  0.23903674401E+03  0.00000000000E+00 0. -1.
        -15    1    3    3    0    0 -0.52461602137E+02 -0.54442031336E+01 -0.28172995007E+03  0.28663004299E+03  0.17770000000E+01 0.  1.
         15    1    3    3    0    0  0.10126729528E+02  0.57292467273E+02 -0.16654545589E+03  0.17642427288E+03  0.17770000000E+01 0. -1.
</event>
<event>
 7    1  0.3970441E-006  0.5334048E+03  0.7546771E-02  0.9328018E-01
        -11   -1    0    0    0    0  0.00000000000E+00  0.00000000000E+00  0.50000000000E+03  0.50000000000E+03  0.00000000000E+00 0. -1.
         11   -1    0    0    0    0 -0.00000000000E+00 -0.00000000000E+00 -0.50000000000E+03  0.50000000000E+03  0.00000000000E+00 0.  1.
         23    2    1    2    0    0 -0.15075250014E+02 -0.13596115848E+03  0.29180366642E+03  0.33474119795E+03  0.90496354017E+02 0.  0.
        -11    1    1    2    0    0  0.13500508789E+03 -0.12394048777E+03  0.76678481682E+02  0.19866355433E+03  0.00000000000E+00 0. -1.
         11    1    1    2    0    0 -0.11992983787E+03  0.25990164625E+03 -0.36848214810E+03  0.46659524773E+03  0.00000000000E+00 0.  1.
        -15    1    3    3    0    0 -0.15023361723E+02 -0.65033182609E+02  0.51906882846E+02  0.84572445001E+02  0.17770000000E+01 0. -1.
         15    1    3    3    0    0 -0.51888291702E-01 -0.70927975870E+02  0.23989678357E+03  0.25016875294E+03  0.17770000000E+01 0.  1.
</event>
<event>
 7    1  0.3970441E-006  0.3867667E+03  0.7546771E-02  0.9696330E-01
        -11   -1    0    0    0    0  0.00000000000E+00  0.00000000000E+00  0.50000000000E+03  0.50000000000E+03  0.00000000000E+00 0. -1.
         11   -1    0    0    0    0 -0.00000000000E+00 -0.00000000000E+00 -0.50000000000E+03  0.50000000000E+03  0.00000000000E+00 0. -1.
         23    2    1    2    0    0 -0.11095361303E+02  0.46155519848E+02 -0.33742569524E+03  0.35269452544E+03  0.91015874487E+02 0.  0.
        -11    1    1    2    0    0 -0.12824028642E+03  0.92675501326E+02  0.40857298763E+03  0.43813948216E+03  0.00000000000E+00 0. -1.
         11    1    1    2    0    0  0.13933564772E+03 -0.13883102117E+03 -0.71147292388E+02  0.20916599241E+03  0.00000000000E+00 0. -1.
        -15    1    3    3    0    0 -0.30432048110E+02  0.62494809248E+02 -0.29645899070E+03  0.30450418984E+03  0.17770000000E+01 0. -1.
         15    1    3    3    0    0  0.19336686807E+02 -0.16339289401E+02 -0.40966704545E+02  0.48190335598E+02  0.17770000000E+01 0.  1.
</event>
<event>
 7    1  0.3970441E-006  0.4754817E+03  0.7546771E-02  0.9456407E-01
        -11   -1    0    0    0    0  0.00000000000E+00  0.00000000000E+00  0.50000000000E+03  0.50000000000E+03  0.00000000000E+00 0.  1.
         11   -1    0    0    0    0 -0.00000000000E+00 -0.00000000000E+00 -0.50000000000E+03  0.50000000000E+03  0.00000000000E+00 0.  1.
         23    2    1    2    0    0  0.94103902493E+02  0.14976028909E+03  0.40377359758E+03  0.45387501108E+03  0.10810050381E+03 0.  0.
        -11    1    1    2    0    0 -0.14912941442E+02 -0.12706862662E+02  0.56285130044E+02  0.59597617781E+02  0.00000000000E+00 0.  1.
         11    1    1    2    0    0 -0.79190961051E+02 -0.13705342642E+03 -0.46005872762E+03  0.48652737114E+03  0.00000000000E+00 0.  1.
        -15    1    3    3    0    0 -0.53450960285E+01  0.90426967020E+02  0.19805782168E+03  0.21779730226E+03  0.17770000000E+01 0. -1.
         15    1    3    3    0    0  0.99448998522E+02  0.59333322066E+02  0.20571577591E+03  0.23607770882E+03  0.17770000000E+01 0.  1.
</event>
<event>
 7    1  0.3970441E-006  0.3203919E+03  0.7546771E-02  0.9926147E-01
        -11   -1    0    0    0    0  0.00000000000E+00  0.00000000000E+00  0.50000000000E+03  0.50000000000E+03  0.00000000000E+00 0. -1.
         11   -1    0    0    0    0 -0.00000000000E+00 -0.00000000000E+00 -0.50000000000E+03  0.50000000000E+03  0.00000000000E+00 0.  1.
         23    2    1    2    0    0  0.67419389887E+02  0.29345085783E+03 -0.16124464544E+03  0.35317703736E+03  0.89863251360E+02 0.  0.
        -11    1    1    2    0    0 -0.55372779968E+02  0.22403155270E+02  0.29690705804E+03  0.30285614942E+03  0.00000000000E+00 0. -1.
         11    1    1    2    0    0 -0.12046609919E+02 -0.31585401310E+03 -0.13566241260E+03  0.34396681322E+03  0.00000000000E+00 0.  1.
        -15    1    3    3    0    0  0.44152566162E+01  0.20155824298E+03 -0.89064387738E+02  0.22041062292E+03  0.17770000000E+01 0. -1.
         15    1    3    3    0    0  0.63004133271E+02  0.91892614843E+02 -0.72180257701E+02  0.13276641444E+03  0.17770000000E+01 0.  1.
</event>
<event>
 7    1  0.3970441E-006  0.4169441E+03  0.7546771E-02  0.9607620E-01
        -11   -1    0    0    0    0  0.00000000000E+00  0.00000000000E+00  0.50000000000E+03  0.50000000000E+03  0.00000000000E+00 0.  1.
         11   -1    0    0    0    0 -0.00000000000E+00 -0.00000000000E+00 -0.50000000000E+03  0.50000000000E+03  0.00000000000E+00 0. -1.
         23    2    1    2    0    0 -0.46442810876E+02 -0.64173804625E+02 -0.45121694959E+03  0.46708170060E+03  0.91067928230E+02 0.  0.
        -11    1    1    2    0    0 -0.11455502797E+02 -0.59939913567E+02  0.36722300857E+03  0.37225899560E+03  0.00000000000E+00 0.  1.
         11    1    1    2    0    0  0.57898313673E+02  0.12411371819E+03  0.83993941020E+02  0.16065930380E+03  0.00000000000E+00 0. -1.
        -15    1    3    3    0    0 -0.66221837498E+02 -0.65867697505E+02 -0.41827001869E+03  0.42857537447E+03  0.17770000000E+01 0. -1.
         15    1    3    3    0    0  0.19779026621E+02  0.16938928804E+01 -0.32946930903E+02  0.38506326131E+02  0.17770000000E+01 0.  1.
</event>
<event>
 7    1  0.3970441E-006  0.3853918E+03  0.7546771E-02  0.9700576E-01
        -11   -1    0    0    0    0  0.00000000000E+00  0.00000000000E+00  0.50000000000E+03  0.50000000000E+03  0.00000000000E+00 0.  1.
         11   -1    0    0    0    0 -0.00000000000E+00 -0.00000000000E+00 -0.50000000000E+03  0.50000000000E+03  0.00000000000E+00 0. -1.
         23    2    1    2    0    0  0.13224687529E+03 -0.95659188347E+02 -0.85952313741E+02  0.20745028684E+03  0.94909983320E+02 0.  0.
        -11    1    1    2    0    0 -0.17655568482E+03 -0.21205766592E+03  0.30571570416E+03  0.41182818662E+03  0.00000000000E+00 0.  1.
         11    1    1    2    0    0  0.44308809532E+02  0.30771685427E+03 -0.21976339042E+03  0.38072152654E+03  0.00000000000E+00 0. -1.
        -15    1    3    3    0    0 -0.31495422585E+01 -0.30296727577E+02  0.61500978424E+01  0.31125435752E+02  0.17770000000E+01 0.  1.
         15    1    3    3    0    0  0.13539641755E+03 -0.65362460771E+02 -0.92102411583E+02  0.17632485109E+03  0.17770000000E+01 0. -1.
</event>
<event>
 7    1  0.3970441E-006  0.4178865E+03  0.7546771E-02  0.9604980E-01
        -11   -1    0    0    0    0  0.00000000000E+00  0.00000000000E+00  0.50000000000E+03  0.50000000000E+03  0.00000000000E+00 0. -1.
         11   -1    0    0    0    0 -0.00000000000E+00 -0.00000000000E+00 -0.50000000000E+03  0.50000000000E+03  0.00000000000E+00 0.  1.
         23    2    1    2    0    0 -0.71770531249E+02 -0.20061986118E+03 -0.30326299416E+03  0.38185451634E+03  0.91897171724E+02 0.  0.
        -11    1    1    2    0    0 -0.57795595037E+02  0.26330359079E+03  0.37138386667E+03  0.45890640456E+03  0.00000000000E+00 0. -1.
         11    1    1    2    0    0  0.12956612629E+03 -0.62683729609E+02 -0.68120872514E+02  0.15923907909E+03  0.00000000000E+00 0.  1.
        -15    1    3    3    0    0 -0.65477908343E+02 -0.17900081287E+03 -0.30449586735E+03  0.35923465652E+03  0.17770000000E+01 0.  1.
         15    1    3    3    0    0 -0.62926229068E+01 -0.21619048309E+02  0.12328731894E+01  0.22619859817E+02  0.17770000000E+01 0. -1.
</event>
<event>
 7    1  0.3970441E-006  0.5315506E+03  0.7546771E-02  0.9331855E-01
        -11   -1    0    0    0    0  0.00000000000E+00  0.00000000000E+00  0.50000000000E+03  0.50000000000E+03  0.00000000000E+00 0.  1.
         11   -1    0    0    0    0 -0.00000000000E+00 -0.00000000000E+00 -0.50000000000E+03  0.50000000000E+03  0.00000000000E+00 0. -1.
         23    2    1    2    0    0  0.15750591997E+02 -0.90465908946E+01  0.52037238915E+02  0.10693515206E+03  0.91636949740E+02 0.  0.
        -11    1    1    2    0    0  0.32096111320E+03 -0.16951700545E+03  0.22033214415E+03  0.42461547907E+03  0.00000000000E+00 0.  1.
         11    1    1    2    0    0 -0.33671170520E+03  0.17856359635E+03 -0.27236938307E+03  0.46844936886E+03  0.00000000000E+00 0. -1.
        -15    1    3    3    0    0  0.22106654521E+02  0.15341688970E+02 -0.18038359499E+02  0.32443978440E+02  0.17770000000E+01 0.  1.
         15    1    3    3    0    0 -0.63560625238E+01 -0.24388279865E+02  0.70075598414E+02  0.74491173623E+02  0.17770000000E+01 0. -1.
</event>
<event>
 7    1  0.3970441E-006  0.4245143E+03  0.7546771E-02  0.9586619E-01
        -11   -1    0    0    0    0  0.00000000000E+00  0.00000000000E+00  0.50000000000E+03  0.50000000000E+03  0.00000000000E+00 0. -1.
         11   -1    0    0    0    0 -0.00000000000E+00 -0.00000000000E+00 -0.50000000000E+03  0.50000000000E+03  0.00000000000E+00 0.  1.
         23    2    1    2    0    0 -0.53844341140E+01 -0.58745824767E+02 -0.44773994072E+03  0.46702654745E+03  0.11900704791E+03 0.  0.
        -11    1    1    2    0    0 -0.10193161838E+03  0.10766393285E+03  0.34889558144E+03  0.37909062770E+03  0.00000000000E+00 0. -1.
         11    1    1    2    0    0  0.10731605250E+03 -0.48918108087E+02  0.98844359282E+02  0.15388282485E+03  0.00000000000E+00 0.  1.
        -15    1    3    3    0    0 -0.16318382909E+02  0.33305141828E+02 -0.87613194679E+02  0.95156459076E+02  0.17770000000E+01 0. -1.
         15    1    3    3    0    0  0.10933948795E+02 -0.92050966595E+02 -0.36012674604E+03  0.37187008838E+03  0.17770000000E+01 0.  1.
</event>
<event>
 7    1  0.3970441E-006  0.3647330E+03  0.7546771E-02  0.9766757E-01
        -11   -1    0    0    0    0  0.00000000000E+00  0.00000000000E+00  0.50000000000E+03  0.50000000000E+03  0.00000000000E+00 0. -1.
         11   -1    0    0    0    0 -0.00000000000E+00 -0.00000000000E+00 -0.50000000000E+03  0.50000000000E+03  0.00000000000E+00 0.  1.
         23    2    1    2    0    0 -0.93911360751E+02  0.15662053938E+03  0.26805706585E+03  0.33989123222E+03  0.10159784522E+03 0.  0.
        -11    1    1    2    0    0  0.22924317558E+03  0.59138744960E+02  0.60538785613E+02  0.24436605589E+03  0.00000000000E+00 0. -1.
         11    1    1    2    0    0 -0.13533181483E+03 -0.21575928434E+03 -0.32859585147E+03  0.41574271189E+03  0.00000000000E+00 0.  1.
        -15    1    3    3    0    0 -0.37110076528E+02 -0.33548898967E+01  0.32142642812E+02  0.49241448822E+02  0.17770000000E+01 0. -1.
         15    1    3    3    0    0 -0.56801284223E+02  0.15997542928E+03  0.23591442304E+03  0.29064978340E+03  0.17770000000E+01 0.  1.
</event>
<event>
 7    1  0.3970441E-006  0.5413562E+03  0.7546771E-02  0.9311748E-01
        -11   -1    0    0    0    0  0.00000000000E+00  0.00000000000E+00  0.50000000000E+03  0.50000000000E+03  0.00000000000E+00 0.  1.
         11   -1    0    0    0    0 -0.00000000000E+00 -0.00000000000E+00 -0.50000000000E+03  0.50000000000E+03  0.00000000000E+00 0. -1.
         23    2    1    2    0    0  0.73987700372E+02 -0.10823427679E+03 -0.15081408653E+03  0.22006275110E+03  0.92162287555E+02 0.  0.
        -11    1    1    2    0    0 -0.11795730934E+03 -0.18332238614E+02  0.44283646779E+03  0.45864379970E+03  0.00000000000E+00 0.  1.
         11    1    1    2    0    0  0.43969608966E+02  0.12656651541E+03 -0.29202238127E+03  0.32129344920E+03  0.00000000000E+00 0. -1.
        -15    1    3    3    0    0  0.35630091990E+02 -0.26508713162E+01 -0.52058850835E+01  0.36149544152E+02  0.17770000000E+01 0.  1.
         15    1    3    3    0    0  0.38357608383E+02 -0.10558340548E+03 -0.14560820144E+03  0.18391320695E+03  0.17770000000E+01 0. -1.
</event>
<event>
 7    1  0.3970441E-006  0.5327291E+03  0.7546771E-02  0.9329414E-01
        -11   -1    0    0    0    0  0.00000000000E+00  0.00000000000E+00  0.50000000000E+03  0.50000000000E+03  0.00000000000E+00 0. -1.
         11   -1    0    0    0    0 -0.00000000000E+00 -0.00000000000E+00 -0.50000000000E+03  0.50000000000E+03  0.00000000000E+00 0.  1.
         23    2    1    2    0    0 -0.65216902190E+00 -0.56211373086E+02 -0.28634959759E+03  0.30561167605E+03  0.90786897232E+02 0.  0.
        -11    1    1    2    0    0  0.12121123529E+03 -0.46988700687E+02  0.44882290665E+03  0.46727090973E+03  0.00000000000E+00 0. -1.
         11    1    1    2    0    0 -0.12055906627E+03  0.10320007377E+03 -0.16247330906E+03  0.22711741422E+03  0.00000000000E+00 0.  1.
        -15    1    3    3    0    0 -0.31210681824E+02  0.48868721735E+01 -0.14751094594E+03  0.15086624898E+03  0.17770000000E+01 0.  1.
         15    1    3    3    0    0  0.30558512802E+02 -0.61098245260E+02 -0.13883865165E+03  0.15474542707E+03  0.17770000000E+01 0. -1.
</event>
<event>
 7    1  0.3970441E-006  0.3728422E+03  0.7546771E-02  0.9740232E-01
        -11   -1    0    0    0    0  0.00000000000E+00  0.00000000000E+00  0.50000000000E+03  0.50000000000E+03  0.00000000000E+00 0. -1.
         11   -1    0    0    0    0 -0.00000000000E+00 -0.00000000000E+00 -0.50000000000E+03  0.50000000000E+03  0.00000000000E+00 0.  1.
         23    2    1    2    0    0  0.10874386006E+03 -0.16962051154E+03 -0.46440957137E+02  0.22617942389E+03  0.91673465385E+02 0.  0.
        -11    1    1    2    0    0 -0.45786360661E+02  0.11288056793E+03  0.39590755606E+03  0.41422361882E+03  0.00000000000E+00 0. -1.
         11    1    1    2    0    0 -0.62957499399E+02  0.56739943608E+02 -0.34946659893E+03  0.35959695729E+03  0.00000000000E+00 0.  1.
        -15    1    3    3    0    0  0.28884251749E+02 -0.81533224440E+02  0.21606508441E+02  0.89173794484E+02  0.17770000000E+01 0. -1.
         15    1    3    3    0    0  0.79859608311E+02 -0.88087287097E+02 -0.68047465579E+02  0.13700562940E+03  0.17770000000E+01 0.  1.
</event>
<event>
 7    1  0.3970441E-006  0.3983615E+03  0.7546771E-02  0.9661255E-01
        -11   -1    0    0    0    0  0.00000000000E+00  0.00000000000E+00  0.50000000000E+03  0.50000000000E+03  0.00000000000E+00 0.  1.
         11   -1    0    0    0    0 -0.00000000000E+00 -0.00000000000E+00 -0.50000000000E+03  0.50000000000E+03  0.00000000000E+00 0. -1.
         23    2    1    2    0    0 -0.15516399880E+03  0.56563656518E+01  0.47360661081E+02  0.18690818386E+03  0.92648669618E+02 0.  0.
        -11    1    1    2    0    0  0.10312171314E+03 -0.10245000745E+03  0.36154651437E+03  0.38967418929E+03  0.00000000000E+00 0.  1.
         11    1    1    2    0    0  0.52042285660E+02  0.96793641796E+02 -0.40890717545E+03  0.42341762685E+03  0.00000000000E+00 0. -1.
        -15    1    3    3    0    0 -0.71734667034E+02  0.35811260137E+02  0.55918691024E+02  0.97766899009E+02  0.17770000000E+01 0.  1.
         15    1    3    3    0    0 -0.83429331764E+02 -0.30154894485E+02 -0.85580299429E+01  0.89141284855E+02  0.17770000000E+01 0. -1.
</event>
<event>
 7    1  0.3970441E-006  0.5255144E+03  0.7546771E-02  0.9344462E-01
        -11   -1    0    0    0    0  0.00000000000E+00  0.00000000000E+00  0.50000000000E+03  0.50000000000E+03  0.00000000000E+00 0. -1.
         11   -1    0    0    0    0 -0.00000000000E+00 -0.00000000000E+00 -0.50000000000E+03  0.50000000000E+03  0.00000000000E+00 0. -1.
         23    2    1    2    0    0  0.80731958645E+02 -0.14098804182E+03 -0.37417637258E+03  0.41882907413E+03  0.94945028580E+02 0.  0.
        -11    1    1    2    0    0 -0.26680558448E+02  0.11001426259E+03  0.46078368788E+03  0.47448561326E+03  0.00000000000E+00 0. -1.
         11    1    1    2    0    0 -0.54051400197E+02  0.30973779225E+02 -0.86607315302E+02  0.10668531261E+03  0.00000000000E+00 0. -1.
        -15    1    3    3    0    0  0.72787723658E+01 -0.24008501473E+02 -0.63811967827E+01  0.25947371187E+02  0.17770000000E+01 0.  1.
         15    1    3    3    0    0  0.73453186279E+02 -0.11697954035E+03 -0.36779517580E+03  0.39288170294E+03  0.17770000000E+01 0. -1.
</event>
<event>
 7    1  0.3970441E-006  0.5227323E+03  0.7546771E-02  0.9350333E-01
        -11   -1    0    0    0    0  0.00000000000E+00  0.00000000000E+00  0.50000000000E+03  0.50000000000E+03  0.00000000000E+00 0.  1.
         11   -1    0    0    0    0 -0.00000000000E+00 -0.00000000000E+00 -0.50000000000E+03  0.50000000000E+03  0.00000000000E+00 0.  1.
         23    2    1    2    0    0  0.62471235367E+02  0.60270947946E+02 -0.18872772431E+03  0.22832657519E+03  0.94760902270E+02 0.  0.
        -11    1    1    2    0    0  0.26344150302E+02 -0.91484305899E+02  0.46767624851E+03  0.47726770884E+03  0.00000000000E+00 0.  1.
         11    1    1    2    0    0 -0.88815385670E+02  0.31213357953E+02 -0.27894852419E+03  0.29440571597E+03  0.00000000000E+00 0.  1.
        -15    1    3    3    0    0  0.73973973366E+02  0.42495094989E+02 -0.18868128579E+03  0.20707913263E+03  0.17770000000E+01 0.  1.
         15    1    3    3    0    0 -0.11502737999E+02  0.17775852956E+02 -0.46438520893E-01  0.21247442560E+02  0.17770000000E+01 0. -1.
</event>
<event>
 7    1  0.3970441E-006  0.3895969E+03  0.7546771E-02  0.9687648E-01
        -11   -1    0    0    0    0  0.00000000000E+00  0.00000000000E+00  0.50000000000E+03  0.50000000000E+03  0.00000000000E+00 0. -1.
         11   -1    0    0    0    0 -0.00000000000E+00 -0.00000000000E+00 -0.50000000000E+03  0.50000000000E+03  0.00000000000E+00 0.  1.
         23    2    1    2    0    0 -0.29178309810E+03  0.17192810370E+03  0.85883235537E+02  0.36110935854E+03  0.91254531424E+02 0.  0.
        -11    1    1    2    0    0 -0.44197649956E+02 -0.92595560959E+02  0.17726162950E+03  0.20481468566E+03  0.00000000000E+00 0. -1.
         11    1    1    2    0    0  0.33598074805E+03 -0.79332542742E+02 -0.26314486504E+03  0.43407595579E+03  0.00000000000E+00 0.  1.
        -15    1    3    3    0    0 -0.77588254976E+02  0.78751906088E+02  0.60787855834E+02  0.12617496253E+03  0.17770000000E+01 0. -1.
         15    1    3    3    0    0 -0.21419484312E+03  0.93176197612E+02  0.25095379703E+02  0.23493439602E+03  0.17770000000E+01 0.  1.
</event>
<event>
 7    1  0.3970441E-006  0.4314078E+03  0.7546771E-02  0.9567898E-01
        -11   -1    0    0    0    0  0.00000000000E+00  0.00000000000E+00  0.50000000000E+03  0.50000000000E+03  0.00000000000E+00 0.  1.
         11   -1    0    0    0    0 -0.00000000000E+00 -0.00000000000E+00 -0.50000000000E+03  0.50000000000E+03  0.00000000000E+00 0. -1.
         23    2    1    2    0    0  0.13249680502E+02 -0.23547048696E+02 -0.41242689121E+03  0.42351164094E+03  0.92391297656E+02 0.  0.
        -11    1    1    2    0    0  0.37560155838E+02 -0.10221545101E+03  0.42644276424E+03  0.44012747574E+03  0.00000000000E+00 0.  1.
         11    1    1    2    0    0 -0.50809836340E+02  0.12576249971E+03 -0.14015873026E+02  0.13636088331E+03  0.00000000000E+00 0. -1.
        -15    1    3    3    0    0  0.12412877870E+02 -0.57136640367E+02 -0.31636328376E+03  0.32172590857E+03  0.17770000000E+01 0.  1.
         15    1    3    3    0    0  0.83680263167E+00  0.33589591671E+02 -0.96063607457E+02  0.10178573237E+03  0.17770000000E+01 0. -1.
</event>
<event>
 7    1  0.3970441E-006  0.4273113E+03  0.7546771E-02  0.9578978E-01
        -11   -1    0    0    0    0  0.00000000000E+00  0.00000000000E+00  0.50000000000E+03  0.50000000000E+03  0.00000000000E+00 0. -1.
         11   -1    0    0    0    0 -0.00000000000E+00 -0.00000000000E+00 -0.50000000000E+03  0.50000000000E+03  0.00000000000E+00 0. -1.
         23    2    1    2    0    0  0.92785480129E+02 -0.35917230071E+02 -0.32190149611E+02  0.13900345352E+03  0.91578172184E+02 0.  0.
        -11    1    1    2    0    0 -0.64839814777E+02  0.25361096258E+03  0.37296430984E+03  0.45565897153E+03  0.00000000000E+00 0. -1.
         11    1    1    2    0    0 -0.27945665352E+02 -0.21769373251E+03 -0.34077416023E+03  0.40533757495E+03  0.00000000000E+00 0. -1.
        -15    1    3    3    0    0  0.49360093125E+02 -0.65290016363E+02 -0.11757084076E+02  0.82707870151E+02  0.17770000000E+01 0. -1.
         15    1    3    3    0    0  0.43425387004E+02  0.29372786292E+02 -0.20433065536E+02  0.56295583371E+02  0.17770000000E+01 0.  1.
</event>
<event>
 7    1  0.3970441E-006  0.5134131E+03  0.7546771E-02  0.9370287E-01
        -11   -1    0    0    0    0  0.00000000000E+00  0.00000000000E+00  0.50000000000E+03  0.50000000000E+03  0.00000000000E+00 0. -1.
         11   -1    0    0    0    0 -0.00000000000E+00 -0.00000000000E+00 -0.50000000000E+03  0.50000000000E+03  0.00000000000E+00 0. -1.
         23    2    1    2    0    0  0.57930343812E+02  0.62706517312E+02 -0.22094248133E+03  0.25419556795E+03  0.92259279544E+02 0.  0.
        -11    1    1    2    0    0 -0.15158321955E+03 -0.21246078393E+03  0.41066993338E+03  0.48658694119E+03  0.00000000000E+00 0. -1.
         11    1    1    2    0    0  0.93652875739E+02  0.14975426661E+03 -0.18972745205E+03  0.25921749086E+03  0.00000000000E+00 0. -1.
        -15    1    3    3    0    0  0.28004659996E+02 -0.18911030254E+02 -0.33736287160E+02  0.47782662620E+02  0.17770000000E+01 0.  1.
         15    1    3    3    0    0  0.29925683816E+02  0.81617547566E+02 -0.18720619417E+03  0.20641290533E+03  0.17770000000E+01 0. -1.
</event>
<event>
 7    1  0.3970441E-006  0.5232021E+03  0.7546771E-02  0.9349339E-01
        -11   -1    0    0    0    0  0.00000000000E+00  0.00000000000E+00  0.50000000000E+03  0.50000000000E+03  0.00000000000E+00 0.  1.
         11   -1    0    0    0    0 -0.00000000000E+00 -0.00000000000E+00 -0.50000000000E+03  0.50000000000E+03  0.00000000000E+00 0. -1.
         23    2    1    2    0    0 -0.40301605548E+02 -0.44542456886E+02 -0.41325003977E+03  0.42802713475E+03  0.93932863474E+02 0.  0.
        -11    1    1    2    0    0 -0.16971601168E+02  0.99225589563E+02  0.46604982673E+03  0.47679785430E+03  0.00000000000E+00 0.  1.
         11    1    1    2    0    0  0.57273206716E+02 -0.54683132677E+02 -0.52799786958E+02  0.95175010952E+02  0.00000000000E+00 0. -1.
        -15    1    3    3    0    0  0.30250804024E+02 -0.54419818095E+01 -0.10996238199E+03  0.11419110951E+03  0.17770000000E+01 0.  1.
         15    1    3    3    0    0 -0.70552409572E+02 -0.39100475077E+02 -0.30328765778E+03  0.31383602524E+03  0.17770000000E+01 0. -1.
</event>
<event>
 7    1  0.3970441E-006  0.5211714E+03  0.7546771E-02  0.9353645E-01
        -11   -1    0    0    0    0  0.00000000000E+00  0.00000000000E+00  0.50000000000E+03  0.50000000000E+03  0.00000000000E+00 0.  1.
         11   -1    0    0    0    0 -0.00000000000E+00 -0.00000000000E+00 -0.50000000000E+03  0.50000000000E+03  0.00000000000E+00 0. -1.
         23    2    1    2    0    0 -0.32061484321E+02 -0.35064726926E+02 -0.17563552992E+03  0.20274190667E+03  0.89436947068E+02 0.  0.
        -11    1    1    2    0    0  0.10636906793E+03  0.26168486466E+03  0.38663091182E+03  0.47882857995E+03  0.00000000000E+00 0.  1.
         11    1    1    2    0    0 -0.74307583607E+02 -0.22662013773E+03 -0.21099538190E+03  0.31842951338E+03  0.00000000000E+00 0. -1.
        -15    1    3    3    0    0 -0.44775313055E+02  0.97463827465E+01 -0.45884975015E+02  0.64872253676E+02  0.17770000000E+01 0.  1.
         15    1    3    3    0    0  0.12713828734E+02 -0.44811109673E+02 -0.12975055490E+03  0.13786965300E+03  0.17770000000E+01 0. -1.
</event>
<event>
 7    1  0.3970441E-006  0.5165480E+03  0.7546771E-02  0.9363525E-01
        -11   -1    0    0    0    0  0.00000000000E+00  0.00000000000E+00  0.50000000000E+03  0.50000000000E+03  0.00000000000E+00 0. -1.
         11   -1    0    0    0    0 -0.00000000000E+00 -0.00000000000E+00 -0.50000000000E+03  0.50000000000E+03  0.00000000000E+00 0. -1.
         23    2    1    2    0    0 -0.33065908717E+02  0.55984310578E+02 -0.25397533927E+03  0.27775361260E+03  0.91738754104E+02 0.  0.
        -11    1    1    2    0    0  0.15464672677E+03 -0.26047631743E+02  0.45730922511E+03  0.48345197961E+03  0.00000000000E+00 0. -1.
         11    1    1    2    0    0 -0.12158081805E+03 -0.29936678835E+02 -0.20333388584E+03  0.23879440779E+03  0.00000000000E+00 0. -1.
        -15    1    3    3    0    0  0.22298330037E+02  0.39662114069E+02 -0.16890056965E+03  0.17493101204E+03  0.17770000000E+01 0. -1.
         15    1    3    3    0    0 -0.55364238754E+02  0.16322196509E+02 -0.85074769618E+02  0.10282260056E+03  0.17770000000E+01 0.  1.
</event>
<event>
 7    1  0.3970441E-006  0.5142094E+03  0.7546771E-02  0.9368565E-01
        -11   -1    0    0    0    0  0.00000000000E+00  0.00000000000E+00  0.50000000000E+03  0.50000000000E+03  0.00000000000E+00 0.  1.
         11   -1    0    0    0    0 -0.00000000000E+00 -0.00000000000E+00 -0.50000000000E+03  0.50000000000E+03  0.00000000000E+00 0. -1.
         23    2    1    2    0    0 -0.55037413944E+02  0.99612219230E+02  0.33791031276E+03  0.36744620137E+03  0.88778489970E+02 0.  0.
        -11    1    1    2    0    0  0.48308521859E+02 -0.48465766627E+01  0.13849992651E+03  0.14676318419E+03  0.00000000000E+00 0.  1.
         11    1    1    2    0    0  0.67288920854E+01 -0.94765642568E+02 -0.47641023927E+03  0.48579061444E+03  0.00000000000E+00 0. -1.
        -15    1    3    3    0    0 -0.73548613773E+02  0.44646129309E+02  0.19102670981E+03  0.20951619756E+03  0.17770000000E+01 0.  1.
         15    1    3    3    0    0  0.18511199829E+02  0.54966089921E+02  0.14688360295E+03  0.15793000381E+03  0.17770000000E+01 0. -1.
</event>
<event>
 7    1  0.3970441E-006  0.3534623E+03  0.7546771E-02  0.9804874E-01
        -11   -1    0    0    0    0  0.00000000000E+00  0.00000000000E+00  0.50000000000E+03  0.50000000000E+03  0.00000000000E+00 0.  1.
         11   -1    0    0    0    0 -0.00000000000E+00 -0.00000000000E+00 -0.50000000000E+03  0.50000000000E+03  0.00000000000E+00 0. -1.
         23    2    1    2    0    0 -0.18204680663E+02  0.13553067279E+03 -0.19500528988E+03  0.25403121228E+03  0.88344892705E+02 0.  0.
        -11    1    1    2    0    0  0.75050605007E+02  0.25940512997E+01  0.44687498038E+03  0.45314078442E+03  0.00000000000E+00 0.  1.
         11    1    1    2    0    0 -0.56845924344E+02 -0.13812472409E+03 -0.25186969051E+03  0.29282800330E+03  0.00000000000E+00 0. -1.
        -15    1    3    3    0    0 -0.78028525370E+01 -0.71509300151E+01  0.16294634754E+01  0.10855099632E+02  0.17770000000E+01 0. -1.
         15    1    3    3    0    0 -0.10401828126E+02  0.14268160280E+03 -0.19663475335E+03  0.24317611265E+03  0.17770000000E+01 0.  1.
</event>
<event>
 7    1  0.3970441E-006  0.4126862E+03  0.7546771E-02  0.9619642E-01
        -11   -1    0    0    0    0  0.00000000000E+00  0.00000000000E+00  0.50000000000E+03  0.50000000000E+03  0.00000000000E+00 0.  1.
         11   -1    0    0    0    0 -0.00000000000E+00 -0.00000000000E+00 -0.50000000000E+03  0.50000000000E+03  0.00000000000E+00 0. -1.
         23    2    1    2    0    0  0.38448287423E+02 -0.96835607560E+02  0.87742933961E+02  0.16346322664E+03  0.90365913411E+02 0.  0.
        -11    1    1    2    0    0 -0.16163034721E+03  0.67785546976E+02  0.34429678878E+03  0.38634120707E+03  0.00000000000E+00 0.  1.
         11    1    1    2    0    0  0.12318205978E+03  0.29050060583E+02 -0.43203972275E+03  0.45019556628E+03  0.00000000000E+00 0. -1.
        -15    1    3    3    0    0  0.59135903836E+02 -0.94969313565E+02  0.55075535183E+02  0.12471045644E+03  0.17770000000E+01 0.  1.
         15    1    3    3    0    0 -0.20687616413E+02 -0.18662939947E+01  0.32667398778E+02  0.38752770198E+02  0.17770000000E+01 0. -1.
</event>
<event>
 7    1  0.3970441E-006  0.4188067E+03  0.7546771E-02  0.9602409E-01
        -11   -1    0    0    0    0  0.00000000000E+00  0.00000000000E+00  0.50000000000E+03  0.50000000000E+03  0.00000000000E+00 0.  1.
         11   -1    0    0    0    0 -0.00000000000E+00 -0.00000000000E+00 -0.50000000000E+03  0.50000000000E+03  0.00000000000E+00 0. -1.
         23    2    1    2    0    0 -0.12642374744E+03 -0.50950501304E+02 -0.38203631703E+03  0.41625508444E+03  0.93475292435E+02 0.  0.
        -11    1    1    2    0    0  0.73533950145E+02 -0.95592490030E+02  0.40831061823E+03  0.42574960591E+03  0.00000000000E+00 0.  1.
         11    1    1    2    0    0  0.52889797300E+02  0.14654299133E+03 -0.26274301197E+02  0.15799530965E+03  0.00000000000E+00 0. -1.
        -15    1    3    3    0    0 -0.42679930034E+02  0.10420307379E+02 -0.21594013137E+03  0.22037118073E+03  0.17770000000E+01 0.  1.
         15    1    3    3    0    0 -0.83743817410E+02 -0.61370808683E+02 -0.16609618566E+03  0.19588390371E+03  0.17770000000E+01 0. -1.
</event>
<event>
 7    1  0.3970441E-006  0.5241346E+03  0.7546771E-02  0.9347369E-01
        -11   -1    0    0    0    0  0.00000000000E+00  0.00000000000E+00  0.50000000000E+03  0.50000000000E+03  0.00000000000E+00 0. -1.
         11   -1    0    0    0    0 -0.00000000000E+00 -0.00000000000E+00 -0.50000000000E+03  0.50000000000E+03  0.00000000000E+00 0. -1.
         23    2    1    2    0    0 -0.12678312876E+03 -0.29829960516E+02 -0.21279029748E+03  0.26763155529E+03  0.96866663020E+02 0.  0.
        -11    1    1    2    0    0  0.18891756992E+03  0.21292512822E+03  0.38134089712E+03  0.47586535729E+03  0.00000000000E+00 0. -1.
         11    1    1    2    0    0 -0.62134441161E+02 -0.18309516770E+03 -0.16855059964E+03  0.25650308741E+03  0.00000000000E+00 0. -1.
        -15    1    3    3    0    0 -0.31267652529E+02 -0.30933112030E+01  0.14858658584E+01  0.31505558164E+02  0.17770000000E+01 0.  1.
         15    1    3    3    0    0 -0.95515476229E+02 -0.26736649313E+02 -0.21427616334E+03  0.23612599713E+03  0.17770000000E+01 0. -1.
</event>
<event>
 7    1  0.3970441E-006  0.5074343E+03  0.7546771E-02  0.9383327E-01
        -11   -1    0    0    0    0  0.00000000000E+00  0.00000000000E+00  0.50000000000E+03  0.50000000000E+03  0.00000000000E+00 0. -1.
         11   -1    0    0    0    0 -0.00000000000E+00 -0.00000000000E+00 -0.50000000000E+03  0.50000000000E+03  0.00000000000E+00 0. -1.
         23    2    1    2    0    0 -0.29107701694E+02 -0.48064191832E+02 -0.28571812302E+03  0.30431582169E+03  0.88407288584E+02 0.  0.
        -11    1    1    2    0    0  0.49908801832E+02  0.11512480109E+03  0.47631537835E+03  0.49256567885E+03  0.00000000000E+00 0. -1.
         11    1    1    2    0    0 -0.20801100138E+02 -0.67060609257E+02 -0.19059725534E+03  0.20311849946E+03  0.00000000000E+00 0. -1.
        -15    1    3    3    0    0  0.27027936416E+02  0.30317047227E+01 -0.54239976266E+02  0.60702828062E+02  0.17770000000E+01 0. -1.
         15    1    3    3    0    0 -0.56135638110E+02 -0.51095896554E+02 -0.23147814675E+03  0.24361299362E+03  0.17770000000E+01 0.  1.
</event>
<event>
 7    1  0.3970441E-006  0.4590459E+03  0.7546771E-02  0.9496420E-01
        -11   -1    0    0    0    0  0.00000000000E+00  0.00000000000E+00  0.50000000000E+03  0.50000000000E+03  0.00000000000E+00 0.  1.
         11   -1    0    0    0    0 -0.00000000000E+00 -0.00000000000E+00 -0.50000000000E+03  0.50000000000E+03  0.00000000000E+00 0. -1.
         23    2    1    2    0    0 -0.16663267402E+02 -0.57446008217E+02 -0.42184720842E+03  0.43492681394E+03  0.87341616019E+02 0.  0.
        -11    1    1    2    0    0  0.53140215285E+01  0.13408970011E+03  0.45966779340E+03  0.47885568472E+03  0.00000000000E+00 0.  1.
         11    1    1    2    0    0  0.11349245873E+02 -0.76643691889E+02 -0.37820584979E+02  0.86217501335E+02  0.00000000000E+00 0. -1.
        -15    1    3    3    0    0  0.32639393891E+02 -0.90291993322E+01 -0.95582598736E+02  0.10142015275E+03  0.17770000000E+01 0.  1.
         15    1    3    3    0    0 -0.49302661293E+02 -0.48416808885E+02 -0.32626460969E+03  0.33350666119E+03  0.17770000000E+01 0. -1.
</event>
<event>
 7    1  0.3970441E-006  0.3975015E+03  0.7546771E-02  0.9663812E-01
        -11   -1    0    0    0    0  0.00000000000E+00  0.00000000000E+00  0.50000000000E+03  0.50000000000E+03  0.00000000000E+00 0. -1.
         11   -1    0    0    0    0 -0.00000000000E+00 -0.00000000000E+00 -0.50000000000E+03  0.50000000000E+03  0.00000000000E+00 0.  1.
         23    2    1    2    0    0 -0.13174133096E+03  0.32065701489E+02  0.95666787918E+02  0.18786338267E+03  0.88071157279E+02 0.  0.
        -11    1    1    2    0    0  0.63101761354E+02 -0.98472893957E+02  0.34341684418E+03  0.36278626214E+03  0.00000000000E+00 0. -1.
         11    1    1    2    0    0  0.68639569603E+02  0.66407192468E+02 -0.43908363210E+03  0.44935035519E+03  0.00000000000E+00 0.  1.
        -15    1    3    3    0    0 -0.10594760493E+03 -0.15508125179E+02  0.56886181550E+02  0.12126249345E+03  0.17770000000E+01 0. -1.
         15    1    3    3    0    0 -0.25793726026E+02  0.47573826668E+02  0.38780606368E+02  0.66600889224E+02  0.17770000000E+01 0.  1.
</event>
<event>
 7    1  0.3970441E-006  0.3428380E+03  0.7546771E-02  0.9842227E-01
        -11   -1    0    0    0    0  0.00000000000E+00  0.00000000000E+00  0.50000000000E+03  0.50000000000E+03  0.00000000000E+00 0.  1.
         11   -1    0    0    0    0 -0.00000000000E+00 -0.00000000000E+00 -0.50000000000E+03  0.50000000000E+03  0.00000000000E+00 0.  1.
         23    2    1    2    0    0 -0.24939944495E+03 -0.66363779722E+02 -0.31176919713E+03  0.41498415687E+03  0.91692877433E+02 0.  0.
        -11    1    1    2    0    0 -0.57831728002E+02  0.62073226376E+02  0.25991400920E+03  0.27340974082E+03  0.00000000000E+00 0.  1.
         11    1    1    2    0    0  0.30723117295E+03  0.42905533460E+01  0.51855187934E+02  0.31160610231E+03  0.00000000000E+00 0.  1.
        -15    1    3    3    0    0 -0.17345725332E+03 -0.29681527006E+01 -0.21860778780E+03  0.27908556264E+03  0.17770000000E+01 0.  1.
         15    1    3    3    0    0 -0.75942191634E+02 -0.63395627021E+02 -0.93161409328E+02  0.13589859423E+03  0.17770000000E+01 0. -1.
</event>
<event>
 7    1  0.3970441E-006  0.5108615E+03  0.7546771E-02  0.9375829E-01
        -11   -1    0    0    0    0  0.00000000000E+00  0.00000000000E+00  0.50000000000E+03  0.50000000000E+03  0.00000000000E+00 0.  1.
         11   -1    0    0    0    0 -0.00000000000E+00 -0.00000000000E+00 -0.50000000000E+03  0.50000000000E+03  0.00000000000E+00 0. -1.
         23    2    1    2    0    0 -0.44557013119E+01  0.51235308196E+02 -0.31991730606E+03  0.34173236498E+03  0.10857723737E+03 0.  0.
        -11    1    1    2    0    0 -0.24323013457E+02 -0.10921937080E+03  0.47616804472E+03  0.48913851490E+03  0.00000000000E+00 0.  1.
         11    1    1    2    0    0  0.28778714769E+02  0.57984062607E+02 -0.15625073866E+03  0.16912912012E+03  0.00000000000E+00 0. -1.
        -15    1    3    3    0    0  0.48932670486E+02  0.31659613756E+02 -0.11327408712E+03  0.12740060410E+03  0.17770000000E+01 0.  1.
         15    1    3    3    0    0 -0.53388371798E+02  0.19575694440E+02 -0.20664321894E+03  0.21433176087E+03  0.17770000000E+01 0. -1.
</event>
<event>
 7    1  0.3970441E-006  0.5117945E+03  0.7546771E-02  0.9373799E-01
        -11   -1    0    0    0    0  0.00000000000E+00  0.00000000000E+00  0.50000000000E+03  0.50000000000E+03  0.00000000000E+00 0. -1.
         11   -1    0    0    0    0 -0.00000000000E+00 -0.00000000000E+00 -0.50000000000E+03  0.50000000000E+03  0.00000000000E+00 0.  1.
         23    2    1    2    0    0 -0.46255422256E+02 -0.50028982075E+02 -0.27880596423E+03  0.30088372726E+03  0.90309404293E+02 0.  0.
        -11    1    1    2    0    0  0.15073843376E+03  0.11676416346E+03  0.44943149029E+03  0.48820549950E+03  0.00000000000E+00 0. -1.
         11    1    1    2    0    0 -0.10448301150E+03 -0.66735181387E+02 -0.17062552605E+03  0.21091077324E+03  0.00000000000E+00 0.  1.
        -15    1    3    3    0    0 -0.51701642219E+02 -0.28602724814E+02 -0.27099853708E+03  0.27737076361E+03  0.17770000000E+01 0.  1.
         15    1    3    3    0    0  0.54462199631E+01 -0.21426257261E+02 -0.78074271517E+01  0.23512963655E+02  0.17770000000E+01 0. -1.
</event>
<event>
 7    1  0.3970441E-006  0.3805673E+03  0.7546771E-02  0.9715627E-01
        -11   -1    0    0    0    0  0.00000000000E+00  0.00000000000E+00  0.50000000000E+03  0.50000000000E+03  0.00000000000E+00 0.  1.
         11   -1    0    0    0    0 -0.00000000000E+00 -0.00000000000E+00 -0.50000000000E+03  0.50000000000E+03  0.00000000000E+00 0. -1.
         23    2    1    2    0    0 -0.13973582587E+03  0.17821842221E+03 -0.25107784957E+03  0.35096384697E+03  0.94061832251E+02 0.  0.
        -11    1    1    2    0    0  0.10814492675E+02 -0.11080458461E+03  0.41511178472E+03  0.42978180864E+03  0.00000000000E+00 0.  1.
         11    1    1    2    0    0  0.12892133319E+03 -0.67413837596E+02 -0.16403393515E+03  0.21925434439E+03  0.00000000000E+00 0. -1.
        -15    1    3    3    0    0 -0.12888517244E+03  0.18596363468E+03 -0.25041581880E+03  0.33749829797E+03  0.17770000000E+01 0.  1.
         15    1    3    3    0    0 -0.10850653434E+02 -0.77452124670E+01 -0.66203076832E+00  0.13465548999E+02  0.17770000000E+01 0. -1.
</event>
<event>
 7    1  0.3970441E-006  0.3892885E+03  0.7546771E-02  0.9688590E-01
        -11   -1    0    0    0    0  0.00000000000E+00  0.00000000000E+00  0.50000000000E+03  0.50000000000E+03  0.00000000000E+00 0. -1.
         11   -1    0    0    0    0 -0.00000000000E+00 -0.00000000000E+00 -0.50000000000E+03  0.50000000000E+03  0.00000000000E+00 0.  1.
         23    2    1    2    0    0  0.26136729453E+03 -0.33517170325E+02  0.20421152363E+03  0.34752350908E+03  0.98152838083E+02 0.  0.
        -11    1    1    2    0    0 -0.68378103964E+02 -0.30537485570E+02  0.19257352117E+03  0.20662203218E+03  0.00000000000E+00 0. -1.
         11    1    1    2    0    0 -0.19298919056E+03  0.64054655895E+02 -0.39678504479E+03  0.44585445875E+03  0.00000000000E+00 0.  1.
        -15    1    3    3    0    0  0.20085442313E+03 -0.39178373279E+02  0.20067127675E+03  0.28661745108E+03  0.17770000000E+01 0. -1.
         15    1    3    3    0    0  0.60512871394E+02  0.56612029545E+01  0.35402468786E+01  0.60906057993E+02  0.17770000000E+01 0.  1.
</event>
<event>
 7    1  0.3970441E-006  0.3684418E+03  0.7546771E-02  0.9754535E-01
        -11   -1    0    0    0    0  0.00000000000E+00  0.00000000000E+00  0.50000000000E+03  0.50000000000E+03  0.00000000000E+00 0.  1.
         11   -1    0    0    0    0 -0.00000000000E+00 -0.00000000000E+00 -0.50000000000E+03  0.50000000000E+03  0.00000000000E+00 0. -1.
         23    2    1    2    0    0 -0.36884292084E+02 -0.12203037646E+03 -0.29713599335E+03  0.33582606650E+03  0.90760589537E+02 0.  0.
        -11    1    1    2    0    0 -0.13230096157E+03 -0.25501974806E+01  0.40636884826E+03  0.42737066906E+03  0.00000000000E+00 0.  1.
         11    1    1    2    0    0  0.16918525365E+03  0.12458057394E+03 -0.10923285491E+03  0.23680326444E+03  0.00000000000E+00 0. -1.
        -15    1    3    3    0    0 -0.44494207303E+02 -0.13362805527E+03 -0.25348589800E+03  0.28999043062E+03  0.17770000000E+01 0.  1.
         15    1    3    3    0    0  0.76099152186E+01  0.11597678802E+02 -0.43650095351E+02  0.45835635879E+02  0.17770000000E+01 0. -1.
</event>
<event>
 7    1  0.3970441E-006  0.3882769E+03  0.7546771E-02  0.9691687E-01
        -11   -1    0    0    0    0  0.00000000000E+00  0.00000000000E+00  0.50000000000E+03  0.50000000000E+03  0.00000000000E+00 0.  1.
         11   -1    0    0    0    0 -0.00000000000E+00 -0.00000000000E+00 -0.50000000000E+03  0.50000000000E+03  0.00000000000E+00 0. -1.
         23    2    1    2    0    0 -0.11710934625E+03  0.13169085655E+03 -0.20596612438E+02  0.20343424175E+03  0.99519795000E+02 0.  0.
        -11    1    1    2    0    0  0.17963424114E+02 -0.75223521189E+02  0.39637382029E+03  0.40384832321E+03  0.00000000000E+00 0.  1.
         11    1    1    2    0    0  0.99145922137E+02 -0.56467335358E+02 -0.37577720785E+03  0.39271743504E+03  0.00000000000E+00 0. -1.
        -15    1    3    3    0    0 -0.12533458138E+03  0.87905504370E+02 -0.34094228999E+02  0.15684931995E+03  0.17770000000E+01 0.  1.
         15    1    3    3    0    0  0.82252351250E+01  0.43785352177E+02  0.13497616561E+02  0.46584921809E+02  0.17770000000E+01 0. -1.
</event>
<event>
 7    1  0.3970441E-006  0.4034553E+03  0.7546771E-02  0.9646246E-01
        -11   -1    0    0    0    0  0.00000000000E+00  0.00000000000E+00  0.50000000000E+03  0.50000000000E+03  0.00000000000E+00 0.  1.
         11   -1    0    0    0    0 -0.00000000000E+00 -0.00000000000E+00 -0.50000000000E+03  0.50000000000E+03  0.00000000000E+00 0. -1.
         23    2    1    2    0    0 -0.62986991088E+01  0.10576070290E+03 -0.11272777613E+03  0.17839346277E+03  0.88835106579E+02 0.  0.
        -11    1    1    2    0    0 -0.10726929186E+03 -0.63899326683E+01  0.44440568695E+03  0.45721323998E+03  0.00000000000E+00 0.  1.
         11    1    1    2    0    0  0.11356799097E+03 -0.99370770235E+02 -0.33167791082E+03  0.36439329725E+03  0.00000000000E+00 0. -1.
        -15    1    3    3    0    0  0.24654537858E+02  0.69303358318E+02 -0.23673522775E+02  0.77294211431E+02  0.17770000000E+01 0. -1.
         15    1    3    3    0    0 -0.30953236967E+02  0.36457344585E+02 -0.89054253353E+02  0.10109925134E+03  0.17770000000E+01 0.  1.
</event>
<event>
 7    1  0.3970441E-006  0.5129921E+03  0.7546771E-02  0.9371199E-01
        -11   -1    0    0    0    0  0.00000000000E+00  0.00000000000E+00  0.50000000000E+03  0.50000000000E+03  0.00000000000E+00 0.  1.
         11   -1    0    0    0    0 -0.00000000000E+00 -0.00000000000E+00 -0.50000000000E+03  0.50000000000E+03  0.00000000000E+00 0. -1.
         23    2    1    2    0    0 -0.84389140083E+02  0.73181083371E+02 -0.21636741579E+03  0.25984241381E+03  0.90698530712E+02 0.  0.
        -11    1    1    2    0    0  0.25488287562E+03 -0.11447960791E+03  0.39888069178E+03  0.48700787179E+03  0.00000000000E+00 0.  1.
         11    1    1    2    0    0 -0.17049373554E+03  0.41298524542E+02 -0.18251327599E+03  0.25314971440E+03  0.00000000000E+00 0. -1.
        -15    1    3    3    0    0 -0.54869997718E+02  0.56702049383E+02 -0.58121716809E+02  0.98015971900E+02  0.17770000000E+01 0. -1.
         15    1    3    3    0    0 -0.29519142365E+02  0.16479033988E+02 -0.15824569898E+03  0.16182644191E+03  0.17770000000E+01 0.  1.
</event>
<event>
 7    1  0.3970441E-006  0.5102996E+03  0.7546771E-02  0.9377054E-01
        -11   -1    0    0    0    0  0.00000000000E+00  0.00000000000E+00  0.50000000000E+03  0.50000000000E+03  0.00000000000E+00 0.  1.
         11   -1    0    0    0    0 -0.00000000000E+00 -0.00000000000E+00 -0.50000000000E+03  0.50000000000E+03  0.00000000000E+00 0. -1.
         23    2    1    2    0    0  0.32096364218E+02 -0.10757678876E+03  0.31901236755E+03  0.35057650893E+03  0.92369128436E+02 0.  0.
        -11    1    1    2    0    0 -0.26930215027E+02 -0.59242534920E+01  0.15732497269E+03  0.15972313637E+03  0.00000000000E+00 0.  1.
         11    1    1    2    0    0 -0.51661491913E+01  0.11350104225E+03 -0.47633734024E+03  0.48970035470E+03  0.00000000000E+00 0. -1.
        -15    1    3    3    0    0 -0.28266125829E+02 -0.28447388992E+02  0.52542383734E+02  0.66121763643E+02  0.17770000000E+01 0.  1.
         15    1    3    3    0    0  0.60362490047E+02 -0.79129399765E+02  0.26646998382E+03  0.28445474529E+03  0.17770000000E+01 0. -1.
</event>
<event>
 7    1  0.3970441E-006  0.5120278E+03  0.7546771E-02  0.9373292E-01
        -11   -1    0    0    0    0  0.00000000000E+00  0.00000000000E+00  0.50000000000E+03  0.50000000000E+03  0.00000000000E+00 0.  1.
         11   -1    0    0    0    0 -0.00000000000E+00 -0.00000000000E+00 -0.50000000000E+03  0.50000000000E+03  0.00000000000E+00 0. -1.
         23    2    1    2    0    0  0.23258871189E+02  0.56583522393E+00 -0.24062030618E+03  0.25892868314E+03  0.92761176956E+02 0.  0.
        -11    1    1    2    0    0 -0.96366255063E+02 -0.66993694334E+02  0.47364781051E+03  0.48797219039E+03  0.00000000000E+00 0.  1.
         11    1    1    2    0    0  0.73107383875E+02  0.66427859110E+02 -0.23302750433E+03  0.25309912647E+03  0.00000000000E+00 0. -1.
        -15    1    3    3    0    0  0.28615009975E+02 -0.42129011434E+02 -0.10650426046E+03  0.11806772474E+03  0.17770000000E+01 0. -1.
         15    1    3    3    0    0 -0.53561387858E+01  0.42694846658E+02 -0.13411604572E+03  0.14086095840E+03  0.17770000000E+01 0.  1.
</event>
<event>
 7    1  0.3970441E-006  0.5220053E+03  0.7546771E-02  0.9351874E-01
        -11   -1    0    0    0    0  0.00000000000E+00  0.00000000000E+00  0.50000000000E+03  0.50000000000E+03  0.00000000000E+00 0. -1.
         11   -1    0    0    0    0 -0.00000000000E+00 -0.00000000000E+00 -0.50000000000E+03  0.50000000000E+03  0.00000000000E+00 0. -1.
         23    2    1    2    0    0  0.72887533196E+02  0.36383829177E+02 -0.21399443170E+03  0.24756946449E+03  0.94131012041E+02 0.  0.
        -11    1    1    2    0    0 -0.27784254361E+03  0.16769198711E+02  0.38858883709E+03  0.47799473781E+03  0.00000000000E+00 0. -1.
         11    1    1    2    0    0  0.20495501041E+03 -0.53153027888E+02 -0.17459440539E+03  0.27443579770E+03  0.00000000000E+00 0. -1.
        -15    1    3    3    0    0  0.21860845928E+02  0.20767473926E+02 -0.34977582918E+01  0.30406851202E+02  0.17770000000E+01 0. -1.
         15    1    3    3    0    0  0.51026687268E+02  0.15616355251E+02 -0.21049667341E+03  0.21716261329E+03  0.17770000000E+01 0.  1.
</event>
<event>
 7    1  0.3970441E-006  0.5290513E+03  0.7546771E-02  0.9337053E-01
        -11   -1    0    0    0    0  0.00000000000E+00  0.00000000000E+00  0.50000000000E+03  0.50000000000E+03  0.00000000000E+00 0.  1.
         11   -1    0    0    0    0 -0.00000000000E+00 -0.00000000000E+00 -0.50000000000E+03  0.50000000000E+03  0.00000000000E+00 0. -1.
         23    2    1    2    0    0 -0.13951560312E+02 -0.48358887910E+02 -0.33906458944E+03  0.35437882167E+03  0.89923997720E+02 0.  0.
        -11    1    1    2    0    0 -0.74535931240E+02 -0.36338420782E+02  0.46359094758E+03  0.47094867295E+03  0.00000000000E+00 0.  1.
         11    1    1    2    0    0  0.88487491552E+02  0.84697308692E+02 -0.12452635815E+03  0.17467250538E+03  0.00000000000E+00 0. -1.
        -15    1    3    3    0    0  0.31821591397E+02 -0.39249417355E+02 -0.23401873767E+03  0.23941816504E+03  0.17770000000E+01 0.  1.
         15    1    3    3    0    0 -0.45773151709E+02 -0.91094705547E+01 -0.10504585177E+03  0.11496065663E+03  0.17770000000E+01 0. -1.
</event>
<event>
 7    1  0.3970441E-006  0.5093791E+03  0.7546771E-02  0.9379065E-01
        -11   -1    0    0    0    0  0.00000000000E+00  0.00000000000E+00  0.50000000000E+03  0.50000000000E+03  0.00000000000E+00 0. -1.
         11   -1    0    0    0    0 -0.00000000000E+00 -0.00000000000E+00 -0.50000000000E+03  0.50000000000E+03  0.00000000000E+00 0.  1.
         23    2    1    2    0    0  0.28798028767E+02 -0.10334370509E+03 -0.29021788332E+03  0.32307540315E+03  0.92962618716E+02 0.  0.
        -11    1    1    2    0    0 -0.91739260917E+02  0.13489306730E+03  0.46270582435E+03  0.49062094481E+03  0.00000000000E+00 0. -1.
         11    1    1    2    0    0  0.62941232149E+02 -0.31549362215E+02 -0.17248794104E+03  0.18630365204E+03  0.00000000000E+00 0.  1.
        -15    1    3    3    0    0  0.14221630154E+02 -0.67262322529E+02 -0.65388480663E+02  0.94896185006E+02  0.17770000000E+01 0. -1.
         15    1    3    3    0    0  0.14576398614E+02 -0.36081382557E+02 -0.22482940266E+03  0.22817921814E+03  0.17770000000E+01 0.  1.
</event>
<event>
 6    1  0.3970441E-006  0.5444053E+03  0.7546771E-02  0.9305588E-01
        -11   -1    0    0    0    0  0.00000000000E+00  0.00000000000E+00  0.50000000000E+03  0.50000000000E+03  0.00000000000E+00 0.  1.
         11   -1    0    0    0    0 -0.00000000000E+00 -0.00000000000E+00 -0.50000000000E+03  0.50000000000E+03  0.00000000000E+00 0. -1.
        -11    1    1    2    0    0  0.59160301506E+02  0.83508580618E+02  0.44395147258E+03  0.45559470400E+03  0.00000000000E+00 0.  1.
         11    1    1    2    0    0  0.20160143672E+02  0.63488221174E+02 -0.23718899265E+03  0.24636518394E+03  0.00000000000E+00 0. -1.
        -15    1    1    2    0    0 -0.81870665447E+02 -0.12322378752E+03 -0.22404235225E+03  0.26848657509E+03  0.17770000000E+01 0. -1.
         15    1    1    2    0    0  0.25502202686E+01 -0.23773014269E+02  0.17279872324E+02  0.29553536969E+02  0.17770000000E+01 0.  1.
</event>
<event>
 7    1  0.3970441E-006  0.4064675E+03  0.7546771E-02  0.9637482E-01
        -11   -1    0    0    0    0  0.00000000000E+00  0.00000000000E+00  0.50000000000E+03  0.50000000000E+03  0.00000000000E+00 0.  1.
         11   -1    0    0    0    0 -0.00000000000E+00 -0.00000000000E+00 -0.50000000000E+03  0.50000000000E+03  0.00000000000E+00 0. -1.
         23    2    1    2    0    0  0.23479637383E+02  0.14851336134E+02 -0.14483302143E+03  0.17379682979E+03  0.91961287480E+02 0.  0.
        -11    1    1    2    0    0  0.26828908249E+03  0.27169920170E+02  0.36817788179E+03  0.45636847939E+03  0.00000000000E+00 0.  1.
         11    1    1    2    0    0 -0.29176871987E+03 -0.42021256304E+02 -0.22334486037E+03  0.36983469081E+03  0.00000000000E+00 0. -1.
        -15    1    3    3    0    0  0.36891902837E+02 -0.26457857649E+02 -0.10670995563E+03  0.11597932181E+03  0.17770000000E+01 0.  1.
         15    1    3    3    0    0 -0.13412265454E+02  0.41309193783E+02 -0.38123065792E+02  0.57817507989E+02  0.17770000000E+01 0. -1.
</event>
<event>
 7    1  0.3970441E-006  0.3733603E+03  0.7546771E-02  0.9738562E-01
        -11   -1    0    0    0    0  0.00000000000E+00  0.00000000000E+00  0.50000000000E+03  0.50000000000E+03  0.00000000000E+00 0. -1.
         11   -1    0    0    0    0 -0.00000000000E+00 -0.00000000000E+00 -0.50000000000E+03  0.50000000000E+03  0.00000000000E+00 0.  1.
         23    2    1    2    0    0 -0.96718792236E+00 -0.19301153973E+03 -0.69896117269E+02  0.22557660799E+03  0.93514431737E+02 0.  0.
        -11    1    1    2    0    0 -0.49311189619E+01  0.89049091919E+02  0.40955923329E+03  0.41915727631E+03  0.00000000000E+00 0. -1.
         11    1    1    2    0    0  0.58983068843E+01  0.10396244781E+03 -0.33966311602E+03  0.35526611570E+03  0.00000000000E+00 0.  1.
        -15    1    3    3    0    0 -0.44207841406E+02 -0.13204651646E+03 -0.52393253662E+02  0.14879121785E+03  0.17770000000E+01 0. -1.
         15    1    3    3    0    0  0.43240653483E+02 -0.60965023266E+02 -0.17502863607E+02  0.76785390140E+02  0.17770000000E+01 0.  1.
</event>
<event>
 7    1  0.3970441E-006  0.3705104E+03  0.7546771E-02  0.9747785E-01
        -11   -1    0    0    0    0  0.00000000000E+00  0.00000000000E+00  0.50000000000E+03  0.50000000000E+03  0.00000000000E+00 0. -1.
         11   -1    0    0    0    0 -0.00000000000E+00 -0.00000000000E+00 -0.50000000000E+03  0.50000000000E+03  0.00000000000E+00 0. -1.
         23    2    1    2    0    0 -0.57102558658E+02 -0.12772217470E+03 -0.16005463050E+03  0.22908944699E+03  0.85386379852E+02 0.  0.
        -11    1    1    2    0    0 -0.41205002269E+01 -0.81228869743E+02  0.42229751592E+03  0.43005848411E+03  0.00000000000E+00 0. -1.
         11    1    1    2    0    0  0.61223058885E+02  0.20895104444E+03 -0.26224288542E+03  0.34085206889E+03  0.00000000000E+00 0. -1.
        -15    1    3    3    0    0  0.86728653144E+01  0.70899414178E+01 -0.26459360628E+01  0.11646654830E+02  0.17770000000E+01 0.  1.
         15    1    3    3    0    0 -0.65775423972E+02 -0.13481211612E+03 -0.15740869444E+03  0.21744279217E+03  0.17770000000E+01 0. -1.
</event>
<event>
 7    1  0.3970441E-006  0.4111016E+03  0.7546771E-02  0.9624156E-01
        -11   -1    0    0    0    0  0.00000000000E+00  0.00000000000E+00  0.50000000000E+03  0.50000000000E+03  0.00000000000E+00 0. -1.
         11   -1    0    0    0    0 -0.00000000000E+00 -0.00000000000E+00 -0.50000000000E+03  0.50000000000E+03  0.00000000000E+00 0.  1.
         23    2    1    2    0    0  0.23327078032E+02 -0.13083129049E+03  0.19325772230E+02  0.16690192407E+03  0.99104932486E+02 0.  0.
        -11    1    1    2    0    0  0.13689717402E+03 -0.26653760962E+02  0.36343396880E+03  0.38927562074E+03  0.00000000000E+00 0. -1.
         11    1    1    2    0    0 -0.16022425205E+03  0.15748505146E+03 -0.38275974103E+03  0.44382245519E+03  0.00000000000E+00 0.  1.
        -15    1    3    3    0    0 -0.57627326207E+01  0.87397831179E+01  0.21855112908E+02  0.24298077813E+02  0.17770000000E+01 0. -1.
         15    1    3    3    0    0  0.29089810653E+02 -0.13957107361E+03 -0.25293406777E+01  0.14260384625E+03  0.17770000000E+01 0.  1.
</event>
<event>
 7    1  0.3970441E-006  0.4059003E+03  0.7546771E-02  0.9639126E-01
        -11   -1    0    0    0    0  0.00000000000E+00  0.00000000000E+00  0.50000000000E+03  0.50000000000E+03  0.00000000000E+00 0. -1.
         11   -1    0    0    0    0 -0.00000000000E+00 -0.00000000000E+00 -0.50000000000E+03  0.50000000000E+03  0.00000000000E+00 0. -1.
         23    2    1    2    0    0 -0.70598975442E+02 -0.33572242028E+03 -0.11433124379E+03  0.37350680162E+03  0.93498335515E+02 0.  0.
        -11    1    1    2    0    0 -0.27065485415E+02 -0.99483825906E+02  0.14668277132E+03  0.17929140392E+03  0.00000000000E+00 0. -1.
         11    1    1    2    0    0  0.97664460857E+02  0.43520624618E+03 -0.32351527531E+02  0.44720179446E+03  0.00000000000E+00 0. -1.
        -15    1    3    3    0    0  0.13140470303E+02 -0.64665875225E+02 -0.49451935073E+02  0.82480294555E+02  0.17770000000E+01 0.  1.
         15    1    3    3    0    0 -0.83739445745E+02 -0.27105654505E+03 -0.64879308715E+02  0.29102650707E+03  0.17770000000E+01 0. -1.
</event>
<event>
 7    1  0.3970441E-006  0.5370925E+03  0.7546771E-02  0.9320435E-01
        -11   -1    0    0    0    0  0.00000000000E+00  0.00000000000E+00  0.50000000000E+03  0.50000000000E+03  0.00000000000E+00 0.  1.
         11   -1    0    0    0    0 -0.00000000000E+00 -0.00000000000E+00 -0.50000000000E+03  0.50000000000E+03  0.00000000000E+00 0. -1.
         23    2    1    2    0    0  0.70131807854E+02 -0.30797050263E+02 -0.36798336299E+02  0.12486468942E+03  0.91488492892E+02 0.  0.
        -11    1    1    2    0    0 -0.70014215531E+02  0.17046650436E+03  0.42464396427E+03  0.46290745930E+03  0.00000000000E+00 0.  1.
         11    1    1    2    0    0 -0.11759232270E+00 -0.13966945409E+03 -0.38784562797E+03  0.41222785128E+03  0.00000000000E+00 0. -1.
        -15    1    3    3    0    0  0.64091030311E+02  0.13255415668E+02  0.24669143271E+01  0.65518009785E+02  0.17770000000E+01 0.  1.
         15    1    3    3    0    0  0.60407775427E+01 -0.44052465931E+02 -0.39265250626E+02  0.59346679634E+02  0.17770000000E+01 0. -1.
</event>
<event>
 7    1  0.3970441E-006  0.5098402E+03  0.7546771E-02  0.9378057E-01
        -11   -1    0    0    0    0  0.00000000000E+00  0.00000000000E+00  0.50000000000E+03  0.50000000000E+03  0.00000000000E+00 0.  1.
         11   -1    0    0    0    0 -0.00000000000E+00 -0.00000000000E+00 -0.50000000000E+03  0.50000000000E+03  0.00000000000E+00 0. -1.
         23    2    1    2    0    0  0.28384032399E+02 -0.65075259310E+02 -0.32259517738E+03  0.34221006626E+03  0.89440697190E+02 0.  0.
        -11    1    1    2    0    0  0.53746195354E+01  0.13492319111E+03  0.47119362135E+03  0.49015975236E+03  0.00000000000E+00 0.  1.
         11    1    1    2    0    0 -0.33758651935E+02 -0.69847931800E+02 -0.14859844397E+03  0.16763018138E+03  0.00000000000E+00 0. -1.
        -15    1    3    3    0    0  0.23363798748E+02 -0.87784590074E+02 -0.25849293473E+03  0.27399590577E+03  0.17770000000E+01 0.  1.
         15    1    3    3    0    0  0.50202336512E+01  0.22709330763E+02 -0.64102242649E+02  0.68214160489E+02  0.17770000000E+01 0. -1.
</event>
<event>
 7    1  0.3970441E-006  0.5069433E+03  0.7546771E-02  0.9384406E-01
        -11   -1    0    0    0    0  0.00000000000E+00  0.00000000000E+00  0.50000000000E+03  0.50000000000E+03  0.00000000000E+00 0.  1.
         11   -1    0    0    0    0 -0.00000000000E+00 -0.00000000000E+00 -0.50000000000E+03  0.50000000000E+03  0.00000000000E+00 0. -1.
         23    2    1    2    0    0 -0.60579053800E+02 -0.12482250395E+03  0.30376741337E+03  0.34685810329E+03  0.93730588088E+02 0.  0.
        -11    1    1    2    0    0 -0.10504663283E+02 -0.50547207047E+02  0.15153188336E+03  0.16008522657E+03  0.00000000000E+00 0.  1.
         11    1    1    2    0    0  0.71083717083E+02  0.17536971099E+03 -0.45529929673E+03  0.49305667014E+03  0.00000000000E+00 0. -1.
        -15    1    3    3    0    0 -0.33597426580E+02 -0.98919944092E+01  0.14393683414E+03  0.14814725302E+03  0.17770000000E+01 0.  1.
         15    1    3    3    0    0 -0.26981627220E+02 -0.11493050954E+03  0.15983057923E+03  0.19871085027E+03  0.17770000000E+01 0. -1.
</event>
<event>
 7    1  0.3970441E-006  0.5221285E+03  0.7546771E-02  0.9351613E-01
        -11   -1    0    0    0    0  0.00000000000E+00  0.00000000000E+00  0.50000000000E+03  0.50000000000E+03  0.00000000000E+00 0.  1.
         11   -1    0    0    0    0 -0.00000000000E+00 -0.00000000000E+00 -0.50000000000E+03  0.50000000000E+03  0.00000000000E+00 0. -1.
         23    2    1    2    0    0  0.10637582263E+02  0.71151839768E+00  0.76161438658E+02  0.11937920539E+03  0.91308080295E+02 0.  0.
        -11    1    1    2    0    0  0.32034393623E+02 -0.87514715490E+02  0.39181878265E+03  0.40274928459E+03  0.00000000000E+00 0.  1.
         11    1    1    2    0    0 -0.42671975886E+02  0.86803197092E+02 -0.46798022131E+03  0.47787151002E+03  0.00000000000E+00 0. -1.
        -15    1    3    3    0    0  0.60789961677E+01  0.37222006696E+02  0.35065288471E+01  0.37919460049E+02  0.17770000000E+01 0. -1.
         15    1    3    3    0    0  0.45585860953E+01 -0.36510488298E+02  0.72654909811E+02  0.81459745345E+02  0.17770000000E+01 0.  1.
</event>
<event>
 7    1  0.3970441E-006  0.5204464E+03  0.7546771E-02  0.9355187E-01
        -11   -1    0    0    0    0  0.00000000000E+00  0.00000000000E+00  0.50000000000E+03  0.50000000000E+03  0.00000000000E+00 0. -1.
         11   -1    0    0    0    0 -0.00000000000E+00 -0.00000000000E+00 -0.50000000000E+03  0.50000000000E+03  0.00000000000E+00 0.  1.
         23    2    1    2    0    0 -0.15566359560E+02 -0.15417206312E+03  0.20082617318E+03  0.26965998654E+03  0.91509671124E+02 0.  0.
        -11    1    1    2    0    0 -0.81639649740E+02 -0.16837467654E+02  0.23652762216E+03  0.25078646050E+03  0.00000000000E+00 0. -1.
         11    1    1    2    0    0  0.97206009299E+02  0.17100953077E+03 -0.43735379534E+03  0.47955355296E+03  0.00000000000E+00 0.  1.
        -15    1    3    3    0    0  0.41781154464E+00 -0.45259756567E+02  0.13264048699E+03  0.14016160904E+03  0.17770000000E+01 0.  1.
         15    1    3    3    0    0 -0.15984171104E+02 -0.10891230655E+03  0.68185686191E+02  0.12949837750E+03  0.17770000000E+01 0. -1.
</event>
<event>
 7    1  0.3970441E-006  0.3490847E+03  0.7546771E-02  0.9820092E-01
        -11   -1    0    0    0    0  0.00000000000E+00  0.00000000000E+00  0.50000000000E+03  0.50000000000E+03  0.00000000000E+00 0. -1.
         11   -1    0    0    0    0 -0.00000000000E+00 -0.00000000000E+00 -0.50000000000E+03  0.50000000000E+03  0.00000000000E+00 0. -1.
         23    2    1    2    0    0  0.15619028014E+03 -0.11034348671E+03 -0.40019470552E+03  0.45269766117E+03  0.90599566412E+02 0.  0.
        -11    1    1    2    0    0 -0.17358988293E+03 -0.73488586080E+02  0.21073555270E+03  0.28274280346E+03  0.00000000000E+00 0. -1.
         11    1    1    2    0    0  0.17399602784E+02  0.18383207279E+03  0.18945915282E+03  0.26455953536E+03  0.00000000000E+00 0. -1.
        -15    1    3    3    0    0 -0.10700537328E+02 -0.15911980728E+02 -0.47224589295E+02  0.51000119538E+02  0.17770000000E+01 0.  1.
         15    1    3    3    0    0  0.16689081747E+03 -0.94431505981E+02 -0.35297011623E+03  0.40169754164E+03  0.17770000000E+01 0. -1.
</event>
<event>
 7    1  0.3970441E-006  0.4882882E+03  0.7546771E-02  0.9426404E-01
        -11   -1    0    0    0    0  0.00000000000E+00  0.00000000000E+00  0.50000000000E+03  0.50000000000E+03  0.00000000000E+00 0.  1.
         11   -1    0    0    0    0 -0.00000000000E+00 -0.00000000000E+00 -0.50000000000E+03  0.50000000000E+03  0.00000000000E+00 0. -1.
         23    2    1    2    0    0 -0.18624250101E+03  0.22427547387E+03  0.36408541233E+03  0.47588920167E+03  0.94480619358E+02 0.  0.
        -11    1    1    2    0    0  0.70573382617E+01  0.10006556496E+02  0.29692638225E+02  0.32118374196E+02  0.00000000000E+00 0.  1.
         11    1    1    2    0    0  0.17918516274E+03 -0.23428203037E+03 -0.39377805056E+03  0.49199242413E+03  0.00000000000E+00 0. -1.
        -15    1    3    3    0    0 -0.48634830924E+02  0.26856665913E+02  0.27215040444E+02  0.61890576329E+02  0.17770000000E+01 0. -1.
         15    1    3    3    0    0 -0.13760767008E+03  0.19741880796E+03  0.33687037189E+03  0.41399862534E+03  0.17770000000E+01 0.  1.
</event>
<event>
 7    1  0.3970441E-006  0.4845355E+03  0.7546771E-02  0.9435093E-01
        -11   -1    0    0    0    0  0.00000000000E+00  0.00000000000E+00  0.50000000000E+03  0.50000000000E+03  0.00000000000E+00 0. -1.
         11   -1    0    0    0    0 -0.00000000000E+00 -0.00000000000E+00 -0.50000000000E+03  0.50000000000E+03  0.00000000000E+00 0.  1.
         23    2    1    2    0    0 -0.12814976371E+03 -0.43975061589E+01  0.44566640105E+03  0.47275079424E+03  0.91831761515E+02 0.  0.
        -11    1    1    2    0    0 -0.11763030872E+02 -0.30675256932E+02  0.20871283659E+02  0.38922368436E+02  0.00000000000E+00 0. -1.
         11    1    1    2    0    0  0.13991279458E+03  0.35072763091E+02 -0.46653768471E+03  0.48832683733E+03  0.00000000000E+00 0.  1.
        -15    1    3    3    0    0 -0.13361511303E+03 -0.24544483186E+02  0.36694339428E+03  0.39128767220E+03  0.17770000000E+01 0. -1.
         15    1    3    3    0    0  0.54653493196E+01  0.20146977028E+02  0.78723006779E+02  0.81463122036E+02  0.17770000000E+01 0.  1.
</event>
<event>
 7    1  0.3970441E-006  0.5213394E+03  0.7546771E-02  0.9353288E-01
        -11   -1    0    0    0    0  0.00000000000E+00  0.00000000000E+00  0.50000000000E+03  0.50000000000E+03  0.00000000000E+00 0.  1.
         11   -1    0    0    0    0 -0.00000000000E+00 -0.00000000000E+00 -0.50000000000E+03  0.50000000000E+03  0.00000000000E+00 0. -1.
         23    2    1    2    0    0  0.19899619503E+03 -0.10631226138E+03  0.25336205019E+03  0.34983534261E+03  0.85385337763E+02 0.  0.
        -11    1    1    2    0    0  0.83537834141E+02  0.71765361663E+02  0.13147168685E+03  0.17150405625E+03  0.00000000000E+00 0.  1.
         11    1    1    2    0    0 -0.28253402918E+03  0.34546899717E+02 -0.38483373704E+03  0.47866060114E+03  0.00000000000E+00 0. -1.
        -15    1    3    3    0    0  0.80549249524E+02  0.58110398285E+00  0.69615708744E+02  0.10648015737E+03  0.17770000000E+01 0. -1.
         15    1    3    3    0    0  0.11844694551E+03 -0.10689336536E+03  0.18374634145E+03  0.24335518524E+03  0.17770000000E+01 0.  1.
</event>
<event>
 7    1  0.3970441E-006  0.4434240E+03  0.7546771E-02  0.9536140E-01
        -11   -1    0    0    0    0  0.00000000000E+00  0.00000000000E+00  0.50000000000E+03  0.50000000000E+03  0.00000000000E+00 0.  1.
         11   -1    0    0    0    0 -0.00000000000E+00 -0.00000000000E+00 -0.50000000000E+03  0.50000000000E+03  0.00000000000E+00 0. -1.
         23    2    1    2    0    0  0.66889740541E+00 -0.57468172509E+02 -0.19443341087E+02  0.11107910569E+03  0.93045612115E+02 0.  0.
        -11    1    1    2    0    0  0.25831779646E+02 -0.14164277664E+03  0.41827555192E+03  0.44236228857E+03  0.00000000000E+00 0.  1.
         11    1    1    2    0    0 -0.26500677051E+02  0.19911094915E+03 -0.39883221084E+03  0.44655860573E+03  0.00000000000E+00 0. -1.
        -15    1    3    3    0    0  0.14817072650E+02  0.23112019241E+02 -0.58342473405E+01  0.28123073202E+02  0.17770000000E+01 0.  1.
         15    1    3    3    0    0 -0.14148175244E+02 -0.80580191749E+02 -0.13609093747E+02  0.82956032491E+02  0.17770000000E+01 0. -1.
</event>
<event>
 7    1  0.3970441E-006  0.3810478E+03  0.7546771E-02  0.9714118E-01
        -11   -1    0    0    0    0  0.00000000000E+00  0.00000000000E+00  0.50000000000E+03  0.50000000000E+03  0.00000000000E+00 0. -1.
         11   -1    0    0    0    0 -0.00000000000E+00 -0.00000000000E+00 -0.50000000000E+03  0.50000000000E+03  0.00000000000E+00 0.  1.
         23    2    1    2    0    0 -0.26082626189E+03  0.38257763422E+02 -0.19591383091E+03  0.34076505555E+03  0.90799771985E+02 0.  0.
        -11    1    1    2    0    0  0.23150741356E+03  0.99276261660E+02  0.36237578785E+03  0.44132490331E+03  0.00000000000E+00 0. -1.
         11    1    1    2    0    0  0.29318848329E+02 -0.13753402508E+03 -0.16646195694E+03  0.21791004114E+03  0.00000000000E+00 0.  1.
        -15    1    3    3    0    0 -0.23781166867E+03  0.28873682818E+02 -0.20391000744E+03  0.31459581716E+03  0.17770000000E+01 0.  1.
         15    1    3    3    0    0 -0.23014593216E+02  0.93840806034E+01  0.79961765296E+01  0.26169238388E+02  0.17770000000E+01 0. -1.
</event>
<event>
 7    1  0.3970441E-006  0.5114567E+03  0.7546771E-02  0.9374533E-01
        -11   -1    0    0    0    0  0.00000000000E+00  0.00000000000E+00  0.50000000000E+03  0.50000000000E+03  0.00000000000E+00 0. -1.
         11   -1    0    0    0    0 -0.00000000000E+00 -0.00000000000E+00 -0.50000000000E+03  0.50000000000E+03  0.00000000000E+00 0.  1.
         23    2    1    2    0    0  0.79648480343E+02 -0.46524297759E+02  0.26218679183E+03  0.29262313972E+03  0.91531401105E+02 0.  0.
        -11    1    1    2    0    0  0.35471893206E+02  0.38237664077E+02  0.21252703365E+03  0.21883353078E+03  0.00000000000E+00 0. -1.
         11    1    1    2    0    0 -0.11512037355E+03  0.82866336819E+01 -0.47471382547E+03  0.48854332950E+03  0.00000000000E+00 0.  1.
        -15    1    3    3    0    0  0.28639080574E+02 -0.52936006161E+02  0.64014318291E+02  0.87882924164E+02  0.17770000000E+01 0. -1.
         15    1    3    3    0    0  0.51009399769E+02  0.64117084026E+01  0.19817247353E+03  0.20474021555E+03  0.17770000000E+01 0.  1.
</event>
<event>
 7    1  0.3970441E-006  0.4849911E+03  0.7546771E-02  0.9434034E-01
        -11   -1    0    0    0    0  0.00000000000E+00  0.00000000000E+00  0.50000000000E+03  0.50000000000E+03  0.00000000000E+00 0. -1.
         11   -1    0    0    0    0 -0.00000000000E+00 -0.00000000000E+00 -0.50000000000E+03  0.50000000000E+03  0.00000000000E+00 0.  1.
         23    2    1    2    0    0 -0.14073556658E+03  0.76002995277E+02 -0.44864842743E+03  0.48560941072E+03  0.94594573600E+02 0.  0.
        -11    1    1    2    0    0  0.16750700827E+03 -0.99625983968E+02  0.43408761465E+03  0.47583189436E+03  0.00000000000E+00 0. -1.
         11    1    1    2    0    0 -0.26771441686E+02  0.23622988691E+02  0.14560812787E+02  0.38558694917E+02  0.00000000000E+00 0.  1.
        -15    1    3    3    0    0 -0.14063055062E+01  0.28655986160E+02 -0.14930265893E+03  0.15204468070E+03  0.17770000000E+01 0.  1.
         15    1    3    3    0    0 -0.13932926107E+03  0.47347009117E+02 -0.29934576850E+03  0.33356473002E+03  0.17770000000E+01 0. -1.
</event>
<event>
 7    1  0.3970441E-006  0.5241463E+03  0.7546771E-02  0.9347345E-01
        -11   -1    0    0    0    0  0.00000000000E+00  0.00000000000E+00  0.50000000000E+03  0.50000000000E+03  0.00000000000E+00 0.  1.
         11   -1    0    0    0    0 -0.00000000000E+00 -0.00000000000E+00 -0.50000000000E+03  0.50000000000E+03  0.00000000000E+00 0. -1.
         23    2    1    2    0    0  0.50166898801E+02 -0.54551516157E+02 -0.11159326192E+03  0.16083600499E+03  0.89008868920E+02 0.  0.
        -11    1    1    2    0    0 -0.32488310530E+02  0.35467225351E+03  0.31557702022E+03  0.47585371010E+03  0.00000000000E+00 0.  1.
         11    1    1    2    0    0 -0.17678588270E+02 -0.30012073735E+03 -0.20398375830E+03  0.36331028491E+03  0.00000000000E+00 0. -1.
        -15    1    3    3    0    0 -0.16964659112E+02 -0.41947232499E+02 -0.60240828977E+02  0.75362359159E+02  0.17770000000E+01 0. -1.
         15    1    3    3    0    0  0.67131557913E+02 -0.12604283658E+02 -0.51352432940E+02  0.85473645834E+02  0.17770000000E+01 0.  1.
</event>
<event>
 7    1  0.3970441E-006  0.5141742E+03  0.7546771E-02  0.9368641E-01
        -11   -1    0    0    0    0  0.00000000000E+00  0.00000000000E+00  0.50000000000E+03  0.50000000000E+03  0.00000000000E+00 0.  1.
         11   -1    0    0    0    0 -0.00000000000E+00 -0.00000000000E+00 -0.50000000000E+03  0.50000000000E+03  0.00000000000E+00 0. -1.
         23    2    1    2    0    0 -0.91210302429E+02 -0.37900476490E+02  0.33222186526E+03  0.35847399438E+03  0.91523065387E+02 0.  0.
        -11    1    1    2    0    0 -0.42677576650E+02  0.67063785191E+02  0.13387920092E+03  0.15570024814E+03  0.00000000000E+00 0.  1.
         11    1    1    2    0    0  0.13388787908E+03 -0.29163308701E+02 -0.46610106618E+03  0.48582575748E+03  0.00000000000E+00 0. -1.
        -15    1    3    3    0    0 -0.41178249191E+02  0.24636959873E+02  0.74897417977E+02  0.88968584044E+02  0.17770000000E+01 0. -1.
         15    1    3    3    0    0 -0.50032053238E+02 -0.62537436363E+02  0.25732444729E+03  0.26950541033E+03  0.17770000000E+01 0.  1.
</event>
<event>
 7    1  0.3970441E-006  0.3426887E+03  0.7546771E-02  0.9842762E-01
        -11   -1    0    0    0    0  0.00000000000E+00  0.00000000000E+00  0.50000000000E+03  0.50000000000E+03  0.00000000000E+00 0. -1.
         11   -1    0    0    0    0 -0.00000000000E+00 -0.00000000000E+00 -0.50000000000E+03  0.50000000000E+03  0.00000000000E+00 0.  1.
         23    2    1    2    0    0  0.16007183883E+03 -0.79645697863E+02 -0.19771706080E+03  0.28129952908E+03  0.89838511543E+02 0.  0.
        -11    1    1    2    0    0 -0.75430434066E+02 -0.17665035227E+02  0.43863997477E+03  0.44542881734E+03  0.00000000000E+00 0. -1.
         11    1    1    2    0    0 -0.84641404763E+02  0.97310733090E+02 -0.24092291396E+03  0.27327165358E+03  0.00000000000E+00 0.  1.
        -15    1    3    3    0    0  0.57206979202E+02 -0.56819091522E+02 -0.13889714273E+03  0.16061326725E+03  0.17770000000E+01 0. -1.
         15    1    3    3    0    0  0.10286485963E+03 -0.22826606341E+02 -0.58819918073E+02  0.12068626183E+03  0.17770000000E+01 0.  1.
</event>
<event>
 7    1  0.3970441E-006  0.5246332E+03  0.7546771E-02  0.9346317E-01
        -11   -1    0    0    0    0  0.00000000000E+00  0.00000000000E+00  0.50000000000E+03  0.50000000000E+03  0.00000000000E+00 0. -1.
         11   -1    0    0    0    0 -0.00000000000E+00 -0.00000000000E+00 -0.50000000000E+03  0.50000000000E+03  0.00000000000E+00 0. -1.
         23    2    1    2    0    0 -0.41967696727E+02  0.37356557801E+02 -0.14043949288E+03  0.17677519346E+03  0.91484522641E+02 0.  0.
        -11    1    1    2    0    0  0.39321814423E+02  0.85040294083E+02  0.46604237272E+03  0.47536675302E+03  0.00000000000E+00 0. -1.
         11    1    1    2    0    0  0.26458823043E+01 -0.12239685188E+03 -0.32560287984E+03  0.34785805352E+03  0.00000000000E+00 0. -1.
        -15    1    3    3    0    0  0.29165744726E+02  0.73847373422E+01 -0.40589989940E+02  0.50555712075E+02  0.17770000000E+01 0. -1.
         15    1    3    3    0    0 -0.71133441453E+02  0.29971820459E+02 -0.99849502939E+02  0.12621948138E+03  0.17770000000E+01 0.  1.
</event>
<event>
 7    1  0.3970441E-006  0.3306649E+03  0.7546771E-02  0.9886852E-01
        -11   -1    0    0    0    0  0.00000000000E+00  0.00000000000E+00  0.50000000000E+03  0.50000000000E+03  0.00000000000E+00 0.  1.
         11   -1    0    0    0    0 -0.00000000000E+00 -0.00000000000E+00 -0.50000000000E+03  0.50000000000E+03  0.00000000000E+00 0. -1.
         23    2    1    2    0    0 -0.79168351459E+02 -0.21564936958E+03 -0.30509501066E+03  0.39327921589E+03  0.93879165151E+02 0.  0.
        -11    1    1    2    0    0  0.60064370513E+02 -0.97904450108E+02  0.26653118564E+03  0.29022729519E+03  0.00000000000E+00 0.  1.
         11    1    1    2    0    0  0.19103980946E+02  0.31355381969E+03  0.38563825015E+02  0.31649348892E+03  0.00000000000E+00 0. -1.
        -15    1    3    3    0    0 -0.26878971329E+02 -0.11864150660E+03 -0.22910704267E+03  0.25940601558E+03  0.17770000000E+01 0. -1.
         15    1    3    3    0    0 -0.52289380130E+02 -0.97007862974E+02 -0.75987967990E+02  0.13387320031E+03  0.17770000000E+01 0.  1.
</event>
<event>
 7    1  0.3970441E-006  0.4083308E+03  0.7546771E-02  0.9632101E-01
        -11   -1    0    0    0    0  0.00000000000E+00  0.00000000000E+00  0.50000000000E+03  0.50000000000E+03  0.00000000000E+00 0.  1.
         11   -1    0    0    0    0 -0.00000000000E+00 -0.00000000000E+00 -0.50000000000E+03  0.50000000000E+03  0.00000000000E+00 0. -1.
         23    2    1    2    0    0  0.20939405589E+03 -0.11713465166E+03 -0.29498186561E+03  0.39120367293E+03  0.91976167618E+02 0.  0.
        -11    1    1    2    0    0 -0.82023929069E+02  0.10049318583E+03  0.41389863931E+03  0.43374979995E+03  0.00000000000E+00 0.  1.
         11    1    1    2    0    0 -0.12737012682E+03  0.16641465833E+02 -0.11891677370E+03  0.17504652712E+03  0.00000000000E+00 0. -1.
        -15    1    3    3    0    0  0.17021281739E+03 -0.98282787961E+02 -0.17355469343E+03  0.26221422340E+03  0.17770000000E+01 0.  1.
         15    1    3    3    0    0  0.39181238493E+02 -0.18851863703E+02 -0.12142717218E+03  0.12898944952E+03  0.17770000000E+01 0. -1.
</event>
<event>
 7    1  0.3970441E-006  0.4653377E+03  0.7546771E-02  0.9480895E-01
        -11   -1    0    0    0    0  0.00000000000E+00  0.00000000000E+00  0.50000000000E+03  0.50000000000E+03  0.00000000000E+00 0.  1.
         11   -1    0    0    0    0 -0.00000000000E+00 -0.00000000000E+00 -0.50000000000E+03  0.50000000000E+03  0.00000000000E+00 0.  1.
         23    2    1    2    0    0  0.67846346959E+02  0.70466849125E+02 -0.43188749476E+03  0.45255135731E+03  0.93312481750E+02 0.  0.
        -11    1    1    2    0    0 -0.32594869409E+02 -0.13465012804E+03  0.45097514344E+03  0.47177501258E+03  0.00000000000E+00 0.  1.
         11    1    1    2    0    0 -0.35251477550E+02  0.64183278918E+02 -0.19087648686E+02  0.75673630113E+02  0.00000000000E+00 0.  1.
        -15    1    3    3    0    0  0.85782508900E+02  0.36619428809E+02 -0.25431366708E+03  0.27088414570E+03  0.17770000000E+01 0. -1.
         15    1    3    3    0    0 -0.17936161941E+02  0.33847420316E+02 -0.17757382768E+03  0.18166721161E+03  0.17770000000E+01 0.  1.
</event>
<event>
 7    1  0.3970441E-006  0.3888311E+03  0.7546771E-02  0.9689989E-01
        -11   -1    0    0    0    0  0.00000000000E+00  0.00000000000E+00  0.50000000000E+03  0.50000000000E+03  0.00000000000E+00 0.  1.
         11   -1    0    0    0    0 -0.00000000000E+00 -0.00000000000E+00 -0.50000000000E+03  0.50000000000E+03  0.00000000000E+00 0. -1.
         23    2    1    2    0    0  0.14049091826E+03 -0.96137041555E+01 -0.34897127736E+03  0.38718195023E+03  0.91097687927E+02 0.  0.
        -11    1    1    2    0    0  0.52638079283E+02  0.61074607913E+02  0.39877041955E+03  0.40683992261E+03  0.00000000000E+00 0.  1.
         11    1    1    2    0    0 -0.19312899754E+03 -0.51460903757E+02 -0.49799142188E+02  0.20597812716E+03  0.00000000000E+00 0. -1.
        -15    1    3    3    0    0  0.14676534749E+03  0.98773171593E+01 -0.30937757331E+03  0.34257155342E+03  0.17770000000E+01 0. -1.
         15    1    3    3    0    0 -0.62744292395E+01 -0.19491021315E+02 -0.39593704052E+02  0.44610396812E+02  0.17770000000E+01 0.  1.
</event>
<event>
 7    1  0.3970441E-006  0.5219918E+03  0.7546771E-02  0.9351903E-01
        -11   -1    0    0    0    0  0.00000000000E+00  0.00000000000E+00  0.50000000000E+03  0.50000000000E+03  0.00000000000E+00 0.  1.
         11   -1    0    0    0    0 -0.00000000000E+00 -0.00000000000E+00 -0.50000000000E+03  0.50000000000E+03  0.00000000000E+00 0.  1.
         23    2    1    2    0    0 -0.47754035224E+02  0.24483676589E+02 -0.28114251000E+03  0.30308007901E+03  0.99682120078E+02 0.  0.
        -11    1    1    2    0    0  0.45811506112E+02  0.91188161081E+02  0.46698810145E+03  0.47800822347E+03  0.00000000000E+00 0.  1.
         11    1    1    2    0    0  0.19425291114E+01 -0.11567183767E+03 -0.18584559145E+03  0.21891169752E+03  0.00000000000E+00 0.  1.
        -15    1    3    3    0    0  0.26634186188E+02  0.23692882546E+02 -0.60690165120E+02  0.70407289598E+02  0.17770000000E+01 0. -1.
         15    1    3    3    0    0 -0.74388221412E+02  0.79079404298E+00 -0.22045234488E+03  0.23267278941E+03  0.17770000000E+01 0.  1.
</event>
<event>
 7    1  0.3970441E-006  0.4489631E+03  0.7546771E-02  0.9521859E-01
        -11   -1    0    0    0    0  0.00000000000E+00  0.00000000000E+00  0.50000000000E+03  0.50000000000E+03  0.00000000000E+00 0.  1.
         11   -1    0    0    0    0 -0.00000000000E+00 -0.00000000000E+00 -0.50000000000E+03  0.50000000000E+03  0.00000000000E+00 0.  1.
         23    2    1    2    0    0 -0.13960981597E+02 -0.23111517856E+02 -0.44165842633E+03  0.45240270431E+03  0.94217779895E+02 0.  0.
        -11    1    1    2    0    0 -0.70235691139E+02  0.85624728572E+02  0.42770070249E+03  0.44180599516E+03  0.00000000000E+00 0.  1.
         11    1    1    2    0    0  0.84196672735E+02 -0.62513210716E+02  0.13957723846E+02  0.10579130053E+03  0.00000000000E+00 0.  1.
        -15    1    3    3    0    0  0.11884340813E+02  0.33587686169E+02 -0.15998194640E+03  0.16391080234E+03  0.17770000000E+01 0. -1.
         15    1    3    3    0    0 -0.25845322410E+02 -0.56699204025E+02 -0.28167647993E+03  0.28849190197E+03  0.17770000000E+01 0.  1.
</event>
<event>
 7    1  0.3970441E-006  0.5343962E+03  0.7546771E-02  0.9325973E-01
        -11   -1    0    0    0    0  0.00000000000E+00  0.00000000000E+00  0.50000000000E+03  0.50000000000E+03  0.00000000000E+00 0. -1.
         11   -1    0    0    0    0 -0.00000000000E+00 -0.00000000000E+00 -0.50000000000E+03  0.50000000000E+03  0.00000000000E+00 0.  1.
         23    2    1    2    0    0  0.10437719536E+03 -0.21476067677E+02 -0.91698541639E+02  0.16511916927E+03  0.86601946435E+02 0.  0.
        -11    1    1    2    0    0 -0.63864705057E+02  0.95924666459E+02  0.45111708902E+03  0.46560376953E+03  0.00000000000E+00 0. -1.
         11    1    1    2    0    0 -0.40512490303E+02 -0.74448598781E+02 -0.35941854738E+03  0.36927706121E+03  0.00000000000E+00 0.  1.
        -15    1    3    3    0    0  0.52582538177E+02 -0.48655643096E+02 -0.23864908227E+02  0.75531361036E+02  0.17770000000E+01 0.  1.
         15    1    3    3    0    0  0.51794657182E+02  0.27179575419E+02 -0.67833633412E+02  0.89587808230E+02  0.17770000000E+01 0. -1.
</event>
<event>
 7    1  0.3970441E-006  0.5385179E+03  0.7546771E-02  0.9317522E-01
        -11   -1    0    0    0    0  0.00000000000E+00  0.00000000000E+00  0.50000000000E+03  0.50000000000E+03  0.00000000000E+00 0. -1.
         11   -1    0    0    0    0 -0.00000000000E+00 -0.00000000000E+00 -0.50000000000E+03  0.50000000000E+03  0.00000000000E+00 0.  1.
         23    2    1    2    0    0 -0.50400146421E+02  0.42751063198E+02 -0.21614487932E+03  0.24450891985E+03  0.93264006268E+02 0.  0.
        -11    1    1    2    0    0  0.14339987406E+03  0.15888575652E+03  0.40884906208E+03  0.46148213733E+03  0.00000000000E+00 0. -1.
         11    1    1    2    0    0 -0.92999727642E+02 -0.20163681971E+03 -0.19270418277E+03  0.29400894283E+03  0.00000000000E+00 0.  1.
        -15    1    3    3    0    0 -0.37013648505E+02  0.93308572621E+00 -0.18955694335E+03  0.19314728402E+03  0.17770000000E+01 0. -1.
         15    1    3    3    0    0 -0.13386497916E+02  0.41817977472E+02 -0.26587935968E+02  0.51361635822E+02  0.17770000000E+01 0.  1.
</event>
<event>
 6    1  0.3970441E-006  0.2828749E+03  0.7546771E-02  0.1008437E+00
        -11   -1    0    0    0    0  0.00000000000E+00  0.00000000000E+00  0.50000000000E+03  0.50000000000E+03  0.00000000000E+00 0. -1.
         11   -1    0    0    0    0 -0.00000000000E+00 -0.00000000000E+00 -0.50000000000E+03  0.50000000000E+03  0.00000000000E+00 0.  1.
        -11    1    1    2    0    0  0.81621776027E+01 -0.11790574056E+03  0.38974909738E+03  0.40727477666E+03  0.00000000000E+00 0. -1.
         11    1    1    2    0    0  0.12749878691E+03  0.79730393265E+02 -0.12010497974E+03  0.19245280572E+03  0.00000000000E+00 0.  1.
        -15    1    1    2    0    0 -0.60640472232E+01  0.13137815233E+03 -0.87026241668E+02  0.15771403250E+03  0.17770000000E+01 0. -1.
         15    1    1    2    0    0 -0.12959691729E+03 -0.93202805039E+02 -0.18261787597E+03  0.24255838512E+03  0.17770000000E+01 0.  1.
</event>
<event>
 7    1  0.3970441E-006  0.5068744E+03  0.7546771E-02  0.9384558E-01
        -11   -1    0    0    0    0  0.00000000000E+00  0.00000000000E+00  0.50000000000E+03  0.50000000000E+03  0.00000000000E+00 0. -1.
         11   -1    0    0    0    0 -0.00000000000E+00 -0.00000000000E+00 -0.50000000000E+03  0.50000000000E+03  0.00000000000E+00 0.  1.
         23    2    1    2    0    0 -0.20236084090E+02  0.59443069426E+02 -0.33437909763E+03  0.35248501117E+03  0.92159234867E+02 0.  0.
        -11    1    1    2    0    0  0.23892461966E+02 -0.11086739664E+03  0.47990664222E+03  0.49312555666E+03  0.00000000000E+00 0. -1.
         11    1    1    2    0    0 -0.36563778753E+01  0.51424327219E+02 -0.14552754460E+03  0.15438943217E+03  0.00000000000E+00 0.  1.
        -15    1    3    3    0    0  0.34586040958E+02  0.37545655185E+02 -0.18293307541E+03  0.18993035107E+03  0.17770000000E+01 0.  1.
         15    1    3    3    0    0 -0.54822125048E+02  0.21897414241E+02 -0.15144602222E+03  0.16255466010E+03  0.17770000000E+01 0. -1.
</event>
<event>
 7    1  0.3970441E-006  0.5305519E+03  0.7546771E-02  0.9333928E-01
        -11   -1    0    0    0    0  0.00000000000E+00  0.00000000000E+00  0.50000000000E+03  0.50000000000E+03  0.00000000000E+00 0.  1.
         11   -1    0    0    0    0 -0.00000000000E+00 -0.00000000000E+00 -0.50000000000E+03  0.50000000000E+03  0.00000000000E+00 0.  1.
         23    2    1    2    0    0 -0.16277257662E+03 -0.62740202431E+02  0.26239527674E+03  0.33239018219E+03  0.10583339388E+03 0.  0.
        -11    1    1    2    0    0  0.43579670267E+02 -0.11483131222E+03  0.15550772397E+03  0.19816172724E+03  0.00000000000E+00 0.  1.
         11    1    1    2    0    0  0.11919290635E+03  0.17757151465E+03 -0.41790300071E+03  0.46944809057E+03  0.00000000000E+00 0.  1.
        -15    1    3    3    0    0 -0.37129487652E+01 -0.39993760242E+02  0.78385627962E+02  0.88095126124E+02  0.17770000000E+01 0.  1.
         15    1    3    3    0    0 -0.15905962785E+03 -0.22746442189E+02  0.18400964878E+03  0.24429505607E+03  0.17770000000E+01 0. -1.
</event>
<event>
 7    1  0.3970441E-006  0.3635217E+03  0.7546771E-02  0.9770782E-01
        -11   -1    0    0    0    0  0.00000000000E+00  0.00000000000E+00  0.50000000000E+03  0.50000000000E+03  0.00000000000E+00 0. -1.
         11   -1    0    0    0    0 -0.00000000000E+00 -0.00000000000E+00 -0.50000000000E+03  0.50000000000E+03  0.00000000000E+00 0.  1.
         23    2    1    2    0    0 -0.65720433661E+02  0.67768603667E+02  0.20053950826E+03  0.23992110236E+03  0.91838346795E+02 0.  0.
        -11    1    1    2    0    0  0.17642086666E+03 -0.82260917000E+02  0.23804890118E+03  0.30750359350E+03  0.00000000000E+00 0. -1.
         11    1    1    2    0    0 -0.11070043300E+03  0.14492313333E+02 -0.43858840945E+03  0.45257530414E+03  0.00000000000E+00 0.  1.
        -15    1    3    3    0    0 -0.72782185725E+02  0.19131063416E+02  0.80571842954E+02  0.11026433581E+03  0.17770000000E+01 0.  1.
         15    1    3    3    0    0  0.70617520640E+01  0.48637540251E+02  0.11996766531E+03  0.12965676655E+03  0.17770000000E+01 0. -1.
</event>
<event>
 7    1  0.3970441E-006  0.5174929E+03  0.7546771E-02  0.9361497E-01
        -11   -1    0    0    0    0  0.00000000000E+00  0.00000000000E+00  0.50000000000E+03  0.50000000000E+03  0.00000000000E+00 0.  1.
         11   -1    0    0    0    0 -0.00000000000E+00 -0.00000000000E+00 -0.50000000000E+03  0.50000000000E+03  0.00000000000E+00 0. -1.
         23    2    1    2    0    0 -0.33054047466E+02  0.24765334929E+02 -0.36669059200E+03  0.37836387261E+03  0.83614221093E+02 0.  0.
        -11    1    1    2    0    0  0.98338501777E+01 -0.11734400766E+03  0.46791751995E+03  0.48250712556E+03  0.00000000000E+00 0.  1.
         11    1    1    2    0    0  0.23220197288E+02  0.92578672729E+02 -0.10122692795E+03  0.13912900182E+03  0.00000000000E+00 0. -1.
        -15    1    3    3    0    0 -0.40893382715E+00  0.49531692226E+02 -0.24449838613E+03  0.24947179061E+03  0.17770000000E+01 0. -1.
         15    1    3    3    0    0 -0.32645113639E+02 -0.24766357297E+02 -0.12219220587E+03  0.12889208200E+03  0.17770000000E+01 0.  1.
</event>
<event>
 7    1  0.3970441E-006  0.5133006E+03  0.7546771E-02  0.9370531E-01
        -11   -1    0    0    0    0  0.00000000000E+00  0.00000000000E+00  0.50000000000E+03  0.50000000000E+03  0.00000000000E+00 0.  1.
         11   -1    0    0    0    0 -0.00000000000E+00 -0.00000000000E+00 -0.50000000000E+03  0.50000000000E+03  0.00000000000E+00 0. -1.
         23    2    1    2    0    0 -0.52015434017E+01 -0.25397433515E+02 -0.19710845854E+03  0.21893682185E+03  0.91703336091E+02 0.  0.
        -11    1    1    2    0    0  0.16471489818E+02  0.15565427352E+03  0.46084351177E+03  0.48669939920E+03  0.00000000000E+00 0.  1.
         11    1    1    2    0    0 -0.11269946416E+02 -0.13025684000E+03 -0.26373505322E+03  0.29436377895E+03  0.00000000000E+00 0. -1.
        -15    1    3    3    0    0  0.19421737641E+02 -0.51760077553E+02 -0.14783720576E+03  0.15784583193E+03  0.17770000000E+01 0. -1.
         15    1    3    3    0    0 -0.24623281043E+02  0.26362644038E+02 -0.49271252787E+02  0.61090989927E+02  0.17770000000E+01 0.  1.
</event>
<event>
 7    1  0.3970441E-006  0.5370406E+03  0.7546771E-02  0.9320541E-01
        -11   -1    0    0    0    0  0.00000000000E+00  0.00000000000E+00  0.50000000000E+03  0.50000000000E+03  0.00000000000E+00 0.  1.
         11   -1    0    0    0    0 -0.00000000000E+00 -0.00000000000E+00 -0.50000000000E+03  0.50000000000E+03  0.00000000000E+00 0. -1.
         23    2    1    2    0    0  0.40564780869E+02  0.58590286223E+02  0.43842129281E+02  0.12563058682E+03  0.93715468082E+02 0.  0.
        -11    1    1    2    0    0  0.65437482387E+02 -0.23808084234E+02  0.40547416791E+03  0.41141000209E+03  0.00000000000E+00 0.  1.
         11    1    1    2    0    0 -0.10600226326E+03 -0.34782201990E+02 -0.44931629720E+03  0.46295941109E+03  0.00000000000E+00 0. -1.
        -15    1    3    3    0    0  0.67640327228E+01  0.66799078768E+02  0.57306817527E+02  0.88289852910E+02  0.17770000000E+01 0.  1.
         15    1    3    3    0    0  0.33800748146E+02 -0.82087925443E+01 -0.13464688246E+02  0.37340733908E+02  0.17770000000E+01 0. -1.
</event>
<event>
 7    1  0.3970441E-006  0.4515762E+03  0.7546771E-02  0.9515198E-01
        -11   -1    0    0    0    0  0.00000000000E+00  0.00000000000E+00  0.50000000000E+03  0.50000000000E+03  0.00000000000E+00 0. -1.
         11   -1    0    0    0    0 -0.00000000000E+00 -0.00000000000E+00 -0.50000000000E+03  0.50000000000E+03  0.00000000000E+00 0.  1.
         23    2    1    2    0    0 -0.60929483783E+02 -0.68997095881E+02 -0.45348621410E+03  0.47162036766E+03  0.91120928318E+02 0.  0.
        -11    1    1    2    0    0  0.11721943741E+03 -0.29006897644E+01  0.41149577805E+03  0.42787566635E+03  0.00000000000E+00 0. -1.
         11    1    1    2    0    0 -0.56289953623E+02  0.71897785645E+02  0.41990436054E+02  0.10050396599E+03  0.00000000000E+00 0.  1.
        -15    1    3    3    0    0 -0.53093226113E+01 -0.22478216040E+02 -0.15978575330E+02  0.28141281092E+02  0.17770000000E+01 0. -1.
         15    1    3    3    0    0 -0.55620161172E+02 -0.46518879841E+02 -0.43750763877E+03  0.44347908657E+03  0.17770000000E+01 0.  1.
</event>
<event>
 7    1  0.3970441E-006  0.4748524E+03  0.7546771E-02  0.9457907E-01
        -11   -1    0    0    0    0  0.00000000000E+00  0.00000000000E+00  0.50000000000E+03  0.50000000000E+03  0.00000000000E+00 0.  1.
         11   -1    0    0    0    0 -0.00000000000E+00 -0.00000000000E+00 -0.50000000000E+03  0.50000000000E+03  0.00000000000E+00 0. -1.
         23    2    1    2    0    0  0.25322133296E+03  0.17052831467E+03  0.32999715019E+03  0.45878792643E+03  0.91582163847E+02 0.  0.
        -11    1    1    2    0    0 -0.19624912961E+02  0.37081031386E+02  0.39258340657E+02  0.57457439975E+02  0.00000000000E+00 0.  1.
         11    1    1    2    0    0 -0.23359642000E+03 -0.20760934605E+03 -0.36925549085E+03  0.48375463360E+03  0.00000000000E+00 0. -1.
        -15    1    3    3    0    0  0.18608377993E+03  0.15999910726E+03  0.22061493898E+03  0.33000150985E+03  0.17770000000E+01 0.  1.
         15    1    3    3    0    0  0.67137553030E+02  0.10529207406E+02  0.10938221121E+03  0.12878641658E+03  0.17770000000E+01 0. -1.
</event>
<event>
 7    1  0.3970441E-006  0.5148256E+03  0.7546771E-02  0.9367234E-01
        -11   -1    0    0    0    0  0.00000000000E+00  0.00000000000E+00  0.50000000000E+03  0.50000000000E+03  0.00000000000E+00 0. -1.
         11   -1    0    0    0    0 -0.00000000000E+00 -0.00000000000E+00 -0.50000000000E+03  0.50000000000E+03  0.00000000000E+00 0. -1.
         23    2    1    2    0    0  0.71470722646E+00  0.11984699645E+02 -0.20735324381E+03  0.22756916221E+03  0.92995763552E+02 0.  0.
        -11    1    1    2    0    0 -0.41392980093E+02  0.78180243193E+02  0.47704160142E+03  0.48517442092E+03  0.00000000000E+00 0. -1.
         11    1    1    2    0    0  0.40678272867E+02 -0.90164942839E+02 -0.26968835761E+03  0.28725641687E+03  0.00000000000E+00 0. -1.
        -15    1    3    3    0    0 -0.37202604046E+02  0.33143377092E+02 -0.99568251540E+02  0.11135309442E+03  0.17770000000E+01 0.  1.
         15    1    3    3    0    0  0.37917311272E+02 -0.21158677447E+02 -0.10778499227E+03  0.11621606780E+03  0.17770000000E+01 0. -1.
</event>
<event>
 7    1  0.3970441E-006  0.5296033E+03  0.7546771E-02  0.9335902E-01
        -11   -1    0    0    0    0  0.00000000000E+00  0.00000000000E+00  0.50000000000E+03  0.50000000000E+03  0.00000000000E+00 0.  1.
         11   -1    0    0    0    0 -0.00000000000E+00 -0.00000000000E+00 -0.50000000000E+03  0.50000000000E+03  0.00000000000E+00 0. -1.
         23    2    1    2    0    0  0.94130033533E+02  0.72577734659E+02  0.26675882314E+03  0.30578004620E+03  0.90626575291E+02 0.  0.
        -11    1    1    2    0    0  0.14517166909E+02 -0.11985386267E+03  0.18847057089E+03  0.22382326203E+03  0.00000000000E+00 0.  1.
         11    1    1    2    0    0 -0.10864720044E+03  0.47276128015E+02 -0.45522939403E+03  0.47039669177E+03  0.00000000000E+00 0. -1.
        -15    1    3    3    0    0  0.95398029388E+02  0.49839423783E+02  0.26084455552E+03  0.28218396844E+03  0.17770000000E+01 0.  1.
         15    1    3    3    0    0 -0.12679958549E+01  0.22738310876E+02  0.59142676242E+01  0.23596077757E+02  0.17770000000E+01 0. -1.
</event>
<event>
 7    1  0.3970441E-006  0.4550093E+03  0.7546771E-02  0.9506520E-01
        -11   -1    0    0    0    0  0.00000000000E+00  0.00000000000E+00  0.50000000000E+03  0.50000000000E+03  0.00000000000E+00 0.  1.
         11   -1    0    0    0    0 -0.00000000000E+00 -0.00000000000E+00 -0.50000000000E+03  0.50000000000E+03  0.00000000000E+00 0. -1.
         23    2    1    2    0    0  0.40564393326E+02 -0.19731823252E+03 -0.37873454896E+03  0.43892079214E+03  0.92906664479E+02 0.  0.
        -11    1    1    2    0    0 -0.50299652042E+02  0.13050307457E+03  0.44500768343E+03  0.46646859035E+03  0.00000000000E+00 0.  1.
         11    1    1    2    0    0  0.97352587160E+01  0.66815157950E+02 -0.66273134471E+02  0.94610617516E+02  0.00000000000E+00 0. -1.
        -15    1    3    3    0    0  0.22275501577E+02 -0.10084785574E+02 -0.97691572042E+02  0.10072091068E+03  0.17770000000E+01 0.  1.
         15    1    3    3    0    0  0.18288891749E+02 -0.18723344694E+03 -0.28104297692E+03  0.33819988146E+03  0.17770000000E+01 0. -1.
</event>
<event>
 7    1  0.3970441E-006  0.5203050E+03  0.7546771E-02  0.9355488E-01
        -11   -1    0    0    0    0  0.00000000000E+00  0.00000000000E+00  0.50000000000E+03  0.50000000000E+03  0.00000000000E+00 0.  1.
         11   -1    0    0    0    0 -0.00000000000E+00 -0.00000000000E+00 -0.50000000000E+03  0.50000000000E+03  0.00000000000E+00 0. -1.
         23    2    1    2    0    0  0.18982541921E+02  0.49139530161E+02 -0.25815851839E+03  0.28194665326E+03  0.10036465685E+03 0.  0.
        -11    1    1    2    0    0 -0.14517551774E+03 -0.12520804915E+02  0.45702803748E+03  0.47969503703E+03  0.00000000000E+00 0.  1.
         11    1    1    2    0    0  0.12619297582E+03 -0.36618725247E+02 -0.19886951909E+03  0.23835830971E+03  0.00000000000E+00 0. -1.
        -15    1    3    3    0    0  0.33949472433E+01 -0.12667185755E+02  0.26149415209E+01  0.13489955889E+02  0.17770000000E+01 0.  1.
         15    1    3    3    0    0  0.15587594678E+02  0.61806715916E+02 -0.26077345991E+03  0.26845669737E+03  0.17770000000E+01 0. -1.
</event>
<event>
 7    1  0.3970441E-006  0.5070852E+03  0.7546771E-02  0.9384094E-01
        -11   -1    0    0    0    0  0.00000000000E+00  0.00000000000E+00  0.50000000000E+03  0.50000000000E+03  0.00000000000E+00 0.  1.
         11   -1    0    0    0    0 -0.00000000000E+00 -0.00000000000E+00 -0.50000000000E+03  0.50000000000E+03  0.00000000000E+00 0. -1.
         23    2    1    2    0    0  0.43487457654E+02  0.19405751605E+02 -0.32914714131E+03  0.34521071673E+03  0.92546508002E+02 0.  0.
        -11    1    1    2    0    0 -0.90224681050E+02 -0.21380507015E+02  0.48411509405E+03  0.49291484401E+03  0.00000000000E+00 0.  1.
         11    1    1    2    0    0  0.46737223396E+02  0.19747554104E+01 -0.15496795275E+03  0.16187443927E+03  0.00000000000E+00 0. -1.
        -15    1    3    3    0    0  0.44229918797E+02 -0.29021201410E+02 -0.21036028777E+03  0.21691732123E+03  0.17770000000E+01 0.  1.
         15    1    3    3    0    0 -0.74246114287E+00  0.48426953014E+02 -0.11878685354E+03  0.12829339550E+03  0.17770000000E+01 0. -1.
</event>
<event>
 7    1  0.3970441E-006  0.5174453E+03  0.7546771E-02  0.9361599E-01
        -11   -1    0    0    0    0  0.00000000000E+00  0.00000000000E+00  0.50000000000E+03  0.50000000000E+03  0.00000000000E+00 0.  1.
         11   -1    0    0    0    0 -0.00000000000E+00 -0.00000000000E+00 -0.50000000000E+03  0.50000000000E+03  0.00000000000E+00 0. -1.
         23    2    1    2    0    0 -0.45569297868E+02  0.61222011629E+02  0.14645444718E+03  0.19054464687E+03  0.95045577148E+02 0.  0.
        -11    1    1    2    0    0 -0.30161293594E+02  0.22795071395E+03  0.23236351896E+03  0.32690065244E+03  0.00000000000E+00 0.  1.
         11    1    1    2    0    0  0.75730591463E+02 -0.28917272558E+03 -0.37881796613E+03  0.48255470070E+03  0.00000000000E+00 0. -1.
        -15    1    3    3    0    0  0.26926730757E+02  0.25767409950E+02  0.25743129279E+02  0.45330725550E+02  0.17770000000E+01 0.  1.
         15    1    3    3    0    0 -0.72496028625E+02  0.35454601679E+02  0.12071131790E+03  0.14521392132E+03  0.17770000000E+01 0. -1.
</event>
<event>
 7    1  0.3970441E-006  0.3922237E+03  0.7546771E-02  0.9679660E-01
        -11   -1    0    0    0    0  0.00000000000E+00  0.00000000000E+00  0.50000000000E+03  0.50000000000E+03  0.00000000000E+00 0. -1.
         11   -1    0    0    0    0 -0.00000000000E+00 -0.00000000000E+00 -0.50000000000E+03  0.50000000000E+03  0.00000000000E+00 0.  1.
         23    2    1    2    0    0 -0.58300855050E+02 -0.16338898878E+03  0.49562782395E+02  0.19507193013E+03  0.74173021861E+02 0.  0.
        -11    1    1    2    0    0  0.16097798753E+02 -0.85168047789E+02  0.33447870749E+03  0.34552675910E+03  0.00000000000E+00 0. -1.
         11    1    1    2    0    0  0.42203056296E+02  0.24855703657E+03 -0.38404148988E+03  0.45940131077E+03  0.00000000000E+00 0.  1.
        -15    1    3    3    0    0 -0.57200725679E+02 -0.11562337791E+03  0.65484580969E+02  0.14467921970E+03  0.17770000000E+01 0. -1.
         15    1    3    3    0    0 -0.11001293707E+01 -0.47765610864E+02 -0.15921798574E+02  0.50392710432E+02  0.17770000000E+01 0.  1.
</event>
<event>
 7    1  0.3970441E-006  0.5258301E+03  0.7546771E-02  0.9343798E-01
        -11   -1    0    0    0    0  0.00000000000E+00  0.00000000000E+00  0.50000000000E+03  0.50000000000E+03  0.00000000000E+00 0. -1.
         11   -1    0    0    0    0 -0.00000000000E+00 -0.00000000000E+00 -0.50000000000E+03  0.50000000000E+03  0.00000000000E+00 0. -1.
         23    2    1    2    0    0 -0.54972555167E+02 -0.41876906783E+02  0.31950568206E+02  0.11664727077E+03  0.88374712596E+02 0.  0.
        -11    1    1    2    0    0 -0.88219341662E+02 -0.33879064780E+03  0.21182265277E+03  0.40918283384E+03  0.00000000000E+00 0. -1.
         11    1    1    2    0    0  0.14319189683E+03  0.38066755458E+03 -0.24377322098E+03  0.47416989539E+03  0.00000000000E+00 0. -1.
        -15    1    3    3    0    0 -0.56431463049E+02 -0.89116698407E+01 -0.15130067058E+02  0.59127020383E+02  0.17770000000E+01 0.  1.
         15    1    3    3    0    0  0.14589078818E+01 -0.32965236942E+02  0.47080635264E+02  0.57520250388E+02  0.17770000000E+01 0. -1.
</event>
<event>
 7    1  0.3970441E-006  0.5053168E+03  0.7546771E-02  0.9387991E-01
        -11   -1    0    0    0    0  0.00000000000E+00  0.00000000000E+00  0.50000000000E+03  0.50000000000E+03  0.00000000000E+00 0. -1.
         11   -1    0    0    0    0 -0.00000000000E+00 -0.00000000000E+00 -0.50000000000E+03  0.50000000000E+03  0.00000000000E+00 0. -1.
         23    2    1    2    0    0 -0.35394594410E+02  0.16957550603E+02 -0.48495346022E+03  0.49468324432E+03  0.89394170925E+02 0.  0.
        -11    1    1    2    0    0  0.17470621176E+02  0.56427388556E+02  0.13590303591E+03  0.14818538373E+03  0.00000000000E+00 0. -1.
         11    1    1    2    0    0  0.17923973234E+02 -0.73384939158E+02  0.34905042432E+03  0.35713137195E+03  0.00000000000E+00 0. -1.
        -15    1    3    3    0    0 -0.64166366134E+01 -0.36331102497E+02 -0.18692254352E+03  0.19053691831E+03  0.17770000000E+01 0. -1.
         15    1    3    3    0    0 -0.28977957796E+02  0.53288653099E+02 -0.29803091670E+03  0.30414632601E+03  0.17770000000E+01 0.  1.
</event>
<event>
 7    1  0.3970441E-006  0.4037600E+03  0.7546771E-02  0.9645356E-01
        -11   -1    0    0    0    0  0.00000000000E+00  0.00000000000E+00  0.50000000000E+03  0.50000000000E+03  0.00000000000E+00 0.  1.
         11   -1    0    0    0    0 -0.00000000000E+00 -0.00000000000E+00 -0.50000000000E+03  0.50000000000E+03  0.00000000000E+00 0. -1.
         23    2    1    2    0    0  0.14971748206E+03 -0.15307493291E+03 -0.28721533221E+03  0.36988318839E+03  0.92052520224E+02 0.  0.
        -11    1    1    2    0    0 -0.17115901612E+03  0.22613124844E+02  0.41299719320E+03  0.44763092365E+03  0.00000000000E+00 0.  1.
         11    1    1    2    0    0  0.21441534062E+02  0.13046180807E+03 -0.12578186100E+03  0.18248588796E+03  0.00000000000E+00 0. -1.
        -15    1    3    3    0    0  0.60919428323E+02 -0.59802990309E+01 -0.74825411120E+02  0.96689919857E+02  0.17770000000E+01 0.  1.
         15    1    3    3    0    0  0.88798053737E+02 -0.14709463388E+03 -0.21238992109E+03  0.27319326853E+03  0.17770000000E+01 0. -1.
</event>
<event>
 7    1  0.3970441E-006  0.3487387E+03  0.7546771E-02  0.9821305E-01
        -11   -1    0    0    0    0  0.00000000000E+00  0.00000000000E+00  0.50000000000E+03  0.50000000000E+03  0.00000000000E+00 0.  1.
         11   -1    0    0    0    0 -0.00000000000E+00 -0.00000000000E+00 -0.50000000000E+03  0.50000000000E+03  0.00000000000E+00 0.  1.
         23    2    1    2    0    0  0.73973258017E+02  0.22895902200E+03 -0.34579654954E+03  0.43105668744E+03  0.91325448016E+02 0.  0.
        -11    1    1    2    0    0 -0.70250814824E+02  0.31062403766E+02  0.29389443320E+03  0.30376633747E+03  0.00000000000E+00 0.  1.
         11    1    1    2    0    0 -0.37224431927E+01 -0.26002142576E+03  0.51902116339E+02  0.26517697509E+03  0.00000000000E+00 0.  1.
        -15    1    3    3    0    0  0.44224934996E+02  0.46739189051E+02 -0.14286302884E+03  0.15669524373E+03  0.17770000000E+01 0. -1.
         15    1    3    3    0    0  0.29748323021E+02  0.18221983295E+03 -0.20293352070E+03  0.27436144371E+03  0.17770000000E+01 0.  1.
</event>
<event>
 7    1  0.3970441E-006  0.4787449E+03  0.7546771E-02  0.9448667E-01
        -11   -1    0    0    0    0  0.00000000000E+00  0.00000000000E+00  0.50000000000E+03  0.50000000000E+03  0.00000000000E+00 0. -1.
         11   -1    0    0    0    0 -0.00000000000E+00 -0.00000000000E+00 -0.50000000000E+03  0.50000000000E+03  0.00000000000E+00 0. -1.
         23    2    1    2    0    0  0.58324038452E+02 -0.10880782369E+02 -0.45162146915E+03  0.46421608638E+03  0.89523955266E+02 0.  0.
        -11    1    1    2    0    0 -0.87373854727E+02 -0.19719972578E+02  0.47780372349E+03  0.48612700603E+03  0.00000000000E+00 0. -1.
         11    1    1    2    0    0  0.29049816276E+02  0.30600754947E+02 -0.26182254342E+02  0.49656907590E+02  0.00000000000E+00 0. -1.
        -15    1    3    3    0    0  0.71031050096E+02  0.17964023769E+02 -0.35769775015E+03  0.36512868200E+03  0.17770000000E+01 0. -1.
         15    1    3    3    0    0 -0.12707011645E+02 -0.28844806138E+02 -0.93923718997E+02  0.99087404373E+02  0.17770000000E+01 0.  1.
</event>
<event>
 7    1  0.3970441E-006  0.3980147E+03  0.7546771E-02  0.9662285E-01
        -11   -1    0    0    0    0  0.00000000000E+00  0.00000000000E+00  0.50000000000E+03  0.50000000000E+03  0.00000000000E+00 0. -1.
         11   -1    0    0    0    0 -0.00000000000E+00 -0.00000000000E+00 -0.50000000000E+03  0.50000000000E+03  0.00000000000E+00 0.  1.
         23    2    1    2    0    0 -0.52403241728E+02 -0.11736558504E+02 -0.15421192911E+03  0.18739423740E+03  0.91931684329E+02 0.  0.
        -11    1    1    2    0    0 -0.94541716059E+02 -0.20236691204E+03  0.39801970000E+03  0.45641010588E+03  0.00000000000E+00 0. -1.
         11    1    1    2    0    0  0.14694495779E+03  0.21410347055E+03 -0.24380777089E+03  0.35619565672E+03  0.00000000000E+00 0.  1.
        -15    1    3    3    0    0 -0.77513265477E+02 -0.98159130352E+01 -0.94936525645E+02  0.12296649993E+03  0.17770000000E+01 0.  1.
         15    1    3    3    0    0  0.25110023749E+02 -0.19206454692E+01 -0.59275403461E+02  0.64427737475E+02  0.17770000000E+01 0. -1.
</event>
<event>
 7    1  0.5621692E-006  0.5136129E+03  0.7546771E-02  0.9369855E-01
        -11   -1    0    0    0    0  0.00000000000E+00  0.00000000000E+00  0.50000000000E+03  0.50000000000E+03  0.00000000000E+00 0. -1.
         11   -1    0    0    0    0 -0.00000000000E+00 -0.00000000000E+00 -0.50000000000E+03  0.50000000000E+03  0.00000000000E+00 0. -1.
         23    2    1    2    0    0  0.12585331263E+03 -0.68963549374E+02  0.32124839571E+03  0.36119882930E+03  0.81664160406E+02 0.  0.
        -11    1    1    2    0    0 -0.23243949327E+02  0.88202245480E+01  0.15037276515E+03  0.15241406116E+03  0.00000000000E+00 0. -1.
         11    1    1    2    0    0 -0.10260936330E+03  0.60143324826E+02 -0.47162116086E+03  0.48638710954E+03  0.00000000000E+00 0. -1.
        -15    1    3    3    0    0  0.11072006135E+03 -0.69727664768E+02  0.32019867457E+03  0.34590638639E+03  0.17770000000E+01 0. -1.
         15    1    3    3    0    0  0.15133251279E+02  0.76411539367E+00  0.10497211432E+01  0.15292442907E+02  0.17770000000E+01 0.  1.
</event>
<event>
 7    1  0.3970441E-006  0.4792349E+03  0.7546771E-02  0.9447511E-01
        -11   -1    0    0    0    0  0.00000000000E+00  0.00000000000E+00  0.50000000000E+03  0.50000000000E+03  0.00000000000E+00 0. -1.
         11   -1    0    0    0    0 -0.00000000000E+00 -0.00000000000E+00 -0.50000000000E+03  0.50000000000E+03  0.00000000000E+00 0.  1.
         23    2    1    2    0    0  0.14848128867E+03 -0.43756316376E+02  0.42463378037E+03  0.46122830031E+03  0.91958627989E+02 0.  0.
        -11    1    1    2    0    0  0.42635433864E+02  0.30463822954E+01  0.24290418730E+02  0.49163859775E+02  0.00000000000E+00 0. -1.
         11    1    1    2    0    0 -0.19111672254E+03  0.40709934081E+02 -0.44892419910E+03  0.48960783992E+03  0.00000000000E+00 0.  1.
        -15    1    3    3    0    0  0.14292485658E+03 -0.65722019395E+02  0.37067568080E+03  0.40267917319E+03  0.17770000000E+01 0. -1.
         15    1    3    3    0    0  0.55564320933E+01  0.21965703019E+02  0.53958099578E+02  0.58549127114E+02  0.17770000000E+01 0.  1.
</event>
<event>
 7    1  0.3970441E-006  0.3964970E+03  0.7546771E-02  0.9666808E-01
        -11   -1    0    0    0    0  0.00000000000E+00  0.00000000000E+00  0.50000000000E+03  0.50000000000E+03  0.00000000000E+00 0. -1.
         11   -1    0    0    0    0 -0.00000000000E+00 -0.00000000000E+00 -0.50000000000E+03  0.50000000000E+03  0.00000000000E+00 0.  1.
         23    2    1    2    0    0 -0.47996051523E+02  0.11580068171E+03 -0.10899279565E+03  0.18979481158E+03  0.91810795401E+02 0.  0.
        -11    1    1    2    0    0  0.10911511876E+03  0.10607056287E+02  0.43851771302E+03  0.45201372039E+03  0.00000000000E+00 0. -1.
         11    1    1    2    0    0 -0.61119067238E+02 -0.12640773799E+03 -0.32952491737E+03  0.35819146804E+03  0.00000000000E+00 0.  1.
        -15    1    3    3    0    0 -0.65120996457E+01 -0.15442651814E+02 -0.60558002615E+01  0.17908472370E+02  0.17770000000E+01 0.  1.
         15    1    3    3    0    0 -0.41483951878E+02  0.13124333352E+03 -0.10293699539E+03  0.17188633921E+03  0.17770000000E+01 0. -1.
</event>
<event>
 7    1  0.3970441E-006  0.5249668E+03  0.7546771E-02  0.9345615E-01
        -11   -1    0    0    0    0  0.00000000000E+00  0.00000000000E+00  0.50000000000E+03  0.50000000000E+03  0.00000000000E+00 0.  1.
         11   -1    0    0    0    0 -0.00000000000E+00 -0.00000000000E+00 -0.50000000000E+03  0.50000000000E+03  0.00000000000E+00 0. -1.
         23    2    1    2    0    0 -0.24936753560E+02  0.10279726082E+03 -0.39361690063E+03  0.41773069530E+03  0.91518035495E+02 0.  0.
        -11    1    1    2    0    0  0.92702481909E+02 -0.56277528519E+02  0.46248852772E+03  0.47503320794E+03  0.00000000000E+00 0.  1.
         11    1    1    2    0    0 -0.67765728348E+02 -0.46519732297E+02 -0.68871627087E+02  0.10723609676E+03  0.00000000000E+00 0. -1.
        -15    1    3    3    0    0 -0.41577985556E+02  0.71486924274E+01 -0.10292892796E+03  0.11125356006E+03  0.17770000000E+01 0.  1.
         15    1    3    3    0    0  0.16641231996E+02  0.95648568389E+02 -0.29068797268E+03  0.30647713524E+03  0.17770000000E+01 0. -1.
</event>
<event>
 7    1  0.3970441E-006  0.4792698E+03  0.7546771E-02  0.9447428E-01
        -11   -1    0    0    0    0  0.00000000000E+00  0.00000000000E+00  0.50000000000E+03  0.50000000000E+03  0.00000000000E+00 0. -1.
         11   -1    0    0    0    0 -0.00000000000E+00 -0.00000000000E+00 -0.50000000000E+03  0.50000000000E+03  0.00000000000E+00 0. -1.
         23    2    1    2    0    0 -0.48056120843E+02 -0.11149360732E+03  0.44011901336E+03  0.46481250437E+03  0.87210682081E+02 0.  0.
        -11    1    1    2    0    0  0.22117688229E+02  0.20637090708E+02  0.37574970990E+02  0.48238574713E+02  0.00000000000E+00 0. -1.
         11    1    1    2    0    0  0.25938432615E+02  0.90856516615E+02 -0.47769398435E+03  0.48694892092E+03  0.00000000000E+00 0. -1.
        -15    1    3    3    0    0  0.66571801599E+01 -0.82083352576E+02  0.30773909266E+03  0.31857260036E+03  0.17770000000E+01 0.  1.
         15    1    3    3    0    0 -0.54713301003E+02 -0.29410254747E+02  0.13237992070E+03  0.14623990401E+03  0.17770000000E+01 0. -1.
</event>
<event>
 7    1  0.3970441E-006  0.3618804E+03  0.7546771E-02  0.9776263E-01
        -11   -1    0    0    0    0  0.00000000000E+00  0.00000000000E+00  0.50000000000E+03  0.50000000000E+03  0.00000000000E+00 0.  1.
         11   -1    0    0    0    0 -0.00000000000E+00 -0.00000000000E+00 -0.50000000000E+03  0.50000000000E+03  0.00000000000E+00 0. -1.
         23    2    1    2    0    0 -0.86734790568E+02 -0.34687952861E+01 -0.29968125977E+03  0.32734657336E+03  0.99055364331E+02 0.  0.
        -11    1    1    2    0    0 -0.40561962150E+02  0.20432425393E+03  0.37005833948E+03  0.42466086250E+03  0.00000000000E+00 0.  1.
         11    1    1    2    0    0  0.12729675272E+03 -0.20085545864E+03 -0.70377079714E+02  0.24799256414E+03  0.00000000000E+00 0. -1.
        -15    1    3    3    0    0  0.39903073407E+01 -0.30947896321E+02 -0.12213550612E+03  0.12607114826E+03  0.17770000000E+01 0.  1.
         15    1    3    3    0    0 -0.90725097909E+02  0.27479101035E+02 -0.17754575365E+03  0.20127542511E+03  0.17770000000E+01 0. -1.
</event>
<event>
 7    1  0.3970441E-006  0.5243433E+03  0.7546771E-02  0.9346929E-01
        -11   -1    0    0    0    0  0.00000000000E+00  0.00000000000E+00  0.50000000000E+03  0.50000000000E+03  0.00000000000E+00 0.  1.
         11   -1    0    0    0    0 -0.00000000000E+00 -0.00000000000E+00 -0.50000000000E+03  0.50000000000E+03  0.00000000000E+00 0. -1.
         23    2    1    2    0    0 -0.22347185770E+02  0.36726662778E+02 -0.24191393418E+03  0.26270546263E+03  0.92970769984E+02 0.  0.
        -11    1    1    2    0    0 -0.11561517512E+03 -0.13557265556E+01  0.46138980974E+03  0.47565666530E+03  0.00000000000E+00 0.  1.
         11    1    1    2    0    0  0.13796236089E+03 -0.35370936223E+02 -0.21947587556E+03  0.26163787207E+03  0.00000000000E+00 0. -1.
        -15    1    3    3    0    0 -0.27994320792E+02  0.63291443801E+02 -0.12732376097E+03  0.14492752220E+03  0.17770000000E+01 0. -1.
         15    1    3    3    0    0  0.56471350225E+01 -0.26564781023E+02 -0.11459017321E+03  0.11777794042E+03  0.17770000000E+01 0.  1.
</event>
<event>
 7    1  0.3970441E-006  0.5197923E+03  0.7546771E-02  0.9356580E-01
        -11   -1    0    0    0    0  0.00000000000E+00  0.00000000000E+00  0.50000000000E+03  0.50000000000E+03  0.00000000000E+00 0. -1.
         11   -1    0    0    0    0 -0.00000000000E+00 -0.00000000000E+00 -0.50000000000E+03  0.50000000000E+03  0.00000000000E+00 0. -1.
         23    2    1    2    0    0  0.67191558643E+02  0.14934728496E+03  0.96626136154E+02  0.21103644192E+03  0.91544811710E+02 0.  0.
        -11    1    1    2    0    0  0.47955825377E+02  0.13250207825E+03  0.27472466334E+03  0.30875589480E+03  0.00000000000E+00 0. -1.
         11    1    1    2    0    0 -0.11514738402E+03 -0.28184936321E+03 -0.37135079950E+03  0.48020766328E+03  0.00000000000E+00 0. -1.
        -15    1    3    3    0    0  0.57678092317E+02  0.25310699754E+02  0.37005271373E+02  0.73074904678E+02  0.17770000000E+01 0. -1.
         15    1    3    3    0    0  0.95134663259E+01  0.12403658520E+03  0.59620864781E+02  0.13796153724E+03  0.17770000000E+01 0.  1.
</event>
<event>
 7    1  0.3970441E-006  0.5217975E+03  0.7546771E-02  0.9352315E-01
        -11   -1    0    0    0    0  0.00000000000E+00  0.00000000000E+00  0.50000000000E+03  0.50000000000E+03  0.00000000000E+00 0. -1.
         11   -1    0    0    0    0 -0.00000000000E+00 -0.00000000000E+00 -0.50000000000E+03  0.50000000000E+03  0.00000000000E+00 0. -1.
         23    2    1    2    0    0 -0.15971459292E+02 -0.12445324038E+02 -0.27687466452E+03  0.29177464705E+03  0.89793603384E+02 0.  0.
        -11    1    1    2    0    0  0.17193768565E+03  0.18936104934E+02  0.44582114846E+03  0.47820250965E+03  0.00000000000E+00 0. -1.
         11    1    1    2    0    0 -0.15596622636E+03 -0.64907808959E+01 -0.16894648394E+03  0.23002284330E+03  0.00000000000E+00 0. -1.
        -15    1    3    3    0    0 -0.27995431983E+01  0.37620772020E+02 -0.84648975452E+02  0.92691783366E+02  0.17770000000E+01 0.  1.
         15    1    3    3    0    0 -0.13171916093E+02 -0.50066096058E+02 -0.19222568907E+03  0.19908286369E+03  0.17770000000E+01 0. -1.
</event>
<event>
 7    1  0.3970441E-006  0.4807222E+03  0.7546771E-02  0.9444009E-01
        -11   -1    0    0    0    0  0.00000000000E+00  0.00000000000E+00  0.50000000000E+03  0.50000000000E+03  0.00000000000E+00 0.  1.
         11   -1    0    0    0    0 -0.00000000000E+00 -0.00000000000E+00 -0.50000000000E+03  0.50000000000E+03  0.00000000000E+00 0. -1.
         23    2    1    2    0    0 -0.10040209753E+03 -0.49244896930E+02  0.44010189847E+03  0.46371703832E+03  0.94011539349E+02 0.  0.
        -11    1    1    2    0    0 -0.16253106163E+02  0.26498031406E+02  0.34842220556E+02  0.46693569810E+02  0.00000000000E+00 0.  1.
         11    1    1    2    0    0  0.11665520370E+03  0.22746865524E+02 -0.47494411902E+03  0.48958939187E+03  0.00000000000E+00 0. -1.
        -15    1    3    3    0    0 -0.11509022627E+03 -0.55635655651E+02  0.36043830962E+03  0.38243956272E+03  0.17770000000E+01 0.  1.
         15    1    3    3    0    0  0.14688128738E+02  0.63907587214E+01  0.79663588841E+02  0.81277475594E+02  0.17770000000E+01 0. -1.
</event>
<event>
 7    1  0.3970441E-006  0.4680060E+03  0.7546771E-02  0.9474390E-01
        -11   -1    0    0    0    0  0.00000000000E+00  0.00000000000E+00  0.50000000000E+03  0.50000000000E+03  0.00000000000E+00 0.  1.
         11   -1    0    0    0    0 -0.00000000000E+00 -0.00000000000E+00 -0.50000000000E+03  0.50000000000E+03  0.00000000000E+00 0. -1.
         23    2    1    2    0    0 -0.34977061883E+02 -0.75398757385E+02 -0.43302804509E+03  0.44965827830E+03  0.88152776147E+02 0.  0.
        -11    1    1    2    0    0 -0.12137593360E+02  0.11432077718E+03  0.46664213418E+03  0.48059488414E+03  0.00000000000E+00 0.  1.
         11    1    1    2    0    0  0.47114655243E+02 -0.38922019794E+02 -0.33614089097E+02  0.69746837558E+02  0.00000000000E+00 0. -1.
        -15    1    3    3    0    0 -0.39495291934E+02  0.41049191277E+00 -0.21920762658E+03  0.22274466967E+03  0.17770000000E+01 0. -1.
         15    1    3    3    0    0  0.45182300514E+01 -0.75809249298E+02 -0.21382041851E+03  0.22691360863E+03  0.17770000000E+01 0.  1.
</event>
<event>
 7    1  0.3970441E-006  0.3761919E+03  0.7546771E-02  0.9729486E-01
        -11   -1    0    0    0    0  0.00000000000E+00  0.00000000000E+00  0.50000000000E+03  0.50000000000E+03  0.00000000000E+00 0.  1.
         11   -1    0    0    0    0 -0.00000000000E+00 -0.00000000000E+00 -0.50000000000E+03  0.50000000000E+03  0.00000000000E+00 0. -1.
         23    2    1    2    0    0  0.13571004004E+03 -0.10849269561E+03  0.10254523364E+03  0.22103613678E+03  0.90297114298E+02 0.  0.
        -11    1    1    2    0    0  0.26384302796E+02  0.82901224305E+02  0.31686564301E+03  0.32859181387E+03  0.00000000000E+00 0.  1.
         11    1    1    2    0    0 -0.16209434284E+03  0.25591471303E+02 -0.41941087665E+03  0.45037204935E+03  0.00000000000E+00 0. -1.
        -15    1    3    3    0    0  0.98715227829E+02 -0.10417201325E+03  0.11259079838E+03  0.18241806424E+03  0.17770000000E+01 0. -1.
         15    1    3    3    0    0  0.36994812215E+02 -0.43206823553E+01 -0.10045564743E+02  0.38618072541E+02  0.17770000000E+01 0.  1.
</event>
<event>
 7    1  0.3970441E-006  0.5125476E+03  0.7546771E-02  0.9372163E-01
        -11   -1    0    0    0    0  0.00000000000E+00  0.00000000000E+00  0.50000000000E+03  0.50000000000E+03  0.00000000000E+00 0. -1.
         11   -1    0    0    0    0 -0.00000000000E+00 -0.00000000000E+00 -0.50000000000E+03  0.50000000000E+03  0.00000000000E+00 0.  1.
         23    2    1    2    0    0 -0.13648079963E+02  0.90966103943E+00 -0.19088093700E+03  0.21166233052E+03  0.90434022808E+02 0.  0.
        -11    1    1    2    0    0  0.17050625755E+01 -0.80933122457E+02  0.48068359781E+03  0.48745235536E+03  0.00000000000E+00 0. -1.
         11    1    1    2    0    0  0.11943017387E+02  0.80023461417E+02 -0.28980266081E+03  0.30088531412E+03  0.00000000000E+00 0.  1.
        -15    1    3    3    0    0 -0.20128976843E+02 -0.40489455091E+02 -0.13067118887E+03  0.13828481121E+03  0.17770000000E+01 0. -1.
         15    1    3    3    0    0  0.64808968803E+01  0.41399116131E+02 -0.60209748124E+02  0.73377519302E+02  0.17770000000E+01 0.  1.
</event>
<event>
 7    1  0.3970441E-006  0.4128397E+03  0.7546771E-02  0.9619206E-01
        -11   -1    0    0    0    0  0.00000000000E+00  0.00000000000E+00  0.50000000000E+03  0.50000000000E+03  0.00000000000E+00 0.  1.
         11   -1    0    0    0    0 -0.00000000000E+00 -0.00000000000E+00 -0.50000000000E+03  0.50000000000E+03  0.00000000000E+00 0. -1.
         23    2    1    2    0    0  0.16306765240E+02  0.94194303182E+01 -0.36697851925E+03  0.37868755359E+03  0.91522638704E+02 0.  0.
        -11    1    1    2    0    0  0.86433730457E+02  0.10541772419E+03  0.43279481604E+03  0.45375658577E+03  0.00000000000E+00 0.  1.
         11    1    1    2    0    0 -0.10274049570E+03 -0.11483715451E+03 -0.65816296797E+02  0.16755586064E+03  0.00000000000E+00 0. -1.
        -15    1    3    3    0    0 -0.37775703021E+02  0.69597744157E-01 -0.12728535109E+03  0.13278451308E+03  0.17770000000E+01 0. -1.
         15    1    3    3    0    0  0.54082468262E+02  0.93498325741E+01 -0.23969316816E+03  0.24590304051E+03  0.17770000000E+01 0.  1.
</event>
<event>
 7    1  0.3970441E-006  0.5151797E+03  0.7546771E-02  0.9366470E-01
        -11   -1    0    0    0    0  0.00000000000E+00  0.00000000000E+00  0.50000000000E+03  0.50000000000E+03  0.00000000000E+00 0.  1.
         11   -1    0    0    0    0 -0.00000000000E+00 -0.00000000000E+00 -0.50000000000E+03  0.50000000000E+03  0.00000000000E+00 0.  1.
         23    2    1    2    0    0 -0.49596101884E+02 -0.56315247522E+02 -0.36896090108E+03  0.38700737630E+03  0.89506325795E+02 0.  0.
        -11    1    1    2    0    0 -0.11935341585E+02  0.89914770696E+02  0.47626001291E+03  0.48482029482E+03  0.00000000000E+00 0.  1.
         11    1    1    2    0    0  0.61531443469E+02 -0.33599523174E+02 -0.10729911183E+03  0.12817232888E+03  0.00000000000E+00 0.  1.
        -15    1    3    3    0    0 -0.37500417207E+02 -0.80964845980E+02 -0.28630461737E+03  0.29989177920E+03  0.17770000000E+01 0.  1.
         15    1    3    3    0    0 -0.12095684677E+02  0.24649598458E+02 -0.82656283712E+02  0.87115597099E+02  0.17770000000E+01 0. -1.
</event>
<event>
 7    1  0.3970441E-006  0.4568549E+03  0.7546771E-02  0.9501888E-01
        -11   -1    0    0    0    0  0.00000000000E+00  0.00000000000E+00  0.50000000000E+03  0.50000000000E+03  0.00000000000E+00 0.  1.
         11   -1    0    0    0    0 -0.00000000000E+00 -0.00000000000E+00 -0.50000000000E+03  0.50000000000E+03  0.00000000000E+00 0. -1.
         23    2    1    2    0    0  0.11868040927E+03  0.20197796615E+02  0.39547543284E+03  0.42329306663E+03  0.91012151626E+02 0.  0.
        -11    1    1    2    0    0 -0.34963907129E+02 -0.12211585210E+02  0.83005004259E+02  0.90892399832E+02  0.00000000000E+00 0.  1.
         11    1    1    2    0    0 -0.83716502139E+02 -0.79862114055E+01 -0.47848043710E+03  0.48581453354E+03  0.00000000000E+00 0. -1.
        -15    1    3    3    0    0 -0.10922632431E+02 -0.12798745654E+02  0.37222030097E+02  0.40887027809E+02  0.17770000000E+01 0. -1.
         15    1    3    3    0    0  0.12960304170E+03  0.32996542269E+02  0.35825340275E+03  0.38240603882E+03  0.17770000000E+01 0.  1.
</event>
<event>
 7    1  0.3970441E-006  0.5373991E+03  0.7546771E-02  0.9319808E-01
        -11   -1    0    0    0    0  0.00000000000E+00  0.00000000000E+00  0.50000000000E+03  0.50000000000E+03  0.00000000000E+00 0. -1.
         11   -1    0    0    0    0 -0.00000000000E+00 -0.00000000000E+00 -0.50000000000E+03  0.50000000000E+03  0.00000000000E+00 0. -1.
         23    2    1    2    0    0  0.53784514935E+02  0.23451676576E+00  0.99427519626E+02  0.14344601465E+03  0.88306842401E+02 0.  0.
        -11    1    1    2    0    0 -0.19600259992E+03  0.54674897935E+02  0.33733166529E+03  0.39395306325E+03  0.00000000000E+00 0. -1.
         11    1    1    2    0    0  0.14221808498E+03 -0.54909414701E+02 -0.43675918492E+03  0.46260092210E+03  0.00000000000E+00 0. -1.
        -15    1    3    3    0    0  0.28832774865E+02  0.41927301761E+02  0.70185429683E+02  0.86708591317E+02  0.17770000000E+01 0.  1.
         15    1    3    3    0    0  0.24951740071E+02 -0.41692784995E+02  0.29242089943E+02  0.56737423333E+02  0.17770000000E+01 0. -1.
</event>
<event>
 7    1  0.3970441E-006  0.3692122E+03  0.7546771E-02  0.9752015E-01
        -11   -1    0    0    0    0  0.00000000000E+00  0.00000000000E+00  0.50000000000E+03  0.50000000000E+03  0.00000000000E+00 0.  1.
         11   -1    0    0    0    0 -0.00000000000E+00 -0.00000000000E+00 -0.50000000000E+03  0.50000000000E+03  0.00000000000E+00 0. -1.
         23    2    1    2    0    0  0.22996615069E+03  0.31026969414E+00 -0.19087240044E+03  0.31282564359E+03  0.92428801304E+02 0.  0.
        -11    1    1    2    0    0 -0.19643402113E+03  0.12969864340E+03  0.38493001539E+03  0.45119749501E+03  0.00000000000E+00 0.  1.
         11    1    1    2    0    0 -0.33532129561E+02 -0.13000891309E+03 -0.19405761495E+03  0.23597686140E+03  0.00000000000E+00 0. -1.
        -15    1    3    3    0    0  0.10157487621E+03  0.40508669791E+02 -0.11348778582E+03  0.15761041547E+03  0.17770000000E+01 0. -1.
         15    1    3    3    0    0  0.12839127448E+03 -0.40198400097E+02 -0.77384614619E+02  0.15521522813E+03  0.17770000000E+01 0.  1.
</event>
<event>
 7    1  0.3970441E-006  0.5102147E+03  0.7546771E-02  0.9377239E-01
        -11   -1    0    0    0    0  0.00000000000E+00  0.00000000000E+00  0.50000000000E+03  0.50000000000E+03  0.00000000000E+00 0. -1.
         11   -1    0    0    0    0 -0.00000000000E+00 -0.00000000000E+00 -0.50000000000E+03  0.50000000000E+03  0.00000000000E+00 0.  1.
         23    2    1    2    0    0  0.10990090272E+01  0.11697494274E+03  0.15719158506E+03  0.21534183329E+03  0.89322817379E+02 0.  0.
        -11    1    1    2    0    0  0.19184158990E+02  0.14657710084E+03  0.25514143276E+03  0.29487290339E+03  0.00000000000E+00 0. -1.
         11    1    1    2    0    0 -0.20283168018E+02 -0.26355204357E+03 -0.41233301782E+03  0.48978526331E+03  0.00000000000E+00 0.  1.
        -15    1    3    3    0    0  0.24693731215E+02  0.29551903604E+02  0.10257313016E+03  0.10957873940E+03  0.17770000000E+01 0.  1.
         15    1    3    3    0    0 -0.23594722187E+02  0.87423039133E+02  0.54618454897E+02  0.10576309390E+03  0.17770000000E+01 0. -1.
</event>
<event>
 7    1  0.3970441E-006  0.5194909E+03  0.7546771E-02  0.9357223E-01
        -11   -1    0    0    0    0  0.00000000000E+00  0.00000000000E+00  0.50000000000E+03  0.50000000000E+03  0.00000000000E+00 0. -1.
         11   -1    0    0    0    0 -0.00000000000E+00 -0.00000000000E+00 -0.50000000000E+03  0.50000000000E+03  0.00000000000E+00 0.  1.
         23    2    1    2    0    0 -0.44568170210E+01  0.33273145720E+02  0.13893074379E+03  0.16898125216E+03  0.90144032352E+02 0.  0.
        -11    1    1    2    0    0 -0.17769887747E+03  0.45489377175E+02  0.29868183162E+03  0.35050964470E+03  0.00000000000E+00 0. -1.
         11    1    1    2    0    0  0.18215569449E+03 -0.78762522896E+02 -0.43761257541E+03  0.48050910314E+03  0.00000000000E+00 0.  1.
        -15    1    3    3    0    0  0.28093549301E+02  0.35751171620E+02  0.28218476145E+02  0.53542823137E+02  0.17770000000E+01 0.  1.
         15    1    3    3    0    0 -0.32550366322E+02 -0.24780258993E+01  0.11071226765E+03  0.11543842903E+03  0.17770000000E+01 0. -1.
</event>
<event>
 7    1  0.3970441E-006  0.3898131E+03  0.7546771E-02  0.9686988E-01
        -11   -1    0    0    0    0  0.00000000000E+00  0.00000000000E+00  0.50000000000E+03  0.50000000000E+03  0.00000000000E+00 0.  1.
         11   -1    0    0    0    0 -0.00000000000E+00 -0.00000000000E+00 -0.50000000000E+03  0.50000000000E+03  0.00000000000E+00 0. -1.
         23    2    1    2    0    0  0.15294568343E+03 -0.80514163363E+02  0.26498382899E+02  0.20100423552E+03  0.99124294787E+02 0.  0.
        -11    1    1    2    0    0 -0.35655243921E+02  0.19450048695E+03  0.34243848344E+03  0.39543122131E+03  0.00000000000E+00 0.  1.
         11    1    1    2    0    0 -0.11729043951E+03 -0.11398632359E+03 -0.36893686634E+03  0.40356454318E+03  0.00000000000E+00 0. -1.
        -15    1    3    3    0    0  0.40822669753E+02 -0.23172783060E+02 -0.37148342813E+02  0.59888440816E+02  0.17770000000E+01 0. -1.
         15    1    3    3    0    0  0.11212301368E+03 -0.57341380303E+02  0.63646725712E+02  0.14111579470E+03  0.17770000000E+01 0.  1.
</event>
<event>
 7    1  0.3970441E-006  0.3673572E+03  0.7546771E-02  0.9758093E-01
        -11   -1    0    0    0    0  0.00000000000E+00  0.00000000000E+00  0.50000000000E+03  0.50000000000E+03  0.00000000000E+00 0. -1.
         11   -1    0    0    0    0 -0.00000000000E+00 -0.00000000000E+00 -0.50000000000E+03  0.50000000000E+03  0.00000000000E+00 0.  1.
         23    2    1    2    0    0 -0.40665132815E+02  0.35567847263E+02 -0.28747289710E+03  0.30646870549E+03  0.91453136036E+02 0.  0.
        -11    1    1    2    0    0 -0.73339510387E+02  0.11380773888E+03  0.43439283839E+03  0.45500332224E+03  0.00000000000E+00 0. -1.
         11    1    1    2    0    0  0.11400464320E+03 -0.14937558614E+03 -0.14691994129E+03  0.23852797227E+03  0.00000000000E+00 0.  1.
        -15    1    3    3    0    0 -0.59080568326E+02  0.52698173931E+02 -0.19122161741E+03  0.20696974606E+03  0.17770000000E+01 0.  1.
         15    1    3    3    0    0  0.18415435511E+02 -0.17130326668E+02 -0.96251279689E+02  0.99498959430E+02  0.17770000000E+01 0. -1.
</event>
<event>
 7    1  0.3970441E-006  0.4097980E+03  0.7546771E-02  0.9627886E-01
        -11   -1    0    0    0    0  0.00000000000E+00  0.00000000000E+00  0.50000000000E+03  0.50000000000E+03  0.00000000000E+00 0. -1.
         11   -1    0    0    0    0 -0.00000000000E+00 -0.00000000000E+00 -0.50000000000E+03  0.50000000000E+03  0.00000000000E+00 0.  1.
         23    2    1    2    0    0 -0.12227662117E+03  0.43901234143E+02 -0.52475400479E+02  0.16851323800E+03  0.93617056576E+02 0.  0.
        -11    1    1    2    0    0 -0.90215963640E+02 -0.21412665377E+02  0.40706452265E+03  0.41749125492E+03  0.00000000000E+00 0. -1.
         11    1    1    2    0    0  0.21249258481E+03 -0.22488568765E+02 -0.35458912217E+03  0.41399550708E+03  0.00000000000E+00 0.  1.
        -15    1    3    3    0    0 -0.12150701318E+03  0.65523751311E+02 -0.41347662894E+02  0.14411836522E+03  0.17770000000E+01 0. -1.
         15    1    3    3    0    0 -0.76960798801E+00 -0.21622517168E+02 -0.11127737585E+02  0.24394872779E+02  0.17770000000E+01 0.  1.
</event>
<event>
 7    1  0.3970441E-006  0.4244897E+03  0.7546771E-02  0.9586687E-01
        -11   -1    0    0    0    0  0.00000000000E+00  0.00000000000E+00  0.50000000000E+03  0.50000000000E+03  0.00000000000E+00 0. -1.
         11   -1    0    0    0    0 -0.00000000000E+00 -0.00000000000E+00 -0.50000000000E+03  0.50000000000E+03  0.00000000000E+00 0.  1.
         23    2    1    2    0    0  0.61703076501E+02  0.24777546292E+02  0.88930279884E+02  0.14378989008E+03  0.91355029195E+02 0.  0.
        -11    1    1    2    0    0 -0.29151748135E+03  0.16589849185E+03  0.23963105421E+03  0.41222299022E+03  0.00000000000E+00 0. -1.
         11    1    1    2    0    0  0.22981440484E+03 -0.19067603815E+03 -0.32856133409E+03  0.44398711970E+03  0.00000000000E+00 0.  1.
        -15    1    3    3    0    0  0.15537048825E+02 -0.20767079703E+02 -0.79580413949E+01  0.27187490458E+02  0.17770000000E+01 0. -1.
         15    1    3    3    0    0  0.46166027676E+02  0.45544625995E+02  0.96888321279E+02  0.11660239962E+03  0.17770000000E+01 0.  1.
</event>
<event>
 7    1  0.3970441E-006  0.4413253E+03  0.7546771E-02  0.9541609E-01
        -11   -1    0    0    0    0  0.00000000000E+00  0.00000000000E+00  0.50000000000E+03  0.50000000000E+03  0.00000000000E+00 0.  1.
         11   -1    0    0    0    0 -0.00000000000E+00 -0.00000000000E+00 -0.50000000000E+03  0.50000000000E+03  0.00000000000E+00 0.  1.
         23    2    1    2    0    0 -0.19583246495E+03  0.20134701942E+02 -0.39498205560E+03  0.45128247248E+03  0.94283005742E+02 0.  0.
        -11    1    1    2    0    0  0.79404302482E+02 -0.19277595293E+02  0.42146468361E+03  0.42931241359E+03  0.00000000000E+00 0.  1.
         11    1    1    2    0    0  0.11642816246E+03 -0.85710664883E+00 -0.26482628005E+02  0.11940511393E+03  0.00000000000E+00 0.  1.
        -15    1    3    3    0    0 -0.15794656780E+03 -0.17624408566E+01 -0.36635786903E+03  0.39896299378E+03  0.17770000000E+01 0.  1.
         15    1    3    3    0    0 -0.37885897149E+02  0.21897142799E+02 -0.28624186569E+02  0.52319478698E+02  0.17770000000E+01 0. -1.
</event>
<event>
 7    1  0.3970441E-006  0.5201208E+03  0.7546771E-02  0.9355880E-01
        -11   -1    0    0    0    0  0.00000000000E+00  0.00000000000E+00  0.50000000000E+03  0.50000000000E+03  0.00000000000E+00 0.  1.
         11   -1    0    0    0    0 -0.00000000000E+00 -0.00000000000E+00 -0.50000000000E+03  0.50000000000E+03  0.00000000000E+00 0. -1.
         23    2    1    2    0    0 -0.61143408049E+02 -0.13589049283E+03  0.29430308138E+03  0.33682614791E+03  0.68064732572E+02 0.  0.
        -11    1    1    2    0    0  0.36890535001E+02  0.39442715126E+02  0.17515793147E+03  0.18329468161E+03  0.00000000000E+00 0.  1.
         11    1    1    2    0    0  0.24252873048E+02  0.96447777702E+02 -0.46946101285E+03  0.47987917048E+03  0.00000000000E+00 0. -1.
        -15    1    3    3    0    0 -0.13924470464E+02  0.48771764540E+01  0.20061323791E+02  0.24965820016E+02  0.17770000000E+01 0. -1.
         15    1    3    3    0    0 -0.47218937585E+02 -0.14076766928E+03  0.27424175759E+03  0.31186032790E+03  0.17770000000E+01 0.  1.
</event>
<event>
 7    1  0.3970441E-006  0.4364925E+03  0.7546771E-02  0.9554326E-01
        -11   -1    0    0    0    0  0.00000000000E+00  0.00000000000E+00  0.50000000000E+03  0.50000000000E+03  0.00000000000E+00 0.  1.
         11   -1    0    0    0    0 -0.00000000000E+00 -0.00000000000E+00 -0.50000000000E+03  0.50000000000E+03  0.00000000000E+00 0. -1.
         23    2    1    2    0    0  0.50084089248E+02 -0.67066141548E+02  0.16973370782E+01  0.12300961930E+03  0.90123260866E+02 0.  0.
        -11    1    1    2    0    0  0.58390127016E+02 -0.74872272753E+02  0.41388633786E+03  0.42463768653E+03  0.00000000000E+00 0.  1.
         11    1    1    2    0    0 -0.10847421626E+03  0.14193841430E+03 -0.41558367493E+03  0.45235269417E+03  0.00000000000E+00 0. -1.
        -15    1    3    3    0    0  0.67576598853E+02 -0.17923742522E+02  0.81921250606E+01  0.70413960978E+02  0.17770000000E+01 0.  1.
         15    1    3    3    0    0 -0.17492509606E+02 -0.49142399026E+02 -0.64947879824E+01  0.52595658322E+02  0.17770000000E+01 0. -1.
</event>
<event>
 7    1  0.3970441E-006  0.5212960E+03  0.7546771E-02  0.9353380E-01
        -11   -1    0    0    0    0  0.00000000000E+00  0.00000000000E+00  0.50000000000E+03  0.50000000000E+03  0.00000000000E+00 0. -1.
         11   -1    0    0    0    0 -0.00000000000E+00 -0.00000000000E+00 -0.50000000000E+03  0.50000000000E+03  0.00000000000E+00 0.  1.
         23    2    1    2    0    0  0.11449668056E+03  0.47032645080E+02 -0.11982556567E+03  0.19214470255E+03  0.85087372558E+02 0.  0.
        -11    1    1    2    0    0 -0.29190777183E+03  0.63627389220E+02  0.37403066330E+03  0.47870400980E+03  0.00000000000E+00 0. -1.
         11    1    1    2    0    0  0.17741109127E+03 -0.11066003430E+03 -0.25420509763E+03  0.32915128765E+03  0.00000000000E+00 0.  1.
        -15    1    3    3    0    0 -0.13388230940E+02 -0.78756184137E-01 -0.70265808690E+01  0.15224371841E+02  0.17770000000E+01 0.  1.
         15    1    3    3    0    0  0.12788491150E+03  0.47111401264E+02 -0.11279898480E+03  0.17692033071E+03  0.17770000000E+01 0. -1.
</event>
<event>
 7    1  0.3970441E-006  0.5226094E+03  0.7546771E-02  0.9350594E-01
        -11   -1    0    0    0    0  0.00000000000E+00  0.00000000000E+00  0.50000000000E+03  0.50000000000E+03  0.00000000000E+00 0.  1.
         11   -1    0    0    0    0 -0.00000000000E+00 -0.00000000000E+00 -0.50000000000E+03  0.50000000000E+03  0.00000000000E+00 0.  1.
         23    2    1    2    0    0 -0.13209701198E+02  0.52180856215E+02  0.13519972516E+03  0.17217264629E+03  0.92016935860E+02 0.  0.
        -11    1    1    2    0    0  0.99942594054E+02 -0.35867625044E+02  0.33396240177E+03  0.35043671958E+03  0.00000000000E+00 0.  1.
         11    1    1    2    0    0 -0.86732892856E+02 -0.16313231171E+02 -0.46916212693E+03  0.47739063414E+03  0.00000000000E+00 0.  1.
        -15    1    3    3    0    0 -0.35332562812E+02 -0.23276221157E+01  0.15313706147E+02  0.38619621238E+02  0.17770000000E+01 0. -1.
         15    1    3    3    0    0  0.22122861614E+02  0.54508478331E+02  0.11988601902E+03  0.13355302505E+03  0.17770000000E+01 0.  1.
</event>
<event>
 7    1  0.3970441E-006  0.5157861E+03  0.7546771E-02  0.9365164E-01
        -11   -1    0    0    0    0  0.00000000000E+00  0.00000000000E+00  0.50000000000E+03  0.50000000000E+03  0.00000000000E+00 0.  1.
         11   -1    0    0    0    0 -0.00000000000E+00 -0.00000000000E+00 -0.50000000000E+03  0.50000000000E+03  0.00000000000E+00 0. -1.
         23    2    1    2    0    0 -0.10524310555E+03  0.33558580408E+02 -0.39488274584E+03  0.42068457859E+03  0.94025752410E+02 0.  0.
        -11    1    1    2    0    0  0.69114796748E+02 -0.72575785248E+02  0.47372882068E+03  0.48421389414E+03  0.00000000000E+00 0.  1.
         11    1    1    2    0    0  0.36128308805E+02  0.39017204840E+02 -0.78846074842E+02  0.95101527267E+02  0.00000000000E+00 0. -1.
        -15    1    3    3    0    0 -0.14500170417E+02  0.41045600972E+02 -0.21142167054E+03  0.21586402388E+03  0.17770000000E+01 0.  1.
         15    1    3    3    0    0 -0.90742935137E+02 -0.74870205635E+01 -0.18346107530E+03  0.20482055472E+03  0.17770000000E+01 0. -1.
</event>
<event>
 7    1  0.3970441E-006  0.4584764E+03  0.7546771E-02  0.9497838E-01
        -11   -1    0    0    0    0  0.00000000000E+00  0.00000000000E+00  0.50000000000E+03  0.50000000000E+03  0.00000000000E+00 0. -1.
         11   -1    0    0    0    0 -0.00000000000E+00 -0.00000000000E+00 -0.50000000000E+03  0.50000000000E+03  0.00000000000E+00 0.  1.
         23    2    1    2    0    0 -0.10471541424E+03  0.65478421762E+02 -0.39419482807E+03  0.42285864428E+03  0.90372168671E+02 0.  0.
        -11    1    1    2    0    0  0.83455290761E+02 -0.56190111325E+02  0.47888063047E+03  0.48933503084E+03  0.00000000000E+00 0. -1.
         11    1    1    2    0    0  0.21260123476E+02 -0.92883104373E+01 -0.84685802403E+02  0.87806324884E+02  0.00000000000E+00 0.  1.
        -15    1    3    3    0    0  0.43347397116E+01  0.17324568767E+02 -0.99024942496E+01  0.20497506499E+02  0.17770000000E+01 0. -1.
         15    1    3    3    0    0 -0.10905015395E+03  0.48153852995E+02 -0.38429233382E+03  0.40236113778E+03  0.17770000000E+01 0.  1.
</event>
<event>
 7    1  0.3970441E-006  0.5171539E+03  0.7546771E-02  0.9362224E-01
        -11   -1    0    0    0    0  0.00000000000E+00  0.00000000000E+00  0.50000000000E+03  0.50000000000E+03  0.00000000000E+00 0.  1.
         11   -1    0    0    0    0 -0.00000000000E+00 -0.00000000000E+00 -0.50000000000E+03  0.50000000000E+03  0.00000000000E+00 0. -1.
         23    2    1    2    0    0  0.25048761299E+02 -0.89143052036E+02  0.12391085592E+03  0.17908554125E+03  0.90243042397E+02 0.  0.
        -11    1    1    2    0    0  0.52634554329E+02 -0.61328573233E+02  0.32826606671E+03  0.33806833741E+03  0.00000000000E+00 0.  1.
         11    1    1    2    0    0 -0.77683315627E+02  0.15047162527E+03 -0.45217692263E+03  0.48284612134E+03  0.00000000000E+00 0. -1.
        -15    1    3    3    0    0  0.58930939160E+02 -0.48690982344E+02  0.75354873156E+02  0.10735540037E+03  0.17770000000E+01 0. -1.
         15    1    3    3    0    0 -0.33882177862E+02 -0.40452069692E+02  0.48555982765E+02  0.71730140877E+02  0.17770000000E+01 0.  1.
</event>
<event>
 7    1  0.3970441E-006  0.4840954E+03  0.7546771E-02  0.9436118E-01
        -11   -1    0    0    0    0  0.00000000000E+00  0.00000000000E+00  0.50000000000E+03  0.50000000000E+03  0.00000000000E+00 0.  1.
         11   -1    0    0    0    0 -0.00000000000E+00 -0.00000000000E+00 -0.50000000000E+03  0.50000000000E+03  0.00000000000E+00 0. -1.
         23    2    1    2    0    0 -0.59331894502E+02 -0.39456242641E+03  0.23604241100E+03  0.47088992649E+03  0.82592499878E+02 0.  0.
        -11    1    1    2    0    0 -0.27605801385E+02 -0.13636260952E+02  0.22525547758E+02  0.38150074503E+02  0.00000000000E+00 0.  1.
         11    1    1    2    0    0  0.86937695886E+02  0.40819868736E+03 -0.25856795876E+03  0.49095999901E+03  0.00000000000E+00 0. -1.
        -15    1    3    3    0    0  0.14492682865E+02 -0.35093997837E+02  0.38592362414E+02  0.54167838303E+02  0.17770000000E+01 0. -1.
         15    1    3    3    0    0 -0.73824577366E+02 -0.35946842857E+03  0.19745004859E+03  0.41672208818E+03  0.17770000000E+01 0.  1.
</event>
<event>
 7    1  0.3970441E-006  0.5240797E+03  0.7546771E-02  0.9347485E-01
        -11   -1    0    0    0    0  0.00000000000E+00  0.00000000000E+00  0.50000000000E+03  0.50000000000E+03  0.00000000000E+00 0.  1.
         11   -1    0    0    0    0 -0.00000000000E+00 -0.00000000000E+00 -0.50000000000E+03  0.50000000000E+03  0.00000000000E+00 0.  1.
         23    2    1    2    0    0  0.48769068219E+00 -0.66719389107E+02  0.80416564549E+02  0.13889667368E+03  0.91508182039E+02 0.  0.
        -11    1    1    2    0    0 -0.11620736772E+03 -0.70074899591E+02  0.36048756677E+03  0.38518298205E+03  0.00000000000E+00 0.  1.
         11    1    1    2    0    0  0.11571967704E+03  0.13679428870E+03 -0.44090413132E+03  0.47592034427E+03  0.00000000000E+00 0.  1.
        -15    1    3    3    0    0 -0.29901705320E+02 -0.10023968397E+02 -0.49708239551E+01  0.31975908795E+02  0.17770000000E+01 0.  1.
         15    1    3    3    0    0  0.30389396002E+02 -0.56695420710E+02  0.85387388504E+02  0.10692076488E+03  0.17770000000E+01 0. -1.
</event>
<event>
 7    1  0.3970441E-006  0.4767962E+03  0.7546771E-02  0.9453281E-01
        -11   -1    0    0    0    0  0.00000000000E+00  0.00000000000E+00  0.50000000000E+03  0.50000000000E+03  0.00000000000E+00 0. -1.
         11   -1    0    0    0    0 -0.00000000000E+00 -0.00000000000E+00 -0.50000000000E+03  0.50000000000E+03  0.00000000000E+00 0.  1.
         23    2    1    2    0    0 -0.58948706538E+02 -0.94452992806E+02 -0.42448091160E+03  0.45573069776E+03  0.12292317401E+03 0.  0.
        -11    1    1    2    0    0  0.56972217294E+02  0.62965796367E+02  0.47618659241E+03  0.48369845549E+03  0.00000000000E+00 0. -1.
         11    1    1    2    0    0  0.19764892440E+01  0.31487196438E+02 -0.51705680802E+02  0.60570846753E+02  0.00000000000E+00 0.  1.
        -15    1    3    3    0    0 -0.94887879515E+02 -0.56589829605E+02 -0.24420224674E+03  0.26803733609E+03  0.17770000000E+01 0.  1.
         15    1    3    3    0    0  0.35939172976E+02 -0.37863163201E+02 -0.18027866486E+03  0.18769336167E+03  0.17770000000E+01 0. -1.
</event>
<event>
 7    1  0.3970441E-006  0.5263685E+03  0.7546771E-02  0.9342667E-01
        -11   -1    0    0    0    0  0.00000000000E+00  0.00000000000E+00  0.50000000000E+03  0.50000000000E+03  0.00000000000E+00 0. -1.
         11   -1    0    0    0    0 -0.00000000000E+00 -0.00000000000E+00 -0.50000000000E+03  0.50000000000E+03  0.00000000000E+00 0.  1.
         23    2    1    2    0    0  0.93853656169E+02  0.27951358482E+02  0.17354548119E+03  0.21569796274E+03  0.82569909005E+02 0.  0.
        -11    1    1    2    0    0 -0.26591491920E+01 -0.13925682518E+03  0.27769885101E+03  0.31067054299E+03  0.00000000000E+00 0. -1.
         11    1    1    2    0    0 -0.91194506977E+02  0.11130546670E+03 -0.45124433220E+03  0.47363149426E+03  0.00000000000E+00 0.  1.
        -15    1    3    3    0    0  0.41059513193E+01 -0.14083361502E+02  0.73108630676E+02  0.74587059975E+02  0.17770000000E+01 0.  1.
         15    1    3    3    0    0  0.89747704850E+02  0.42034719984E+02  0.10043685051E+03  0.14111090277E+03  0.17770000000E+01 0. -1.
</event>
<event>
 7    1  0.3970441E-006  0.5356724E+03  0.7546771E-02  0.9323347E-01
        -11   -1    0    0    0    0  0.00000000000E+00  0.00000000000E+00  0.50000000000E+03  0.50000000000E+03  0.00000000000E+00 0.  1.
         11   -1    0    0    0    0 -0.00000000000E+00 -0.00000000000E+00 -0.50000000000E+03  0.50000000000E+03  0.00000000000E+00 0. -1.
         23    2    1    2    0    0 -0.48374466023E+02  0.11167477507E+03  0.98495915124E+02  0.18240182123E+03  0.93582235171E+02 0.  0.
        -11    1    1    2    0    0 -0.15875460891E+03 -0.47197485360E+02  0.31204078020E+03  0.35327054361E+03  0.00000000000E+00 0.  1.
         11    1    1    2    0    0  0.20712907493E+03 -0.64477289714E+02 -0.41053669533E+03  0.46432763517E+03  0.00000000000E+00 0. -1.
        -15    1    3    3    0    0 -0.28654257940E+02  0.55678406032E+02  0.10539684807E+03  0.12260833866E+03  0.17770000000E+01 0.  1.
         15    1    3    3    0    0 -0.19720208083E+02  0.55996369042E+02 -0.69009329491E+01  0.59793482565E+02  0.17770000000E+01 0. -1.
</event>
<event>
 7    1  0.3970441E-006  0.5324991E+03  0.7546771E-02  0.9329890E-01
        -11   -1    0    0    0    0  0.00000000000E+00  0.00000000000E+00  0.50000000000E+03  0.50000000000E+03  0.00000000000E+00 0. -1.
         11   -1    0    0    0    0 -0.00000000000E+00 -0.00000000000E+00 -0.50000000000E+03  0.50000000000E+03  0.00000000000E+00 0. -1.
         23    2    1    2    0    0  0.74703947321E+02  0.40681569243E+02 -0.15934715157E+03  0.21886604845E+03  0.12359272887E+03 0.  0.
        -11    1    1    2    0    0  0.32409407612E+01 -0.80197606744E+02  0.46055934264E+03  0.46750087478E+03  0.00000000000E+00 0. -1.
         11    1    1    2    0    0 -0.77944888082E+02  0.39516037500E+02 -0.30121219107E+03  0.31363307677E+03  0.00000000000E+00 0. -1.
        -15    1    3    3    0    0  0.15142949205E+02  0.52333716933E+01  0.20522135754E+02  0.26096223382E+02  0.17770000000E+01 0.  1.
         15    1    3    3    0    0  0.59560998116E+02  0.35448197550E+02 -0.17986928732E+03  0.19276982507E+03  0.17770000000E+01 0. -1.
</event>
<event>
 6    1  0.1343443E-005  0.3973640E+03  0.7546771E-02  0.9664222E-01
        -11   -1    0    0    0    0  0.00000000000E+00  0.00000000000E+00  0.50000000000E+03  0.50000000000E+03  0.00000000000E+00 0. -1.
         11   -1    0    0    0    0 -0.00000000000E+00 -0.00000000000E+00 -0.50000000000E+03  0.50000000000E+03  0.00000000000E+00 0. -1.
        -11    1    1    2    0    0 -0.48351739658E+02  0.46544189259E+02  0.38474709026E+03  0.39055675099E+03  0.00000000000E+00 0. -1.
         11    1    1    2    0    0 -0.85832155209E+02 -0.82032842324E+02 -0.39903846954E+03  0.41632709047E+03  0.00000000000E+00 0. -1.
        -15    1    1    2    0    0  0.85676385745E+02  0.63211912066E+02 -0.41361167434E+02  0.11423700277E+03  0.17770000000E+01 0.  1.
         15    1    1    2    0    0  0.48507509122E+02 -0.27723259001E+02  0.55652546709E+02  0.78879155770E+02  0.17770000000E+01 0. -1.
</event>
<event>
 7    1  0.3970441E-006  0.4478704E+03  0.7546771E-02  0.9524659E-01
        -11   -1    0    0    0    0  0.00000000000E+00  0.00000000000E+00  0.50000000000E+03  0.50000000000E+03  0.00000000000E+00 0.  1.
         11   -1    0    0    0    0 -0.00000000000E+00 -0.00000000000E+00 -0.50000000000E+03  0.50000000000E+03  0.00000000000E+00 0. -1.
         23    2    1    2    0    0 -0.12500858776E+03  0.99751275765E+02  0.40225661013E+03  0.44206985164E+03  0.89654388085E+02 0.  0.
        -11    1    1    2    0    0  0.99119712868E+02  0.26595291810E+02  0.29937433925E+02  0.10690311958E+03  0.00000000000E+00 0.  1.
         11    1    1    2    0    0  0.25888874892E+02 -0.12634656757E+03 -0.43219404405E+03  0.45102702879E+03  0.00000000000E+00 0. -1.
        -15    1    3    3    0    0 -0.65024481276E+02  0.60566239012E+02  0.11139267157E+03  0.14250592087E+03  0.17770000000E+01 0.  1.
         15    1    3    3    0    0 -0.59984106483E+02  0.39185036753E+02  0.29086393856E+03  0.29956393077E+03  0.17770000000E+01 0. -1.
</event>
<event>
 7    1  0.3970441E-006  0.3421031E+03  0.7546771E-02  0.9844864E-01
        -11   -1    0    0    0    0  0.00000000000E+00  0.00000000000E+00  0.50000000000E+03  0.50000000000E+03  0.00000000000E+00 0. -1.
         11   -1    0    0    0    0 -0.00000000000E+00 -0.00000000000E+00 -0.50000000000E+03  0.50000000000E+03  0.00000000000E+00 0.  1.
         23    2    1    2    0    0 -0.25401314315E+01 -0.80765697056E+02 -0.24876201002E+03  0.27753777277E+03  0.92817711631E+02 0.  0.
        -11    1    1    2    0    0 -0.22589266522E+03  0.15205909363E+02  0.38638889031E+03  0.44783377545E+03  0.00000000000E+00 0. -1.
         11    1    1    2    0    0  0.22843279665E+03  0.65559787693E+02 -0.13762688029E+03  0.27462845178E+03  0.00000000000E+00 0.  1.
        -15    1    3    3    0    0 -0.42764244772E+02 -0.68073960061E+02 -0.15175452820E+03  0.17174236294E+03  0.17770000000E+01 0.  1.
         15    1    3    3    0    0  0.40224113340E+02 -0.12691736995E+02 -0.97007481826E+02  0.10579540983E+03  0.17770000000E+01 0. -1.
</event>
<event>
 7    1  0.3970441E-006  0.5373057E+03  0.7546771E-02  0.9319999E-01
        -11   -1    0    0    0    0  0.00000000000E+00  0.00000000000E+00  0.50000000000E+03  0.50000000000E+03  0.00000000000E+00 0.  1.
         11   -1    0    0    0    0 -0.00000000000E+00 -0.00000000000E+00 -0.50000000000E+03  0.50000000000E+03  0.00000000000E+00 0. -1.
         23    2    1    2    0    0  0.35643367445E+01  0.32808758075E+01  0.13566679989E+03  0.16355669382E+03  0.91224135290E+02 0.  0.
        -11    1    1    2    0    0  0.61082133671E+01 -0.30668593395E+03  0.21352921309E+03  0.37374897618E+03  0.00000000000E+00 0.  1.
         11    1    1    2    0    0 -0.96725501116E+01  0.30340505815E+03 -0.34919601297E+03  0.46269433000E+03  0.00000000000E+00 0. -1.
        -15    1    3    3    0    0  0.30399373104E+02 -0.32497908112E+02  0.50410132083E+02  0.67264961625E+02  0.17770000000E+01 0.  1.
         15    1    3    3    0    0 -0.26835036360E+02  0.35778783920E+02  0.85256667804E+02  0.96291732195E+02  0.17770000000E+01 0. -1.
</event>
<event>
 7    1  0.3970441E-006  0.4342046E+03  0.7546771E-02  0.9560408E-01
        -11   -1    0    0    0    0  0.00000000000E+00  0.00000000000E+00  0.50000000000E+03  0.50000000000E+03  0.00000000000E+00 0.  1.
         11   -1    0    0    0    0 -0.00000000000E+00 -0.00000000000E+00 -0.50000000000E+03  0.50000000000E+03  0.00000000000E+00 0. -1.
         23    2    1    2    0    0 -0.27437938936E+02 -0.68418935852E+02 -0.44707610473E+02  0.12732168026E+03  0.93691240547E+02 0.  0.
        -11    1    1    2    0    0  0.22695253541E+03 -0.83645690726E+02  0.38211474083E+03  0.45223415403E+03  0.00000000000E+00 0.  1.
         11    1    1    2    0    0 -0.19951459648E+03  0.15206462658E+03 -0.33740713036E+03  0.42044416571E+03  0.00000000000E+00 0. -1.
        -15    1    3    3    0    0 -0.56243547040E+02 -0.70468759763E+02 -0.36083815833E+02  0.97130747862E+02  0.17770000000E+01 0.  1.
         15    1    3    3    0    0  0.28805608105E+02  0.20498239114E+01 -0.86237946399E+01  0.30190932403E+02  0.17770000000E+01 0. -1.
</event>
<event>
 7    1  0.3970441E-006  0.5173272E+03  0.7546771E-02  0.9361852E-01
        -11   -1    0    0    0    0  0.00000000000E+00  0.00000000000E+00  0.50000000000E+03  0.50000000000E+03  0.00000000000E+00 0. -1.
         11   -1    0    0    0    0 -0.00000000000E+00 -0.00000000000E+00 -0.50000000000E+03  0.50000000000E+03  0.00000000000E+00 0.  1.
         23    2    1    2    0    0 -0.13475219020E+02  0.22475346692E+02  0.17518748665E+03  0.19907654721E+03  0.90852041447E+02 0.  0.
        -11    1    1    2    0    0 -0.16277189667E+03  0.66654273601E+02  0.26522815007E+03  0.31825061528E+03  0.00000000000E+00 0. -1.
         11    1    1    2    0    0  0.17624711569E+03 -0.89129620293E+02 -0.44041563672E+03  0.48267283751E+03  0.00000000000E+00 0.  1.
        -15    1    3    3    0    0 -0.42025688030E+02 -0.69707482338E+01  0.13521374997E+03  0.14177681650E+03  0.17770000000E+01 0. -1.
         15    1    3    3    0    0  0.28550469010E+02  0.29446094925E+02  0.39973736672E+02  0.57299730711E+02  0.17770000000E+01 0.  1.
</event>
<event>
 7    1  0.3970441E-006  0.5201097E+03  0.7546771E-02  0.9355904E-01
        -11   -1    0    0    0    0  0.00000000000E+00  0.00000000000E+00  0.50000000000E+03  0.50000000000E+03  0.00000000000E+00 0. -1.
         11   -1    0    0    0    0 -0.00000000000E+00 -0.00000000000E+00 -0.50000000000E+03  0.50000000000E+03  0.00000000000E+00 0.  1.
         23    2    1    2    0    0 -0.15562238251E+02 -0.80912345966E+02  0.21810904272E+03  0.25027703581E+03  0.90983785090E+02 0.  0.
        -11    1    1    2    0    0 -0.74223610912E+02  0.58383169683E+02  0.25276850037E+03  0.26983264017E+03  0.00000000000E+00 0. -1.
         11    1    1    2    0    0  0.89785849163E+02  0.22529176283E+02 -0.47087754310E+03  0.47989032402E+03  0.00000000000E+00 0.  1.
        -15    1    3    3    0    0  0.14897299078E+02 -0.80233481541E+02  0.19679805795E+03  0.21305392375E+03  0.17770000000E+01 0. -1.
         15    1    3    3    0    0 -0.30459537329E+02 -0.67886442521E+00  0.21310984767E+02  0.37223112067E+02  0.17770000000E+01 0.  1.
</event>
<event>
 7    1  0.3970441E-006  0.4073192E+03  0.7546771E-02  0.9635019E-01
        -11   -1    0    0    0    0  0.00000000000E+00  0.00000000000E+00  0.50000000000E+03  0.50000000000E+03  0.00000000000E+00 0. -1.
         11   -1    0    0    0    0 -0.00000000000E+00 -0.00000000000E+00 -0.50000000000E+03  0.50000000000E+03  0.00000000000E+00 0.  1.
         23    2    1    2    0    0 -0.24613520656E+03 -0.30242499355E+03  0.86412405529E+02  0.41146576186E+03  0.98962380344E+02 0.  0.
        -11    1    1    2    0    0  0.16578657367E+02  0.70533757721E+02  0.16264067831E+03  0.17805014209E+03  0.00000000000E+00 0. -1.
         11    1    1    2    0    0  0.22955654920E+03  0.23189123583E+03 -0.24905308384E+03  0.41048409604E+03  0.00000000000E+00 0.  1.
        -15    1    3    3    0    0 -0.20889041631E+03 -0.29864740997E+03  0.83326815556E+02  0.37386093327E+03  0.17770000000E+01 0. -1.
         15    1    3    3    0    0 -0.37244790256E+02 -0.37775835788E+01  0.30855899721E+01  0.37604828592E+02  0.17770000000E+01 0.  1.
</event>
<event>
 7    1  0.3970441E-006  0.5267814E+03  0.7546771E-02  0.9341801E-01
        -11   -1    0    0    0    0  0.00000000000E+00  0.00000000000E+00  0.50000000000E+03  0.50000000000E+03  0.00000000000E+00 0. -1.
         11   -1    0    0    0    0 -0.00000000000E+00 -0.00000000000E+00 -0.50000000000E+03  0.50000000000E+03  0.00000000000E+00 0.  1.
         23    2    1    2    0    0  0.57148415480E+02  0.95091164585E+01 -0.12316345608E+03  0.17482749475E+03  0.10972261078E+03 0.  0.
        -11    1    1    2    0    0 -0.47596498298E+02  0.73599695683E+02  0.46503069105E+03  0.47321864447E+03  0.00000000000E+00 0. -1.
         11    1    1    2    0    0 -0.95519171818E+01 -0.83108812142E+02 -0.34186723497E+03  0.35195386079E+03  0.00000000000E+00 0.  1.
        -15    1    3    3    0    0  0.56960845153E+02 -0.28990018950E+02 -0.12023172959E+03  0.13617556906E+03  0.17770000000E+01 0.  1.
         15    1    3    3    0    0  0.18757032625E+00  0.38499135408E+02 -0.29317264887E+01  0.38651925683E+02  0.17770000000E+01 0. -1.
</event>
<event>
 6    1  0.3970441E-006  0.5136916E+03  0.7546771E-02  0.9369684E-01
        -11   -1    0    0    0    0  0.00000000000E+00  0.00000000000E+00  0.50000000000E+03  0.50000000000E+03  0.00000000000E+00 0. -1.
         11   -1    0    0    0    0 -0.00000000000E+00 -0.00000000000E+00 -0.50000000000E+03  0.50000000000E+03  0.00000000000E+00 0.  1.
        -11    1    1    2    0    0  0.36734867366E+02 -0.40377072381E+02  0.14770269473E+03  0.15746696316E+03  0.00000000000E+00 0. -1.
         11    1    1    2    0    0 -0.39836397613E+02 -0.88692735342E+02 -0.47648983184E+03  0.48630844094E+03  0.00000000000E+00 0.  1.
        -15    1    1    2    0    0 -0.17109862362E+01  0.36106174694E+02  0.15390321045E+03  0.15810104124E+03  0.17770000000E+01 0. -1.
         15    1    1    2    0    0  0.48125164830E+01  0.92963633029E+02  0.17488392666E+03  0.19812355466E+03  0.17770000000E+01 0.  1.
</event>
<event>
 7    1  0.3970441E-006  0.5423668E+03  0.7546771E-02  0.9309702E-01
        -11   -1    0    0    0    0  0.00000000000E+00  0.00000000000E+00  0.50000000000E+03  0.50000000000E+03  0.00000000000E+00 0.  1.
         11   -1    0    0    0    0 -0.00000000000E+00 -0.00000000000E+00 -0.50000000000E+03  0.50000000000E+03  0.00000000000E+00 0. -1.
         23    2    1    2    0    0 -0.83787185990E+01 -0.86242512587E+02 -0.22639255177E+03  0.25956714264E+03  0.92809159767E+02 0.  0.
        -11    1    1    2    0    0 -0.92857450691E+01 -0.87043658566E+02  0.44918290407E+03  0.45763315534E+03  0.00000000000E+00 0.  1.
         11    1    1    2    0    0  0.17664463668E+02  0.17328617115E+03 -0.22279035229E+03  0.28279970202E+03  0.00000000000E+00 0. -1.
        -15    1    3    3    0    0 -0.43676724555E+02 -0.74784443726E+02 -0.12954855349E+03  0.15584079931E+03  0.17770000000E+01 0. -1.
         15    1    3    3    0    0  0.35298005956E+02 -0.11458068861E+02 -0.96843998286E+02  0.10372634332E+03  0.17770000000E+01 0.  1.
</event>
<event>
 7    1  0.3970441E-006  0.4138756E+03  0.7546771E-02  0.9616268E-01
        -11   -1    0    0    0    0  0.00000000000E+00  0.00000000000E+00  0.50000000000E+03  0.50000000000E+03  0.00000000000E+00 0.  1.
         11   -1    0    0    0    0 -0.00000000000E+00 -0.00000000000E+00 -0.50000000000E+03  0.50000000000E+03  0.00000000000E+00 0.  1.
         23    2    1    2    0    0 -0.12120918791E+03 -0.63748648955E+02 -0.45139566681E+02  0.15978260218E+03  0.68828351717E+02 0.  0.
        -11    1    1    2    0    0  0.69200911875E+02  0.11762502313E+03  0.42845061521E+03  0.44966025169E+03  0.00000000000E+00 0.  1.
         11    1    1    2    0    0  0.52008276038E+02 -0.53876374176E+02 -0.38331104853E+03  0.39055714614E+03  0.00000000000E+00 0.  1.
        -15    1    3    3    0    0 -0.42551510443E+01 -0.26266581290E+02  0.49707551105E+01  0.27127582613E+02  0.17770000000E+01 0. -1.
         15    1    3    3    0    0 -0.11695403687E+03 -0.37482067665E+02 -0.50110321792E+02  0.13265501956E+03  0.17770000000E+01 0.  1.
</event>
<event>
 7    1  0.3970441E-006  0.5098217E+03  0.7546771E-02  0.9378097E-01
        -11   -1    0    0    0    0  0.00000000000E+00  0.00000000000E+00  0.50000000000E+03  0.50000000000E+03  0.00000000000E+00 0.  1.
         11   -1    0    0    0    0 -0.00000000000E+00 -0.00000000000E+00 -0.50000000000E+03  0.50000000000E+03  0.00000000000E+00 0. -1.
         23    2    1    2    0    0 -0.27510370996E+02  0.73540042728E+02 -0.23723255667E+03  0.26603855249E+03  0.91281252557E+02 0.  0.
        -11    1    1    2    0    0 -0.28531691207E+01 -0.13653978374E+03  0.47076907613E+03  0.49017831057E+03  0.00000000000E+00 0.  1.
         11    1    1    2    0    0  0.30363540117E+02  0.62999741010E+02 -0.23353651946E+03  0.24378313694E+03  0.00000000000E+00 0. -1.
        -15    1    3    3    0    0  0.30332411690E+02  0.15225362736E+02 -0.40688996985E+02  0.53015272083E+02  0.17770000000E+01 0.  1.
         15    1    3    3    0    0 -0.57842782686E+02  0.58314679992E+02 -0.19654355969E+03  0.21302328040E+03  0.17770000000E+01 0. -1.
</event>
<event>
 7    1  0.3970441E-006  0.5327889E+03  0.7546771E-02  0.9329290E-01
        -11   -1    0    0    0    0  0.00000000000E+00  0.00000000000E+00  0.50000000000E+03  0.50000000000E+03  0.00000000000E+00 0.  1.
         11   -1    0    0    0    0 -0.00000000000E+00 -0.00000000000E+00 -0.50000000000E+03  0.50000000000E+03  0.00000000000E+00 0. -1.
         23    2    1    2    0    0 -0.87010348796E+02  0.58548089564E+02 -0.26721982725E+03  0.29905105496E+03  0.83823730576E+02 0.  0.
        -11    1    1    2    0    0 -0.21375374989E+02 -0.19244575441E+03  0.42519871000E+03  0.46721110650E+03  0.00000000000E+00 0.  1.
         11    1    1    2    0    0  0.10838572379E+03  0.13389766485E+03 -0.15797888275E+03  0.23373783855E+03  0.00000000000E+00 0. -1.
        -15    1    3    3    0    0 -0.54920988205E+02 -0.58656456499E+01 -0.16514639143E+03  0.17414709034E+03  0.17770000000E+01 0. -1.
         15    1    3    3    0    0 -0.32089360591E+02  0.64413735214E+02 -0.10207343582E+03  0.12490396462E+03  0.17770000000E+01 0.  1.
</event>
<event>
 7    1  0.3970441E-006  0.5128298E+03  0.7546771E-02  0.9371551E-01
        -11   -1    0    0    0    0  0.00000000000E+00  0.00000000000E+00  0.50000000000E+03  0.50000000000E+03  0.00000000000E+00 0.  1.
         11   -1    0    0    0    0 -0.00000000000E+00 -0.00000000000E+00 -0.50000000000E+03  0.50000000000E+03  0.00000000000E+00 0. -1.
         23    2    1    2    0    0 -0.10761508258E+03 -0.36113736894E+02  0.10751499451E+03  0.18099506310E+03  0.91184049202E+02 0.  0.
        -11    1    1    2    0    0 -0.20754904841E+03 -0.45804139283E+02  0.25483265033E+03  0.33183475759E+03  0.00000000000E+00 0.  1.
         11    1    1    2    0    0  0.31516413099E+03  0.81917876177E+02 -0.36234764483E+03  0.48717017932E+03  0.00000000000E+00 0. -1.
        -15    1    3    3    0    0 -0.74679103502E+02  0.21844283003E+02  0.46839001182E+02  0.90836066408E+02  0.17770000000E+01 0.  1.
         15    1    3    3    0    0 -0.32935979082E+02 -0.57958019898E+02  0.60675993326E+02  0.90158996688E+02  0.17770000000E+01 0. -1.
</event>
<event>
 7    1  0.3970441E-006  0.5102983E+03  0.7546771E-02  0.9377057E-01
        -11   -1    0    0    0    0  0.00000000000E+00  0.00000000000E+00  0.50000000000E+03  0.50000000000E+03  0.00000000000E+00 0.  1.
         11   -1    0    0    0    0 -0.00000000000E+00 -0.00000000000E+00 -0.50000000000E+03  0.50000000000E+03  0.00000000000E+00 0.  1.
         23    2    1    2    0    0  0.38145517240E+01  0.90626715706E+02 -0.39747984420E+03  0.41714942043E+03  0.88293034920E+02 0.  0.
        -11    1    1    2    0    0 -0.50397013813E+02 -0.93191546924E+02  0.47810375657E+03  0.48970166986E+03  0.00000000000E+00 0.  1.
         11    1    1    2    0    0  0.46582462090E+02  0.25648312180E+01 -0.80623912370E+02  0.93148909705E+02  0.00000000000E+00 0.  1.
        -15    1    3    3    0    0 -0.31633175992E+02  0.56009680479E+02 -0.30989638248E+03  0.31650697896E+03  0.17770000000E+01 0.  1.
         15    1    3    3    0    0  0.35447727716E+02  0.34617035227E+02 -0.87583461722E+02  0.10064244147E+03  0.17770000000E+01 0. -1.
</event>
<event>
 7    1  0.3970441E-006  0.5122973E+03  0.7546771E-02  0.9372706E-01
        -11   -1    0    0    0    0  0.00000000000E+00  0.00000000000E+00  0.50000000000E+03  0.50000000000E+03  0.00000000000E+00 0. -1.
         11   -1    0    0    0    0 -0.00000000000E+00 -0.00000000000E+00 -0.50000000000E+03  0.50000000000E+03  0.00000000000E+00 0.  1.
         23    2    1    2    0    0  0.25723684287E+02  0.29686284046E+02 -0.29773238431E+03  0.31494392246E+03  0.94879493242E+02 0.  0.
        -11    1    1    2    0    0 -0.96726453477E+02 -0.10234414450E+03  0.46692993242E+03  0.48770266813E+03  0.00000000000E+00 0. -1.
         11    1    1    2    0    0  0.71002769190E+02  0.72657860455E+02 -0.16919754811E+03  0.19735340941E+03  0.00000000000E+00 0.  1.
        -15    1    3    3    0    0  0.22728680011E+02 -0.32776551426E+02 -0.10644412373E+03  0.11368555064E+03  0.17770000000E+01 0. -1.
         15    1    3    3    0    0  0.29950042767E+01  0.62462835472E+02 -0.19128826058E+03  0.20125837183E+03  0.17770000000E+01 0.  1.
</event>
<event>
 7    1  0.4193787E-006  0.5082334E+03  0.7546771E-02  0.9381573E-01
        -11   -1    0    0    0    0  0.00000000000E+00  0.00000000000E+00  0.50000000000E+03  0.50000000000E+03  0.00000000000E+00 0. -1.
         11   -1    0    0    0    0 -0.00000000000E+00 -0.00000000000E+00 -0.50000000000E+03  0.50000000000E+03  0.00000000000E+00 0. -1.
         23    2    1    2    0    0  0.89698380778E+02 -0.34390734402E+02  0.33687904753E+03  0.35989131864E+03  0.82496948079E+02 0.  0.
        -11    1    1    2    0    0 -0.13000400932E+02 -0.31438683624E+02  0.14438830300E+03  0.14834211572E+03  0.00000000000E+00 0. -1.
         11    1    1    2    0    0 -0.76697979846E+02  0.65829418026E+02 -0.48126735053E+03  0.49176656564E+03  0.00000000000E+00 0. -1.
        -15    1    3    3    0    0  0.48959868802E+02 -0.28491001020E+02  0.29766192249E+03  0.30300921392E+03  0.17770000000E+01 0. -1.
         15    1    3    3    0    0  0.40738511976E+02 -0.58997333818E+01  0.39217125040E+02  0.56882104720E+02  0.17770000000E+01 0.  1.
</event>
<event>
 7    1  0.3970441E-006  0.5195414E+03  0.7546771E-02  0.9357115E-01
        -11   -1    0    0    0    0  0.00000000000E+00  0.00000000000E+00  0.50000000000E+03  0.50000000000E+03  0.00000000000E+00 0.  1.
         11   -1    0    0    0    0 -0.00000000000E+00 -0.00000000000E+00 -0.50000000000E+03  0.50000000000E+03  0.00000000000E+00 0. -1.
         23    2    1    2    0    0  0.22675079445E+02  0.26889462915E+02  0.33906646708E+03  0.35437737533E+03  0.96850671686E+02 0.  0.
        -11    1    1    2    0    0  0.10793475939E+03 -0.20887915572E+02  0.12325969192E+03  0.16516406677E+03  0.00000000000E+00 0.  1.
         11    1    1    2    0    0 -0.13060983883E+03 -0.60015473423E+01 -0.46232615899E+03  0.48045855790E+03  0.00000000000E+00 0. -1.
        -15    1    3    3    0    0  0.11580930944E+02  0.58920513154E+02  0.27889543670E+03  0.28529207345E+03  0.17770000000E+01 0.  1.
         15    1    3    3    0    0  0.11094148501E+02 -0.32031050240E+02  0.60171030381E+02  0.69085301885E+02  0.17770000000E+01 0. -1.
</event>
<event>
 7    1  0.3970441E-006  0.5102785E+03  0.7546771E-02  0.9377100E-01
        -11   -1    0    0    0    0  0.00000000000E+00  0.00000000000E+00  0.50000000000E+03  0.50000000000E+03  0.00000000000E+00 0. -1.
         11   -1    0    0    0    0 -0.00000000000E+00 -0.00000000000E+00 -0.50000000000E+03  0.50000000000E+03  0.00000000000E+00 0.  1.
         23    2    1    2    0    0 -0.36986758704E+02 -0.39826117220E+02 -0.37380780769E+03  0.38877913503E+03  0.91993471553E+02 0.  0.
        -11    1    1    2    0    0  0.28253657853E+02  0.10116004671E+03  0.47832569964E+03  0.48972145059E+03  0.00000000000E+00 0. -1.
         11    1    1    2    0    0  0.87331008516E+01 -0.61333929489E+02 -0.10451789195E+03  0.12149941438E+03  0.00000000000E+00 0.  1.
        -15    1    3    3    0    0 -0.50519537346E+02 -0.60008072736E+02 -0.23240120351E+03  0.24528895118E+03  0.17770000000E+01 0. -1.
         15    1    3    3    0    0  0.13532778642E+02  0.20181955516E+02 -0.14140660418E+03  0.14349018385E+03  0.17770000000E+01 0.  1.
</event>
<event>
 7    1  0.3970441E-006  0.5338762E+03  0.7546771E-02  0.9327045E-01
        -11   -1    0    0    0    0  0.00000000000E+00  0.00000000000E+00  0.50000000000E+03  0.50000000000E+03  0.00000000000E+00 0.  1.
         11   -1    0    0    0    0 -0.00000000000E+00 -0.00000000000E+00 -0.50000000000E+03  0.50000000000E+03  0.00000000000E+00 0. -1.
         23    2    1    2    0    0  0.34643320693E+01  0.13421649417E+03  0.23708853099E+03  0.28904301050E+03  0.96482234078E+02 0.  0.
        -11    1    1    2    0    0 -0.57635194206E+02  0.23391395911E+03  0.43654873149E+02  0.24483321634E+03  0.00000000000E+00 0.  1.
         11    1    1    2    0    0  0.54170862137E+02 -0.36813045327E+03 -0.28074340414E+03  0.46612377315E+03  0.00000000000E+00 0. -1.
        -15    1    3    3    0    0 -0.30667111970E+02  0.47787263553E+02  0.15484746935E+03  0.16493935494E+03  0.17770000000E+01 0.  1.
         15    1    3    3    0    0  0.34131444039E+02  0.86429230614E+02  0.82241061639E+02  0.12410365557E+03  0.17770000000E+01 0. -1.
</event>
<event>
 7    1  0.3970441E-006  0.4381291E+03  0.7546771E-02  0.9550000E-01
        -11   -1    0    0    0    0  0.00000000000E+00  0.00000000000E+00  0.50000000000E+03  0.50000000000E+03  0.00000000000E+00 0. -1.
         11   -1    0    0    0    0 -0.00000000000E+00 -0.00000000000E+00 -0.50000000000E+03  0.50000000000E+03  0.00000000000E+00 0. -1.
         23    2    1    2    0    0 -0.73264987189E+02 -0.60098660230E+02 -0.45108489069E+03  0.46929956735E+03  0.88232068967E+02 0.  0.
        -11    1    1    2    0    0  0.76218044354E+02 -0.51011921836E+02  0.39631585729E+03  0.40678946053E+03  0.00000000000E+00 0. -1.
         11    1    1    2    0    0 -0.29530571657E+01  0.11111058207E+03  0.54769033397E+02  0.12391097213E+03  0.00000000000E+00 0. -1.
        -15    1    3    3    0    0 -0.80222643857E+01  0.20473802075E+02 -0.13082494030E+03  0.13267198661E+03  0.17770000000E+01 0.  1.
         15    1    3    3    0    0 -0.65242722803E+02 -0.80572462306E+02 -0.32025995039E+03  0.33662758074E+03  0.17770000000E+01 0. -1.
</event>
<event>
 7    1  0.3970441E-006  0.5184115E+03  0.7546771E-02  0.9359529E-01
        -11   -1    0    0    0    0  0.00000000000E+00  0.00000000000E+00  0.50000000000E+03  0.50000000000E+03  0.00000000000E+00 0. -1.
         11   -1    0    0    0    0 -0.00000000000E+00 -0.00000000000E+00 -0.50000000000E+03  0.50000000000E+03  0.00000000000E+00 0. -1.
         23    2    1    2    0    0  0.44231678424E+02 -0.27393598044E+02 -0.15989662916E+03  0.19002498026E+03  0.88519548767E+02 0.  0.
        -11    1    1    2    0    0 -0.17152328007E+03  0.22319306576E+03  0.39075834904E+03  0.48158848362E+03  0.00000000000E+00 0. -1.
         11    1    1    2    0    0  0.12729160164E+03 -0.19579946772E+03 -0.23086171988E+03  0.32838653613E+03  0.00000000000E+00 0. -1.
        -15    1    3    3    0    0  0.33631466563E+02  0.32651774432E+01 -0.15315048582E+03  0.15684376290E+03  0.17770000000E+01 0. -1.
         15    1    3    3    0    0  0.10600211862E+02 -0.30658775487E+02 -0.67461433444E+01  0.33181217351E+02  0.17770000000E+01 0.  1.
</event>
<event>
 7    1  0.3970441E-006  0.5110545E+03  0.7546771E-02  0.9375409E-01
        -11   -1    0    0    0    0  0.00000000000E+00  0.00000000000E+00  0.50000000000E+03  0.50000000000E+03  0.00000000000E+00 0. -1.
         11   -1    0    0    0    0 -0.00000000000E+00 -0.00000000000E+00 -0.50000000000E+03  0.50000000000E+03  0.00000000000E+00 0.  1.
         23    2    1    2    0    0  0.71467298588E+02  0.14608881336E+02  0.27498920007E+03  0.29938756419E+03  0.93235504264E+02 0.  0.
        -11    1    1    2    0    0  0.66918016527E+02 -0.59419181536E+02  0.19181826451E+03  0.21166697114E+03  0.00000000000E+00 0. -1.
         11    1    1    2    0    0 -0.13838531511E+03  0.44810300199E+02 -0.46680746458E+03  0.48894546468E+03  0.00000000000E+00 0.  1.
        -15    1    3    3    0    0  0.28680858300E+02 -0.38114448847E+01  0.10514004414E+02  0.30835381670E+02  0.17770000000E+01 0.  1.
         15    1    3    3    0    0  0.42786440289E+02  0.18420326221E+02  0.26447519565E+03  0.26855218252E+03  0.17770000000E+01 0. -1.
</event>
<event>
 7    1  0.3970441E-006  0.5194083E+03  0.7546771E-02  0.9357400E-01
        -11   -1    0    0    0    0  0.00000000000E+00  0.00000000000E+00  0.50000000000E+03  0.50000000000E+03  0.00000000000E+00 0. -1.
         11   -1    0    0    0    0 -0.00000000000E+00 -0.00000000000E+00 -0.50000000000E+03  0.50000000000E+03  0.00000000000E+00 0. -1.
         23    2    1    2    0    0  0.50369014767E+02  0.11556410871E+03  0.25208800556E+03  0.29628246652E+03  0.91339129354E+02 0.  0.
        -11    1    1    2    0    0  0.22713309669E+02 -0.44195525073E+02  0.21752237721E+03  0.22312580187E+03  0.00000000000E+00 0. -1.
         11    1    1    2    0    0 -0.73082324437E+02 -0.71368583632E+02 -0.46961038278E+03  0.48059173160E+03  0.00000000000E+00 0. -1.
        -15    1    3    3    0    0  0.12481643013E+02  0.11541618520E+03  0.20723661241E+03  0.23754338229E+03  0.17770000000E+01 0.  1.
         15    1    3    3    0    0  0.37887371754E+02  0.14792350777E+00  0.44851393155E+02  0.58739084235E+02  0.17770000000E+01 0. -1.
</event>
<event>
 7    1  0.3970441E-006  0.5088084E+03  0.7546771E-02  0.9380313E-01
        -11   -1    0    0    0    0  0.00000000000E+00  0.00000000000E+00  0.50000000000E+03  0.50000000000E+03  0.00000000000E+00 0.  1.
         11   -1    0    0    0    0 -0.00000000000E+00 -0.00000000000E+00 -0.50000000000E+03  0.50000000000E+03  0.00000000000E+00 0. -1.
         23    2    1    2    0    0  0.14377744012E+03  0.72966691168E+02  0.33012400578E+03  0.37894552451E+03  0.92853438500E+02 0.  0.
        -11    1    1    2    0    0  0.59673991818E+02 -0.19283227020E+02  0.11371693288E+03  0.12986288526E+03  0.00000000000E+00 0.  1.
         11    1    1    2    0    0 -0.20345143194E+03 -0.53683464148E+02 -0.44384093867E+03  0.49119159023E+03  0.00000000000E+00 0. -1.
        -15    1    3    3    0    0  0.95402902099E+02  0.85704451187E+02  0.18246221663E+03  0.22303045735E+03  0.17770000000E+01 0.  1.
         15    1    3    3    0    0  0.48374538020E+02 -0.12737760019E+02  0.14766178916E+03  0.15591506715E+03  0.17770000000E+01 0. -1.
</event>
<event>
 7    1  0.3970441E-006  0.3486002E+03  0.7546771E-02  0.9821791E-01
        -11   -1    0    0    0    0  0.00000000000E+00  0.00000000000E+00  0.50000000000E+03  0.50000000000E+03  0.00000000000E+00 0. -1.
         11   -1    0    0    0    0 -0.00000000000E+00 -0.00000000000E+00 -0.50000000000E+03  0.50000000000E+03  0.00000000000E+00 0. -1.
         23    2    1    2    0    0  0.15024827216E+02 -0.10512770747E+03  0.22093913892E+03  0.26095998343E+03  0.89489829220E+02 0.  0.
        -11    1    1    2    0    0 -0.25181129525E+03  0.86439954402E+02  0.14470664727E+03  0.30301948435E+03  0.00000000000E+00 0. -1.
         11    1    1    2    0    0  0.23678646804E+03  0.18687753072E+02 -0.36564578619E+03  0.43602053222E+03  0.00000000000E+00 0. -1.
        -15    1    3    3    0    0 -0.28698331573E+02 -0.70746531563E+02  0.16617710647E+03  0.18288426507E+03  0.17770000000E+01 0.  1.
         15    1    3    3    0    0  0.43723158790E+02 -0.34381175911E+02  0.54762032441E+02  0.78075718362E+02  0.17770000000E+01 0. -1.
</event>
<event>
 7    1  0.3970441E-006  0.3527213E+03  0.7546771E-02  0.9807433E-01
        -11   -1    0    0    0    0  0.00000000000E+00  0.00000000000E+00  0.50000000000E+03  0.50000000000E+03  0.00000000000E+00 0.  1.
         11   -1    0    0    0    0 -0.00000000000E+00 -0.00000000000E+00 -0.50000000000E+03  0.50000000000E+03  0.00000000000E+00 0. -1.
         23    2    1    2    0    0 -0.80463286967E+02  0.14010904645E+02 -0.25794274791E+03  0.28540738537E+03  0.90841997041E+02 0.  0.
        -11    1    1    2    0    0 -0.52528713501E+02  0.12028331932E+03  0.43575613949E+03  0.45509422734E+03  0.00000000000E+00 0.  1.
         11    1    1    2    0    0  0.13299200047E+03 -0.13429422397E+03 -0.17781339159E+03  0.25949838729E+03  0.00000000000E+00 0. -1.
        -15    1    3    3    0    0 -0.48216195794E+02  0.28290612259E+02 -0.51707123735E+02  0.76170497260E+02  0.17770000000E+01 0.  1.
         15    1    3    3    0    0 -0.32247091173E+02 -0.14279707614E+02 -0.20623562417E+03  0.20923688811E+03  0.17770000000E+01 0. -1.
</event>
<event>
 7    1  0.3970441E-006  0.5117431E+03  0.7546771E-02  0.9373910E-01
        -11   -1    0    0    0    0  0.00000000000E+00  0.00000000000E+00  0.50000000000E+03  0.50000000000E+03  0.00000000000E+00 0. -1.
         11   -1    0    0    0    0 -0.00000000000E+00 -0.00000000000E+00 -0.50000000000E+03  0.50000000000E+03  0.00000000000E+00 0.  1.
         23    2    1    2    0    0 -0.59021033717E+02  0.12569561882E+03  0.17518662584E+03  0.24221778007E+03  0.93253568800E+02 0.  0.
        -11    1    1    2    0    0 -0.33822901623E+02  0.97822554474E+02  0.24885870022E+03  0.26952531145E+03  0.00000000000E+00 0. -1.
         11    1    1    2    0    0  0.92843935340E+02 -0.22351817330E+03 -0.42404532606E+03  0.48825690848E+03  0.00000000000E+00 0.  1.
        -15    1    3    3    0    0 -0.14191770236E+02  0.95100654758E+02  0.56106549460E+02  0.11134021510E+03  0.17770000000E+01 0.  1.
         15    1    3    3    0    0 -0.44829263481E+02  0.30594964063E+02  0.11908007638E+03  0.13087756496E+03  0.17770000000E+01 0. -1.
</event>
<event>
 7    1  0.3970441E-006  0.5304074E+03  0.7546771E-02  0.9334229E-01
        -11   -1    0    0    0    0  0.00000000000E+00  0.00000000000E+00  0.50000000000E+03  0.50000000000E+03  0.00000000000E+00 0.  1.
         11   -1    0    0    0    0 -0.00000000000E+00 -0.00000000000E+00 -0.50000000000E+03  0.50000000000E+03  0.00000000000E+00 0. -1.
         23    2    1    2    0    0  0.65650877281E+02  0.77502082460E+02  0.31131388217E+03  0.33972210301E+03  0.90433199476E+02 0.  0.
        -11    1    1    2    0    0 -0.11759130632E+03  0.76074764841E+02  0.12940550932E+03  0.19068526690E+03  0.00000000000E+00 0.  1.
         11    1    1    2    0    0  0.51940429041E+02 -0.15357684730E+03 -0.44071939150E+03  0.46959263009E+03  0.00000000000E+00 0. -1.
        -15    1    3    3    0    0 -0.22831487611E+02  0.14960390693E+02  0.71752905609E+02  0.76790151116E+02  0.17770000000E+01 0. -1.
         15    1    3    3    0    0  0.88482364892E+02  0.62541691767E+02  0.23956097656E+03  0.26293195190E+03  0.17770000000E+01 0.  1.
</event>
<event>
 6    1  0.3970441E-006  0.3805935E+03  0.7546771E-02  0.9715545E-01
        -11   -1    0    0    0    0  0.00000000000E+00  0.00000000000E+00  0.50000000000E+03  0.50000000000E+03  0.00000000000E+00 0.  1.
         11   -1    0    0    0    0 -0.00000000000E+00 -0.00000000000E+00 -0.50000000000E+03  0.50000000000E+03  0.00000000000E+00 0. -1.
        -11    1    1    2    0    0 -0.29533132958E+03  0.56223509643E+02  0.26076115080E+03  0.39796740449E+03  0.00000000000E+00 0.  1.
         11    1    1    2    0    0  0.17553431413E+03 -0.14831810514E+03 -0.30156278945E+03  0.37914465805E+03  0.00000000000E+00 0. -1.
        -15    1    1    2    0    0 -0.10977442371E+02  0.14055725293E+02  0.66113012724E+02  0.68499312661E+02  0.17770000000E+01 0.  1.
         15    1    1    2    0    0  0.13077445782E+03  0.78038870206E+02 -0.25311374071E+02  0.15438862480E+03  0.17770000000E+01 0. -1.
</event>
<event>
 7    1  0.3970441E-006  0.5217783E+03  0.7546771E-02  0.9352356E-01
        -11   -1    0    0    0    0  0.00000000000E+00  0.00000000000E+00  0.50000000000E+03  0.50000000000E+03  0.00000000000E+00 0. -1.
         11   -1    0    0    0    0 -0.00000000000E+00 -0.00000000000E+00 -0.50000000000E+03  0.50000000000E+03  0.00000000000E+00 0. -1.
         23    2    1    2    0    0 -0.14824376233E+03 -0.32243649491E+02  0.26645510408E+03  0.31987056860E+03  0.91120755971E+02 0.  0.
        -11    1    1    2    0    0  0.38857661866E+02  0.22432590030E+01  0.19812064831E+03  0.20190775464E+03  0.00000000000E+00 0. -1.
         11    1    1    2    0    0  0.10938610046E+03  0.30000390488E+02 -0.46457575239E+03  0.47822167675E+03  0.00000000000E+00 0. -1.
        -15    1    3    3    0    0 -0.12861077054E+02  0.10300090746E+02  0.98942524765E+02  0.10032088570E+03  0.17770000000E+01 0.  1.
         15    1    3    3    0    0 -0.13538268527E+03 -0.42543740237E+02  0.16751257931E+03  0.21954968290E+03  0.17770000000E+01 0. -1.
</event>
<event>
 7    1  0.3970441E-006  0.4646964E+03  0.7546771E-02  0.9482465E-01
        -11   -1    0    0    0    0  0.00000000000E+00  0.00000000000E+00  0.50000000000E+03  0.50000000000E+03  0.00000000000E+00 0.  1.
         11   -1    0    0    0    0 -0.00000000000E+00 -0.00000000000E+00 -0.50000000000E+03  0.50000000000E+03  0.00000000000E+00 0. -1.
         23    2    1    2    0    0  0.22085530514E+01  0.15096947633E+02 -0.45510582167E+03  0.46429149778E+03  0.90622792159E+02 0.  0.
        -11    1    1    2    0    0  0.10227334640E+02 -0.90288710914E+02  0.45026451516E+03  0.45934168471E+03  0.00000000000E+00 0.  1.
         11    1    1    2    0    0 -0.12435887691E+02  0.75191763281E+02  0.48413065083E+01  0.76366817510E+02  0.00000000000E+00 0. -1.
        -15    1    3    3    0    0  0.24447269699E+02  0.46976667235E+02 -0.26318424115E+03  0.26846522825E+03  0.17770000000E+01 0. -1.
         15    1    3    3    0    0 -0.22238716648E+02 -0.31879719603E+02 -0.19192158053E+03  0.19582626954E+03  0.17770000000E+01 0.  1.
</event>
<event>
 7    1  0.3970441E-006  0.5243802E+03  0.7546771E-02  0.9346851E-01
        -11   -1    0    0    0    0  0.00000000000E+00  0.00000000000E+00  0.50000000000E+03  0.50000000000E+03  0.00000000000E+00 0.  1.
         11   -1    0    0    0    0 -0.00000000000E+00 -0.00000000000E+00 -0.50000000000E+03  0.50000000000E+03  0.00000000000E+00 0. -1.
         23    2    1    2    0    0  0.12769217886E+03  0.62675304745E+02  0.23164777708E+03  0.29246377160E+03  0.10789290388E+03 0.  0.
        -11    1    1    2    0    0 -0.42398787037E+02  0.51618703841E+02  0.22208797820E+03  0.23191640259E+03  0.00000000000E+00 0.  1.
         11    1    1    2    0    0 -0.85293391828E+02 -0.11429400859E+03 -0.45373575528E+03  0.47561982581E+03  0.00000000000E+00 0. -1.
        -15    1    3    3    0    0  0.69700746450E+02 -0.17392571357E+02  0.14130652870E+03  0.15852882506E+03  0.17770000000E+01 0.  1.
         15    1    3    3    0    0  0.57991432414E+02  0.80067876103E+02  0.90341248382E+02  0.13393494654E+03  0.17770000000E+01 0. -1.
</event>
<event>
 7    1  0.3970441E-006  0.5315197E+03  0.7546771E-02  0.9331919E-01
        -11   -1    0    0    0    0  0.00000000000E+00  0.00000000000E+00  0.50000000000E+03  0.50000000000E+03  0.00000000000E+00 0.  1.
         11   -1    0    0    0    0 -0.00000000000E+00 -0.00000000000E+00 -0.50000000000E+03  0.50000000000E+03  0.00000000000E+00 0. -1.
         23    2    1    2    0    0  0.30042106229E+02 -0.10106396695E+03 -0.11484607568E+03  0.19289162966E+03  0.11358303629E+03 0.  0.
        -11    1    1    2    0    0 -0.11798563605E+03  0.10157597467E+03  0.44185466134E+03  0.46848034184E+03  0.00000000000E+00 0.  1.
         11    1    1    2    0    0  0.87943529822E+02 -0.51200772114E+00 -0.32700858566E+03  0.33862802850E+03  0.00000000000E+00 0. -1.
        -15    1    3    3    0    0  0.16757006108E+02  0.12263873376E+02  0.10535540874E+02  0.23352841249E+02  0.17770000000E+01 0.  1.
         15    1    3    3    0    0  0.13285100120E+02 -0.11332784033E+03 -0.12538161655E+03  0.16953878841E+03  0.17770000000E+01 0. -1.
</event>
<event>
 7    1  0.3970441E-006  0.5164591E+03  0.7546771E-02  0.9363716E-01
        -11   -1    0    0    0    0  0.00000000000E+00  0.00000000000E+00  0.50000000000E+03  0.50000000000E+03  0.00000000000E+00 0.  1.
         11   -1    0    0    0    0 -0.00000000000E+00 -0.00000000000E+00 -0.50000000000E+03  0.50000000000E+03  0.00000000000E+00 0.  1.
         23    2    1    2    0    0 -0.18184874117E+02 -0.82112889575E+02 -0.21062649029E+03  0.24398065715E+03  0.89943462080E+02 0.  0.
        -11    1    1    2    0    0  0.13099230274E+03  0.79376872698E+02  0.45864161283E+03  0.48354089829E+03  0.00000000000E+00 0.  1.
         11    1    1    2    0    0 -0.11280742862E+03  0.27360168770E+01 -0.24801512254E+03  0.27247844456E+03  0.00000000000E+00 0.  1.
        -15    1    3    3    0    0  0.64669731292E+01 -0.10791686020E+02  0.63824868709E+01  0.14218864099E+02  0.17770000000E+01 0.  1.
         15    1    3    3    0    0 -0.24651847246E+02 -0.71321203555E+02 -0.21700897716E+03  0.22976179305E+03  0.17770000000E+01 0. -1.
</event>
<event>
 7    1  0.3970441E-006  0.5312970E+03  0.7546771E-02  0.9332381E-01
        -11   -1    0    0    0    0  0.00000000000E+00  0.00000000000E+00  0.50000000000E+03  0.50000000000E+03  0.00000000000E+00 0. -1.
         11   -1    0    0    0    0 -0.00000000000E+00 -0.00000000000E+00 -0.50000000000E+03  0.50000000000E+03  0.00000000000E+00 0. -1.
         23    2    1    2    0    0  0.20853353022E+02  0.64842570970E+02 -0.71337931404E+02  0.13434678918E+03  0.91216982874E+02 0.  0.
        -11    1    1    2    0    0  0.16073194750E+03 -0.15042250996E+03  0.41378838211E+03  0.46870301430E+03  0.00000000000E+00 0. -1.
         11    1    1    2    0    0 -0.18158530052E+03  0.85579938986E+02 -0.34245045070E+03  0.39695019651E+03  0.00000000000E+00 0. -1.
        -15    1    3    3    0    0  0.74998610899E+01 -0.16719180019E+02  0.77184741239E+01  0.19962752031E+02  0.17770000000E+01 0. -1.
         15    1    3    3    0    0  0.13353491932E+02  0.81561750989E+02 -0.79056405528E+02  0.11438403715E+03  0.17770000000E+01 0.  1.
</event>
<event>
 7    1  0.3970441E-006  0.4044319E+03  0.7546771E-02  0.9643396E-01
        -11   -1    0    0    0    0  0.00000000000E+00  0.00000000000E+00  0.50000000000E+03  0.50000000000E+03  0.00000000000E+00 0.  1.
         11   -1    0    0    0    0 -0.00000000000E+00 -0.00000000000E+00 -0.50000000000E+03  0.50000000000E+03  0.00000000000E+00 0. -1.
         23    2    1    2    0    0  0.99729122737E+01 -0.32598601357E+02 -0.34739416073E+03  0.36082005860E+03  0.91357999018E+02 0.  0.
        -11    1    1    2    0    0  0.97115717135E+02 -0.80438736432E+02  0.44020357302E+03  0.45790942176E+03  0.00000000000E+00 0.  1.
         11    1    1    2    0    0 -0.10708862941E+03  0.11303733779E+03 -0.92809412288E+02  0.18127051964E+03  0.00000000000E+00 0. -1.
        -15    1    3    3    0    0  0.46717644361E+02 -0.37233631984E+02 -0.19336309254E+03  0.20238904351E+03  0.17770000000E+01 0. -1.
         15    1    3    3    0    0 -0.36744732087E+02  0.46350306272E+01 -0.15403106819E+03  0.15843101509E+03  0.17770000000E+01 0.  1.
</event>
<event>
 7    1  0.3970441E-006  0.5328548E+03  0.7546771E-02  0.9329154E-01
        -11   -1    0    0    0    0  0.00000000000E+00  0.00000000000E+00  0.50000000000E+03  0.50000000000E+03  0.00000000000E+00 0.  1.
         11   -1    0    0    0    0 -0.00000000000E+00 -0.00000000000E+00 -0.50000000000E+03  0.50000000000E+03  0.00000000000E+00 0. -1.
         23    2    1    2    0    0  0.24037148671E+02  0.12141200027E+03 -0.14635294055E+03  0.21198928180E+03  0.90562763116E+02 0.  0.
        -11    1    1    2    0    0 -0.64133880185E+02 -0.60280104128E+02  0.45877861880E+03  0.46714523075E+03  0.00000000000E+00 0.  1.
         11    1    1    2    0    0  0.40096731514E+02 -0.61131896145E+02 -0.31242567825E+03  0.32086548745E+03  0.00000000000E+00 0. -1.
        -15    1    3    3    0    0  0.66389361944E+01  0.17418653286E+02  0.11630889404E+02  0.22043599376E+02  0.17770000000E+01 0.  1.
         15    1    3    3    0    0  0.17398212477E+02  0.10399334699E+03 -0.15798382996E+03  0.18994568242E+03  0.17770000000E+01 0. -1.
</event>
<event>
 7    1  0.3970441E-006  0.4435951E+03  0.7546771E-02  0.9535695E-01
        -11   -1    0    0    0    0  0.00000000000E+00  0.00000000000E+00  0.50000000000E+03  0.50000000000E+03  0.00000000000E+00 0.  1.
         11   -1    0    0    0    0 -0.00000000000E+00 -0.00000000000E+00 -0.50000000000E+03  0.50000000000E+03  0.00000000000E+00 0. -1.
         23    2    1    2    0    0 -0.19676160828E+02  0.79174529460E+02 -0.41997620384E+03  0.43724282605E+03  0.90252533045E+02 0.  0.
        -11    1    1    2    0    0  0.90197262922E+02  0.92091637951E+01  0.43885394017E+03  0.44812178673E+03  0.00000000000E+00 0.  1.
         11    1    1    2    0    0 -0.70521102094E+02 -0.88383693255E+02 -0.18877736329E+02  0.11463538722E+03  0.00000000000E+00 0. -1.
        -15    1    3    3    0    0 -0.45479205987E+02  0.11312172127E+02 -0.12648458304E+03  0.13489933614E+03  0.17770000000E+01 0.  1.
         15    1    3    3    0    0  0.25803045159E+02  0.67862357332E+02 -0.29349162081E+03  0.30234348992E+03  0.17770000000E+01 0. -1.
</event>
<event>
 7    1  0.3970441E-006  0.3759608E+03  0.7546771E-02  0.9730223E-01
        -11   -1    0    0    0    0  0.00000000000E+00  0.00000000000E+00  0.50000000000E+03  0.50000000000E+03  0.00000000000E+00 0.  1.
         11   -1    0    0    0    0 -0.00000000000E+00 -0.00000000000E+00 -0.50000000000E+03  0.50000000000E+03  0.00000000000E+00 0. -1.
         23    2    1    2    0    0  0.11899348840E+03 -0.52279934780E+02 -0.37260305625E+03  0.40609606101E+03  0.95855784268E+02 0.  0.
        -11    1    1    2    0    0  0.95831667818E+02 -0.17333811818E+02  0.35418673224E+03  0.36733147277E+03  0.00000000000E+00 0.  1.
         11    1    1    2    0    0 -0.21482515622E+03  0.69613746598E+02  0.18416324003E+02  0.22657246622E+03  0.00000000000E+00 0. -1.
        -15    1    3    3    0    0  0.38372421171E+02  0.25152867406E+02 -0.72193428229E+02  0.85557923383E+02  0.17770000000E+01 0.  1.
         15    1    3    3    0    0  0.80621067233E+02 -0.77432802186E+02 -0.30040962802E+03  0.32053813762E+03  0.17770000000E+01 0. -1.
</event>
<event>
 7    1  0.3970441E-006  0.5370743E+03  0.7546771E-02  0.9320472E-01
        -11   -1    0    0    0    0  0.00000000000E+00  0.00000000000E+00  0.50000000000E+03  0.50000000000E+03  0.00000000000E+00 0. -1.
         11   -1    0    0    0    0 -0.00000000000E+00 -0.00000000000E+00 -0.50000000000E+03  0.50000000000E+03  0.00000000000E+00 0.  1.
         23    2    1    2    0    0 -0.85674790158E+02  0.57345898590E+01 -0.90077036108E+02  0.16044054199E+03  0.10126322082E+03 0.  0.
        -11    1    1    2    0    0  0.39340248145E+02  0.73459295700E+02  0.45536385425E+03  0.46292565602E+03  0.00000000000E+00 0. -1.
         11    1    1    2    0    0  0.46334542013E+02 -0.79193885559E+02 -0.36528681814E+03  0.37663380199E+03  0.00000000000E+00 0.  1.
        -15    1    3    3    0    0  0.36385818740E+01  0.28716882313E+02 -0.54195781655E+02  0.61467382293E+02  0.17770000000E+01 0.  1.
         15    1    3    3    0    0 -0.89313372032E+02 -0.22982292454E+02 -0.35881254453E+02  0.98973159697E+02  0.17770000000E+01 0. -1.
</event>
<event>
 7    1  0.3970441E-006  0.4674779E+03  0.7546771E-02  0.9475673E-01
        -11   -1    0    0    0    0  0.00000000000E+00  0.00000000000E+00  0.50000000000E+03  0.50000000000E+03  0.00000000000E+00 0.  1.
         11   -1    0    0    0    0 -0.00000000000E+00 -0.00000000000E+00 -0.50000000000E+03  0.50000000000E+03  0.00000000000E+00 0. -1.
         23    2    1    2    0    0 -0.16666009802E+01 -0.37027368192E+02 -0.45272069085E+03  0.46492422837E+03  0.99119678419E+02 0.  0.
        -11    1    1    2    0    0  0.74121072911E+02  0.30310059049E+02  0.45527677903E+03  0.46226570136E+03  0.00000000000E+00 0.  1.
         11    1    1    2    0    0 -0.72454471931E+02  0.67173091427E+01 -0.25560881834E+01  0.72810070263E+02  0.00000000000E+00 0. -1.
        -15    1    3    3    0    0 -0.45900029177E+02  0.29007775551E+01 -0.21084127626E+03  0.21580646119E+03  0.17770000000E+01 0.  1.
         15    1    3    3    0    0  0.44233428197E+02 -0.39928145747E+02 -0.24187941460E+03  0.24911776718E+03  0.17770000000E+01 0. -1.
</event>
<event>
 7    1  0.3970441E-006  0.4613073E+03  0.7546771E-02  0.9490809E-01
        -11   -1    0    0    0    0  0.00000000000E+00  0.00000000000E+00  0.50000000000E+03  0.50000000000E+03  0.00000000000E+00 0.  1.
         11   -1    0    0    0    0 -0.00000000000E+00 -0.00000000000E+00 -0.50000000000E+03  0.50000000000E+03  0.00000000000E+00 0. -1.
         23    2    1    2    0    0  0.55481112927E+02 -0.80955027442E+02  0.40080273497E+03  0.42261704590E+03  0.91271379748E+02 0.  0.
        -11    1    1    2    0    0  0.76241692950E+01 -0.27894590555E+02  0.77546766610E+02  0.82763138844E+02  0.00000000000E+00 0.  1.
         11    1    1    2    0    0 -0.63105282222E+02  0.10884961800E+03 -0.47834950158E+03  0.49461981526E+03  0.00000000000E+00 0. -1.
        -15    1    3    3    0    0  0.79809996690E+02 -0.50018427114E+02  0.26681875307E+03  0.28296092193E+03  0.17770000000E+01 0. -1.
         15    1    3    3    0    0 -0.24328883762E+02 -0.30936600328E+02  0.13398398190E+03  0.13965612396E+03  0.17770000000E+01 0.  1.
</event>
<event>
 7    1  0.3970441E-006  0.4266522E+03  0.7546771E-02  0.9580773E-01
        -11   -1    0    0    0    0  0.00000000000E+00  0.00000000000E+00  0.50000000000E+03  0.50000000000E+03  0.00000000000E+00 0. -1.
         11   -1    0    0    0    0 -0.00000000000E+00 -0.00000000000E+00 -0.50000000000E+03  0.50000000000E+03  0.00000000000E+00 0.  1.
         23    2    1    2    0    0  0.21005823393E+03  0.25279516893E+02 -0.35143054936E+03  0.41988678431E+03  0.89654698722E+02 0.  0.
        -11    1    1    2    0    0 -0.87758270760E+02 -0.15732907543E+02  0.42688298033E+03  0.43609416111E+03  0.00000000000E+00 0. -1.
         11    1    1    2    0    0 -0.12229996317E+03 -0.95466093500E+01 -0.75452430968E+02  0.14401905457E+03  0.00000000000E+00 0.  1.
        -15    1    3    3    0    0  0.82263623757E+02 -0.30241565329E+02 -0.16837290038E+03  0.18982741472E+03  0.17770000000E+01 0. -1.
         15    1    3    3    0    0  0.12779461017E+03  0.55521082222E+02 -0.18305764898E+03  0.23005936960E+03  0.17770000000E+01 0.  1.
</event>
<event>
 7    1  0.3970441E-006  0.4379311E+03  0.7546771E-02  0.9550522E-01
        -11   -1    0    0    0    0  0.00000000000E+00  0.00000000000E+00  0.50000000000E+03  0.50000000000E+03  0.00000000000E+00 0. -1.
         11   -1    0    0    0    0 -0.00000000000E+00 -0.00000000000E+00 -0.50000000000E+03  0.50000000000E+03  0.00000000000E+00 0.  1.
         23    2    1    2    0    0 -0.65642836285E+02  0.24391998629E+02 -0.40420565187E+02  0.12041344117E+03  0.89227928204E+02 0.  0.
        -11    1    1    2    0    0 -0.63141806962E+02 -0.88635062484E+02  0.44084785077E+03  0.45408136894E+03  0.00000000000E+00 0. -1.
         11    1    1    2    0    0  0.12878464325E+03  0.64243063855E+02 -0.40042728558E+03  0.42550518989E+03  0.00000000000E+00 0.  1.
        -15    1    3    3    0    0  0.18937094355E+01 -0.26235687816E+02  0.98422689095E+00  0.26382264538E+02  0.17770000000E+01 0.  1.
         15    1    3    3    0    0 -0.67536545720E+02  0.50627686445E+02 -0.41404792078E+02  0.94031176631E+02  0.17770000000E+01 0. -1.
</event>
<event>
 7    1  0.3970441E-006  0.3691802E+03  0.7546771E-02  0.9752120E-01
        -11   -1    0    0    0    0  0.00000000000E+00  0.00000000000E+00  0.50000000000E+03  0.50000000000E+03  0.00000000000E+00 0.  1.
         11   -1    0    0    0    0 -0.00000000000E+00 -0.00000000000E+00 -0.50000000000E+03  0.50000000000E+03  0.00000000000E+00 0. -1.
         23    2    1    2    0    0  0.21083240348E+03 -0.32941484876E+02 -0.50261894236E+01  0.23140600675E+03  0.89375799823E+02 0.  0.
        -11    1    1    2    0    0 -0.64897070299E+02  0.27451444255E-01  0.36921540937E+03  0.37487551134E+03  0.00000000000E+00 0.  1.
         11    1    1    2    0    0 -0.14593533319E+03  0.32914033432E+02 -0.36418921995E+03  0.39371848191E+03  0.00000000000E+00 0. -1.
        -15    1    3    3    0    0  0.12089902140E+03  0.25536217160E+02 -0.10149234396E+02  0.12399530817E+03  0.17770000000E+01 0.  1.
         15    1    3    3    0    0  0.89933382089E+02 -0.58477702036E+02  0.51230449722E+01  0.10741069857E+03  0.17770000000E+01 0. -1.
</event>
<event>
 7    1  0.3970441E-006  0.4150060E+03  0.7546771E-02  0.9613073E-01
        -11   -1    0    0    0    0  0.00000000000E+00  0.00000000000E+00  0.50000000000E+03  0.50000000000E+03  0.00000000000E+00 0. -1.
         11   -1    0    0    0    0 -0.00000000000E+00 -0.00000000000E+00 -0.50000000000E+03  0.50000000000E+03  0.00000000000E+00 0. -1.
         23    2    1    2    0    0 -0.32536290109E+02  0.90051629844E+02 -0.37143020546E+03  0.39450412048E+03  0.92223626786E+02 0.  0.
        -11    1    1    2    0    0  0.80986946887E+02  0.55229550402E+02  0.43037425431E+03  0.44139685950E+03  0.00000000000E+00 0. -1.
         11    1    1    2    0    0 -0.48450656777E+02 -0.14528118025E+03 -0.58944048854E+02  0.16409902002E+03  0.00000000000E+00 0. -1.
        -15    1    3    3    0    0 -0.35098199865E+02 -0.70029752619E+01 -0.99304997523E+02  0.10557256063E+03  0.17770000000E+01 0.  1.
         15    1    3    3    0    0  0.25619097558E+01  0.97054605105E+02 -0.27212520794E+03  0.28893155985E+03  0.17770000000E+01 0. -1.
</event>
<event>
 7    1  0.3970441E-006  0.4574258E+03  0.7546771E-02  0.9500460E-01
        -11   -1    0    0    0    0  0.00000000000E+00  0.00000000000E+00  0.50000000000E+03  0.50000000000E+03  0.00000000000E+00 0. -1.
         11   -1    0    0    0    0 -0.00000000000E+00 -0.00000000000E+00 -0.50000000000E+03  0.50000000000E+03  0.00000000000E+00 0. -1.
         23    2    1    2    0    0  0.29312784991E+02 -0.14763387389E+02 -0.44404273954E+03  0.45468335914E+03  0.92118432315E+02 0.  0.
        -11    1    1    2    0    0 -0.11033094235E+03 -0.24433913501E+02  0.44101599446E+03  0.45526370418E+03  0.00000000000E+00 0. -1.
         11    1    1    2    0    0  0.81018157357E+02  0.39197300890E+02  0.30267450785E+01  0.90052936678E+02  0.00000000000E+00 0. -1.
        -15    1    3    3    0    0 -0.20714645283E+02  0.22522490811E+02 -0.87385741444E+02  0.92605532546E+02  0.17770000000E+01 0. -1.
         15    1    3    3    0    0  0.50027430274E+02 -0.37285878200E+02 -0.35665699810E+03  0.36207782660E+03  0.17770000000E+01 0.  1.
</event>
<event>
 7    1  0.3970441E-006  0.5320402E+03  0.7546771E-02  0.9330840E-01
        -11   -1    0    0    0    0  0.00000000000E+00  0.00000000000E+00  0.50000000000E+03  0.50000000000E+03  0.00000000000E+00 0. -1.
         11   -1    0    0    0    0 -0.00000000000E+00 -0.00000000000E+00 -0.50000000000E+03  0.50000000000E+03  0.00000000000E+00 0.  1.
         23    2    1    2    0    0 -0.19130048658E+02  0.86099104783E+02 -0.21910225575E+03  0.25314849081E+03  0.91100742706E+02 0.  0.
        -11    1    1    2    0    0 -0.16900121458E+03 -0.10151084248E+03  0.42440610899E+03  0.46795983483E+03  0.00000000000E+00 0. -1.
         11    1    1    2    0    0  0.18813126324E+03  0.15411737700E+02 -0.20530385324E+03  0.27889167435E+03  0.00000000000E+00 0.  1.
        -15    1    3    3    0    0 -0.51951954701E+02  0.61387485879E+02 -0.10788851856E+03  0.13457532904E+03  0.17770000000E+01 0.  1.
         15    1    3    3    0    0  0.32821906043E+02  0.24711618904E+02 -0.11121373719E+03  0.11857316178E+03  0.17770000000E+01 0. -1.
</event>
<event>
 7    1  0.3970441E-006  0.5126925E+03  0.7546771E-02  0.9371849E-01
        -11   -1    0    0    0    0  0.00000000000E+00  0.00000000000E+00  0.50000000000E+03  0.50000000000E+03  0.00000000000E+00 0. -1.
         11   -1    0    0    0    0 -0.00000000000E+00 -0.00000000000E+00 -0.50000000000E+03  0.50000000000E+03  0.00000000000E+00 0. -1.
         23    2    1    2    0    0 -0.21220205055E+01  0.13016065994E+03  0.30906675688E+03  0.34521650990E+03  0.81889426269E+02 0.  0.
        -11    1    1    2    0    0 -0.43139800556E+02 -0.11545256546E+02  0.16141210828E+03  0.16747598049E+03  0.00000000000E+00 0. -1.
         11    1    1    2    0    0  0.45261821062E+02 -0.11861540339E+03 -0.47047886516E+03  0.48730750961E+03  0.00000000000E+00 0. -1.
        -15    1    3    3    0    0  0.33902374135E+02  0.31627981758E+02  0.12514315267E+03  0.13346784853E+03  0.17770000000E+01 0.  1.
         15    1    3    3    0    0 -0.36024394640E+02  0.98532678181E+02  0.18392360421E+03  0.21174866137E+03  0.17770000000E+01 0. -1.
</event>
<event>
 7    1  0.3970441E-006  0.5124308E+03  0.7546771E-02  0.9372417E-01
        -11   -1    0    0    0    0  0.00000000000E+00  0.00000000000E+00  0.50000000000E+03  0.50000000000E+03  0.00000000000E+00 0.  1.
         11   -1    0    0    0    0 -0.00000000000E+00 -0.00000000000E+00 -0.50000000000E+03  0.50000000000E+03  0.00000000000E+00 0. -1.
         23    2    1    2    0    0  0.39044676067E+02  0.34002254526E+02  0.14844801010E+03  0.18145882480E+03  0.90608241089E+02 0.  0.
        -11    1    1    2    0    0  0.10813040980E+03  0.92042026094E+02  0.29896240018E+03  0.33097195775E+03  0.00000000000E+00 0.  1.
         11    1    1    2    0    0 -0.14717508587E+03 -0.12604428062E+03 -0.44741041028E+03  0.48756921745E+03  0.00000000000E+00 0. -1.
        -15    1    3    3    0    0  0.52335529898E+01  0.40612349469E+02  0.15033957843E+02  0.43656965352E+02  0.17770000000E+01 0. -1.
         15    1    3    3    0    0  0.33811123077E+02 -0.66100949434E+01  0.13341405226E+03  0.13780185945E+03  0.17770000000E+01 0.  1.
</event>
<event>
 7    1  0.3970441E-006  0.3927898E+03  0.7546771E-02  0.9677948E-01
        -11   -1    0    0    0    0  0.00000000000E+00  0.00000000000E+00  0.50000000000E+03  0.50000000000E+03  0.00000000000E+00 0. -1.
         11   -1    0    0    0    0 -0.00000000000E+00 -0.00000000000E+00 -0.50000000000E+03  0.50000000000E+03  0.00000000000E+00 0. -1.
         23    2    1    2    0    0 -0.44962179290E+02 -0.47860025314E+02 -0.16029786830E+03  0.19554802442E+03  0.90727303957E+02 0.  0.
        -11    1    1    2    0    0  0.37606517170E+03  0.86524329154E+01  0.25903098622E+03  0.45672412875E+03  0.00000000000E+00 0. -1.
         11    1    1    2    0    0 -0.33110299241E+03  0.39207592399E+02 -0.98733117925E+02  0.34772784683E+03  0.00000000000E+00 0. -1.
        -15    1    3    3    0    0 -0.24831987831E+02 -0.50610310528E+02 -0.16520798401E+03  0.17457052117E+03  0.17770000000E+01 0. -1.
         15    1    3    3    0    0 -0.20130191460E+02  0.27502852143E+01  0.49101157186E+01  0.20977503243E+02  0.17770000000E+01 0.  1.
</event>
<event>
 7    1  0.3970441E-006  0.5280278E+03  0.7546771E-02  0.9339191E-01
        -11   -1    0    0    0    0  0.00000000000E+00  0.00000000000E+00  0.50000000000E+03  0.50000000000E+03  0.00000000000E+00 0.  1.
         11   -1    0    0    0    0 -0.00000000000E+00 -0.00000000000E+00 -0.50000000000E+03  0.50000000000E+03  0.00000000000E+00 0.  1.
         23    2    1    2    0    0 -0.11733038764E+02 -0.71145964181E+02 -0.11923089254E+03  0.16649239063E+03  0.91127920978E+02 0.  0.
        -11    1    1    2    0    0 -0.79510944279E+02  0.17355818283E+02  0.46490271902E+03  0.47197219499E+03  0.00000000000E+00 0.  1.
         11    1    1    2    0    0  0.91243983043E+02  0.53790145898E+02 -0.34567182647E+03  0.36153541439E+03  0.00000000000E+00 0.  1.
        -15    1    3    3    0    0 -0.33487133325E+02 -0.80597850535E+02 -0.11123450561E+03  0.14139899072E+03  0.17770000000E+01 0.  1.
         15    1    3    3    0    0  0.21754094561E+02  0.94518863542E+01 -0.79963869320E+01  0.25093399905E+02  0.17770000000E+01 0. -1.
</event>
<event>
 7    1  0.3970441E-006  0.3394402E+03  0.7546771E-02  0.9854480E-01
        -11   -1    0    0    0    0  0.00000000000E+00  0.00000000000E+00  0.50000000000E+03  0.50000000000E+03  0.00000000000E+00 0.  1.
         11   -1    0    0    0    0 -0.00000000000E+00 -0.00000000000E+00 -0.50000000000E+03  0.50000000000E+03  0.00000000000E+00 0. -1.
         23    2    1    2    0    0 -0.15292103501E+03  0.88313856132E+02 -0.20865821938E+03  0.28808849271E+03  0.90953543011E+02 0.  0.
        -11    1    1    2    0    0  0.14072069853E+03  0.11949552807E+03  0.39277925062E+03  0.43400119348E+03  0.00000000000E+00 0.  1.
         11    1    1    2    0    0  0.12200336480E+02 -0.20780938420E+03 -0.18412103124E+03  0.27791031380E+03  0.00000000000E+00 0. -1.
        -15    1    3    3    0    0 -0.67189314391E+01  0.14953743886E+02  0.65692255857E+01  0.17750238017E+02  0.17770000000E+01 0.  1.
         15    1    3    3    0    0 -0.14620210358E+03  0.73360112246E+02 -0.21522744496E+03  0.27033825470E+03  0.17770000000E+01 0. -1.
</event>
<event>
 7    1  0.3970441E-006  0.5009602E+03  0.7546771E-02  0.9397664E-01
        -11   -1    0    0    0    0  0.00000000000E+00  0.00000000000E+00  0.50000000000E+03  0.50000000000E+03  0.00000000000E+00 0. -1.
         11   -1    0    0    0    0 -0.00000000000E+00 -0.00000000000E+00 -0.50000000000E+03  0.50000000000E+03  0.00000000000E+00 0.  1.
         23    2    1    2    0    0  0.59335889875E+02 -0.14790692273E+02 -0.48644954774E+03  0.50096024944E+03  0.10290042089E+03 0.  0.
        -11    1    1    2    0    0 -0.35499601414E+01 -0.34997412773E+02  0.19525659884E+03  0.19840000128E+03  0.00000000000E+00 0.  1.
         11    1    1    2    0    0 -0.55785929733E+02  0.49788105045E+02  0.29119294889E+03  0.30063974928E+03  0.00000000000E+00 0. -1.
        -15    1    3    3    0    0 -0.25061415785E+02  0.10820696847E+02 -0.67666174333E+02  0.72986511900E+02  0.17770000000E+01 0. -1.
         15    1    3    3    0    0  0.84397305660E+02 -0.25611389119E+02 -0.41878337340E+03  0.42797373754E+03  0.17770000000E+01 0.  1.
</event>
<event>
 7    1  0.3970441E-006  0.5126606E+03  0.7546771E-02  0.9371918E-01
        -11   -1    0    0    0    0  0.00000000000E+00  0.00000000000E+00  0.50000000000E+03  0.50000000000E+03  0.00000000000E+00 0.  1.
         11   -1    0    0    0    0 -0.00000000000E+00 -0.00000000000E+00 -0.50000000000E+03  0.50000000000E+03  0.00000000000E+00 0.  1.
         23    2    1    2    0    0  0.11790381223E+02 -0.37756166291E+01  0.17489097424E+03  0.19851351119E+03  0.93099371021E+02 0.  0.
        -11    1    1    2    0    0  0.31422327983E+02 -0.66513470191E+02  0.30541285121E+03  0.31414712174E+03  0.00000000000E+00 0.  1.
         11    1    1    2    0    0 -0.43212709206E+02  0.70289086820E+02 -0.48030382545E+03  0.48733936707E+03  0.00000000000E+00 0.  1.
        -15    1    3    3    0    0 -0.32218882033E+02  0.13415915136E+00  0.13551675081E+03  0.13930549823E+03  0.17770000000E+01 0.  1.
         15    1    3    3    0    0  0.44009263255E+02 -0.39097757804E+01  0.39374223427E+02  0.59208012958E+02  0.17770000000E+01 0. -1.
</event>
<event>
 7    1  0.3970441E-006  0.3460850E+03  0.7546771E-02  0.9830658E-01
        -11   -1    0    0    0    0  0.00000000000E+00  0.00000000000E+00  0.50000000000E+03  0.50000000000E+03  0.00000000000E+00 0. -1.
         11   -1    0    0    0    0 -0.00000000000E+00 -0.00000000000E+00 -0.50000000000E+03  0.50000000000E+03  0.00000000000E+00 0.  1.
         23    2    1    2    0    0 -0.19670059398E+03 -0.14727465030E+03  0.26924754359E+02  0.26501341560E+03  0.95531260618E+02 0.  0.
        -11    1    1    2    0    0  0.13825281283E+03  0.44329023542E+02  0.32915058457E+03  0.35974853705E+03  0.00000000000E+00 0. -1.
         11    1    1    2    0    0  0.58447781150E+02  0.10294562676E+03 -0.35607533893E+03  0.37523804736E+03  0.00000000000E+00 0.  1.
        -15    1    3    3    0    0 -0.13971022110E+03 -0.73878619695E+02  0.55923896598E+02  0.16765332167E+03  0.17770000000E+01 0. -1.
         15    1    3    3    0    0 -0.56990372885E+02 -0.73396030605E+02 -0.28999142238E+02  0.97360093929E+02  0.17770000000E+01 0.  1.
</event>
<event>
 7    1  0.3970441E-006  0.3707854E+03  0.7546771E-02  0.9746891E-01
        -11   -1    0    0    0    0  0.00000000000E+00  0.00000000000E+00  0.50000000000E+03  0.50000000000E+03  0.00000000000E+00 0. -1.
         11   -1    0    0    0    0 -0.00000000000E+00 -0.00000000000E+00 -0.50000000000E+03  0.50000000000E+03  0.00000000000E+00 0. -1.
         23    2    1    2    0    0  0.12966488388E+03  0.84107926648E+02 -0.25540306390E+03  0.31191466446E+03  0.90404133881E+02 0.  0.
        -11    1    1    2    0    0  0.37621539239E+01 -0.85205576190E+02  0.44674508907E+03  0.45481349873E+03  0.00000000000E+00 0. -1.
         11    1    1    2    0    0 -0.13342703780E+03  0.10976495418E+01 -0.19134202517E+03  0.23327183681E+03  0.00000000000E+00 0. -1.
        -15    1    3    3    0    0  0.36063312505E+02  0.76398463741E+02 -0.10808176905E+03  0.13719371087E+03  0.17770000000E+01 0.  1.
         15    1    3    3    0    0  0.93601571374E+02  0.77094629068E+01 -0.14732129484E+03  0.17472095360E+03  0.17770000000E+01 0. -1.
</event>
<event>
 7    1  0.3970441E-006  0.3536245E+03  0.7546771E-02  0.9804315E-01
        -11   -1    0    0    0    0  0.00000000000E+00  0.00000000000E+00  0.50000000000E+03  0.50000000000E+03  0.00000000000E+00 0. -1.
         11   -1    0    0    0    0 -0.00000000000E+00 -0.00000000000E+00 -0.50000000000E+03  0.50000000000E+03  0.00000000000E+00 0. -1.
         23    2    1    2    0    0  0.68091553641E+02 -0.99879747659E+02 -0.20346244696E+03  0.25420474218E+03  0.92793641770E+02 0.  0.
        -11    1    1    2    0    0 -0.86218088150E+02 -0.67108064723E+02  0.44130062723E+03  0.45462434456E+03  0.00000000000E+00 0. -1.
         11    1    1    2    0    0  0.18126534509E+02  0.16698781238E+03 -0.23783818027E+03  0.29117091326E+03  0.00000000000E+00 0. -1.
        -15    1    3    3    0    0  0.38834422891E+02 -0.10925640142E+03 -0.12806284813E+03  0.17276667634E+03  0.17770000000E+01 0. -1.
         15    1    3    3    0    0  0.29257130751E+02  0.93766537581E+01 -0.75399598828E+02  0.81438065841E+02  0.17770000000E+01 0.  1.
</event>
<event>
 7    1  0.3970441E-006  0.5338638E+03  0.7546771E-02  0.9327070E-01
        -11   -1    0    0    0    0  0.00000000000E+00  0.00000000000E+00  0.50000000000E+03  0.50000000000E+03  0.00000000000E+00 0.  1.
         11   -1    0    0    0    0 -0.00000000000E+00 -0.00000000000E+00 -0.50000000000E+03  0.50000000000E+03  0.00000000000E+00 0. -1.
         23    2    1    2    0    0  0.25876084809E+02 -0.36452288586E+02 -0.59516942796E+02  0.11746878505E+03  0.90875232452E+02 0.  0.
        -11    1    1    2    0    0 -0.23138585412E+02 -0.85504513037E+02  0.45764236959E+03  0.46613619718E+03  0.00000000000E+00 0.  1.
         11    1    1    2    0    0 -0.27374993971E+01  0.12195680162E+03 -0.39812542679E+03  0.41639501777E+03  0.00000000000E+00 0. -1.
        -15    1    3    3    0    0  0.54280492556E+02 -0.23001103464E+02 -0.11557129918E+02  0.60101144861E+02  0.17770000000E+01 0. -1.
         15    1    3    3    0    0 -0.28404407746E+02 -0.13451185122E+02 -0.47959812877E+02  0.57367640189E+02  0.17770000000E+01 0.  1.
</event>
<event>
 7    1  0.3970441E-006  0.5098717E+03  0.7546771E-02  0.9377988E-01
        -11   -1    0    0    0    0  0.00000000000E+00  0.00000000000E+00  0.50000000000E+03  0.50000000000E+03  0.00000000000E+00 0.  1.
         11   -1    0    0    0    0 -0.00000000000E+00 -0.00000000000E+00 -0.50000000000E+03  0.50000000000E+03  0.00000000000E+00 0.  1.
         23    2    1    2    0    0  0.25274656363E+03 -0.19856326832E+03  0.18887018583E+03  0.38866000472E+03  0.10989292616E+03 0.  0.
        -11    1    1    2    0    0  0.62657698338E+02 -0.53803141374E+02  0.88721480167E+02  0.12121165879E+03  0.00000000000E+00 0.  1.
         11    1    1    2    0    0 -0.31540426197E+03  0.25236640969E+03 -0.27759166600E+03  0.49012833650E+03  0.00000000000E+00 0.  1.
        -15    1    3    3    0    0  0.20283279189E+03 -0.19793066286E+03  0.13101848592E+03  0.31222858636E+03  0.17770000000E+01 0.  1.
         15    1    3    3    0    0  0.49913771742E+02 -0.63260546048E+00  0.57851699916E+02  0.76431418352E+02  0.17770000000E+01 0. -1.
</event>
<event>
 7    1  0.3970441E-006  0.3522266E+03  0.7546771E-02  0.9809145E-01
        -11   -1    0    0    0    0  0.00000000000E+00  0.00000000000E+00  0.50000000000E+03  0.50000000000E+03  0.00000000000E+00 0.  1.
         11   -1    0    0    0    0 -0.00000000000E+00 -0.00000000000E+00 -0.50000000000E+03  0.50000000000E+03  0.00000000000E+00 0. -1.
         23    2    1    2    0    0 -0.14285472324E+03  0.34877044792E+02 -0.35334873317E+03  0.39303570780E+03  0.89430756291E+02 0.  0.
        -11    1    1    2    0    0  0.29626367599E+02  0.19003828092E+03  0.28885198764E+03  0.34702700275E+03  0.00000000000E+00 0.  1.
         11    1    1    2    0    0  0.11322835565E+03 -0.22491532571E+03  0.64496745523E+02  0.25993728945E+03  0.00000000000E+00 0. -1.
        -15    1    3    3    0    0  0.23556662896E+01 -0.11501240056E+02 -0.51796576809E+01  0.12954314694E+02  0.17770000000E+01 0.  1.
         15    1    3    3    0    0 -0.14521038953E+03  0.46378284848E+02 -0.34816907549E+03  0.38008139311E+03  0.17770000000E+01 0. -1.
</event>
<event>
 7    1  0.3970441E-006  0.4646243E+03  0.7546771E-02  0.9482642E-01
        -11   -1    0    0    0    0  0.00000000000E+00  0.00000000000E+00  0.50000000000E+03  0.50000000000E+03  0.00000000000E+00 0.  1.
         11   -1    0    0    0    0 -0.00000000000E+00 -0.00000000000E+00 -0.50000000000E+03  0.50000000000E+03  0.00000000000E+00 0.  1.
         23    2    1    2    0    0 -0.49258709535E+01  0.82874610345E+02 -0.42042374388E+03  0.43762096577E+03  0.88676490784E+02 0.  0.
        -11    1    1    2    0    0 -0.43060610560E+02 -0.11395259338E+03  0.47072350911E+03  0.48623043070E+03  0.00000000000E+00 0.  1.
         11    1    1    2    0    0  0.47986481513E+02  0.31077983031E+02 -0.50299765225E+02  0.76148603526E+02  0.00000000000E+00 0.  1.
        -15    1    3    3    0    0  0.40743724437E+02  0.50171500076E+02 -0.24677897817E+03  0.25510831483E+03  0.17770000000E+01 0.  1.
         15    1    3    3    0    0 -0.45669595391E+02  0.32703110269E+02 -0.17364476571E+03  0.18251265094E+03  0.17770000000E+01 0. -1.
</event>
<event>
 7    1  0.3970441E-006  0.5171218E+03  0.7546771E-02  0.9362293E-01
        -11   -1    0    0    0    0  0.00000000000E+00  0.00000000000E+00  0.50000000000E+03  0.50000000000E+03  0.00000000000E+00 0.  1.
         11   -1    0    0    0    0 -0.00000000000E+00 -0.00000000000E+00 -0.50000000000E+03  0.50000000000E+03  0.00000000000E+00 0.  1.
         23    2    1    2    0    0 -0.43295071028E+02 -0.79713580776E+02 -0.19863416242E+03  0.23650901521E+03  0.90841981797E+02 0.  0.
        -11    1    1    2    0    0  0.20519386575E+03  0.90873432917E+02  0.42756155928E+03  0.48287823550E+03  0.00000000000E+00 0.  1.
         11    1    1    2    0    0 -0.16189879472E+03 -0.11159852141E+02 -0.22892739685E+03  0.28061274929E+03  0.00000000000E+00 0.  1.
        -15    1    3    3    0    0 -0.23772332722E+02 -0.38296012383E+01 -0.13032781371E+03  0.13254541261E+03  0.17770000000E+01 0.  1.
         15    1    3    3    0    0 -0.19522738306E+02 -0.75883979538E+02 -0.68306348718E+02  0.10396360260E+03  0.17770000000E+01 0. -1.
</event>
<event>
 7    1  0.3970441E-006  0.5237134E+03  0.7546771E-02  0.9348258E-01
        -11   -1    0    0    0    0  0.00000000000E+00  0.00000000000E+00  0.50000000000E+03  0.50000000000E+03  0.00000000000E+00 0.  1.
         11   -1    0    0    0    0 -0.00000000000E+00 -0.00000000000E+00 -0.50000000000E+03  0.50000000000E+03  0.00000000000E+00 0.  1.
         23    2    1    2    0    0 -0.83720499939E+02  0.18332594684E+01 -0.38735568287E+03  0.40660062333E+03  0.90923918122E+02 0.  0.
        -11    1    1    2    0    0  0.71927335160E+02 -0.91414347795E+02  0.46186445929E+03  0.47628657684E+03  0.00000000000E+00 0.  1.
         11    1    1    2    0    0  0.11793164779E+02  0.89581088327E+02 -0.74508776418E+02  0.11711279983E+03  0.00000000000E+00 0.  1.
        -15    1    3    3    0    0 -0.60735433226E+02  0.34437293615E+02 -0.32598467771E+03  0.33338249485E+03  0.17770000000E+01 0.  1.
         15    1    3    3    0    0 -0.22985066713E+02 -0.32604034146E+02 -0.61371005163E+02  0.73218128481E+02  0.17770000000E+01 0. -1.
</event>
<event>
 7    1  0.3970441E-006  0.5325366E+03  0.7546771E-02  0.9329812E-01
        -11   -1    0    0    0    0  0.00000000000E+00  0.00000000000E+00  0.50000000000E+03  0.50000000000E+03  0.00000000000E+00 0. -1.
         11   -1    0    0    0    0 -0.00000000000E+00 -0.00000000000E+00 -0.50000000000E+03  0.50000000000E+03  0.00000000000E+00 0. -1.
         23    2    1    2    0    0  0.67449317364E+02 -0.23232616032E+01 -0.31480702838E+03  0.33486309707E+03  0.92059875678E+02 0.  0.
        -11    1    1    2    0    0  0.55724416935E+02  0.52030545165E+02  0.46120454814E+03  0.46746339268E+03  0.00000000000E+00 0. -1.
         11    1    1    2    0    0 -0.12317373430E+03 -0.49707283561E+02 -0.14639751976E+03  0.19767351024E+03  0.00000000000E+00 0. -1.
        -15    1    3    3    0    0 -0.19288310624E+02 -0.66329874627E+01 -0.11766475950E+03  0.11943277945E+03  0.17770000000E+01 0.  1.
         15    1    3    3    0    0  0.86737627988E+02  0.43097258594E+01 -0.19714226888E+03  0.21543031763E+03  0.17770000000E+01 0. -1.
</event>
<event>
 7    1  0.3970441E-006  0.5066543E+03  0.7546771E-02  0.9385042E-01
        -11   -1    0    0    0    0  0.00000000000E+00  0.00000000000E+00  0.50000000000E+03  0.50000000000E+03  0.00000000000E+00 0.  1.
         11   -1    0    0    0    0 -0.00000000000E+00 -0.00000000000E+00 -0.50000000000E+03  0.50000000000E+03  0.00000000000E+00 0. -1.
         23    2    1    2    0    0  0.88713922518E+02 -0.99929732855E+02 -0.29320090640E+03  0.33491533963E+03  0.91353169890E+02 0.  0.
        -11    1    1    2    0    0 -0.13412971809E+03  0.16989708112E+03  0.44332171828E+03  0.49334566518E+03  0.00000000000E+00 0.  1.
         11    1    1    2    0    0  0.45415795571E+02 -0.69967348263E+02 -0.15012081188E+03  0.17173899520E+03  0.00000000000E+00 0. -1.
        -15    1    3    3    0    0  0.22462577907E+01 -0.50154414809E+02 -0.45144325728E+02  0.67540201905E+02  0.17770000000E+01 0.  1.
         15    1    3    3    0    0  0.86467664727E+02 -0.49775318045E+02 -0.24805658067E+03  0.26737513772E+03  0.17770000000E+01 0. -1.
</event>
<event>
 6    1  0.3970441E-006  0.5722992E+03  0.7546771E-02  0.9251146E-01
        -11   -1    0    0    0    0  0.00000000000E+00  0.00000000000E+00  0.50000000000E+03  0.50000000000E+03  0.00000000000E+00 0. -1.
         11   -1    0    0    0    0 -0.00000000000E+00 -0.00000000000E+00 -0.50000000000E+03  0.50000000000E+03  0.00000000000E+00 0.  1.
        -11    1    1    2    0    0  0.34739016376E+02  0.14304106122E+03  0.32398046650E+03  0.35585233894E+03  0.00000000000E+00 0. -1.
         11    1    1    2    0    0  0.42553229127E+02 -0.19869543560E+03 -0.37634731043E+03  0.42770077333E+03  0.00000000000E+00 0.  1.
        -15    1    1    2    0    0 -0.53898525857E+02  0.74432804973E+01  0.11903539494E+03  0.13089322554E+03  0.17770000000E+01 0. -1.
         15    1    1    2    0    0 -0.23393719646E+02  0.48211093883E+02 -0.66668551009E+02  0.85553662195E+02  0.17770000000E+01 0.  1.
</event>
<event>
 7    1  0.3970441E-006  0.5197373E+03  0.7546771E-02  0.9356698E-01
        -11   -1    0    0    0    0  0.00000000000E+00  0.00000000000E+00  0.50000000000E+03  0.50000000000E+03  0.00000000000E+00 0. -1.
         11   -1    0    0    0    0 -0.00000000000E+00 -0.00000000000E+00 -0.50000000000E+03  0.50000000000E+03  0.00000000000E+00 0.  1.
         23    2    1    2    0    0 -0.27462325109E+01  0.28567380962E+02 -0.22536917511E+03  0.24585254126E+03  0.93960469929E+02 0.  0.
        -11    1    1    2    0    0  0.14546020909E+03 -0.26930504418E+01  0.45769676110E+03  0.48026268861E+03  0.00000000000E+00 0. -1.
         11    1    1    2    0    0 -0.14271397658E+03 -0.25874330520E+02 -0.23232758599E+03  0.27388477012E+03  0.00000000000E+00 0.  1.
        -15    1    3    3    0    0  0.18793246742E+02  0.55760337808E+02 -0.17524853256E+03  0.18487186722E+03  0.17770000000E+01 0. -1.
         15    1    3    3    0    0 -0.21539479253E+02 -0.27192956847E+02 -0.50120642546E+02  0.60980674043E+02  0.17770000000E+01 0.  1.
</event>
<event>
 7    1  0.3970441E-006  0.3855588E+03  0.7546771E-02  0.9700059E-01
        -11   -1    0    0    0    0  0.00000000000E+00  0.00000000000E+00  0.50000000000E+03  0.50000000000E+03  0.00000000000E+00 0.  1.
         11   -1    0    0    0    0 -0.00000000000E+00 -0.00000000000E+00 -0.50000000000E+03  0.50000000000E+03  0.00000000000E+00 0. -1.
         23    2    1    2    0    0 -0.67024966452E+02 -0.70694157605E+02 -0.30699120476E+03  0.33465387241E+03  0.90882366131E+02 0.  0.
        -11    1    1    2    0    0 -0.87101324936E+02  0.29065051027E+02  0.44496314307E+03  0.45433865859E+03  0.00000000000E+00 0.  1.
         11    1    1    2    0    0  0.15412629139E+03  0.41629106578E+02 -0.13797193832E+03  0.21100746900E+03  0.00000000000E+00 0. -1.
        -15    1    3    3    0    0 -0.39371630972E+01  0.17983582407E+02 -0.90159581790E+02  0.92037049100E+02  0.17770000000E+01 0.  1.
         15    1    3    3    0    0 -0.63087803355E+02 -0.88677740012E+02 -0.21683162297E+03  0.24261682331E+03  0.17770000000E+01 0. -1.
</event>
<event>
 7    1  0.3970441E-006  0.5149090E+03  0.7546771E-02  0.9367054E-01
        -11   -1    0    0    0    0  0.00000000000E+00  0.00000000000E+00  0.50000000000E+03  0.50000000000E+03  0.00000000000E+00 0.  1.
         11   -1    0    0    0    0 -0.00000000000E+00 -0.00000000000E+00 -0.50000000000E+03  0.50000000000E+03  0.00000000000E+00 0. -1.
         23    2    1    2    0    0 -0.40914381748E+01 -0.19921032081E+01 -0.16359963811E+03  0.18791817865E+03  0.92345503064E+02 0.  0.
        -11    1    1    2    0    0 -0.30413129477E+02 -0.87922451251E+02  0.47608610620E+03  0.48509101867E+03  0.00000000000E+00 0.  1.
         11    1    1    2    0    0  0.34504567652E+02  0.89914554459E+02 -0.31248646809E+03  0.32699080267E+03  0.00000000000E+00 0. -1.
        -15    1    3    3    0    0 -0.41717702201E+02  0.19489966437E+02 -0.10791034653E+03  0.11733723231E+03  0.17770000000E+01 0.  1.
         15    1    3    3    0    0  0.37626264026E+02 -0.21482069645E+02 -0.55689291578E+02  0.70580946340E+02  0.17770000000E+01 0. -1.
</event>
<event>
 7    1  0.3970441E-006  0.5377143E+03  0.7546771E-02  0.9319163E-01
        -11   -1    0    0    0    0  0.00000000000E+00  0.00000000000E+00  0.50000000000E+03  0.50000000000E+03  0.00000000000E+00 0.  1.
         11   -1    0    0    0    0 -0.00000000000E+00 -0.00000000000E+00 -0.50000000000E+03  0.50000000000E+03  0.00000000000E+00 0. -1.
         23    2    1    2    0    0  0.11239749612E+03  0.11975996401E+03  0.21664268831E+03  0.28729271442E+03  0.92883815856E+02 0.  0.
        -11    1    1    2    0    0 -0.17617076209E+02  0.24433167439E+03  0.51987135103E+02  0.25042162586E+03  0.00000000000E+00 0.  1.
         11    1    1    2    0    0 -0.94780419914E+02 -0.36409163840E+03 -0.26862982341E+03  0.46228565972E+03  0.00000000000E+00 0. -1.
        -15    1    3    3    0    0  0.86772206876E+02  0.28229976128E+02  0.83544901063E+02  0.12373057690E+03  0.17770000000E+01 0.  1.
         15    1    3    3    0    0  0.25625289247E+02  0.91529987885E+02  0.13309778724E+03  0.16356213752E+03  0.17770000000E+01 0. -1.
</event>
<event>
 7    1  0.3970441E-006  0.3443079E+03  0.7546771E-02  0.9836973E-01
        -11   -1    0    0    0    0  0.00000000000E+00  0.00000000000E+00  0.50000000000E+03  0.50000000000E+03  0.00000000000E+00 0.  1.
         11   -1    0    0    0    0 -0.00000000000E+00 -0.00000000000E+00 -0.50000000000E+03  0.50000000000E+03  0.00000000000E+00 0.  1.
         23    2    1    2    0    0 -0.16016878854E+03  0.24407148281E+03 -0.12393886096E+03  0.32972002407E+03  0.90163870099E+02 0.  0.
        -11    1    1    2    0    0 -0.31989161181E+02 -0.24285768923E+03  0.31517748587E+03  0.39917416155E+03  0.00000000000E+00 0.  1.
         11    1    1    2    0    0  0.19215794972E+03 -0.12137935832E+01 -0.19123862491E+03  0.27110581438E+03  0.00000000000E+00 0.  1.
        -15    1    3    3    0    0 -0.29077250561E+02  0.47888122233E+01  0.11994474529E+01  0.29546837832E+02  0.17770000000E+01 0. -1.
         15    1    3    3    0    0 -0.13109153798E+03  0.23928267059E+03 -0.12513830841E+03  0.30017318624E+03  0.17770000000E+01 0.  1.
</event>
<event>
 7    1  0.3970441E-006  0.5409105E+03  0.7546771E-02  0.9312652E-01
        -11   -1    0    0    0    0  0.00000000000E+00  0.00000000000E+00  0.50000000000E+03  0.50000000000E+03  0.00000000000E+00 0.  1.
         11   -1    0    0    0    0 -0.00000000000E+00 -0.00000000000E+00 -0.50000000000E+03  0.50000000000E+03  0.00000000000E+00 0. -1.
         23    2    1    2    0    0  0.97225872940E+02 -0.12217181153E+03 -0.10025212044E+02  0.18431370719E+03  0.97428003573E+02 0.  0.
        -11    1    1    2    0    0 -0.34475982210E+03  0.14617475692E+03  0.26558753731E+03  0.45908946238E+03  0.00000000000E+00 0.  1.
         11    1    1    2    0    0  0.24753394916E+03 -0.24002945384E+02 -0.25556232527E+03  0.35659683043E+03  0.00000000000E+00 0. -1.
        -15    1    3    3    0    0  0.10112015322E+02 -0.15380913533E+01  0.28722924193E+02  0.30541491157E+02  0.17770000000E+01 0.  1.
         15    1    3    3    0    0  0.87113857618E+02 -0.12063372018E+03 -0.38748136238E+02  0.15377221604E+03  0.17770000000E+01 0. -1.
</event>
<event>
 7    1  0.3970441E-006  0.5119010E+03  0.7546771E-02  0.9373567E-01
        -11   -1    0    0    0    0  0.00000000000E+00  0.00000000000E+00  0.50000000000E+03  0.50000000000E+03  0.00000000000E+00 0. -1.
         11   -1    0    0    0    0 -0.00000000000E+00 -0.00000000000E+00 -0.50000000000E+03  0.50000000000E+03  0.00000000000E+00 0. -1.
         23    2    1    2    0    0  0.73164156195E+01 -0.47537744333E+02 -0.47654073849E+03  0.48809903247E+03  0.94001186087E+02 0.  0.
        -11    1    1    2    0    0  0.21499335231E+01  0.11158092899E+03  0.37690059814E+03  0.39307631168E+03  0.00000000000E+00 0. -1.
         11    1    1    2    0    0 -0.94663491426E+01 -0.64043184654E+02  0.99640140354E+02  0.11882465584E+03  0.00000000000E+00 0. -1.
        -15    1    3    3    0    0  0.12223939572E+02  0.27574379548E+02 -0.12784655159E+03  0.13136844974E+03  0.17770000000E+01 0.  1.
         15    1    3    3    0    0 -0.49075239526E+01 -0.75112123882E+02 -0.34869418691E+03  0.35673058273E+03  0.17770000000E+01 0. -1.
</event>
<event>
 7    1  0.3970441E-006  0.5089694E+03  0.7546771E-02  0.9379961E-01
        -11   -1    0    0    0    0  0.00000000000E+00  0.00000000000E+00  0.50000000000E+03  0.50000000000E+03  0.00000000000E+00 0.  1.
         11   -1    0    0    0    0 -0.00000000000E+00 -0.00000000000E+00 -0.50000000000E+03  0.50000000000E+03  0.00000000000E+00 0. -1.
         23    2    1    2    0    0  0.39827348894E+02  0.30182541227E+02 -0.34525409863E+03  0.35994941472E+03  0.88690388586E+02 0.  0.
        -11    1    1    2    0    0 -0.44538982531E+02 -0.93814294507E+02  0.47992314330E+03  0.49103061645E+03  0.00000000000E+00 0.  1.
         11    1    1    2    0    0  0.47116336367E+01  0.63631753280E+02 -0.13466904467E+03  0.14901996883E+03  0.00000000000E+00 0. -1.
        -15    1    3    3    0    0  0.17206831411E+02  0.49288780240E+02 -0.30765491487E+03  0.31205794859E+03  0.17770000000E+01 0. -1.
         15    1    3    3    0    0  0.22620517483E+02 -0.19106239014E+02 -0.37599183754E+02  0.47891466134E+02  0.17770000000E+01 0.  1.
</event>
<event>
 7    1  0.3970441E-006  0.5119551E+03  0.7546771E-02  0.9373449E-01
        -11   -1    0    0    0    0  0.00000000000E+00  0.00000000000E+00  0.50000000000E+03  0.50000000000E+03  0.00000000000E+00 0. -1.
         11   -1    0    0    0    0 -0.00000000000E+00 -0.00000000000E+00 -0.50000000000E+03  0.50000000000E+03  0.00000000000E+00 0.  1.
         23    2    1    2    0    0  0.38907411810E+02  0.16255469732E+03  0.33501764530E+03  0.38488563401E+03  0.89231789661E+02 0.  0.
        -11    1    1    2    0    0  0.70165198369E+02  0.21019159398E+02  0.10383494939E+03  0.12706949610E+03  0.00000000000E+00 0. -1.
         11    1    1    2    0    0 -0.10907261018E+03 -0.18357385672E+03 -0.43885259469E+03  0.48804486989E+03  0.00000000000E+00 0.  1.
        -15    1    3    3    0    0  0.53095034516E+02  0.41537317046E+02  0.12743532620E+03  0.14417819354E+03  0.17770000000E+01 0.  1.
         15    1    3    3    0    0 -0.14187622706E+02  0.12101738028E+03  0.20758231910E+03  0.24070744047E+03  0.17770000000E+01 0. -1.
</event>
<event>
 7    1  0.3970441E-006  0.3782683E+03  0.7546771E-02  0.9722884E-01
        -11   -1    0    0    0    0  0.00000000000E+00  0.00000000000E+00  0.50000000000E+03  0.50000000000E+03  0.00000000000E+00 0. -1.
         11   -1    0    0    0    0 -0.00000000000E+00 -0.00000000000E+00 -0.50000000000E+03  0.50000000000E+03  0.00000000000E+00 0. -1.
         23    2    1    2    0    0 -0.91636383523E+02  0.15125732241E+02 -0.43895676476E+03  0.45762671914E+03  0.90073071336E+02 0.  0.
        -11    1    1    2    0    0 -0.43627950453E+02  0.96077676074E+02  0.30249900154E+03  0.32037472408E+03  0.00000000000E+00 0. -1.
         11    1    1    2    0    0  0.13526433398E+03 -0.11120340832E+03  0.13645776323E+03  0.22199855678E+03  0.00000000000E+00 0. -1.
        -15    1    3    3    0    0 -0.79864419676E+02  0.37231913343E+02 -0.40970277491E+03  0.41907524671E+03  0.17770000000E+01 0. -1.
         15    1    3    3    0    0 -0.11771963847E+02 -0.22106181102E+02 -0.29253989848E+02  0.38551472433E+02  0.17770000000E+01 0.  1.
</event>
<event>
 7    1  0.3970441E-006  0.5112123E+03  0.7546771E-02  0.9375065E-01
        -11   -1    0    0    0    0  0.00000000000E+00  0.00000000000E+00  0.50000000000E+03  0.50000000000E+03  0.00000000000E+00 0.  1.
         11   -1    0    0    0    0 -0.00000000000E+00 -0.00000000000E+00 -0.50000000000E+03  0.50000000000E+03  0.00000000000E+00 0. -1.
         23    2    1    2    0    0 -0.38824529248E+02  0.73174923421E+01 -0.19979629874E+03  0.22255162404E+03  0.89720536137E+02 0.  0.
        -11    1    1    2    0    0  0.56428913074E+02 -0.76903820958E+02  0.47939027429E+03  0.48878774023E+03  0.00000000000E+00 0.  1.
         11    1    1    2    0    0 -0.17604383826E+02  0.69586328616E+02 -0.27959397555E+03  0.28866063574E+03  0.00000000000E+00 0. -1.
        -15    1    3    3    0    0 -0.45213177408E+02 -0.17829396105E+02 -0.18764730052E+03  0.19384732627E+03  0.17770000000E+01 0.  1.
         15    1    3    3    0    0  0.63886481603E+01  0.25146888448E+02 -0.12148998219E+02  0.28704297773E+02  0.17770000000E+01 0. -1.
</event>
<event>
 7    1  0.3970441E-006  0.3508992E+03  0.7546771E-02  0.9813755E-01
        -11   -1    0    0    0    0  0.00000000000E+00  0.00000000000E+00  0.50000000000E+03  0.50000000000E+03  0.00000000000E+00 0.  1.
         11   -1    0    0    0    0 -0.00000000000E+00 -0.00000000000E+00 -0.50000000000E+03  0.50000000000E+03  0.00000000000E+00 0. -1.
         23    2    1    2    0    0  0.14463620937E+03  0.13558656374E+03 -0.14001190274E+03  0.25741816536E+03  0.85775460485E+02 0.  0.
        -11    1    1    2    0    0 -0.63660506354E+02 -0.57259900265E+02  0.42635795084E+03  0.43487062270E+03  0.00000000000E+00 0.  1.
         11    1    1    2    0    0 -0.80975703019E+02 -0.78326663470E+02 -0.28634604810E+03  0.30771121194E+03  0.00000000000E+00 0. -1.
        -15    1    3    3    0    0  0.13822585624E+03  0.14758434580E+03 -0.12938218580E+03  0.24006339619E+03  0.17770000000E+01 0. -1.
         15    1    3    3    0    0  0.64103531276E+01 -0.11997782064E+02 -0.10629716944E+02  0.17354769171E+02  0.17770000000E+01 0.  1.
</event>
<event>
 7    1  0.3970441E-006  0.3753630E+03  0.7546771E-02  0.9732134E-01
        -11   -1    0    0    0    0  0.00000000000E+00  0.00000000000E+00  0.50000000000E+03  0.50000000000E+03  0.00000000000E+00 0.  1.
         11   -1    0    0    0    0 -0.00000000000E+00 -0.00000000000E+00 -0.50000000000E+03  0.50000000000E+03  0.00000000000E+00 0. -1.
         23    2    1    2    0    0  0.77848683662E+02  0.18738831617E+03 -0.45405828273E+02  0.22100964782E+03  0.74891765940E+02 0.  0.
        -11    1    1    2    0    0  0.99750180704E+02 -0.11842647416E+03  0.37085291219E+03  0.40187909975E+03  0.00000000000E+00 0.  1.
         11    1    1    2    0    0 -0.17759886437E+03 -0.68961842001E+02 -0.32544708392E+03  0.37711125243E+03  0.00000000000E+00 0. -1.
        -15    1    3    3    0    0  0.45844718294E+01  0.70072470406E+02  0.11969762550E+02  0.71257290401E+02  0.17770000000E+01 0.  1.
         15    1    3    3    0    0  0.73264211833E+02  0.11731584576E+03 -0.57375590823E+02  0.14975235742E+03  0.17770000000E+01 0. -1.
</event>
<event>
 7    1  0.3970441E-006  0.4172283E+03  0.7546771E-02  0.9606823E-01
        -11   -1    0    0    0    0  0.00000000000E+00  0.00000000000E+00  0.50000000000E+03  0.50000000000E+03  0.00000000000E+00 0. -1.
         11   -1    0    0    0    0 -0.00000000000E+00 -0.00000000000E+00 -0.50000000000E+03  0.50000000000E+03  0.00000000000E+00 0. -1.
         23    2    1    2    0    0  0.18697611985E+03 -0.36839029051E+02 -0.34823713580E+03  0.40668971542E+03  0.88375553318E+02 0.  0.
        -11    1    1    2    0    0 -0.51109328278E+02  0.71689806131E+02  0.42458171790E+03  0.43361414520E+03  0.00000000000E+00 0. -1.
         11    1    1    2    0    0 -0.13586679158E+03 -0.34850777080E+02 -0.76344582105E+02  0.15969613938E+03  0.00000000000E+00 0. -1.
        -15    1    3    3    0    0  0.15324307201E+03 -0.16763285754E+02 -0.19547183732E+03  0.24895148881E+03  0.17770000000E+01 0. -1.
         15    1    3    3    0    0  0.33733047848E+02 -0.20075743297E+02 -0.15276529848E+03  0.15773822661E+03  0.17770000000E+01 0.  1.
</event>
<event>
 7    1  0.3970441E-006  0.3802932E+03  0.7546771E-02  0.9716490E-01
        -11   -1    0    0    0    0  0.00000000000E+00  0.00000000000E+00  0.50000000000E+03  0.50000000000E+03  0.00000000000E+00 0.  1.
         11   -1    0    0    0    0 -0.00000000000E+00 -0.00000000000E+00 -0.50000000000E+03  0.50000000000E+03  0.00000000000E+00 0. -1.
         23    2    1    2    0    0 -0.65944220265E+02  0.14684686060E+03  0.91424156495E+02  0.21720842769E+03  0.11361550957E+03 0.  0.
        -11    1    1    2    0    0 -0.37617639220E+02 -0.59637322592E+02  0.33140097848E+03  0.33881898642E+03  0.00000000000E+00 0.  1.
         11    1    1    2    0    0  0.10356185949E+03 -0.87209538006E+02 -0.42282513497E+03  0.44397258589E+03  0.00000000000E+00 0. -1.
        -15    1    3    3    0    0 -0.58518273258E+02  0.11482367562E+03  0.11811783462E+03  0.17482518518E+03  0.17770000000E+01 0.  1.
         15    1    3    3    0    0 -0.74259470074E+01  0.32023184973E+02 -0.26693678123E+02  0.42383242508E+02  0.17770000000E+01 0. -1.
</event>
<event>
 7    1  0.3970441E-006  0.3812459E+03  0.7546771E-02  0.9713496E-01
        -11   -1    0    0    0    0  0.00000000000E+00  0.00000000000E+00  0.50000000000E+03  0.50000000000E+03  0.00000000000E+00 0.  1.
         11   -1    0    0    0    0 -0.00000000000E+00 -0.00000000000E+00 -0.50000000000E+03  0.50000000000E+03  0.00000000000E+00 0.  1.
         23    2    1    2    0    0 -0.94354030687E+02  0.16385824431E+03 -0.31211901480E+02  0.21379386159E+03  0.94770381031E+02 0.  0.
        -11    1    1    2    0    0  0.62940761234E+02  0.26288195661E+02  0.38088242412E+03  0.38694189442E+03  0.00000000000E+00 0.  1.
         11    1    1    2    0    0  0.31413269454E+02 -0.19014643998E+03 -0.34967052264E+03  0.39926424400E+03  0.00000000000E+00 0.  1.
        -15    1    3    3    0    0 -0.38069264763E+02  0.43750046606E+02  0.32640108313E+02  0.66572290762E+02  0.17770000000E+01 0. -1.
         15    1    3    3    0    0 -0.56284765925E+02  0.12010819771E+03 -0.63852009793E+02  0.14722157082E+03  0.17770000000E+01 0.  1.
</event>
<event>
 7    1  0.3970441E-006  0.5334242E+03  0.7546771E-02  0.9327978E-01
        -11   -1    0    0    0    0  0.00000000000E+00  0.00000000000E+00  0.50000000000E+03  0.50000000000E+03  0.00000000000E+00 0. -1.
         11   -1    0    0    0    0 -0.00000000000E+00 -0.00000000000E+00 -0.50000000000E+03  0.50000000000E+03  0.00000000000E+00 0.  1.
         23    2    1    2    0    0  0.40080741091E+02 -0.86778431000E+02 -0.31683198104E+03  0.34324498819E+03  0.91091469477E+02 0.  0.
        -11    1    1    2    0    0 -0.13635194307E+03 -0.14322401314E+02  0.44597761357E+03  0.46657584096E+03  0.00000000000E+00 0. -1.
         11    1    1    2    0    0  0.96271201983E+02  0.10110083231E+03 -0.12914563252E+03  0.19017917085E+03  0.00000000000E+00 0.  1.
        -15    1    3    3    0    0  0.19797604266E+02 -0.85809906408E+02 -0.30916383710E+03  0.32146651625E+03  0.17770000000E+01 0. -1.
         15    1    3    3    0    0  0.20283136825E+02 -0.96852459207E+00 -0.76681439442E+01  0.21778471936E+02  0.17770000000E+01 0.  1.
</event>
<event>
 7    1  0.3970441E-006  0.5091187E+03  0.7546771E-02  0.9379634E-01
        -11   -1    0    0    0    0  0.00000000000E+00  0.00000000000E+00  0.50000000000E+03  0.50000000000E+03  0.00000000000E+00 0. -1.
         11   -1    0    0    0    0 -0.00000000000E+00 -0.00000000000E+00 -0.50000000000E+03  0.50000000000E+03  0.00000000000E+00 0. -1.
         23    2    1    2    0    0 -0.18856773484E+02  0.63986709852E+02 -0.30790234610E+03  0.32795602798E+03  0.91112154036E+02 0.  0.
        -11    1    1    2    0    0 -0.24958667572E+02 -0.10287817072E+03  0.47933037794E+03  0.49088131388E+03  0.00000000000E+00 0. -1.
         11    1    1    2    0    0  0.43815441056E+02  0.38891460867E+02 -0.17142803184E+03  0.18116265814E+03  0.00000000000E+00 0. -1.
        -15    1    3    3    0    0 -0.20363645706E+02  0.27889496846E+01 -0.84308010410E+01  0.22286597811E+02  0.17770000000E+01 0.  1.
         15    1    3    3    0    0  0.15068722218E+01  0.61197760167E+02 -0.29947154506E+03  0.30566943017E+03  0.17770000000E+01 0. -1.
</event>
<event>
 7    1  0.3970441E-006  0.4439218E+03  0.7546771E-02  0.9534847E-01
        -11   -1    0    0    0    0  0.00000000000E+00  0.00000000000E+00  0.50000000000E+03  0.50000000000E+03  0.00000000000E+00 0. -1.
         11   -1    0    0    0    0 -0.00000000000E+00 -0.00000000000E+00 -0.50000000000E+03  0.50000000000E+03  0.00000000000E+00 0.  1.
         23    2    1    2    0    0  0.52883402905E+02 -0.23037342537E+01 -0.35724745557E+02  0.10986271400E+03  0.89395732491E+02 0.  0.
        -11    1    1    2    0    0  0.37850704398E+03  0.93375421767E+02  0.17560811780E+03  0.42758012439E+03  0.00000000000E+00 0. -1.
         11    1    1    2    0    0 -0.43139044689E+03 -0.91071687513E+02 -0.13988337224E+03  0.46255716162E+03  0.00000000000E+00 0.  1.
        -15    1    3    3    0    0  0.22677176517E+01  0.37978387753E+02 -0.56556386247E+01  0.38505122477E+02  0.17770000000E+01 0.  1.
         15    1    3    3    0    0  0.50615685254E+02 -0.40282122007E+02 -0.30069106932E+02  0.71357591522E+02  0.17770000000E+01 0. -1.
</event>
<event>
 7    1  0.3970441E-006  0.5158282E+03  0.7546771E-02  0.9365073E-01
        -11   -1    0    0    0    0  0.00000000000E+00  0.00000000000E+00  0.50000000000E+03  0.50000000000E+03  0.00000000000E+00 0. -1.
         11   -1    0    0    0    0 -0.00000000000E+00 -0.00000000000E+00 -0.50000000000E+03  0.50000000000E+03  0.00000000000E+00 0.  1.
         23    2    1    2    0    0 -0.10716542401E+02  0.13406613392E+03  0.30747822573E+03  0.34731812435E+03  0.89434040838E+02 0.  0.
        -11    1    1    2    0    0 -0.28519602593E+02 -0.29006546881E+02  0.16352641303E+03  0.16851004496E+03  0.00000000000E+00 0. -1.
         11    1    1    2    0    0  0.39236144994E+02 -0.10505958704E+03 -0.47100463876E+03  0.48417183069E+03  0.00000000000E+00 0.  1.
        -15    1    3    3    0    0 -0.47270989925E+02  0.47797998669E+02  0.11443244964E+03  0.13272956876E+03  0.17770000000E+01 0.  1.
         15    1    3    3    0    0  0.36554447524E+02  0.86268135255E+02  0.19304577609E+03  0.21458855559E+03  0.17770000000E+01 0. -1.
</event>
<event>
 7    1  0.3970441E-006  0.5110285E+03  0.7546771E-02  0.9375465E-01
        -11   -1    0    0    0    0  0.00000000000E+00  0.00000000000E+00  0.50000000000E+03  0.50000000000E+03  0.00000000000E+00 0.  1.
         11   -1    0    0    0    0 -0.00000000000E+00 -0.00000000000E+00 -0.50000000000E+03  0.50000000000E+03  0.00000000000E+00 0.  1.
         23    2    1    2    0    0 -0.11043134328E+03 -0.27595961331E+01  0.23831553334E+03  0.27821578179E+03  0.91689862338E+02 0.  0.
        -11    1    1    2    0    0 -0.30392008243E+02  0.25841984821E+02  0.22936931006E+03  0.23281272032E+03  0.00000000000E+00 0.  1.
         11    1    1    2    0    0  0.14082335152E+03 -0.23082388688E+02 -0.46768484340E+03  0.48897149789E+03  0.00000000000E+00 0.  1.
        -15    1    3    3    0    0 -0.93935695466E+02  0.30058215107E+02  0.12592045450E+03  0.15995789999E+03  0.17770000000E+01 0.  1.
         15    1    3    3    0    0 -0.16495647814E+02 -0.32817811240E+02  0.11239507884E+03  0.11825788180E+03  0.17770000000E+01 0. -1.
</event>
<event>
 7    1  0.3970441E-006  0.5260101E+03  0.7546771E-02  0.9343420E-01
        -11   -1    0    0    0    0  0.00000000000E+00  0.00000000000E+00  0.50000000000E+03  0.50000000000E+03  0.00000000000E+00 0. -1.
         11   -1    0    0    0    0 -0.00000000000E+00 -0.00000000000E+00 -0.50000000000E+03  0.50000000000E+03  0.00000000000E+00 0.  1.
         23    2    1    2    0    0 -0.40053262631E+02  0.29540691298E+02  0.10452425349E+03  0.14730349466E+03  0.91082839661E+02 0.  0.
        -11    1    1    2    0    0  0.11432446115E+03  0.16238057846E+03  0.32246106691E+03  0.37870658081E+03  0.00000000000E+00 0. -1.
         11    1    1    2    0    0 -0.74271198517E+02 -0.19192126976E+03 -0.42698532040E+03  0.47398992453E+03  0.00000000000E+00 0.  1.
        -15    1    3    3    0    0 -0.46970055545E+02  0.60558253667E+01  0.84456740482E+01  0.48138822980E+02  0.17770000000E+01 0.  1.
         15    1    3    3    0    0  0.69167929147E+01  0.23484865931E+02  0.96078579444E+02  0.99164671678E+02  0.17770000000E+01 0. -1.
</event>
<event>
 7    1  0.3970441E-006  0.3451923E+03  0.7546771E-02  0.9833826E-01
        -11   -1    0    0    0    0  0.00000000000E+00  0.00000000000E+00  0.50000000000E+03  0.50000000000E+03  0.00000000000E+00 0. -1.
         11   -1    0    0    0    0 -0.00000000000E+00 -0.00000000000E+00 -0.50000000000E+03  0.50000000000E+03  0.00000000000E+00 0.  1.
         23    2    1    2    0    0 -0.12647155457E+03 -0.75369771247E+02 -0.38620473424E+03  0.42346117035E+03  0.92139076985E+02 0.  0.
        -11    1    1    2    0    0 -0.75144313068E+02 -0.74982188793E+02  0.28730163505E+03  0.30628618304E+03  0.00000000000E+00 0. -1.
         11    1    1    2    0    0  0.20161586763E+03  0.15035196004E+03  0.98903099197E+02  0.27025264661E+03  0.00000000000E+00 0.  1.
        -15    1    3    3    0    0 -0.44427232105E+02  0.19072663670E+02 -0.99101397830E+02  0.11028050704E+03  0.17770000000E+01 0. -1.
         15    1    3    3    0    0 -0.82044322460E+02 -0.94442434918E+02 -0.28710333641E+03  0.31318066331E+03  0.17770000000E+01 0.  1.
</event>
<event>
 7    1  0.3970441E-006  0.5262981E+03  0.7546771E-02  0.9342815E-01
        -11   -1    0    0    0    0  0.00000000000E+00  0.00000000000E+00  0.50000000000E+03  0.50000000000E+03  0.00000000000E+00 0.  1.
         11   -1    0    0    0    0 -0.00000000000E+00 -0.00000000000E+00 -0.50000000000E+03  0.50000000000E+03  0.00000000000E+00 0.  1.
         23    2    1    2    0    0  0.10340555021E+03  0.58706473384E+02  0.13264688722E+03  0.19709331115E+03  0.84329228513E+02 0.  0.
        -11    1    1    2    0    0 -0.33531145059E+02  0.43482281480E+02  0.32459321085E+03  0.32920479799E+03  0.00000000000E+00 0.  1.
         11    1    1    2    0    0 -0.69874405147E+02 -0.10218875486E+03 -0.45724009807E+03  0.47370189085E+03  0.00000000000E+00 0.  1.
        -15    1    3    3    0    0  0.82035054242E+02  0.54088039392E+02  0.47477808774E+02  0.10914470296E+03  0.17770000000E+01 0.  1.
         15    1    3    3    0    0  0.21370495964E+02  0.46184339924E+01  0.85169078447E+02  0.87948608191E+02  0.17770000000E+01 0. -1.
</event>
<event>
 7    1  0.3970441E-006  0.5245272E+03  0.7546771E-02  0.9346541E-01
        -11   -1    0    0    0    0  0.00000000000E+00  0.00000000000E+00  0.50000000000E+03  0.50000000000E+03  0.00000000000E+00 0.  1.
         11   -1    0    0    0    0 -0.00000000000E+00 -0.00000000000E+00 -0.50000000000E+03  0.50000000000E+03  0.00000000000E+00 0. -1.
         23    2    1    2    0    0  0.87306173310E+01 -0.10439196416E+02 -0.12730572801E+03  0.17077107139E+03  0.11300800830E+03 0.  0.
        -11    1    1    2    0    0  0.24476092047E+02 -0.76075688655E+02  0.46870859865E+03  0.47547275415E+03  0.00000000000E+00 0.  1.
         11    1    1    2    0    0 -0.33206709378E+02  0.86514885070E+02 -0.34140287064E+03  0.35375617446E+03  0.00000000000E+00 0. -1.
        -15    1    3    3    0    0  0.12540245351E+01 -0.53210666087E+02 -0.23448617091E+02  0.58188855767E+02  0.17770000000E+01 0.  1.
         15    1    3    3    0    0  0.74765927959E+01  0.42771469671E+02 -0.10385711092E+03  0.11258221563E+03  0.17770000000E+01 0. -1.
</event>
<event>
 7    1  0.3970441E-006  0.4125925E+03  0.7546771E-02  0.9619908E-01
        -11   -1    0    0    0    0  0.00000000000E+00  0.00000000000E+00  0.50000000000E+03  0.50000000000E+03  0.00000000000E+00 0.  1.
         11   -1    0    0    0    0 -0.00000000000E+00 -0.00000000000E+00 -0.50000000000E+03  0.50000000000E+03  0.00000000000E+00 0. -1.
         23    2    1    2    0    0  0.10296857896E+02 -0.16870954691E+01 -0.36146921823E+03  0.37238390605E+03  0.88887041724E+02 0.  0.
        -11    1    1    2    0    0 -0.85146322519E+02  0.13392829349E+03  0.43189828104E+03  0.46013346889E+03  0.00000000000E+00 0.  1.
         11    1    1    2    0    0  0.74849464623E+02 -0.13224119802E+03 -0.70429062808E+02  0.16748262505E+03  0.00000000000E+00 0. -1.
        -15    1    3    3    0    0 -0.37126494896E+02  0.59629725251E+01 -0.21377416066E+03  0.21706331602E+03  0.17770000000E+01 0. -1.
         15    1    3    3    0    0  0.47423352792E+02 -0.76500679942E+01 -0.14769505756E+03  0.15532059003E+03  0.17770000000E+01 0.  1.
</event>
<event>
 7    1  0.3970441E-006  0.3641704E+03  0.7546771E-02  0.9768624E-01
        -11   -1    0    0    0    0  0.00000000000E+00  0.00000000000E+00  0.50000000000E+03  0.50000000000E+03  0.00000000000E+00 0.  1.
         11   -1    0    0    0    0 -0.00000000000E+00 -0.00000000000E+00 -0.50000000000E+03  0.50000000000E+03  0.00000000000E+00 0. -1.
         23    2    1    2    0    0 -0.17084939106E+03  0.12485412426E+03  0.19242609731E+03  0.30254185558E+03  0.98618987437E+02 0.  0.
        -11    1    1    2    0    0  0.84068382131E+02  0.16136200953E+02  0.22910818446E+03  0.24457806534E+03  0.00000000000E+00 0.  1.
         11    1    1    2    0    0  0.86781008929E+02 -0.14099032521E+03 -0.42153428178E+03  0.45288007908E+03  0.00000000000E+00 0. -1.
        -15    1    3    3    0    0 -0.92136597945E+01 -0.50635583212E+01  0.49602305343E+02  0.50735368078E+02  0.17770000000E+01 0.  1.
         15    1    3    3    0    0 -0.16163573127E+03  0.12991768258E+03  0.14282379197E+03  0.25180648751E+03  0.17770000000E+01 0. -1.
</event>
<event>
 7    1  0.3970441E-006  0.3868954E+03  0.7546771E-02  0.9695933E-01
        -11   -1    0    0    0    0  0.00000000000E+00  0.00000000000E+00  0.50000000000E+03  0.50000000000E+03  0.00000000000E+00 0.  1.
         11   -1    0    0    0    0 -0.00000000000E+00 -0.00000000000E+00 -0.50000000000E+03  0.50000000000E+03  0.00000000000E+00 0. -1.
         23    2    1    2    0    0 -0.59290533198E+01  0.19355128042E+02 -0.33736499998E+03  0.35013202888E+03  0.91474148178E+02 0.  0.
        -11    1    1    2    0    0 -0.80699521602E+02 -0.20425119551E+03  0.38221475644E+03  0.44081638319E+03  0.00000000000E+00 0.  1.
         11    1    1    2    0    0  0.86628574922E+02  0.18489606747E+03 -0.44849756458E+02  0.20905158792E+03  0.00000000000E+00 0. -1.
        -15    1    3    3    0    0 -0.29991774706E+02 -0.22425016983E+02 -0.80852729662E+02  0.89121880363E+02  0.17770000000E+01 0.  1.
         15    1    3    3    0    0  0.24062721386E+02  0.41780145025E+02 -0.25651227032E+03  0.26101014852E+03  0.17770000000E+01 0. -1.
</event>
<event>
 7    1  0.3970441E-006  0.3962163E+03  0.7546771E-02  0.9667647E-01
        -11   -1    0    0    0    0  0.00000000000E+00  0.00000000000E+00  0.50000000000E+03  0.50000000000E+03  0.00000000000E+00 0. -1.
         11   -1    0    0    0    0 -0.00000000000E+00 -0.00000000000E+00 -0.50000000000E+03  0.50000000000E+03  0.00000000000E+00 0.  1.
         23    2    1    2    0    0 -0.93728932825E+01  0.43491965008E+03 -0.59783077438E+02  0.44847373336E+03  0.91168635014E+02 0.  0.
        -11    1    1    2    0    0 -0.32991621249E+02 -0.96441882913E+02  0.16552746499E+03  0.19439348116E+03  0.00000000000E+00 0. -1.
         11    1    1    2    0    0  0.42364514532E+02 -0.33847776717E+03 -0.10574438755E+03  0.35713278547E+03  0.00000000000E+00 0.  1.
        -15    1    3    3    0    0 -0.43714675993E+02  0.12275994919E+03 -0.13208447162E+02  0.13099083490E+03  0.17770000000E+01 0.  1.
         15    1    3    3    0    0  0.34341782711E+02  0.31215970089E+03 -0.46574630276E+02  0.31748289846E+03  0.17770000000E+01 0. -1.
</event>
<event>
 7    1  0.3970441E-006  0.5141220E+03  0.7546771E-02  0.9368754E-01
        -11   -1    0    0    0    0  0.00000000000E+00  0.00000000000E+00  0.50000000000E+03  0.50000000000E+03  0.00000000000E+00 0.  1.
         11   -1    0    0    0    0 -0.00000000000E+00 -0.00000000000E+00 -0.50000000000E+03  0.50000000000E+03  0.00000000000E+00 0.  1.
         23    2    1    2    0    0  0.32150862802E+02  0.33004811258E+02 -0.16022238144E+03  0.18979601042E+03  0.90710079446E+02 0.  0.
        -11    1    1    2    0    0 -0.18241840309E+03 -0.12239198078E+03  0.43338339840E+03  0.48587801016E+03  0.00000000000E+00 0.  1.
         11    1    1    2    0    0  0.15026754028E+03  0.89387169522E+02 -0.27316101696E+03  0.32432597942E+03  0.00000000000E+00 0.  1.
        -15    1    3    3    0    0  0.14465567452E+02  0.45655699092E+02 -0.16098355658E+03  0.16796594512E+03  0.17770000000E+01 0. -1.
         15    1    3    3    0    0  0.17685295351E+02 -0.12650887833E+02  0.76117514065E+00  0.21830065305E+02  0.17770000000E+01 0.  1.
</event>
<event>
 7    1  0.3970441E-006  0.4322117E+03  0.7546771E-02  0.9565739E-01
        -11   -1    0    0    0    0  0.00000000000E+00  0.00000000000E+00  0.50000000000E+03  0.50000000000E+03  0.00000000000E+00 0.  1.
         11   -1    0    0    0    0 -0.00000000000E+00 -0.00000000000E+00 -0.50000000000E+03  0.50000000000E+03  0.00000000000E+00 0. -1.
         23    2    1    2    0    0  0.43141490685E+03  0.92522922781E+02  0.37996481295E+02  0.45231080159E+03  0.91989214312E+02 0.  0.
        -11    1    1    2    0    0 -0.37973305328E+02 -0.95971949423E+02  0.86859907646E+02  0.13489711098E+03  0.00000000000E+00 0.  1.
         11    1    1    2    0    0 -0.39344160152E+03  0.34490266426E+01 -0.12485638894E+03  0.41279208744E+03  0.00000000000E+00 0. -1.
        -15    1    3    3    0    0  0.43104016293E+03  0.80839901492E+02  0.34188807336E+02  0.43988946795E+03  0.17770000000E+01 0.  1.
         15    1    3    3    0    0  0.37474391673E+00  0.11683021288E+02  0.38076739590E+01  0.12421333640E+02  0.17770000000E+01 0. -1.
</event>
<event>
 7    1  0.3970441E-006  0.5072813E+03  0.7546771E-02  0.9383663E-01
        -11   -1    0    0    0    0  0.00000000000E+00  0.00000000000E+00  0.50000000000E+03  0.50000000000E+03  0.00000000000E+00 0. -1.
         11   -1    0    0    0    0 -0.00000000000E+00 -0.00000000000E+00 -0.50000000000E+03  0.50000000000E+03  0.00000000000E+00 0. -1.
         23    2    1    2    0    0  0.79428288548E+02 -0.32566235870E+02 -0.30235853437E+03  0.32829616480E+03  0.94806517553E+02 0.  0.
        -11    1    1    2    0    0 -0.11358491845E+03  0.37380925613E+02  0.47798832891E+03  0.49271869243E+03  0.00000000000E+00 0. -1.
         11    1    1    2    0    0  0.34156629900E+02 -0.48146897431E+01 -0.17562979454E+03  0.17898514277E+03  0.00000000000E+00 0. -1.
        -15    1    3    3    0    0  0.23048472934E+02 -0.48212598023E+02 -0.66748440357E+02  0.85523088882E+02  0.17770000000E+01 0.  1.
         15    1    3    3    0    0  0.56379815614E+02  0.15646362153E+02 -0.23561009402E+03  0.24277307591E+03  0.17770000000E+01 0. -1.
</event>
<event>
 7    1  0.3970441E-006  0.5128676E+03  0.7546771E-02  0.9371469E-01
        -11   -1    0    0    0    0  0.00000000000E+00  0.00000000000E+00  0.50000000000E+03  0.50000000000E+03  0.00000000000E+00 0.  1.
         11   -1    0    0    0    0 -0.00000000000E+00 -0.00000000000E+00 -0.50000000000E+03  0.50000000000E+03  0.00000000000E+00 0. -1.
         23    2    1    2    0    0  0.26635781209E+02 -0.13520294448E+03  0.99918317323E+02  0.19517420766E+03  0.95498691934E+02 0.  0.
        -11    1    1    2    0    0  0.64081566702E+02 -0.22825245592E+03  0.21147928601E+03  0.31769343594E+03  0.00000000000E+00 0.  1.
         11    1    1    2    0    0 -0.90717347911E+02  0.36345540040E+03 -0.31139760334E+03  0.48713235641E+03  0.00000000000E+00 0. -1.
        -15    1    3    3    0    0 -0.37863879474E+01 -0.16199754937E+02  0.65496336972E+02  0.67599531651E+02  0.17770000000E+01 0.  1.
         15    1    3    3    0    0  0.30422169156E+02 -0.11900318954E+03  0.34421980350E+02  0.12757467600E+03  0.17770000000E+01 0. -1.
</event>
<event>
 7    1  0.3970441E-006  0.5170832E+03  0.7546771E-02  0.9362376E-01
        -11   -1    0    0    0    0  0.00000000000E+00  0.00000000000E+00  0.50000000000E+03  0.50000000000E+03  0.00000000000E+00 0.  1.
         11   -1    0    0    0    0 -0.00000000000E+00 -0.00000000000E+00 -0.50000000000E+03  0.50000000000E+03  0.00000000000E+00 0. -1.
         23    2    1    2    0    0  0.15324736871E+03  0.75360197160E+01  0.72832085253E+02  0.19289662832E+03  0.91449707315E+02 0.  0.
        -11    1    1    2    0    0  0.20990090216E+03  0.88533404670E+02  0.23065207568E+03  0.32418657049E+03  0.00000000000E+00 0.  1.
         11    1    1    2    0    0 -0.36314827086E+03 -0.96069424386E+02 -0.30348416093E+03  0.48291680119E+03  0.00000000000E+00 0. -1.
        -15    1    3    3    0    0  0.92028859503E+02 -0.56580684266E+01  0.89034603993E+02  0.12818597098E+03  0.17770000000E+01 0.  1.
         15    1    3    3    0    0  0.61218509203E+02  0.13194088143E+02 -0.16202518740E+02  0.64710657341E+02  0.17770000000E+01 0. -1.
</event>
<event>
 7    1  0.3970441E-006  0.3811362E+03  0.7546771E-02  0.9713840E-01
        -11   -1    0    0    0    0  0.00000000000E+00  0.00000000000E+00  0.50000000000E+03  0.50000000000E+03  0.00000000000E+00 0.  1.
         11   -1    0    0    0    0 -0.00000000000E+00 -0.00000000000E+00 -0.50000000000E+03  0.50000000000E+03  0.00000000000E+00 0.  1.
         23    2    1    2    0    0 -0.13879953139E+03  0.65716993676E+02 -0.12131120463E+03  0.21300595912E+03  0.84089815547E+02 0.  0.
        -11    1    1    2    0    0 -0.41546877943E+02  0.14582803666E+03  0.37883587129E+03  0.40805462467E+03  0.00000000000E+00 0.  1.
         11    1    1    2    0    0  0.18034640933E+03 -0.21154503033E+03 -0.25752466666E+03  0.37893941621E+03  0.00000000000E+00 0.  1.
        -15    1    3    3    0    0 -0.14938618200E+03  0.62710493542E+02 -0.10438586782E+03  0.19273921371E+03  0.17770000000E+01 0.  1.
         15    1    3    3    0    0  0.10586650609E+02  0.30065001334E+01 -0.16925336813E+02  0.20266745408E+02  0.17770000000E+01 0. -1.
</event>
<event>
 7    1  0.3970441E-006  0.5225329E+03  0.7546771E-02  0.9350756E-01
        -11   -1    0    0    0    0  0.00000000000E+00  0.00000000000E+00  0.50000000000E+03  0.50000000000E+03  0.00000000000E+00 0. -1.
         11   -1    0    0    0    0 -0.00000000000E+00 -0.00000000000E+00 -0.50000000000E+03  0.50000000000E+03  0.00000000000E+00 0.  1.
         23    2    1    2    0    0 -0.10365534805E+03  0.30844143058E+02 -0.22924514937E+03  0.27229151255E+03  0.99466260388E+02 0.  0.
        -11    1    1    2    0    0  0.13007647824E+03  0.78899205556E+02  0.45258135377E+03  0.47746712620E+03  0.00000000000E+00 0. -1.
         11    1    1    2    0    0 -0.26421130191E+02 -0.10974334861E+03 -0.22333620439E+03  0.25024136125E+03  0.00000000000E+00 0.  1.
        -15    1    3    3    0    0 -0.10936638973E+03  0.16451984574E+02 -0.23147688459E+03  0.25654703434E+03  0.17770000000E+01 0.  1.
         15    1    3    3    0    0  0.57110416841E+01  0.14392158484E+02  0.22317352207E+01  0.15744478208E+02  0.17770000000E+01 0. -1.
</event>
<event>
 7    1  0.3970441E-006  0.3439783E+03  0.7546771E-02  0.9838149E-01
        -11   -1    0    0    0    0  0.00000000000E+00  0.00000000000E+00  0.50000000000E+03  0.50000000000E+03  0.00000000000E+00 0. -1.
         11   -1    0    0    0    0 -0.00000000000E+00 -0.00000000000E+00 -0.50000000000E+03  0.50000000000E+03  0.00000000000E+00 0. -1.
         23    2    1    2    0    0 -0.10809362179E+03  0.11686688654E+03 -0.20899763624E+03  0.27806489123E+03  0.91093202473E+02 0.  0.
        -11    1    1    2    0    0  0.10040195625E+03  0.29391512118E+02  0.43788018186E+03  0.45020380659E+03  0.00000000000E+00 0. -1.
         11    1    1    2    0    0  0.76916655441E+01 -0.14625839866E+03 -0.22888254562E+03  0.27173130218E+03  0.00000000000E+00 0. -1.
        -15    1    3    3    0    0 -0.99014513246E+02  0.10396227639E+03 -0.11844322530E+03  0.18612894480E+03  0.17770000000E+01 0. -1.
         15    1    3    3    0    0 -0.90791085469E+01  0.12904610156E+02 -0.90554410941E+02  0.91935946426E+02  0.17770000000E+01 0.  1.
</event>
<event>
 7    1  0.3970441E-006  0.3466617E+03  0.7546771E-02  0.9828618E-01
        -11   -1    0    0    0    0  0.00000000000E+00  0.00000000000E+00  0.50000000000E+03  0.50000000000E+03  0.00000000000E+00 0.  1.
         11   -1    0    0    0    0 -0.00000000000E+00 -0.00000000000E+00 -0.50000000000E+03  0.50000000000E+03  0.00000000000E+00 0. -1.
         23    2    1    2    0    0  0.49285048286E+02  0.12591030790E+02  0.25346467241E+03  0.28009556236E+03  0.10780368200E+03 0.  0.
        -11    1    1    2    0    0  0.35544514815E+02 -0.23852112888E+03  0.12455286874E+03  0.27142063033E+03  0.00000000000E+00 0.  1.
         11    1    1    2    0    0 -0.84829563101E+02  0.22593009809E+03 -0.37801754115E+03  0.44848380731E+03  0.00000000000E+00 0. -1.
        -15    1    3    3    0    0  0.10251356180E+02  0.46553634836E+02  0.20024677851E+03  0.20585009412E+03  0.17770000000E+01 0.  1.
         15    1    3    3    0    0  0.39033692106E+02 -0.33962604045E+02  0.53217893905E+02  0.74245468236E+02  0.17770000000E+01 0. -1.
</event>
<event>
 7    1  0.3970441E-006  0.5158053E+03  0.7546771E-02  0.9365122E-01
        -11   -1    0    0    0    0  0.00000000000E+00  0.00000000000E+00  0.50000000000E+03  0.50000000000E+03  0.00000000000E+00 0. -1.
         11   -1    0    0    0    0 -0.00000000000E+00 -0.00000000000E+00 -0.50000000000E+03  0.50000000000E+03  0.00000000000E+00 0. -1.
         23    2    1    2    0    0  0.50747182347E+01 -0.20960520227E+02 -0.29585806964E+03  0.31015502972E+03  0.90548599743E+02 0.  0.
        -11    1    1    2    0    0  0.39521620601E+02  0.12912800635E+03  0.46498226747E+03  0.48419470214E+03  0.00000000000E+00 0. -1.
         11    1    1    2    0    0 -0.44596338836E+02 -0.10816748613E+03 -0.16912419783E+03  0.20565026814E+03  0.00000000000E+00 0. -1.
        -15    1    3    3    0    0  0.19061722153E+02  0.30319196199E+02 -0.77182242034E+02  0.85104988831E+02  0.17770000000E+01 0.  1.
         15    1    3    3    0    0 -0.13987003919E+02 -0.51279716426E+02 -0.21867582761E+03  0.22505004089E+03  0.17770000000E+01 0. -1.
</event>
<event>
 7    1  0.3970441E-006  0.5110659E+03  0.7546771E-02  0.9375384E-01
        -11   -1    0    0    0    0  0.00000000000E+00  0.00000000000E+00  0.50000000000E+03  0.50000000000E+03  0.00000000000E+00 0.  1.
         11   -1    0    0    0    0 -0.00000000000E+00 -0.00000000000E+00 -0.50000000000E+03  0.50000000000E+03  0.00000000000E+00 0. -1.
         23    2    1    2    0    0  0.42009694562E+01  0.98403144146E+02 -0.28279115800E+03  0.31294543061E+03  0.90902016335E+02 0.  0.
        -11    1    1    2    0    0  0.64088435105E+02 -0.13997891458E+03  0.46406370472E+03  0.48893409176E+03  0.00000000000E+00 0.  1.
         11    1    1    2    0    0 -0.68289404562E+02  0.41575770431E+02 -0.18127254673E+03  0.19812047764E+03  0.00000000000E+00 0. -1.
        -15    1    3    3    0    0 -0.20864606540E+02  0.78944867737E+02 -0.10863427987E+03  0.13591242930E+03  0.17770000000E+01 0.  1.
         15    1    3    3    0    0  0.25065575996E+02  0.19458276409E+02 -0.17415687813E+03  0.17703300130E+03  0.17770000000E+01 0. -1.
</event>
<event>
 7    1  0.3970441E-006  0.4774676E+03  0.7546771E-02  0.9451689E-01
        -11   -1    0    0    0    0  0.00000000000E+00  0.00000000000E+00  0.50000000000E+03  0.50000000000E+03  0.00000000000E+00 0.  1.
         11   -1    0    0    0    0 -0.00000000000E+00 -0.00000000000E+00 -0.50000000000E+03  0.50000000000E+03  0.00000000000E+00 0. -1.
         23    2    1    2    0    0 -0.27534950681E+02 -0.14560789104E+03 -0.44122608531E+03  0.47612340094E+03  0.10026566272E+03 0.  0.
        -11    1    1    2    0    0  0.25907044295E+02  0.94601537133E+02  0.45936235923E+03  0.46971736486E+03  0.00000000000E+00 0.  1.
         11    1    1    2    0    0  0.16279063863E+01  0.51006353905E+02 -0.18136273915E+02  0.54159234203E+02  0.00000000000E+00 0. -1.
        -15    1    3    3    0    0  0.27068469905E+02 -0.13912953837E+02 -0.39836582309E+02  0.50163566126E+02  0.17770000000E+01 0.  1.
         15    1    3    3    0    0 -0.54603420586E+02 -0.13169493720E+03 -0.40138950300E+03  0.42595983481E+03  0.17770000000E+01 0. -1.
</event>
<event>
 7    1  0.3970441E-006  0.5363231E+03  0.7546771E-02  0.9322012E-01
        -11   -1    0    0    0    0  0.00000000000E+00  0.00000000000E+00  0.50000000000E+03  0.50000000000E+03  0.00000000000E+00 0. -1.
         11   -1    0    0    0    0 -0.00000000000E+00 -0.00000000000E+00 -0.50000000000E+03  0.50000000000E+03  0.00000000000E+00 0.  1.
         23    2    1    2    0    0 -0.80548354715E+02  0.25380513892E+02 -0.12585004005E+03  0.17593171927E+03  0.89339405260E+02 0.  0.
        -11    1    1    2    0    0 -0.60030843420E+02 -0.12275872104E+03  0.44308331483E+03  0.46367685907E+03  0.00000000000E+00 0. -1.
         11    1    1    2    0    0  0.14057919814E+03  0.97378207149E+02 -0.31723327479E+03  0.36039142166E+03  0.00000000000E+00 0.  1.
        -15    1    3    3    0    0 -0.39357479326E+02  0.45713533101E+02 -0.11315313122E+03  0.12824011510E+03  0.17770000000E+01 0.  1.
         15    1    3    3    0    0 -0.41190875389E+02 -0.20333019210E+02 -0.12696908832E+02  0.47691604171E+02  0.17770000000E+01 0. -1.
</event>
<event>
 7    1  0.3970441E-006  0.5122849E+03  0.7546771E-02  0.9372733E-01
        -11   -1    0    0    0    0  0.00000000000E+00  0.00000000000E+00  0.50000000000E+03  0.50000000000E+03  0.00000000000E+00 0.  1.
         11   -1    0    0    0    0 -0.00000000000E+00 -0.00000000000E+00 -0.50000000000E+03  0.50000000000E+03  0.00000000000E+00 0. -1.
         23    2    1    2    0    0  0.34053505283E+02  0.55067777044E+02 -0.29810925763E+03  0.31942031381E+03  0.94700085002E+02 0.  0.
        -11    1    1    2    0    0 -0.12661398337E+03 -0.59175147759E+02  0.46726138630E+03  0.48771508283E+03  0.00000000000E+00 0.  1.
         11    1    1    2    0    0  0.92560478085E+02  0.41073707151E+01 -0.16915212867E+03  0.19286460336E+03  0.00000000000E+00 0. -1.
        -15    1    3    3    0    0  0.21752494604E+02 -0.24671333247E+02 -0.67730896216E+02  0.75315853158E+02  0.17770000000E+01 0.  1.
         15    1    3    3    0    0  0.12301010679E+02  0.79739110291E+02 -0.23037836141E+03  0.24410446065E+03  0.17770000000E+01 0. -1.
</event>
<event>
 7    1  0.3970441E-006  0.5346996E+03  0.7546771E-02  0.9325348E-01
        -11   -1    0    0    0    0  0.00000000000E+00  0.00000000000E+00  0.50000000000E+03  0.50000000000E+03  0.00000000000E+00 0. -1.
         11   -1    0    0    0    0 -0.00000000000E+00 -0.00000000000E+00 -0.50000000000E+03  0.50000000000E+03  0.00000000000E+00 0.  1.
         23    2    1    2    0    0 -0.11431378821E+03 -0.86652796015E+02 -0.10895883399E+03  0.20497310918E+03  0.97803878997E+02 0.  0.
        -11    1    1    2    0    0  0.64810416542E+02  0.35628558469E+03  0.29217225014E+03  0.46530036718E+03  0.00000000000E+00 0. -1.
         11    1    1    2    0    0  0.49503371672E+02 -0.26963278867E+03 -0.18321341615E+03  0.32972652364E+03  0.00000000000E+00 0.  1.
        -15    1    3    3    0    0 -0.72563662042E+02 -0.76605008579E+02 -0.12078851503E+03  0.16039587115E+03  0.17770000000E+01 0. -1.
         15    1    3    3    0    0 -0.41750126172E+02 -0.10047787436E+02  0.11829681039E+02  0.44577238028E+02  0.17770000000E+01 0.  1.
</event>
<event>
 7    1  0.3970441E-006  0.5163906E+03  0.7546771E-02  0.9363863E-01
        -11   -1    0    0    0    0  0.00000000000E+00  0.00000000000E+00  0.50000000000E+03  0.50000000000E+03  0.00000000000E+00 0.  1.
         11   -1    0    0    0    0 -0.00000000000E+00 -0.00000000000E+00 -0.50000000000E+03  0.50000000000E+03  0.00000000000E+00 0. -1.
         23    2    1    2    0    0 -0.22880358852E+01  0.33343878497E+02 -0.25266836178E+03  0.27096886797E+03  0.92009657227E+02 0.  0.
        -11    1    1    2    0    0  0.11694740124E+03 -0.16159674897E+02  0.46897781042E+03  0.48360936345E+03  0.00000000000E+00 0.  1.
         11    1    1    2    0    0 -0.11465936536E+03 -0.17184203600E+02 -0.21630944865E+03  0.24542176858E+03  0.00000000000E+00 0. -1.
        -15    1    3    3    0    0 -0.39310200766E+02  0.21232439141E+02 -0.20277167325E+03  0.20764300508E+03  0.17770000000E+01 0. -1.
         15    1    3    3    0    0  0.37022164881E+02  0.12111439356E+02 -0.49896688526E+02  0.63325862889E+02  0.17770000000E+01 0.  1.
</event>
<event>
 7    1  0.3970441E-006  0.5277641E+03  0.7546771E-02  0.9339742E-01
        -11   -1    0    0    0    0  0.00000000000E+00  0.00000000000E+00  0.50000000000E+03  0.50000000000E+03  0.00000000000E+00 0.  1.
         11   -1    0    0    0    0 -0.00000000000E+00 -0.00000000000E+00 -0.50000000000E+03  0.50000000000E+03  0.00000000000E+00 0. -1.
         23    2    1    2    0    0 -0.73530876760E+02 -0.18459355250E+03  0.33517481731E+03  0.40060390693E+03  0.93057845587E+02 0.  0.
        -11    1    1    2    0    0  0.88302853599E+02 -0.62000553374E+02  0.67292372638E+02  0.12716023745E+03  0.00000000000E+00 0.  1.
         11    1    1    2    0    0 -0.14771976839E+02  0.24659410588E+03 -0.40246718995E+03  0.47223585562E+03  0.00000000000E+00 0. -1.
        -15    1    3    3    0    0 -0.21495818374E+01 -0.71349861251E+02  0.55149309727E+02  0.90222100924E+02  0.17770000000E+01 0. -1.
         15    1    3    3    0    0 -0.71381294923E+02 -0.11324369125E+03  0.28002550758E+03  0.31038180600E+03  0.17770000000E+01 0.  1.
</event>
<event>
 7    1  0.3970441E-006  0.4178840E+03  0.7546771E-02  0.9604987E-01
        -11   -1    0    0    0    0  0.00000000000E+00  0.00000000000E+00  0.50000000000E+03  0.50000000000E+03  0.00000000000E+00 0.  1.
         11   -1    0    0    0    0 -0.00000000000E+00 -0.00000000000E+00 -0.50000000000E+03  0.50000000000E+03  0.00000000000E+00 0. -1.
         23    2    1    2    0    0  0.10776481593E+03  0.55307078007E+01 -0.62679007366E+02  0.15496700538E+03  0.91881829049E+02 0.  0.
        -11    1    1    2    0    0 -0.54557556876E+02 -0.25981942505E+03  0.36185525564E+03  0.44880049764E+03  0.00000000000E+00 0.  1.
         11    1    1    2    0    0 -0.53207259059E+02  0.25428871725E+03 -0.29917624827E+03  0.39623249698E+03  0.00000000000E+00 0. -1.
        -15    1    3    3    0    0  0.43857446953E+02 -0.40679999070E+02 -0.11515678776E+02  0.60943470234E+02  0.17770000000E+01 0. -1.
         15    1    3    3    0    0  0.63907368982E+02  0.46210706870E+02 -0.51163328590E+02  0.94023535144E+02  0.17770000000E+01 0.  1.
</event>
<event>
 7    1  0.3970441E-006  0.5169085E+03  0.7546771E-02  0.9362751E-01
        -11   -1    0    0    0    0  0.00000000000E+00  0.00000000000E+00  0.50000000000E+03  0.50000000000E+03  0.00000000000E+00 0. -1.
         11   -1    0    0    0    0 -0.00000000000E+00 -0.00000000000E+00 -0.50000000000E+03  0.50000000000E+03  0.00000000000E+00 0. -1.
         23    2    1    2    0    0  0.12988763046E+02  0.16988486651E+02 -0.21739389759E+03  0.23674818896E+03  0.91281332291E+02 0.  0.
        -11    1    1    2    0    0  0.14656069420E+02 -0.16442398321E+03  0.45401247480E+03  0.48309147571E+03  0.00000000000E+00 0. -1.
         11    1    1    2    0    0 -0.27644832466E+02  0.14743549656E+03 -0.23661857721E+03  0.28016033533E+03  0.00000000000E+00 0. -1.
        -15    1    3    3    0    0 -0.27933004399E+02  0.36734947585E+02 -0.13440608513E+03  0.14211918434E+03  0.17770000000E+01 0.  1.
         15    1    3    3    0    0  0.40921767445E+02 -0.19746460934E+02 -0.82987812461E+02  0.94629004625E+02  0.17770000000E+01 0. -1.
</event>
<event>
 7    1  0.3970441E-006  0.5295207E+03  0.7546771E-02  0.9336074E-01
        -11   -1    0    0    0    0  0.00000000000E+00  0.00000000000E+00  0.50000000000E+03  0.50000000000E+03  0.00000000000E+00 0. -1.
         11   -1    0    0    0    0 -0.00000000000E+00 -0.00000000000E+00 -0.50000000000E+03  0.50000000000E+03  0.00000000000E+00 0. -1.
         23    2    1    2    0    0 -0.21163495413E+02  0.59405034651E+01 -0.30945040637E+03  0.32405197447E+03  0.93631965902E+02 0.  0.
        -11    1    1    2    0    0 -0.12122971279E+03  0.27462531133E+02  0.45376195064E+03  0.47047926811E+03  0.00000000000E+00 0. -1.
         11    1    1    2    0    0  0.14239320821E+03 -0.33403034598E+02 -0.14431154427E+03  0.20546875741E+03  0.00000000000E+00 0. -1.
        -15    1    3    3    0    0  0.35662870745E+02  0.12413065093E+02 -0.99362658176E+02  0.10631095947E+03  0.17770000000E+01 0.  1.
         15    1    3    3    0    0 -0.56826366157E+02 -0.64725616279E+01 -0.21008774819E+03  0.21774101500E+03  0.17770000000E+01 0. -1.
</event>
<event>
 7    1  0.3970441E-006  0.3555507E+03  0.7546771E-02  0.9797697E-01
        -11   -1    0    0    0    0  0.00000000000E+00  0.00000000000E+00  0.50000000000E+03  0.50000000000E+03  0.00000000000E+00 0.  1.
         11   -1    0    0    0    0 -0.00000000000E+00 -0.00000000000E+00 -0.50000000000E+03  0.50000000000E+03  0.00000000000E+00 0. -1.
         23    2    1    2    0    0  0.17080877301E+03  0.21104095591E+02 -0.16002695777E+03  0.25107081501E+03  0.88356704020E+02 0.  0.
        -11    1    1    2    0    0 -0.45869370174E+02  0.13361766780E+03  0.40759218128E+03  0.43138041971E+03  0.00000000000E+00 0.  1.
         11    1    1    2    0    0 -0.12493940284E+03 -0.15472176339E+03 -0.24756522350E+03  0.31754876529E+03  0.00000000000E+00 0. -1.
        -15    1    3    3    0    0  0.15711332526E+03 -0.11989093855E+02 -0.12882302880E+03  0.20353590795E+03  0.17770000000E+01 0. -1.
         15    1    3    3    0    0  0.13695447754E+02  0.33093189446E+02 -0.31203928969E+02  0.47534907058E+02  0.17770000000E+01 0.  1.
</event>
<event>
 7    1  0.3970441E-006  0.5293895E+03  0.7546771E-02  0.9336348E-01
        -11   -1    0    0    0    0  0.00000000000E+00  0.00000000000E+00  0.50000000000E+03  0.50000000000E+03  0.00000000000E+00 0.  1.
         11   -1    0    0    0    0 -0.00000000000E+00 -0.00000000000E+00 -0.50000000000E+03  0.50000000000E+03  0.00000000000E+00 0. -1.
         23    2    1    2    0    0 -0.25480887266E+02  0.10760733701E+03 -0.12752838550E+03  0.18724428420E+03  0.81045161884E+02 0.  0.
        -11    1    1    2    0    0  0.12182980758E+03 -0.53746428469E+02  0.45137904619E+03  0.47061048005E+03  0.00000000000E+00 0.  1.
         11    1    1    2    0    0 -0.96348920318E+02 -0.53860908542E+02 -0.32385066069E+03  0.34214523575E+03  0.00000000000E+00 0. -1.
        -15    1    3    3    0    0 -0.13532968620E+02  0.48671842118E+02 -0.50661172306E+01  0.50802684257E+02  0.17770000000E+01 0.  1.
         15    1    3    3    0    0 -0.11947918646E+02  0.58935494893E+02 -0.12246226826E+03  0.13644159995E+03  0.17770000000E+01 0. -1.
</event>
<event>
 7    1  0.3970441E-006  0.5184252E+03  0.7546771E-02  0.9359500E-01
        -11   -1    0    0    0    0  0.00000000000E+00  0.00000000000E+00  0.50000000000E+03  0.50000000000E+03  0.00000000000E+00 0.  1.
         11   -1    0    0    0    0 -0.00000000000E+00 -0.00000000000E+00 -0.50000000000E+03  0.50000000000E+03  0.00000000000E+00 0. -1.
         23    2    1    2    0    0 -0.61425938345E+02 -0.44641989777E+02  0.18194914761E+03  0.21776492032E+03  0.92466291441E+02 0.  0.
        -11    1    1    2    0    0 -0.34993057520E+02  0.75757441226E+02  0.28884752412E+03  0.30066026702E+03  0.00000000000E+00 0.  1.
         11    1    1    2    0    0  0.96418995865E+02 -0.31115451449E+02 -0.47079667173E+03  0.48157481266E+03  0.00000000000E+00 0. -1.
        -15    1    3    3    0    0 -0.10644159915E+02 -0.24840337281E+02  0.15422972314E+03  0.15658960925E+03  0.17770000000E+01 0.  1.
         15    1    3    3    0    0 -0.50781778430E+02 -0.19801652496E+02  0.27719424465E+02  0.61175311063E+02  0.17770000000E+01 0. -1.
</event>
<event>
 7    1  0.3970441E-006  0.5160755E+03  0.7546771E-02  0.9364541E-01
        -11   -1    0    0    0    0  0.00000000000E+00  0.00000000000E+00  0.50000000000E+03  0.50000000000E+03  0.00000000000E+00 0.  1.
         11   -1    0    0    0    0 -0.00000000000E+00 -0.00000000000E+00 -0.50000000000E+03  0.50000000000E+03  0.00000000000E+00 0. -1.
         23    2    1    2    0    0 -0.29359895785E+02 -0.31564562960E+02  0.26600164167E+03  0.28316432373E+03  0.86987560875E+02 0.  0.
        -11    1    1    2    0    0  0.82372037086E+02 -0.84535531070E+02  0.20078892558E+03  0.23291114430E+03  0.00000000000E+00 0.  1.
         11    1    1    2    0    0 -0.53012141301E+02  0.11610009403E+03 -0.46679056725E+03  0.48392453196E+03  0.00000000000E+00 0. -1.
        -15    1    3    3    0    0  0.28468697801E+02 -0.12771067545E+02  0.13727904863E+03  0.14079155459E+03  0.17770000000E+01 0. -1.
         15    1    3    3    0    0 -0.57828593585E+02 -0.18793495415E+02  0.12872259304E+03  0.14237276914E+03  0.17770000000E+01 0.  1.
</event>
<event>
 7    1  0.3970441E-006  0.5112510E+03  0.7546771E-02  0.9374981E-01
        -11   -1    0    0    0    0  0.00000000000E+00  0.00000000000E+00  0.50000000000E+03  0.50000000000E+03  0.00000000000E+00 0. -1.
         11   -1    0    0    0    0 -0.00000000000E+00 -0.00000000000E+00 -0.50000000000E+03  0.50000000000E+03  0.00000000000E+00 0. -1.
         23    2    1    2    0    0  0.12147728707E+03  0.19763506476E+03  0.20382033408E+03  0.32135163679E+03  0.88925788076E+02 0.  0.
        -11    1    1    2    0    0  0.66320466706E+02  0.57379011214E+02  0.16843691380E+03  0.18989931322E+03  0.00000000000E+00 0. -1.
         11    1    1    2    0    0 -0.18779775377E+03 -0.25501407598E+03 -0.37225724788E+03  0.48874904999E+03  0.00000000000E+00 0. -1.
        -15    1    3    3    0    0  0.23008668270E+02  0.12222219406E+03  0.10000825213E+03  0.15960097668E+03  0.17770000000E+01 0.  1.
         15    1    3    3    0    0  0.98468618797E+02  0.75412870704E+02  0.10381208195E+03  0.16175066010E+03  0.17770000000E+01 0. -1.
</event>
<event>
 7    1  0.3970441E-006  0.5295644E+03  0.7546771E-02  0.9335983E-01
        -11   -1    0    0    0    0  0.00000000000E+00  0.00000000000E+00  0.50000000000E+03  0.50000000000E+03  0.00000000000E+00 0.  1.
         11   -1    0    0    0    0 -0.00000000000E+00 -0.00000000000E+00 -0.50000000000E+03  0.50000000000E+03  0.00000000000E+00 0. -1.
         23    2    1    2    0    0 -0.77588682433E+02  0.16282772286E+03  0.26627705687E+03  0.33404783047E+03  0.90286272764E+02 0.  0.
        -11    1    1    2    0    0  0.71596682164E+02 -0.17461977478E+02  0.18109589059E+03  0.19551656488E+03  0.00000000000E+00 0.  1.
         11    1    1    2    0    0  0.59920002689E+01 -0.14536574539E+03 -0.44737294746E+03  0.47043560465E+03  0.00000000000E+00 0. -1.
        -15    1    3    3    0    0 -0.12621685247E+02  0.12397292158E+03  0.14643679358E+03  0.19229010496E+03  0.17770000000E+01 0.  1.
         15    1    3    3    0    0 -0.64966997186E+02  0.38854801288E+02  0.11984026329E+03  0.14175772551E+03  0.17770000000E+01 0. -1.
</event>
<event>
 7    1  0.3970441E-006  0.3741711E+03  0.7546771E-02  0.9735955E-01
        -11   -1    0    0    0    0  0.00000000000E+00  0.00000000000E+00  0.50000000000E+03  0.50000000000E+03  0.00000000000E+00 0.  1.
         11   -1    0    0    0    0 -0.00000000000E+00 -0.00000000000E+00 -0.50000000000E+03  0.50000000000E+03  0.00000000000E+00 0. -1.
         23    2    1    2    0    0 -0.35692468125E+02 -0.12201925776E+03 -0.15961404845E+03  0.22433557147E+03  0.93204895904E+02 0.  0.
        -11    1    1    2    0    0  0.16557704222E+03 -0.33238799404E+02  0.41601663195E+03  0.44898821004E+03  0.00000000000E+00 0.  1.
         11    1    1    2    0    0 -0.12988457409E+03  0.15525805716E+03 -0.25640258350E+03  0.32667621849E+03  0.00000000000E+00 0. -1.
        -15    1    3    3    0    0 -0.35108929151E+02 -0.37628042393E+02 -0.98602378137E+01  0.52429843594E+02  0.17770000000E+01 0.  1.
         15    1    3    3    0    0 -0.58353897413E+00 -0.84391215365E+02 -0.14975381064E+03  0.17190572788E+03  0.17770000000E+01 0. -1.
</event>
<event>
 7    1  0.3970441E-006  0.5345141E+03  0.7546771E-02  0.9325730E-01
        -11   -1    0    0    0    0  0.00000000000E+00  0.00000000000E+00  0.50000000000E+03  0.50000000000E+03  0.00000000000E+00 0.  1.
         11   -1    0    0    0    0 -0.00000000000E+00 -0.00000000000E+00 -0.50000000000E+03  0.50000000000E+03  0.00000000000E+00 0.  1.
         23    2    1    2    0    0 -0.11512631531E+03 -0.39264505970E+02  0.88309558221E+02  0.17671234722E+03  0.92913431117E+02 0.  0.
        -11    1    1    2    0    0 -0.17030925698E+03  0.20157584005E+03  0.24162786008E+03  0.35780173990E+03  0.00000000000E+00 0.  1.
         11    1    1    2    0    0  0.28543557229E+03 -0.16231133408E+03 -0.32993741830E+03  0.46548591288E+03  0.00000000000E+00 0.  1.
        -15    1    3    3    0    0  0.83669024731E+01 -0.27599962350E+02  0.14057232402E+02  0.32132950231E+02  0.17770000000E+01 0. -1.
         15    1    3    3    0    0 -0.12349321778E+03 -0.11664543620E+02  0.74252325819E+02  0.14457939699E+03  0.17770000000E+01 0.  1.
</event>
<event>
 7    1  0.3970441E-006  0.5220631E+03  0.7546771E-02  0.9351752E-01
        -11   -1    0    0    0    0  0.00000000000E+00  0.00000000000E+00  0.50000000000E+03  0.50000000000E+03  0.00000000000E+00 0. -1.
         11   -1    0    0    0    0 -0.00000000000E+00 -0.00000000000E+00 -0.50000000000E+03  0.50000000000E+03  0.00000000000E+00 0.  1.
         23    2    1    2    0    0 -0.80970317382E+02  0.53119795973E+02  0.15498364695E+03  0.20436750766E+03  0.91478097630E+02 0.  0.
        -11    1    1    2    0    0 -0.53256629553E+02 -0.79420642879E+02  0.30296297017E+03  0.31769555930E+03  0.00000000000E+00 0. -1.
         11    1    1    2    0    0  0.13422694694E+03  0.26300846906E+02 -0.45794661712E+03  0.47793693304E+03  0.00000000000E+00 0.  1.
        -15    1    3    3    0    0 -0.95263937958E+02  0.60125240306E+02  0.14998820819E+03  0.18758966582E+03  0.17770000000E+01 0.  1.
         15    1    3    3    0    0  0.14293620576E+02 -0.70054443328E+01  0.49954387540E+01  0.16777841841E+02  0.17770000000E+01 0. -1.
</event>
<event>
 7    1  0.3970441E-006  0.4892735E+03  0.7546771E-02  0.9424136E-01
        -11   -1    0    0    0    0  0.00000000000E+00  0.00000000000E+00  0.50000000000E+03  0.50000000000E+03  0.00000000000E+00 0.  1.
         11   -1    0    0    0    0 -0.00000000000E+00 -0.00000000000E+00 -0.50000000000E+03  0.50000000000E+03  0.00000000000E+00 0. -1.
         23    2    1    2    0    0  0.15153293698E+03  0.19703836123E+03  0.39745888849E+03  0.47772041229E+03  0.91961282601E+02 0.  0.
        -11    1    1    2    0    0 -0.92722382130E+01  0.87278222152E+01  0.26851443874E+02  0.29717828322E+02  0.00000000000E+00 0.  1.
         11    1    1    2    0    0 -0.14226069877E+03 -0.20576618344E+03 -0.42431033236E+03  0.49256175939E+03  0.00000000000E+00 0. -1.
        -15    1    3    3    0    0  0.20461971895E+02  0.32172906125E+02  0.14829001651E+02  0.40949300377E+02  0.17770000000E+01 0. -1.
         15    1    3    3    0    0  0.13107096509E+03  0.16486545510E+03  0.38262988683E+03  0.43677111191E+03  0.17770000000E+01 0.  1.
</event>
<event>
 7    1  0.3970441E-006  0.3582421E+03  0.7546771E-02  0.9788525E-01
        -11   -1    0    0    0    0  0.00000000000E+00  0.00000000000E+00  0.50000000000E+03  0.50000000000E+03  0.00000000000E+00 0.  1.
         11   -1    0    0    0    0 -0.00000000000E+00 -0.00000000000E+00 -0.50000000000E+03  0.50000000000E+03  0.00000000000E+00 0.  1.
         23    2    1    2    0    0  0.15955093177E+03 -0.75276541113E+02  0.14972496272E+03  0.24707888863E+03  0.86644995679E+02 0.  0.
        -11    1    1    2    0    0 -0.44036716118E+02  0.44382021587E+02  0.29029089571E+03  0.29694747067E+03  0.00000000000E+00 0.  1.
         11    1    1    2    0    0 -0.11551421565E+03  0.30894519526E+02 -0.44001585842E+03  0.45597364070E+03  0.00000000000E+00 0.  1.
        -15    1    3    3    0    0  0.41725475016E+02 -0.74426322755E+01  0.88132299987E+02  0.97810367909E+02  0.17770000000E+01 0. -1.
         15    1    3    3    0    0  0.11782545675E+03 -0.67833908837E+02  0.61592662728E+02  0.14926852072E+03  0.17770000000E+01 0.  1.
</event>
<event>
 7    1  0.3970441E-006  0.5342031E+03  0.7546771E-02  0.9326371E-01
        -11   -1    0    0    0    0  0.00000000000E+00  0.00000000000E+00  0.50000000000E+03  0.50000000000E+03  0.00000000000E+00 0. -1.
         11   -1    0    0    0    0 -0.00000000000E+00 -0.00000000000E+00 -0.50000000000E+03  0.50000000000E+03  0.00000000000E+00 0. -1.
         23    2    1    2    0    0 -0.92408098865E+02 -0.64070692288E+02  0.11914110401E+02  0.14508346232E+03  0.90900795739E+02 0.  0.
        -11    1    1    2    0    0 -0.91530731006E+02 -0.22296360872E+03  0.30548880679E+03  0.38911959165E+03  0.00000000000E+00 0. -1.
         11    1    1    2    0    0  0.18393882987E+03  0.28703430101E+03 -0.31740291719E+03  0.46579694603E+03  0.00000000000E+00 0. -1.
        -15    1    3    3    0    0  0.11162332673E+02 -0.54501980689E+01  0.22321495866E+02  0.25606820115E+02  0.17770000000E+01 0.  1.
         15    1    3    3    0    0 -0.10357043154E+03 -0.58620494219E+02 -0.10407385465E+02  0.11947664221E+03  0.17770000000E+01 0. -1.
</event>
<event>
 7    1  0.3970441E-006  0.3627821E+03  0.7546771E-02  0.9773248E-01
        -11   -1    0    0    0    0  0.00000000000E+00  0.00000000000E+00  0.50000000000E+03  0.50000000000E+03  0.00000000000E+00 0. -1.
         11   -1    0    0    0    0 -0.00000000000E+00 -0.00000000000E+00 -0.50000000000E+03  0.50000000000E+03  0.00000000000E+00 0.  1.
         23    2    1    2    0    0 -0.24192984097E+02 -0.45532478279E+02 -0.33324781848E+03  0.35184753804E+03  0.10041949233E+03 0.  0.
        -11    1    1    2    0    0  0.26743697692E+03  0.59806560810E+02  0.29300818154E+03  0.40118967558E+03  0.00000000000E+00 0. -1.
         11    1    1    2    0    0 -0.24324399282E+03 -0.14274082532E+02  0.40239636939E+02  0.24696278638E+03  0.00000000000E+00 0.  1.
        -15    1    3    3    0    0  0.33714880211E+02 -0.86273862815E+01 -0.53938939482E+02  0.64215978254E+02  0.17770000000E+01 0. -1.
         15    1    3    3    0    0 -0.57907864308E+02 -0.36905091997E+02 -0.27930887900E+03  0.28763155978E+03  0.17770000000E+01 0.  1.
</event>
<event>
 7    1  0.3970441E-006  0.4114167E+03  0.7546771E-02  0.9623257E-01
        -11   -1    0    0    0    0  0.00000000000E+00  0.00000000000E+00  0.50000000000E+03  0.50000000000E+03  0.00000000000E+00 0.  1.
         11   -1    0    0    0    0 -0.00000000000E+00 -0.00000000000E+00 -0.50000000000E+03  0.50000000000E+03  0.00000000000E+00 0. -1.
         23    2    1    2    0    0  0.64380259372E+01  0.43538532305E+02 -0.42649801902E+03  0.43850533351E+03  0.91920157312E+02 0.  0.
        -11    1    1    2    0    0  0.88154999090E+02  0.86543136550E+02  0.37151825480E+03  0.39151862279E+03  0.00000000000E+00 0.  1.
         11    1    1    2    0    0 -0.94593025027E+02 -0.13008166885E+03  0.54979764222E+02  0.16997604369E+03  0.00000000000E+00 0. -1.
        -15    1    3    3    0    0 -0.58866975208E+01 -0.28115727808E+02 -0.13927503001E+03  0.14221757652E+03  0.17770000000E+01 0.  1.
         15    1    3    3    0    0  0.12324723458E+02  0.71654260113E+02 -0.28722298900E+03  0.29628775699E+03  0.17770000000E+01 0. -1.
</event>
<event>
 7    1  0.3970441E-006  0.3972887E+03  0.7546771E-02  0.9664446E-01
        -11   -1    0    0    0    0  0.00000000000E+00  0.00000000000E+00  0.50000000000E+03  0.50000000000E+03  0.00000000000E+00 0.  1.
         11   -1    0    0    0    0 -0.00000000000E+00 -0.00000000000E+00 -0.50000000000E+03  0.50000000000E+03  0.00000000000E+00 0. -1.
         23    2    1    2    0    0 -0.10905626595E+03 -0.12178243540E+03 -0.37742796593E+01  0.18877138595E+03  0.94319458490E+02 0.  0.
        -11    1    1    2    0    0  0.25558698660E+02  0.65127195253E+02  0.39809816711E+03  0.40419914559E+03  0.00000000000E+00 0.  1.
         11    1    1    2    0    0  0.83497567294E+02  0.56655240146E+02 -0.39432388745E+03  0.40702946846E+03  0.00000000000E+00 0. -1.
        -15    1    3    3    0    0 -0.88750222934E+02 -0.98971037293E+02  0.36809541409E+02  0.13794915136E+03  0.17770000000E+01 0.  1.
         15    1    3    3    0    0 -0.20306043020E+02 -0.22811398106E+02 -0.40583821069E+02  0.50822234585E+02  0.17770000000E+01 0. -1.
</event>
<event>
 7    1  0.3970441E-006  0.4886672E+03  0.7546771E-02  0.9425531E-01
        -11   -1    0    0    0    0  0.00000000000E+00  0.00000000000E+00  0.50000000000E+03  0.50000000000E+03  0.00000000000E+00 0. -1.
         11   -1    0    0    0    0 -0.00000000000E+00 -0.00000000000E+00 -0.50000000000E+03  0.50000000000E+03  0.00000000000E+00 0.  1.
         23    2    1    2    0    0  0.50875012623E+02 -0.66422536952E+02  0.45870043751E+03  0.47541804810E+03  0.92822458309E+02 0.  0.
        -11    1    1    2    0    0  0.17986675512E+02 -0.10840910151E+01  0.25304192502E+02  0.31064415454E+02  0.00000000000E+00 0. -1.
         11    1    1    2    0    0 -0.68861688135E+02  0.67506627968E+02 -0.48400463001E+03  0.49351753645E+03  0.00000000000E+00 0.  1.
        -15    1    3    3    0    0  0.12804059564E+02 -0.79748408986E+02  0.24621445630E+03  0.25913021610E+03  0.17770000000E+01 0. -1.
         15    1    3    3    0    0  0.38070953059E+02  0.13325872033E+02  0.21248598121E+03  0.21628783200E+03  0.17770000000E+01 0.  1.
</event>
<event>
 7    1  0.3970441E-006  0.3482557E+03  0.7546771E-02  0.9823001E-01
        -11   -1    0    0    0    0  0.00000000000E+00  0.00000000000E+00  0.50000000000E+03  0.50000000000E+03  0.00000000000E+00 0.  1.
         11   -1    0    0    0    0 -0.00000000000E+00 -0.00000000000E+00 -0.50000000000E+03  0.50000000000E+03  0.00000000000E+00 0. -1.
         23    2    1    2    0    0 -0.36624518015E+03 -0.77640349719E+02 -0.20025264485E+03  0.43450166180E+03  0.92341845608E+02 0.  0.
        -11    1    1    2    0    0  0.13396472585E+03 -0.34398496013E+02  0.26560329637E+03  0.29945770210E+03  0.00000000000E+00 0.  1.
         11    1    1    2    0    0  0.23228045430E+03  0.11203884573E+03 -0.65350651525E+02  0.26604063610E+03  0.00000000000E+00 0. -1.
        -15    1    3    3    0    0 -0.33421708774E+02  0.14094345734E+01 -0.51582319902E+02  0.61505207736E+02  0.17770000000E+01 0. -1.
         15    1    3    3    0    0 -0.33282347138E+03 -0.79049784292E+02 -0.14867032495E+03  0.37299645406E+03  0.17770000000E+01 0.  1.
</event>
<event>
 7    1  0.3970441E-006  0.3614174E+03  0.7546771E-02  0.9777815E-01
        -11   -1    0    0    0    0  0.00000000000E+00  0.00000000000E+00  0.50000000000E+03  0.50000000000E+03  0.00000000000E+00 0. -1.
         11   -1    0    0    0    0 -0.00000000000E+00 -0.00000000000E+00 -0.50000000000E+03  0.50000000000E+03  0.00000000000E+00 0. -1.
         23    2    1    2    0    0 -0.52593089285E+02 -0.21818188919E+03  0.18974988986E+02  0.24288743742E+03  0.90911425229E+02 0.  0.
        -11    1    1    2    0    0 -0.54035715662E+02 -0.34691164276E+02  0.31692095241E+03  0.32336082868E+03  0.00000000000E+00 0. -1.
         11    1    1    2    0    0  0.10662880495E+03  0.25287305347E+03 -0.33589594140E+03  0.43375173390E+03  0.00000000000E+00 0. -1.
        -15    1    3    3    0    0  0.10807154529E+02  0.20430664482E+01 -0.54691399922E+01  0.12411201827E+02  0.17770000000E+01 0.  1.
         15    1    3    3    0    0 -0.63400243815E+02 -0.22022495564E+03  0.24444128978E+02  0.23047623559E+03  0.17770000000E+01 0. -1.
</event>
<event>
 7    1  0.3970441E-006  0.5222751E+03  0.7546771E-02  0.9351302E-01
        -11   -1    0    0    0    0  0.00000000000E+00  0.00000000000E+00  0.50000000000E+03  0.50000000000E+03  0.00000000000E+00 0. -1.
         11   -1    0    0    0    0 -0.00000000000E+00 -0.00000000000E+00 -0.50000000000E+03  0.50000000000E+03  0.00000000000E+00 0.  1.
         23    2    1    2    0    0  0.44752529913E+02  0.78483543962E+02  0.17278975206E+03  0.21425962041E+03  0.88816839142E+02 0.  0.
        -11    1    1    2    0    0  0.99116330775E+02 -0.71605326038E+02  0.28270507149E+03  0.30801546583E+03  0.00000000000E+00 0. -1.
         11    1    1    2    0    0 -0.14386886069E+03 -0.68782179239E+01 -0.45549482354E+03  0.47772491377E+03  0.00000000000E+00 0.  1.
        -15    1    3    3    0    0  0.37847728742E+02 -0.88855960473E+01  0.57401354105E+02  0.69350397044E+02  0.17770000000E+01 0.  1.
         15    1    3    3    0    0  0.69048011707E+01  0.87369140009E+02  0.11538839795E+03  0.14490922336E+03  0.17770000000E+01 0. -1.
</event>
<event>
 7    1  0.3970441E-006  0.5284483E+03  0.7546771E-02  0.9338312E-01
        -11   -1    0    0    0    0  0.00000000000E+00  0.00000000000E+00  0.50000000000E+03  0.50000000000E+03  0.00000000000E+00 0.  1.
         11   -1    0    0    0    0 -0.00000000000E+00 -0.00000000000E+00 -0.50000000000E+03  0.50000000000E+03  0.00000000000E+00 0.  1.
         23    2    1    2    0    0 -0.22522159811E+02  0.84838451348E+02 -0.35666334117E+03  0.37900427971E+03  0.93438185965E+02 0.  0.
        -11    1    1    2    0    0 -0.54861809796E+02 -0.19125629658E+03  0.42751867514E+03  0.47155170104E+03  0.00000000000E+00 0.  1.
         11    1    1    2    0    0  0.77383969607E+02  0.10641784524E+03 -0.70855333971E+02  0.14944401925E+03  0.00000000000E+00 0.  1.
        -15    1    3    3    0    0  0.98123655064E+01  0.64905609119E+02 -0.31824405800E+03  0.32494839405E+03  0.17770000000E+01 0.  1.
         15    1    3    3    0    0 -0.32334525318E+02  0.19932842230E+02 -0.38419283168E+02  0.54055885665E+02  0.17770000000E+01 0. -1.
</event>
<event>
 7    1  0.3970441E-006  0.3640088E+03  0.7546771E-02  0.9769161E-01
        -11   -1    0    0    0    0  0.00000000000E+00  0.00000000000E+00  0.50000000000E+03  0.50000000000E+03  0.00000000000E+00 0. -1.
         11   -1    0    0    0    0 -0.00000000000E+00 -0.00000000000E+00 -0.50000000000E+03  0.50000000000E+03  0.00000000000E+00 0. -1.
         23    2    1    2    0    0 -0.41699389761E+02  0.51384762508E+01 -0.33108014630E+03  0.34586376832E+03  0.90787884230E+02 0.  0.
        -11    1    1    2    0    0 -0.18052575102E+03 -0.10129852041E+03  0.35486956683E+03  0.41083250417E+03  0.00000000000E+00 0. -1.
         11    1    1    2    0    0  0.22222514079E+03  0.96160044156E+02 -0.23789420533E+02  0.24330372751E+03  0.00000000000E+00 0. -1.
        -15    1    3    3    0    0 -0.51923279683E+02  0.25537069310E+02 -0.30787843972E+03  0.31327377843E+03  0.17770000000E+01 0. -1.
         15    1    3    3    0    0  0.10223889922E+02 -0.20398593060E+02 -0.23201706582E+02  0.32589989894E+02  0.17770000000E+01 0.  1.
</event>
<event>
 7    1  0.3970441E-006  0.5273845E+03  0.7546771E-02  0.9340537E-01
        -11   -1    0    0    0    0  0.00000000000E+00  0.00000000000E+00  0.50000000000E+03  0.50000000000E+03  0.00000000000E+00 0.  1.
         11   -1    0    0    0    0 -0.00000000000E+00 -0.00000000000E+00 -0.50000000000E+03  0.50000000000E+03  0.00000000000E+00 0.  1.
         23    2    1    2    0    0 -0.47336562173E+02 -0.24885466586E+02  0.28041514676E+03  0.29943027004E+03  0.90364791358E+02 0.  0.
        -11    1    1    2    0    0 -0.40918733029E+02  0.14998012221E+03  0.16671762093E+03  0.22795426054E+03  0.00000000000E+00 0.  1.
         11    1    1    2    0    0  0.88255295201E+02 -0.12509465563E+03 -0.44713276769E+03  0.47261546942E+03  0.00000000000E+00 0.  1.
        -15    1    3    3    0    0 -0.95412992279E+01  0.33351260053E+02  0.76590073583E+02  0.84098394982E+02  0.17770000000E+01 0. -1.
         15    1    3    3    0    0 -0.37795262945E+02 -0.58236726639E+02  0.20382507318E+03  0.21533187506E+03  0.17770000000E+01 0.  1.
</event>
<event>
 7    1  0.3970441E-006  0.5139643E+03  0.7546771E-02  0.9369094E-01
        -11   -1    0    0    0    0  0.00000000000E+00  0.00000000000E+00  0.50000000000E+03  0.50000000000E+03  0.00000000000E+00 0.  1.
         11   -1    0    0    0    0 -0.00000000000E+00 -0.00000000000E+00 -0.50000000000E+03  0.50000000000E+03  0.00000000000E+00 0.  1.
         23    2    1    2    0    0 -0.28534059938E+02 -0.42483224004E+02 -0.26794837684E+03  0.28758738338E+03  0.91055771533E+02 0.  0.
        -11    1    1    2    0    0  0.97847831743E+02 -0.14166276397E+02  0.47587372672E+03  0.48603568321E+03  0.00000000000E+00 0.  1.
         11    1    1    2    0    0 -0.69313771805E+02  0.56649500401E+02 -0.20792534988E+03  0.22637693341E+03  0.00000000000E+00 0.  1.
        -15    1    3    3    0    0  0.23946756865E+02 -0.44446320830E+02 -0.10806240035E+03  0.11928773071E+03  0.17770000000E+01 0.  1.
         15    1    3    3    0    0 -0.52480816802E+02  0.19630968260E+01 -0.15988597649E+03  0.16829965267E+03  0.17770000000E+01 0. -1.
</event>
<event>
 7    1  0.3970441E-006  0.4130007E+03  0.7546771E-02  0.9618749E-01
        -11   -1    0    0    0    0  0.00000000000E+00  0.00000000000E+00  0.50000000000E+03  0.50000000000E+03  0.00000000000E+00 0. -1.
         11   -1    0    0    0    0 -0.00000000000E+00 -0.00000000000E+00 -0.50000000000E+03  0.50000000000E+03  0.00000000000E+00 0.  1.
         23    2    1    2    0    0 -0.24051573775E+03  0.25096549806E+03  0.16185241661E+03  0.39517204654E+03  0.95567987722E+02 0.  0.
        -11    1    1    2    0    0  0.57480599628E+02 -0.15396771509E+02  0.15716876966E+03  0.16805684177E+03  0.00000000000E+00 0. -1.
         11    1    1    2    0    0  0.18303513812E+03 -0.23556872655E+03 -0.31902118628E+03  0.43677111170E+03  0.00000000000E+00 0.  1.
        -15    1    3    3    0    0 -0.20834207272E+03  0.16007485494E+03  0.13316830097E+03  0.29456295179E+03  0.17770000000E+01 0. -1.
         15    1    3    3    0    0 -0.32173665029E+02  0.90890643117E+02  0.28684115643E+02  0.10060909475E+03  0.17770000000E+01 0.  1.
</event>
<event>
 7    1  0.3970441E-006  0.5305237E+03  0.7546771E-02  0.9333987E-01
        -11   -1    0    0    0    0  0.00000000000E+00  0.00000000000E+00  0.50000000000E+03  0.50000000000E+03  0.00000000000E+00 0.  1.
         11   -1    0    0    0    0 -0.00000000000E+00 -0.00000000000E+00 -0.50000000000E+03  0.50000000000E+03  0.00000000000E+00 0. -1.
         23    2    1    2    0    0 -0.29552562489E+02 -0.24288777081E+01 -0.38921389683E+02  0.10754130675E+03  0.95765362667E+02 0.  0.
        -11    1    1    2    0    0  0.18409155109E+03  0.11231888510E+03  0.41701655525E+03  0.46947634497E+03  0.00000000000E+00 0.  1.
         11    1    1    2    0    0 -0.15453898860E+03 -0.10989000740E+03 -0.37809516557E+03  0.42298234827E+03  0.00000000000E+00 0. -1.
        -15    1    3    3    0    0  0.35159001241E+01 -0.45538327099E+02 -0.21007827548E+02  0.50304943454E+02  0.17770000000E+01 0.  1.
         15    1    3    3    0    0 -0.33068462613E+02  0.43109449391E+02 -0.17913562135E+02  0.57236363299E+02  0.17770000000E+01 0. -1.
</event>
<event>
 7    1  0.3970441E-006  0.5109567E+03  0.7546771E-02  0.9375622E-01
        -11   -1    0    0    0    0  0.00000000000E+00  0.00000000000E+00  0.50000000000E+03  0.50000000000E+03  0.00000000000E+00 0. -1.
         11   -1    0    0    0    0 -0.00000000000E+00 -0.00000000000E+00 -0.50000000000E+03  0.50000000000E+03  0.00000000000E+00 0. -1.
         23    2    1    2    0    0  0.64751697233E+01  0.43888390757E+02 -0.40307418096E+03  0.41579899930E+03  0.91934181886E+02 0.  0.
        -11    1    1    2    0    0 -0.56001334258E+02 -0.65573804576E+02  0.48138058085E+03  0.48904328735E+03  0.00000000000E+00 0. -1.
         11    1    1    2    0    0  0.49526164534E+02  0.21685413819E+02 -0.78306399890E+02  0.95157713348E+02  0.00000000000E+00 0. -1.
        -15    1    3    3    0    0 -0.35671429961E+02 -0.49898522656E+01 -0.17960921914E+03  0.18319382869E+03  0.17770000000E+01 0.  1.
         15    1    3    3    0    0  0.42146599684E+02  0.48878243023E+02 -0.22346496182E+03  0.23260517061E+03  0.17770000000E+01 0. -1.
</event>
<event>
 7    1  0.3970441E-006  0.3384599E+03  0.7546771E-02  0.9858044E-01
        -11   -1    0    0    0    0  0.00000000000E+00  0.00000000000E+00  0.50000000000E+03  0.50000000000E+03  0.00000000000E+00 0.  1.
         11   -1    0    0    0    0 -0.00000000000E+00 -0.00000000000E+00 -0.50000000000E+03  0.50000000000E+03  0.00000000000E+00 0.  1.
         23    2    1    2    0    0 -0.11336479825E+03  0.19939449334E+03 -0.23316180368E+03  0.33951150827E+03  0.91070830123E+02 0.  0.
        -11    1    1    2    0    0  0.11360206797E+03  0.49104746652E+02  0.36057898298E+03  0.38122684711E+03  0.00000000000E+00 0.  1.
         11    1    1    2    0    0 -0.23726972154E+00 -0.24849923999E+03 -0.12741717931E+03  0.27926164462E+03  0.00000000000E+00 0.  1.
        -15    1    3    3    0    0 -0.11028446717E+03  0.14062079845E+03 -0.13096859768E+03  0.22156895983E+03  0.17770000000E+01 0.  1.
         15    1    3    3    0    0 -0.30803310805E+01  0.58773694887E+02 -0.10219320600E+03  0.11794254844E+03  0.17770000000E+01 0. -1.
</event>
<event>
 7    1  0.3970441E-006  0.5136291E+03  0.7546771E-02  0.9369820E-01
        -11   -1    0    0    0    0  0.00000000000E+00  0.00000000000E+00  0.50000000000E+03  0.50000000000E+03  0.00000000000E+00 0.  1.
         11   -1    0    0    0    0 -0.00000000000E+00 -0.00000000000E+00 -0.50000000000E+03  0.50000000000E+03  0.00000000000E+00 0.  1.
         23    2    1    2    0    0  0.57102720954E+02 -0.15800564632E+03 -0.44500456630E+03  0.48637090917E+03  0.10149429663E+03 0.  0.
        -11    1    1    2    0    0 -0.34451416071E+02  0.71247155242E+02  0.40968209361E+03  0.41725588675E+03  0.00000000000E+00 0.  1.
         11    1    1    2    0    0 -0.22651304882E+02  0.86758491083E+02  0.35322472687E+02  0.96373204079E+02  0.00000000000E+00 0.  1.
        -15    1    3    3    0    0  0.62113062345E+01 -0.30908521646E+02 -0.14741890302E+02  0.34848215079E+02  0.17770000000E+01 0. -1.
         15    1    3    3    0    0  0.50891414719E+02 -0.12709712468E+03 -0.43026267600E+03  0.45152269409E+03  0.17770000000E+01 0.  1.
</event>
<event>
 7    1  0.3970441E-006  0.5195495E+03  0.7546771E-02  0.9357098E-01
        -11   -1    0    0    0    0  0.00000000000E+00  0.00000000000E+00  0.50000000000E+03  0.50000000000E+03  0.00000000000E+00 0.  1.
         11   -1    0    0    0    0 -0.00000000000E+00 -0.00000000000E+00 -0.50000000000E+03  0.50000000000E+03  0.00000000000E+00 0.  1.
         23    2    1    2    0    0 -0.41438927908E+02  0.21656303469E+02 -0.28422606909E+03  0.30233581847E+03  0.91849379693E+02 0.  0.
        -11    1    1    2    0    0  0.43739912278E+02  0.91497094327E+02  0.46962512454E+03  0.48045047174E+03  0.00000000000E+00 0.  1.
         11    1    1    2    0    0 -0.23009843705E+01 -0.11315339780E+03 -0.18539905545E+03  0.21721370979E+03  0.00000000000E+00 0.  1.
        -15    1    3    3    0    0 -0.52345076627E+02  0.46649606263E+02 -0.24264733173E+03  0.25258083486E+03  0.17770000000E+01 0.  1.
         15    1    3    3    0    0  0.10906148719E+02 -0.24993302794E+02 -0.41578737358E+02  0.49754983607E+02  0.17770000000E+01 0. -1.
</event>
<event>
 6    1  0.3970441E-006  0.3726970E+03  0.7546771E-02  0.9740701E-01
        -11   -1    0    0    0    0  0.00000000000E+00  0.00000000000E+00  0.50000000000E+03  0.50000000000E+03  0.00000000000E+00 0. -1.
         11   -1    0    0    0    0 -0.00000000000E+00 -0.00000000000E+00 -0.50000000000E+03  0.50000000000E+03  0.00000000000E+00 0.  1.
        -11    1    1    2    0    0  0.80107086482E+02 -0.57492518871E+02  0.38878166283E+03  0.40109065856E+03  0.00000000000E+00 0. -1.
         11    1    1    2    0    0 -0.38867340777E+02 -0.96757683233E+02 -0.26435960486E+03  0.28418078774E+03  0.00000000000E+00 0.  1.
        -15    1    1    2    0    0  0.22393539955E+02  0.64420479426E+02 -0.17920553996E+03  0.19175310189E+03  0.17770000000E+01 0.  1.
         15    1    1    2    0    0 -0.63633285661E+02  0.89829722678E+02  0.54783481990E+02  0.12297545181E+03  0.17770000000E+01 0. -1.
</event>
<event>
 7    1  0.3970441E-006  0.4698153E+03  0.7546771E-02  0.9470005E-01
        -11   -1    0    0    0    0  0.00000000000E+00  0.00000000000E+00  0.50000000000E+03  0.50000000000E+03  0.00000000000E+00 0.  1.
         11   -1    0    0    0    0 -0.00000000000E+00 -0.00000000000E+00 -0.50000000000E+03  0.50000000000E+03  0.00000000000E+00 0.  1.
         23    2    1    2    0    0 -0.88245280251E+02 -0.25703876216E+02 -0.44681792383E+03  0.46511332706E+03  0.90753684324E+02 0.  0.
        -11    1    1    2    0    0  0.10720169541E+03 -0.37965330066E+02  0.45403801911E+03  0.46806419708E+03  0.00000000000E+00 0.  1.
         11    1    1    2    0    0 -0.18956415162E+02  0.63669206282E+02 -0.72200952834E+01  0.66822475862E+02  0.00000000000E+00 0.  1.
        -15    1    3    3    0    0 -0.40688714788E+01 -0.41542268662E+02 -0.11296308177E+03  0.12044140224E+03  0.17770000000E+01 0.  1.
         15    1    3    3    0    0 -0.84176408773E+02  0.15838392446E+02 -0.33385484206E+03  0.34467192482E+03  0.17770000000E+01 0. -1.
</event>
<event>
 7    1  0.3970441E-006  0.3940278E+03  0.7546771E-02  0.9674213E-01
        -11   -1    0    0    0    0  0.00000000000E+00  0.00000000000E+00  0.50000000000E+03  0.50000000000E+03  0.00000000000E+00 0.  1.
         11   -1    0    0    0    0 -0.00000000000E+00 -0.00000000000E+00 -0.50000000000E+03  0.50000000000E+03  0.00000000000E+00 0. -1.
         23    2    1    2    0    0  0.78756240185E+02 -0.13632554981E+03  0.66652610808E+02  0.19361217340E+03  0.90861995696E+02 0.  0.
        -11    1    1    2    0    0 -0.18528463999E+03 -0.89033197938E+02  0.29960935802E+03  0.36334979780E+03  0.00000000000E+00 0.  1.
         11    1    1    2    0    0  0.10652839980E+03  0.22535874775E+03 -0.36626196883E+03  0.44303802880E+03  0.00000000000E+00 0. -1.
        -15    1    3    3    0    0  0.16650932234E+02 -0.33174233127E+02  0.62994950094E+02  0.73138941434E+02  0.17770000000E+01 0. -1.
         15    1    3    3    0    0  0.62105307952E+02 -0.10315131668E+03  0.36576607136E+01  0.12047323196E+03  0.17770000000E+01 0.  1.
</event>
<event>
 7    1  0.3970441E-006  0.3420606E+03  0.7546771E-02  0.9845017E-01
        -11   -1    0    0    0    0  0.00000000000E+00  0.00000000000E+00  0.50000000000E+03  0.50000000000E+03  0.00000000000E+00 0.  1.
         11   -1    0    0    0    0 -0.00000000000E+00 -0.00000000000E+00 -0.50000000000E+03  0.50000000000E+03  0.00000000000E+00 0.  1.
         23    2    1    2    0    0 -0.85275517274E+02  0.79780215254E+02 -0.24301836211E+03  0.28885457892E+03  0.10364481099E+03 0.  0.
        -11    1    1    2    0    0 -0.10991473266E+03  0.50086559829E+01  0.42011546552E+03  0.43428485981E+03  0.00000000000E+00 0.  1.
         11    1    1    2    0    0  0.19519024994E+03 -0.84788871237E+02 -0.17709710341E+03  0.27686056128E+03  0.00000000000E+00 0.  1.
        -15    1    3    3    0    0 -0.62274274120E+02 -0.49032922849E+01 -0.63847273136E+02  0.89340693462E+02  0.17770000000E+01 0. -1.
         15    1    3    3    0    0 -0.23001243155E+02  0.84683507539E+02 -0.17917108897E+03  0.19951388545E+03  0.17770000000E+01 0.  1.
</event>
<event>
 7    1  0.3970441E-006  0.5174263E+03  0.7546771E-02  0.9361640E-01
        -11   -1    0    0    0    0  0.00000000000E+00  0.00000000000E+00  0.50000000000E+03  0.50000000000E+03  0.00000000000E+00 0. -1.
         11   -1    0    0    0    0 -0.00000000000E+00 -0.00000000000E+00 -0.50000000000E+03  0.50000000000E+03  0.00000000000E+00 0. -1.
         23    2    1    2    0    0  0.12067840074E+02 -0.25808769867E+02 -0.18034546960E+03  0.20502186913E+03  0.93261744829E+02 0.  0.
        -11    1    1    2    0    0 -0.57727541076E+02  0.20115868058E+03  0.43483342460E+03  0.48257371553E+03  0.00000000000E+00 0. -1.
         11    1    1    2    0    0  0.45659701002E+02 -0.17534991072E+03 -0.25448795500E+03  0.31240441534E+03  0.00000000000E+00 0. -1.
        -15    1    3    3    0    0  0.72376911741E+01  0.27345347444E+02 -0.16730520391E+02  0.32912311403E+02  0.17770000000E+01 0.  1.
         15    1    3    3    0    0  0.48301488995E+01 -0.53154117312E+02 -0.16361494921E+03  0.17210955772E+03  0.17770000000E+01 0. -1.
</event>
<event>
 7    1  0.3970441E-006  0.3610533E+03  0.7546771E-02  0.9779037E-01
        -11   -1    0    0    0    0  0.00000000000E+00  0.00000000000E+00  0.50000000000E+03  0.50000000000E+03  0.00000000000E+00 0.  1.
         11   -1    0    0    0    0 -0.00000000000E+00 -0.00000000000E+00 -0.50000000000E+03  0.50000000000E+03  0.00000000000E+00 0. -1.
         23    2    1    2    0    0 -0.19568324234E+02  0.27693580805E+03  0.68220383313E+02  0.30006127717E+03  0.91139389214E+02 0.  0.
        -11    1    1    2    0    0 -0.14809154276E+03  0.53474456150E+02  0.19116166866E+03  0.24765582179E+03  0.00000000000E+00 0.  1.
         11    1    1    2    0    0  0.16765986700E+03 -0.33041026420E+03 -0.25938205197E+03  0.45228290104E+03  0.00000000000E+00 0. -1.
        -15    1    3    3    0    0  0.11918189869E+02  0.34712180140E+02  0.39763608791E+02  0.54141305977E+02  0.17770000000E+01 0. -1.
         15    1    3    3    0    0 -0.31486514103E+02  0.24222362791E+03  0.28456774522E+02  0.24591997119E+03  0.17770000000E+01 0.  1.
</event>
<event>
 7    1  0.3970441E-006  0.5294515E+03  0.7546771E-02  0.9336219E-01
        -11   -1    0    0    0    0  0.00000000000E+00  0.00000000000E+00  0.50000000000E+03  0.50000000000E+03  0.00000000000E+00 0.  1.
         11   -1    0    0    0    0 -0.00000000000E+00 -0.00000000000E+00 -0.50000000000E+03  0.50000000000E+03  0.00000000000E+00 0. -1.
         23    2    1    2    0    0 -0.73844759409E+02 -0.19800443967E+02  0.92588198758E+01  0.11933340638E+03  0.91157172284E+02 0.  0.
        -11    1    1    2    0    0 -0.25321401665E+03 -0.10754413424E+03  0.30416074303E+03  0.41011807646E+03  0.00000000000E+00 0.  1.
         11    1    1    2    0    0  0.32705877606E+03  0.12734457820E+03 -0.31341956290E+03  0.47054851717E+03  0.00000000000E+00 0. -1.
        -15    1    3    3    0    0 -0.48521552313E+01 -0.44004262671E+02  0.12777347943E+02  0.46112220647E+02  0.17770000000E+01 0.  1.
         15    1    3    3    0    0 -0.68992604178E+02  0.24203818704E+02 -0.35185280673E+01  0.73221185731E+02  0.17770000000E+01 0. -1.
</event>
<event>
 7    1  0.3970441E-006  0.5159577E+03  0.7546771E-02  0.9364795E-01
        -11   -1    0    0    0    0  0.00000000000E+00  0.00000000000E+00  0.50000000000E+03  0.50000000000E+03  0.00000000000E+00 0.  1.
         11   -1    0    0    0    0 -0.00000000000E+00 -0.00000000000E+00 -0.50000000000E+03  0.50000000000E+03  0.00000000000E+00 0. -1.
         23    2    1    2    0    0 -0.72805712251E+02 -0.71884154754E+02 -0.23179277694E+03  0.26916957978E+03  0.90864557443E+02 0.  0.
        -11    1    1    2    0    0  0.24021308753E+03  0.16984816596E+03  0.38437776212E+03  0.48404234414E+03  0.00000000000E+00 0.  1.
         11    1    1    2    0    0 -0.16740737528E+03 -0.97964011207E+02 -0.15258498518E+03  0.24678807608E+03  0.00000000000E+00 0. -1.
        -15    1    3    3    0    0 -0.23231659591E+02 -0.16553225480E+02 -0.31504524951E+01  0.28754171195E+02  0.17770000000E+01 0.  1.
         15    1    3    3    0    0 -0.49574052660E+02 -0.55330929273E+02 -0.22864232444E+03  0.24041540859E+03  0.17770000000E+01 0. -1.
</event>
<event>
 7    1  0.3970441E-006  0.3412005E+03  0.7546771E-02  0.9848113E-01
        -11   -1    0    0    0    0  0.00000000000E+00  0.00000000000E+00  0.50000000000E+03  0.50000000000E+03  0.00000000000E+00 0.  1.
         11   -1    0    0    0    0 -0.00000000000E+00 -0.00000000000E+00 -0.50000000000E+03  0.50000000000E+03  0.00000000000E+00 0. -1.
         23    2    1    2    0    0  0.21551457531E+03  0.38110343768E+02  0.13180610740E+03  0.27134172781E+03  0.91403242985E+02 0.  0.
        -11    1    1    2    0    0 -0.86231085233E+02  0.94416093611E+02  0.26308890239E+03  0.29251661381E+03  0.00000000000E+00 0.  1.
         11    1    1    2    0    0 -0.12928349008E+03 -0.13252643738E+03 -0.39489500979E+03  0.43614165838E+03  0.00000000000E+00 0. -1.
        -15    1    3    3    0    0  0.67299315835E+02 -0.15977107722E+02  0.78854441754E+02  0.10490780046E+03  0.17770000000E+01 0.  1.
         15    1    3    3    0    0  0.14821525948E+03  0.54087451490E+02  0.52951665646E+02  0.16643392735E+03  0.17770000000E+01 0. -1.
</event>
<event>
 7    1  0.3970441E-006  0.3732096E+03  0.7546771E-02  0.9739048E-01
        -11   -1    0    0    0    0  0.00000000000E+00  0.00000000000E+00  0.50000000000E+03  0.50000000000E+03  0.00000000000E+00 0. -1.
         11   -1    0    0    0    0 -0.00000000000E+00 -0.00000000000E+00 -0.50000000000E+03  0.50000000000E+03  0.00000000000E+00 0.  1.
         23    2    1    2    0    0 -0.50764769587E+02 -0.60932411115E+02 -0.36227096831E+03  0.38196501748E+03  0.91472397728E+02 0.  0.
        -11    1    1    2    0    0  0.14946050904E+03  0.24325223157E+03  0.26299962741E+03  0.38817379606E+03  0.00000000000E+00 0. -1.
         11    1    1    2    0    0 -0.98695739454E+02 -0.18231982045E+03  0.99271340900E+02  0.22986118646E+03  0.00000000000E+00 0.  1.
        -15    1    3    3    0    0 -0.69793702480E+02 -0.62858154612E+02 -0.33907405917E+03  0.35184752924E+03  0.17770000000E+01 0.  1.
         15    1    3    3    0    0  0.19028932893E+02  0.19257434969E+01 -0.23196909145E+02  0.30117488241E+02  0.17770000000E+01 0. -1.
</event>
<event>
 7    1  0.3970441E-006  0.5178016E+03  0.7546771E-02  0.9360835E-01
        -11   -1    0    0    0    0  0.00000000000E+00  0.00000000000E+00  0.50000000000E+03  0.50000000000E+03  0.00000000000E+00 0. -1.
         11   -1    0    0    0    0 -0.00000000000E+00 -0.00000000000E+00 -0.50000000000E+03  0.50000000000E+03  0.00000000000E+00 0.  1.
         23    2    1    2    0    0 -0.47150836547E+02  0.10165456654E+02 -0.19581562242E+03  0.22641227711E+03  0.10291852771E+03 0.  0.
        -11    1    1    2    0    0  0.21920112483E+02 -0.10554033898E+03  0.46999580388E+03  0.48219841368E+03  0.00000000000E+00 0. -1.
         11    1    1    2    0    0  0.25230724064E+02  0.95374882330E+02 -0.27418018146E+03  0.29138930921E+03  0.00000000000E+00 0.  1.
        -15    1    3    3    0    0 -0.66306078113E+01  0.48654241283E+02 -0.49366675712E+02  0.69652182698E+02  0.17770000000E+01 0. -1.
         15    1    3    3    0    0 -0.40520228736E+02 -0.38488784629E+02 -0.14644894671E+03  0.15676009442E+03  0.17770000000E+01 0.  1.
</event>
<event>
 7    1  0.3970441E-006  0.3887123E+03  0.7546771E-02  0.9690353E-01
        -11   -1    0    0    0    0  0.00000000000E+00  0.00000000000E+00  0.50000000000E+03  0.50000000000E+03  0.00000000000E+00 0. -1.
         11   -1    0    0    0    0 -0.00000000000E+00 -0.00000000000E+00 -0.50000000000E+03  0.50000000000E+03  0.00000000000E+00 0.  1.
         23    2    1    2    0    0  0.15445113002E+02  0.22958037877E+02  0.17797364353E+03  0.20198410968E+03  0.91418486922E+02 0.  0.
        -11    1    1    2    0    0 -0.29313145172E+03  0.78663742691E+02  0.16477091229E+03  0.34534545883E+03  0.00000000000E+00 0. -1.
         11    1    1    2    0    0  0.27768633871E+03 -0.10162178057E+03 -0.34274455583E+03  0.45267043149E+03  0.00000000000E+00 0.  1.
        -15    1    3    3    0    0 -0.13212138433E+01  0.56834469064E+02  0.93821808193E+02  0.10971596010E+03  0.17770000000E+01 0. -1.
         15    1    3    3    0    0  0.16766326845E+02 -0.33876431186E+02  0.84151835340E+02  0.92268149574E+02  0.17770000000E+01 0.  1.
</event>
<event>
 7    1  0.3970441E-006  0.4832141E+03  0.7546771E-02  0.9438173E-01
        -11   -1    0    0    0    0  0.00000000000E+00  0.00000000000E+00  0.50000000000E+03  0.50000000000E+03  0.00000000000E+00 0. -1.
         11   -1    0    0    0    0 -0.00000000000E+00 -0.00000000000E+00 -0.50000000000E+03  0.50000000000E+03  0.00000000000E+00 0.  1.
         23    2    1    2    0    0  0.10466151993E+03  0.81591533993E+02 -0.46243495078E+03  0.48975681875E+03  0.91675763599E+02 0.  0.
        -11    1    1    2    0    0 -0.73641416342E+02 -0.54224778162E+02  0.45978525384E+03  0.46879192017E+03  0.00000000000E+00 0. -1.
         11    1    1    2    0    0 -0.31020103588E+02 -0.27366755831E+02  0.26496969411E+01  0.41451261081E+02  0.00000000000E+00 0.  1.
        -15    1    3    3    0    0  0.83203020536E+02  0.70424176786E+01 -0.25118931534E+03  0.26471034764E+03  0.17770000000E+01 0.  1.
         15    1    3    3    0    0  0.21458499394E+02  0.74549116315E+02 -0.21124563544E+03  0.22504647111E+03  0.17770000000E+01 0. -1.
</event>
<event>
 6    1  0.3970441E-006  0.3835525E+03  0.7546771E-02  0.9706286E-01
        -11   -1    0    0    0    0  0.00000000000E+00  0.00000000000E+00  0.50000000000E+03  0.50000000000E+03  0.00000000000E+00 0.  1.
         11   -1    0    0    0    0 -0.00000000000E+00 -0.00000000000E+00 -0.50000000000E+03  0.50000000000E+03  0.00000000000E+00 0. -1.
        -11    1    1    2    0    0  0.77689501797E+02 -0.33876494745E+02  0.37025065468E+03  0.37982735930E+03  0.00000000000E+00 0.  1.
         11    1    1    2    0    0 -0.15296102839E+03  0.58196338084E+02 -0.35563430035E+03  0.39148390204E+03  0.00000000000E+00 0. -1.
        -15    1    1    2    0    0  0.22438258444E+02  0.12284477221E+02  0.96751398529E+02  0.10009183118E+03  0.17770000000E+01 0.  1.
         15    1    1    2    0    0  0.52833268152E+02 -0.36604320559E+02 -0.11136775285E+03  0.12859690747E+03  0.17770000000E+01 0. -1.
</event>
<event>
 7    1  0.3970441E-006  0.5262437E+03  0.7546771E-02  0.9342929E-01
        -11   -1    0    0    0    0  0.00000000000E+00  0.00000000000E+00  0.50000000000E+03  0.50000000000E+03  0.00000000000E+00 0. -1.
         11   -1    0    0    0    0 -0.00000000000E+00 -0.00000000000E+00 -0.50000000000E+03  0.50000000000E+03  0.00000000000E+00 0. -1.
         23    2    1    2    0    0 -0.19215949998E+01 -0.76484660679E+01 -0.22404066585E+03  0.24854067554E+03  0.10731288777E+03 0.  0.
        -11    1    1    2    0    0  0.11386590387E+03  0.14955827011E+03  0.43487004054E+03  0.47375634284E+03  0.00000000000E+00 0. -1.
         11    1    1    2    0    0 -0.11194430887E+03 -0.14190980404E+03 -0.21082937468E+03  0.27770298162E+03  0.00000000000E+00 0. -1.
        -15    1    3    3    0    0 -0.45068223929E+02  0.20639191497E+02 -0.15217955495E+03  0.16005903820E+03  0.17770000000E+01 0.  1.
         15    1    3    3    0    0  0.43146628930E+02 -0.28287657565E+02 -0.71861110898E+02  0.88481637344E+02  0.17770000000E+01 0. -1.
</event>
<event>
 7    1  0.3970441E-006  0.3896031E+03  0.7546771E-02  0.9687629E-01
        -11   -1    0    0    0    0  0.00000000000E+00  0.00000000000E+00  0.50000000000E+03  0.50000000000E+03  0.00000000000E+00 0.  1.
         11   -1    0    0    0    0 -0.00000000000E+00 -0.00000000000E+00 -0.50000000000E+03  0.50000000000E+03  0.00000000000E+00 0. -1.
         23    2    1    2    0    0  0.45947160149E+01  0.14765149272E+03 -0.97555814442E+02  0.20093713667E+03  0.95060618799E+02 0.  0.
        -11    1    1    2    0    0  0.68574905719E+02  0.58074746027E+02  0.40897005983E+03  0.41872628728E+03  0.00000000000E+00 0.  1.
         11    1    1    2    0    0 -0.73169621734E+02 -0.20572623875E+03 -0.31141424538E+03  0.38033657605E+03  0.00000000000E+00 0. -1.
        -15    1    3    3    0    0 -0.29621563334E+02  0.12459234421E+03 -0.48846255836E+02  0.13707590484E+03  0.17770000000E+01 0.  1.
         15    1    3    3    0    0  0.34216279349E+02  0.23059148506E+02 -0.48709558607E+02  0.63861231831E+02  0.17770000000E+01 0. -1.
</event>
<event>
 7    1  0.3970441E-006  0.3766223E+03  0.7546771E-02  0.9728114E-01
        -11   -1    0    0    0    0  0.00000000000E+00  0.00000000000E+00  0.50000000000E+03  0.50000000000E+03  0.00000000000E+00 0.  1.
         11   -1    0    0    0    0 -0.00000000000E+00 -0.00000000000E+00 -0.50000000000E+03  0.50000000000E+03  0.00000000000E+00 0.  1.
         23    2    1    2    0    0  0.26226484700E+02 -0.28521402605E+02 -0.32636268785E+03  0.34102422447E+03  0.91014387609E+02 0.  0.
        -11    1    1    2    0    0  0.17710788620E+03 -0.38209102538E+02  0.39472209209E+03  0.43431862596E+03  0.00000000000E+00 0.  1.
         11    1    1    2    0    0 -0.20333437090E+03  0.66730505143E+02 -0.68359404238E+02  0.22465714957E+03  0.00000000000E+00 0.  1.
        -15    1    3    3    0    0 -0.49384349563E+01 -0.50952837444E+02 -0.11087829983E+03  0.12213817947E+03  0.17770000000E+01 0.  1.
         15    1    3    3    0    0  0.31164919656E+02  0.22431434839E+02 -0.21548438802E+03  0.21888604500E+03  0.17770000000E+01 0. -1.
</event>
<event>
 7    1  0.3970441E-006  0.3865841E+03  0.7546771E-02  0.9696893E-01
        -11   -1    0    0    0    0  0.00000000000E+00  0.00000000000E+00  0.50000000000E+03  0.50000000000E+03  0.00000000000E+00 0. -1.
         11   -1    0    0    0    0 -0.00000000000E+00 -0.00000000000E+00 -0.50000000000E+03  0.50000000000E+03  0.00000000000E+00 0. -1.
         23    2    1    2    0    0 -0.20235956216E+03  0.17295144930E+03  0.22007730961E+03  0.35699511408E+03  0.90276758140E+02 0.  0.
        -11    1    1    2    0    0  0.14320204328E+03  0.12048578844E+03  0.93744517479E+02  0.20931240998E+03  0.00000000000E+00 0. -1.
         11    1    1    2    0    0  0.59157518881E+02 -0.29343723774E+03 -0.31382182708E+03  0.43369247594E+03  0.00000000000E+00 0. -1.
        -15    1    3    3    0    0 -0.11950054526E+03  0.12970807635E+03  0.18892981160E+03  0.25846120952E+03  0.17770000000E+01 0. -1.
         15    1    3    3    0    0 -0.82859016905E+02  0.43243372949E+02  0.31147498007E+02  0.98533904559E+02  0.17770000000E+01 0.  1.
</event>
<event>
 7    1  0.3970441E-006  0.5259589E+03  0.7546771E-02  0.9343528E-01
        -11   -1    0    0    0    0  0.00000000000E+00  0.00000000000E+00  0.50000000000E+03  0.50000000000E+03  0.00000000000E+00 0.  1.
         11   -1    0    0    0    0 -0.00000000000E+00 -0.00000000000E+00 -0.50000000000E+03  0.50000000000E+03  0.00000000000E+00 0.  1.
         23    2    1    2    0    0 -0.46755575886E+02  0.47839097753E+02 -0.18626714000E+03  0.21744810614E+03  0.90075347737E+02 0.  0.
        -11    1    1    2    0    0 -0.68756575459E+02 -0.22221221253E+03  0.41304869487E+03  0.47404109357E+03  0.00000000000E+00 0.  1.
         11    1    1    2    0    0  0.11551215135E+03  0.17437311478E+03 -0.22678155486E+03  0.30851080029E+03  0.00000000000E+00 0.  1.
        -15    1    3    3    0    0 -0.10996140995E+02  0.64015435171E+02 -0.15203659571E+03  0.16533957548E+03  0.17770000000E+01 0.  1.
         15    1    3    3    0    0 -0.35759434891E+02 -0.16176337417E+02 -0.34230544294E+02  0.52108530661E+02  0.17770000000E+01 0. -1.
</event>
<event>
 7    1  0.3970441E-006  0.3799555E+03  0.7546771E-02  0.9717553E-01
        -11   -1    0    0    0    0  0.00000000000E+00  0.00000000000E+00  0.50000000000E+03  0.50000000000E+03  0.00000000000E+00 0. -1.
         11   -1    0    0    0    0 -0.00000000000E+00 -0.00000000000E+00 -0.50000000000E+03  0.50000000000E+03  0.00000000000E+00 0.  1.
         23    2    1    2    0    0 -0.17405638389E+03 -0.79616202514E+02 -0.31631160763E+02  0.21571704244E+03  0.94334233397E+02 0.  0.
        -11    1    1    2    0    0  0.33735966576E+02  0.10340129203E+03  0.38672525296E+03  0.40172921714E+03  0.00000000000E+00 0. -1.
         11    1    1    2    0    0  0.14032041731E+03 -0.23785089516E+02 -0.35509409219E+03  0.38255374042E+03  0.00000000000E+00 0.  1.
        -15    1    3    3    0    0 -0.15863768813E+03 -0.78602393460E+02 -0.56964264706E+02  0.18599015440E+03  0.17770000000E+01 0.  1.
         15    1    3    3    0    0 -0.15418695764E+02 -0.10138090542E+01  0.25333103943E+02  0.29726888035E+02  0.17770000000E+01 0. -1.
</event>
<event>
 7    1  0.3970441E-006  0.5371186E+03  0.7546771E-02  0.9320382E-01
        -11   -1    0    0    0    0  0.00000000000E+00  0.00000000000E+00  0.50000000000E+03  0.50000000000E+03  0.00000000000E+00 0.  1.
         11   -1    0    0    0    0 -0.00000000000E+00 -0.00000000000E+00 -0.50000000000E+03  0.50000000000E+03  0.00000000000E+00 0. -1.
         23    2    1    2    0    0  0.47094751551E+02  0.37782611402E+02  0.64296073737E+02  0.12726003724E+03  0.91737073385E+02 0.  0.
        -11    1    1    2    0    0 -0.13292694527E+03  0.15912398336E+02  0.38737737757E+03  0.40985852419E+03  0.00000000000E+00 0.  1.
         11    1    1    2    0    0  0.85832193719E+02 -0.53695009738E+02 -0.45167345131E+03  0.46288143856E+03  0.00000000000E+00 0. -1.
        -15    1    3    3    0    0  0.51664225208E+02  0.64462759861E+02  0.50286093718E+02  0.96728943578E+02  0.17770000000E+01 0.  1.
         15    1    3    3    0    0 -0.45694736575E+01 -0.26680148459E+02  0.14009980019E+02  0.30531093666E+02  0.17770000000E+01 0. -1.
</event>
<event>
 7    1  0.3970441E-006  0.5000915E+03  0.7546771E-02  0.9399605E-01
        -11   -1    0    0    0    0  0.00000000000E+00  0.00000000000E+00  0.50000000000E+03  0.50000000000E+03  0.00000000000E+00 0.  1.
         11   -1    0    0    0    0 -0.00000000000E+00 -0.00000000000E+00 -0.50000000000E+03  0.50000000000E+03  0.00000000000E+00 0. -1.
         23    2    1    2    0    0 -0.57894806055E+02 -0.75196324947E+02 -0.48239334452E+03  0.50009147019E+03  0.91552410510E+02 0.  0.
        -11    1    1    2    0    0  0.23397481304E+02 -0.17369653906E+02  0.16310718637E+03  0.16568977414E+03  0.00000000000E+00 0. -1.
         11    1    1    2    0    0  0.34497324751E+02  0.92565978852E+02  0.31928615815E+03  0.33421875567E+03  0.00000000000E+00 0.  1.
        -15    1    3    3    0    0 -0.81434952305E+02 -0.55845834942E+02 -0.40568178723E+03  0.41752997372E+03  0.17770000000E+01 0. -1.
         15    1    3    3    0    0  0.23540146250E+02 -0.19350490004E+02 -0.76711557292E+02  0.82561496474E+02  0.17770000000E+01 0.  1.
</event>
<event>
 7    1  0.3970441E-006  0.5262314E+03  0.7546771E-02  0.9342955E-01
        -11   -1    0    0    0    0  0.00000000000E+00  0.00000000000E+00  0.50000000000E+03  0.50000000000E+03  0.00000000000E+00 0. -1.
         11   -1    0    0    0    0 -0.00000000000E+00 -0.00000000000E+00 -0.50000000000E+03  0.50000000000E+03  0.00000000000E+00 0.  1.
         23    2    1    2    0    0  0.13733440819E+03  0.92470779892E+01 -0.25906589295E+03  0.30716444091E+03  0.91041796721E+02 0.  0.
        -11    1    1    2    0    0 -0.27590150283E+03 -0.14912940543E+03  0.35509928286E+03  0.47376863501E+03  0.00000000000E+00 0. -1.
         11    1    1    2    0    0  0.13856709464E+03  0.13988232744E+03 -0.96033389914E+02  0.21906692408E+03  0.00000000000E+00 0.  1.
        -15    1    3    3    0    0  0.10273035368E+03 -0.21127484140E+02 -0.11381613254E+03  0.15478102568E+03  0.17770000000E+01 0. -1.
         15    1    3    3    0    0  0.34604054503E+02  0.30374562129E+02 -0.14524976040E+03  0.15238341523E+03  0.17770000000E+01 0.  1.
</event>
<event>
 7    1  0.3970441E-006  0.5279312E+03  0.7546771E-02  0.9339393E-01
        -11   -1    0    0    0    0  0.00000000000E+00  0.00000000000E+00  0.50000000000E+03  0.50000000000E+03  0.00000000000E+00 0. -1.
         11   -1    0    0    0    0 -0.00000000000E+00 -0.00000000000E+00 -0.50000000000E+03  0.50000000000E+03  0.00000000000E+00 0.  1.
         23    2    1    2    0    0  0.18412028059E+02 -0.30377447357E+01 -0.27889640473E+03  0.29376077707E+03  0.90354628541E+02 0.  0.
        -11    1    1    2    0    0 -0.52701687689E+02 -0.16380987282E+03  0.43958824963E+03  0.47206882076E+03  0.00000000000E+00 0. -1.
         11    1    1    2    0    0  0.34289659629E+02  0.16684761755E+03 -0.16069184490E+03  0.23417040218E+03  0.00000000000E+00 0.  1.
        -15    1    3    3    0    0 -0.15327883274E+02  0.28238985257E+02 -0.44680992859E+02  0.55062992525E+02  0.17770000000E+01 0. -1.
         15    1    3    3    0    0  0.33739911333E+02 -0.31276729993E+02 -0.23421541187E+03  0.23869778454E+03  0.17770000000E+01 0.  1.
</event>
<event>
 7    1  0.3970441E-006  0.5223378E+03  0.7546771E-02  0.9351169E-01
        -11   -1    0    0    0    0  0.00000000000E+00  0.00000000000E+00  0.50000000000E+03  0.50000000000E+03  0.00000000000E+00 0.  1.
         11   -1    0    0    0    0 -0.00000000000E+00 -0.00000000000E+00 -0.50000000000E+03  0.50000000000E+03  0.00000000000E+00 0.  1.
         23    2    1    2    0    0  0.12686836058E+02  0.40794545176E+02 -0.19582846584E+03  0.21977181456E+03  0.90142729695E+02 0.  0.
        -11    1    1    2    0    0  0.49292561028E+02  0.72124634118E+02  0.46960568221E+03  0.47766224069E+03  0.00000000000E+00 0.  1.
         11    1    1    2    0    0 -0.61979397086E+02 -0.11291917929E+03 -0.27377721637E+03  0.30256594475E+03  0.00000000000E+00 0.  1.
        -15    1    3    3    0    0 -0.25014416940E+02 -0.13133027991E+02 -0.96866378582E+02  0.10091803856E+03  0.17770000000E+01 0.  1.
         15    1    3    3    0    0  0.37701252997E+02  0.53927573167E+02 -0.98962087256E+02  0.11885377600E+03  0.17770000000E+01 0. -1.
</event>
<event>
 7    1  0.3970441E-006  0.3421454E+03  0.7546771E-02  0.9844712E-01
        -11   -1    0    0    0    0  0.00000000000E+00  0.00000000000E+00  0.50000000000E+03  0.50000000000E+03  0.00000000000E+00 0. -1.
         11   -1    0    0    0    0 -0.00000000000E+00 -0.00000000000E+00 -0.50000000000E+03  0.50000000000E+03  0.00000000000E+00 0. -1.
         23    2    1    2    0    0  0.11585634909E+03 -0.11649852745E+03 -0.19744268241E+03  0.26908814110E+03  0.80188617175E+02 0.  0.
        -11    1    1    2    0    0 -0.68469175334E+02 -0.34766776808E+02  0.43697966561E+03  0.44367554011E+03  0.00000000000E+00 0. -1.
         11    1    1    2    0    0 -0.47387173754E+02  0.15126530426E+03 -0.23953698320E+03  0.28723631878E+03  0.00000000000E+00 0. -1.
        -15    1    3    3    0    0  0.83043974054E+02 -0.12160053263E+03 -0.14284537454E+03  0.20516079040E+03  0.17770000000E+01 0.  1.
         15    1    3    3    0    0  0.32812375034E+02  0.51020051791E+01 -0.54597307869E+02  0.63927350702E+02  0.17770000000E+01 0. -1.
</event>
<event>
 7    1  0.3970441E-006  0.5145212E+03  0.7546771E-02  0.9367891E-01
        -11   -1    0    0    0    0  0.00000000000E+00  0.00000000000E+00  0.50000000000E+03  0.50000000000E+03  0.00000000000E+00 0.  1.
         11   -1    0    0    0    0 -0.00000000000E+00 -0.00000000000E+00 -0.50000000000E+03  0.50000000000E+03  0.00000000000E+00 0.  1.
         23    2    1    2    0    0  0.81748645145E+02 -0.34462446724E+02 -0.26792607765E+03  0.29713771642E+03  0.92929748846E+02 0.  0.
        -11    1    1    2    0    0 -0.91723994043E+02  0.14749095817E+03  0.45334621494E+03  0.48547879915E+03  0.00000000000E+00 0.  1.
         11    1    1    2    0    0  0.99753488988E+01 -0.11302851144E+03 -0.18542013730E+03  0.21738348442E+03  0.00000000000E+00 0.  1.
        -15    1    3    3    0    0  0.16733068037E+02 -0.52781847851E+02 -0.16465576077E+03  0.17372563517E+03  0.17770000000E+01 0. -1.
         15    1    3    3    0    0  0.65015577108E+02  0.18319401127E+02 -0.10327031687E+03  0.12341208126E+03  0.17770000000E+01 0.  1.
</event>
<event>
 7    1  0.3970441E-006  0.5259134E+03  0.7546771E-02  0.9343623E-01
        -11   -1    0    0    0    0  0.00000000000E+00  0.00000000000E+00  0.50000000000E+03  0.50000000000E+03  0.00000000000E+00 0. -1.
         11   -1    0    0    0    0 -0.00000000000E+00 -0.00000000000E+00 -0.50000000000E+03  0.50000000000E+03  0.00000000000E+00 0. -1.
         23    2    1    2    0    0 -0.11018389936E+03  0.85570517331E+02 -0.44278402773E+03  0.47408660410E+03  0.96112475055E+02 0.  0.
        -11    1    1    2    0    0 -0.49122429285E+02 -0.42710866001E+02  0.30230663447E+03  0.30923539962E+03  0.00000000000E+00 0. -1.
         11    1    1    2    0    0  0.15930632864E+03 -0.42859651330E+02  0.14047739326E+03  0.21667799629E+03  0.00000000000E+00 0. -1.
        -15    1    3    3    0    0 -0.15235354693E+02  0.25703763356E+01 -0.20811888007E+01  0.15691142181E+02  0.17770000000E+01 0.  1.
         15    1    3    3    0    0 -0.94948544663E+02  0.83000140996E+02 -0.44070283893E+03  0.45839546192E+03  0.17770000000E+01 0. -1.
</event>
<event>
 7    1  0.3970441E-006  0.5100273E+03  0.7546771E-02  0.9377648E-01
        -11   -1    0    0    0    0  0.00000000000E+00  0.00000000000E+00  0.50000000000E+03  0.50000000000E+03  0.00000000000E+00 0.  1.
         11   -1    0    0    0    0 -0.00000000000E+00 -0.00000000000E+00 -0.50000000000E+03  0.50000000000E+03  0.00000000000E+00 0. -1.
         23    2    1    2    0    0 -0.81837977683E+02 -0.71233924596E+02 -0.46716291718E+03  0.48997273429E+03  0.10030135870E+03 0.  0.
        -11    1    1    2    0    0 -0.32090735842E+02  0.58088972993E+02  0.30035009806E+03  0.30759441724E+03  0.00000000000E+00 0.  1.
         11    1    1    2    0    0  0.11392871352E+03  0.13144951603E+02  0.16681281912E+03  0.20243284847E+03  0.00000000000E+00 0. -1.
        -15    1    3    3    0    0 -0.97810389559E+02 -0.28633127898E+02 -0.30826790876E+03  0.32468290626E+03  0.17770000000E+01 0.  1.
         15    1    3    3    0    0  0.15972411876E+02 -0.42600796698E+02 -0.15889500842E+03  0.16528982803E+03  0.17770000000E+01 0. -1.
</event>
<event>
 7    1  0.3970441E-006  0.5194933E+03  0.7546771E-02  0.9357218E-01
        -11   -1    0    0    0    0  0.00000000000E+00  0.00000000000E+00  0.50000000000E+03  0.50000000000E+03  0.00000000000E+00 0. -1.
         11   -1    0    0    0    0 -0.00000000000E+00 -0.00000000000E+00 -0.50000000000E+03  0.50000000000E+03  0.00000000000E+00 0.  1.
         23    2    1    2    0    0 -0.10339157856E+02  0.89584958864E+02  0.14242002285E+03  0.19871638736E+03  0.10522536128E+03 0.  0.
        -11    1    1    2    0    0  0.84231073190E+02  0.99539344225E+02  0.29307821819E+03  0.32077686438E+03  0.00000000000E+00 0. -1.
         11    1    1    2    0    0 -0.73891915334E+02 -0.18912430309E+03 -0.43549824105E+03  0.48050674826E+03  0.00000000000E+00 0.  1.
        -15    1    3    3    0    0 -0.38018803888E+02  0.19132598426E+02  0.10691606843E+03  0.11508991784E+03  0.17770000000E+01 0. -1.
         15    1    3    3    0    0  0.27679646032E+02  0.70452360439E+02  0.35503954425E+02  0.83626469522E+02  0.17770000000E+01 0.  1.
</event>
<event>
 7    1  0.3970441E-006  0.5082298E+03  0.7546771E-02  0.9381581E-01
        -11   -1    0    0    0    0  0.00000000000E+00  0.00000000000E+00  0.50000000000E+03  0.50000000000E+03  0.00000000000E+00 0. -1.
         11   -1    0    0    0    0 -0.00000000000E+00 -0.00000000000E+00 -0.50000000000E+03  0.50000000000E+03  0.00000000000E+00 0.  1.
         23    2    1    2    0    0 -0.10613190902E+02  0.73639582731E+02 -0.38459402584E+03  0.40195397186E+03  0.90105509386E+02 0.  0.
        -11    1    1    2    0    0  0.50174425477E+02 -0.76460590713E+02  0.48319171067E+03  0.49177019447E+03  0.00000000000E+00 0. -1.
         11    1    1    2    0    0 -0.39561234576E+02  0.28210079827E+01 -0.98597684836E+02  0.10627583367E+03  0.00000000000E+00 0.  1.
        -15    1    3    3    0    0  0.38438655589E+02  0.19509141070E+02 -0.16359845824E+03  0.16919145988E+03  0.17770000000E+01 0. -1.
         15    1    3    3    0    0 -0.49051846491E+02  0.54130441661E+02 -0.22099556759E+03  0.23276251198E+03  0.17770000000E+01 0.  1.
</event>
<event>
 7    1  0.3970441E-006  0.5389790E+03  0.7546771E-02  0.9316581E-01
        -11   -1    0    0    0    0  0.00000000000E+00  0.00000000000E+00  0.50000000000E+03  0.50000000000E+03  0.00000000000E+00 0. -1.
         11   -1    0    0    0    0 -0.00000000000E+00 -0.00000000000E+00 -0.50000000000E+03  0.50000000000E+03  0.00000000000E+00 0.  1.
         23    2    1    2    0    0 -0.32712627277E+02 -0.78591484341E+02 -0.27696071872E+03  0.30348967011E+03  0.90288441987E+02 0.  0.
        -11    1    1    2    0    0  0.93059128928E+02 -0.74596259504E+02  0.44532654737E+03  0.46102097263E+03  0.00000000000E+00 0. -1.
         11    1    1    2    0    0 -0.60346501651E+02  0.15318774385E+03 -0.16836582865E+03  0.23548935726E+03  0.00000000000E+00 0.  1.
        -15    1    3    3    0    0  0.23029697861E+02  0.44304739519E+01 -0.42186040478E+02  0.48299232118E+02  0.17770000000E+01 0. -1.
         15    1    3    3    0    0 -0.55742325138E+02 -0.83021958293E+02 -0.23477467824E+03  0.25519043800E+03  0.17770000000E+01 0.  1.
</event>
<event>
 7    1  0.3970441E-006  0.5209905E+03  0.7546771E-02  0.9354029E-01
        -11   -1    0    0    0    0  0.00000000000E+00  0.00000000000E+00  0.50000000000E+03  0.50000000000E+03  0.00000000000E+00 0.  1.
         11   -1    0    0    0    0 -0.00000000000E+00 -0.00000000000E+00 -0.50000000000E+03  0.50000000000E+03  0.00000000000E+00 0. -1.
         23    2    1    2    0    0 -0.69112440801E+02 -0.39283494274E+02  0.26556876521E+03  0.29178948068E+03  0.91074747239E+02 0.  0.
        -11    1    1    2    0    0 -0.95203920279E+02 -0.15367712709E+03  0.14089947611E+03  0.22920102137E+03  0.00000000000E+00 0.  1.
         11    1    1    2    0    0  0.16431636108E+03  0.19296062137E+03 -0.40646824133E+03  0.47900949795E+03  0.00000000000E+00 0. -1.
        -15    1    3    3    0    0 -0.85410874296E+02 -0.52111060184E+02  0.22074828971E+03  0.24237067723E+03  0.17770000000E+01 0.  1.
         15    1    3    3    0    0  0.16298433495E+02  0.12827565910E+02  0.44820475499E+02  0.49418803450E+02  0.17770000000E+01 0. -1.
</event>
<event>
 7    1  0.3970441E-006  0.5237183E+03  0.7546771E-02  0.9348248E-01
        -11   -1    0    0    0    0  0.00000000000E+00  0.00000000000E+00  0.50000000000E+03  0.50000000000E+03  0.00000000000E+00 0.  1.
         11   -1    0    0    0    0 -0.00000000000E+00 -0.00000000000E+00 -0.50000000000E+03  0.50000000000E+03  0.00000000000E+00 0. -1.
         23    2    1    2    0    0  0.24643273444E+00  0.75949083736E+02  0.58773775752E+02  0.12393033542E+03  0.78332925841E+02 0.  0.
        -11    1    1    2    0    0 -0.13811350596E+03  0.10137766204E+03  0.36121688923E+03  0.39978795874E+03  0.00000000000E+00 0.  1.
         11    1    1    2    0    0  0.13786707322E+03 -0.17732674578E+03 -0.41999066498E+03  0.47628170584E+03  0.00000000000E+00 0. -1.
        -15    1    3    3    0    0  0.16144276982E+02  0.45222481584E+02 -0.79938272034E+01  0.48711082130E+02  0.17770000000E+01 0. -1.
         15    1    3    3    0    0 -0.15897844248E+02  0.30726602152E+02  0.66767602955E+02  0.75219253286E+02  0.17770000000E+01 0.  1.
</event>
<event>
 7    1  0.3970441E-006  0.5367561E+03  0.7546771E-02  0.9321124E-01
        -11   -1    0    0    0    0  0.00000000000E+00  0.00000000000E+00  0.50000000000E+03  0.50000000000E+03  0.00000000000E+00 0.  1.
         11   -1    0    0    0    0 -0.00000000000E+00 -0.00000000000E+00 -0.50000000000E+03  0.50000000000E+03  0.00000000000E+00 0.  1.
         23    2    1    2    0    0  0.78839418086E+02  0.26912385879E+01 -0.19866692001E+03  0.23215574713E+03  0.90580622721E+02 0.  0.
        -11    1    1    2    0    0  0.83537367220E+02  0.23519156014E+02  0.45504201696E+03  0.46324386625E+03  0.00000000000E+00 0.  1.
         11    1    1    2    0    0 -0.16237678531E+03 -0.26210394602E+02 -0.25637509695E+03  0.30460038662E+03  0.00000000000E+00 0.  1.
        -15    1    3    3    0    0  0.80052279903E+02  0.29697098465E+02 -0.10891918150E+03  0.13840820425E+03  0.17770000000E+01 0.  1.
         15    1    3    3    0    0 -0.12128618165E+01 -0.27005859877E+02 -0.89747738502E+02  0.93747542883E+02  0.17770000000E+01 0. -1.
</event>
<event>
 7    1  0.3970441E-006  0.5121284E+03  0.7546771E-02  0.9373073E-01
        -11   -1    0    0    0    0  0.00000000000E+00  0.00000000000E+00  0.50000000000E+03  0.50000000000E+03  0.00000000000E+00 0.  1.
         11   -1    0    0    0    0 -0.00000000000E+00 -0.00000000000E+00 -0.50000000000E+03  0.50000000000E+03  0.00000000000E+00 0. -1.
         23    2    1    2    0    0  0.44817835027E+02 -0.76385568430E+02 -0.17539343735E+03  0.21488719485E+03  0.87007213738E+02 0.  0.
        -11    1    1    2    0    0 -0.19723428601E+03  0.16163748565E+03  0.41592139777E+03  0.48787155017E+03  0.00000000000E+00 0.  1.
         11    1    1    2    0    0  0.15241645098E+03 -0.85251917220E+02 -0.24052796041E+03  0.29724125498E+03  0.00000000000E+00 0. -1.
        -15    1    3    3    0    0  0.44633422971E+02 -0.43735818137E+02 -0.17078294960E+03  0.18186516390E+03  0.17770000000E+01 0. -1.
         15    1    3    3    0    0  0.18441205616E+00 -0.32649750293E+02 -0.46104877496E+01  0.33022030953E+02  0.17770000000E+01 0.  1.
</event>
<event>
 7    1  0.3970441E-006  0.5337178E+03  0.7546771E-02  0.9327371E-01
        -11   -1    0    0    0    0  0.00000000000E+00  0.00000000000E+00  0.50000000000E+03  0.50000000000E+03  0.00000000000E+00 0. -1.
         11   -1    0    0    0    0 -0.00000000000E+00 -0.00000000000E+00 -0.50000000000E+03  0.50000000000E+03  0.00000000000E+00 0. -1.
         23    2    1    2    0    0  0.17354940694E+02 -0.47031551901E+02 -0.36706989828E+03  0.38168100301E+03  0.91798240701E+02 0.  0.
        -11    1    1    2    0    0 -0.53749857702E+02 -0.69283002300E+02  0.45796279326E+03  0.46628221242E+03  0.00000000000E+00 0. -1.
         11    1    1    2    0    0  0.36394917008E+02  0.11631455420E+03 -0.90892894980E+02  0.15203678457E+03  0.00000000000E+00 0. -1.
        -15    1    3    3    0    0  0.22457828101E+02  0.22825886305E+02 -0.80110649554E+02  0.86291650984E+02  0.17770000000E+01 0.  1.
         15    1    3    3    0    0 -0.51028874074E+01 -0.69857438206E+02 -0.28695924873E+03  0.29538935203E+03  0.17770000000E+01 0. -1.
</event>
<event>
 7    1  0.3970441E-006  0.4525624E+03  0.7546771E-02  0.9512697E-01
        -11   -1    0    0    0    0  0.00000000000E+00  0.00000000000E+00  0.50000000000E+03  0.50000000000E+03  0.00000000000E+00 0.  1.
         11   -1    0    0    0    0 -0.00000000000E+00 -0.00000000000E+00 -0.50000000000E+03  0.50000000000E+03  0.00000000000E+00 0.  1.
         23    2    1    2    0    0 -0.26121055309E+02 -0.34507042627E+02 -0.46804579023E+03  0.47913950666E+03  0.92923406959E+02 0.  0.
        -11    1    1    2    0    0 -0.27675541641E+01  0.10765744884E+03  0.40782524244E+03  0.42180471076E+03  0.00000000000E+00 0.  1.
         11    1    1    2    0    0  0.28888609473E+02 -0.73150406216E+02  0.60220547794E+02  0.99055782585E+02  0.00000000000E+00 0.  1.
        -15    1    3    3    0    0 -0.20238617188E+02 -0.66703655026E+02 -0.31925493112E+03  0.32678103983E+03  0.17770000000E+01 0.  1.
         15    1    3    3    0    0 -0.58824381212E+01  0.32196612399E+02 -0.14879085911E+03  0.15235846682E+03  0.17770000000E+01 0. -1.
</event>
<event>
 7    1  0.3970441E-006  0.4668757E+03  0.7546771E-02  0.9477140E-01
        -11   -1    0    0    0    0  0.00000000000E+00  0.00000000000E+00  0.50000000000E+03  0.50000000000E+03  0.00000000000E+00 0.  1.
         11   -1    0    0    0    0 -0.00000000000E+00 -0.00000000000E+00 -0.50000000000E+03  0.50000000000E+03  0.00000000000E+00 0. -1.
         23    2    1    2    0    0  0.16887526322E+02  0.14832978523E+02 -0.45096622303E+03  0.46169747421E+03  0.96378512010E+02 0.  0.
        -11    1    1    2    0    0 -0.23010517444E+02 -0.87799839354E+02  0.45596274314E+03  0.46490893606E+03  0.00000000000E+00 0.  1.
         11    1    1    2    0    0  0.61229911222E+01  0.72966860831E+02 -0.49965201010E+01  0.73393589726E+02  0.00000000000E+00 0. -1.
        -15    1    3    3    0    0 -0.33770074011E+02  0.28214857839E+02 -0.15551058751E+03  0.16162672012E+03  0.17770000000E+01 0.  1.
         15    1    3    3    0    0  0.50657600333E+02 -0.13381879316E+02 -0.29545563552E+03  0.30007075409E+03  0.17770000000E+01 0. -1.
</event>
<event>
 7    1  0.3970441E-006  0.5124053E+03  0.7546771E-02  0.9372472E-01
        -11   -1    0    0    0    0  0.00000000000E+00  0.00000000000E+00  0.50000000000E+03  0.50000000000E+03  0.00000000000E+00 0.  1.
         11   -1    0    0    0    0 -0.00000000000E+00 -0.00000000000E+00 -0.50000000000E+03  0.50000000000E+03  0.00000000000E+00 0. -1.
         23    2    1    2    0    0  0.24833395463E+02  0.19994795421E+02 -0.33913517262E+03  0.35242532270E+03  0.90412683828E+02 0.  0.
        -11    1    1    2    0    0 -0.73587364606E+02 -0.92781872562E+02  0.47299582372E+03  0.48759473475E+03  0.00000000000E+00 0.  1.
         11    1    1    2    0    0  0.48753969143E+02  0.72787077141E+02 -0.13386065109E+03  0.15997994255E+03  0.00000000000E+00 0. -1.
        -15    1    3    3    0    0  0.78653146958E+00  0.49823829013E+02 -0.11980855014E+03  0.12977010051E+03  0.17770000000E+01 0.  1.
         15    1    3    3    0    0  0.24046863994E+02 -0.29829033592E+02 -0.21932662248E+03  0.22265522219E+03  0.17770000000E+01 0. -1.
</event>
<event>
 7    1  0.3970441E-006  0.5216540E+03  0.7546771E-02  0.9352620E-01
        -11   -1    0    0    0    0  0.00000000000E+00  0.00000000000E+00  0.50000000000E+03  0.50000000000E+03  0.00000000000E+00 0.  1.
         11   -1    0    0    0    0 -0.00000000000E+00 -0.00000000000E+00 -0.50000000000E+03  0.50000000000E+03  0.00000000000E+00 0.  1.
         23    2    1    2    0    0  0.13920062882E+03  0.92904495289E+02  0.34667771156E+03  0.39603742403E+03  0.93016908300E+02 0.  0.
        -11    1    1    2    0    0 -0.39482583273E+02 -0.26084324973E+02  0.11636257438E+03  0.12561653995E+03  0.00000000000E+00 0.  1.
         11    1    1    2    0    0 -0.99718045551E+02 -0.66820170316E+02 -0.46304028594E+03  0.47834603602E+03  0.00000000000E+00 0.  1.
        -15    1    3    3    0    0  0.85139352611E+02  0.37304224175E+02  0.27548339071E+03  0.29074829457E+03  0.17770000000E+01 0. -1.
         15    1    3    3    0    0  0.54061276214E+02  0.55600271114E+02  0.71194320849E+02  0.10528912947E+03  0.17770000000E+01 0.  1.
</event>
<event>
 7    1  0.3970441E-006  0.5142715E+03  0.7546771E-02  0.9368430E-01
        -11   -1    0    0    0    0  0.00000000000E+00  0.00000000000E+00  0.50000000000E+03  0.50000000000E+03  0.00000000000E+00 0.  1.
         11   -1    0    0    0    0 -0.00000000000E+00 -0.00000000000E+00 -0.50000000000E+03  0.50000000000E+03  0.00000000000E+00 0. -1.
         23    2    1    2    0    0 -0.88045203752E+02  0.34947384553E+02 -0.25310553070E+03  0.28483441042E+03  0.89971962843E+02 0.  0.
        -11    1    1    2    0    0  0.11481863753E+03  0.32175674253E+02  0.47086470938E+03  0.48572849214E+03  0.00000000000E+00 0.  1.
         11    1    1    2    0    0 -0.26773433773E+02 -0.67123058806E+02 -0.21775917869E+03  0.22943709744E+03  0.00000000000E+00 0. -1.
        -15    1    3    3    0    0 -0.20659700538E+02  0.25083260917E+02 -0.12654159627E+02  0.34918171336E+02  0.17770000000E+01 0. -1.
         15    1    3    3    0    0 -0.67385503214E+02  0.98641236361E+01 -0.24045137107E+03  0.24991623908E+03  0.17770000000E+01 0.  1.
</event>
<event>
 7    1  0.3970441E-006  0.4685762E+03  0.7546771E-02  0.9473005E-01
        -11   -1    0    0    0    0  0.00000000000E+00  0.00000000000E+00  0.50000000000E+03  0.50000000000E+03  0.00000000000E+00 0.  1.
         11   -1    0    0    0    0 -0.00000000000E+00 -0.00000000000E+00 -0.50000000000E+03  0.50000000000E+03  0.00000000000E+00 0.  1.
         23    2    1    2    0    0 -0.72080488661E+02 -0.26004259853E+02 -0.46957848435E+03  0.48432561267E+03  0.90529154117E+02 0.  0.
        -11    1    1    2    0    0  0.59050964038E+02  0.84148038617E+02  0.43457384491E+03  0.44656727986E+03  0.00000000000E+00 0.  1.
         11    1    1    2    0    0  0.13029524623E+02 -0.58143778764E+02  0.35004639440E+02  0.69107107473E+02  0.00000000000E+00 0.  1.
        -15    1    3    3    0    0  0.11941701533E+02  0.66807049796E+00 -0.82291918691E+01  0.14626273672E+02  0.17770000000E+01 0. -1.
         15    1    3    3    0    0 -0.84022190195E+02 -0.26672330351E+02 -0.46134929248E+03  0.46969933900E+03  0.17770000000E+01 0.  1.
</event>
<event>
 7    1  0.3970441E-006  0.5260818E+03  0.7546771E-02  0.9343269E-01
        -11   -1    0    0    0    0  0.00000000000E+00  0.00000000000E+00  0.50000000000E+03  0.50000000000E+03  0.00000000000E+00 0. -1.
         11   -1    0    0    0    0 -0.00000000000E+00 -0.00000000000E+00 -0.50000000000E+03  0.50000000000E+03  0.00000000000E+00 0.  1.
         23    2    1    2    0    0 -0.13340938712E+02 -0.12924384510E+02 -0.34544376922E+03  0.35839926451E+03  0.93667575764E+02 0.  0.
        -11    1    1    2    0    0  0.14316340678E+03  0.20136121600E+02  0.45132833201E+03  0.47391822893E+03  0.00000000000E+00 0. -1.
         11    1    1    2    0    0 -0.12982246807E+03 -0.72117370901E+01 -0.10588456280E+03  0.16768250656E+03  0.00000000000E+00 0.  1.
        -15    1    3    3    0    0  0.17781451596E+01  0.38074015628E+02 -0.19801856938E+03  0.20166135975E+03  0.17770000000E+01 0. -1.
         15    1    3    3    0    0 -0.15119083872E+02 -0.50998400137E+02 -0.14742519983E+03  0.15673790476E+03  0.17770000000E+01 0.  1.
</event>
<event>
 7    1  0.3970441E-006  0.4507193E+03  0.7546771E-02  0.9517377E-01
        -11   -1    0    0    0    0  0.00000000000E+00  0.00000000000E+00  0.50000000000E+03  0.50000000000E+03  0.00000000000E+00 0.  1.
         11   -1    0    0    0    0 -0.00000000000E+00 -0.00000000000E+00 -0.50000000000E+03  0.50000000000E+03  0.00000000000E+00 0. -1.
         23    2    1    2    0    0  0.26725716918E+02  0.22010365683E+02  0.10800435628E+01  0.97896037344E+02  0.91562806266E+02 0.  0.
        -11    1    1    2    0    0 -0.10437415707E+03  0.18406329108E+03  0.39546451100E+03  0.44851470349E+03  0.00000000000E+00 0.  1.
         11    1    1    2    0    0  0.77648440155E+02 -0.20607365677E+03 -0.39654455456E+03  0.45358925916E+03  0.00000000000E+00 0. -1.
        -15    1    3    3    0    0  0.35346564411E+02  0.16295675778E+02 -0.39796259904E+02  0.55694063382E+02  0.17770000000E+01 0.  1.
         15    1    3    3    0    0 -0.86208474926E+01  0.57146899053E+01  0.40876303466E+02  0.42201973962E+02  0.17770000000E+01 0. -1.
</event>
<event>
 7    1  0.3970441E-006  0.5335727E+03  0.7546771E-02  0.9327671E-01
        -11   -1    0    0    0    0  0.00000000000E+00  0.00000000000E+00  0.50000000000E+03  0.50000000000E+03  0.00000000000E+00 0. -1.
         11   -1    0    0    0    0 -0.00000000000E+00 -0.00000000000E+00 -0.50000000000E+03  0.50000000000E+03  0.00000000000E+00 0. -1.
         23    2    1    2    0    0 -0.23589530439E+02 -0.70004547969E+02  0.10045842404E+03  0.15471672375E+03  0.91587482584E+02 0.  0.
        -11    1    1    2    0    0 -0.91841737597E+02  0.11450876701E+03  0.34926306780E+03  0.37885597926E+03  0.00000000000E+00 0. -1.
         11    1    1    2    0    0  0.11543126804E+03 -0.44504219040E+02 -0.44972149184E+03  0.46642729699E+03  0.00000000000E+00 0. -1.
        -15    1    3    3    0    0  0.18263353061E+02 -0.48647208946E+02  0.10256540988E+02  0.52994861687E+02  0.17770000000E+01 0. -1.
         15    1    3    3    0    0 -0.41852883500E+02 -0.21357339023E+02  0.90201883049E+02  0.10172186207E+03  0.17770000000E+01 0.  1.
</event>
<event>
 7    1  0.3970441E-006  0.5258519E+03  0.7546771E-02  0.9343752E-01
        -11   -1    0    0    0    0  0.00000000000E+00  0.00000000000E+00  0.50000000000E+03  0.50000000000E+03  0.00000000000E+00 0. -1.
         11   -1    0    0    0    0 -0.00000000000E+00 -0.00000000000E+00 -0.50000000000E+03  0.50000000000E+03  0.00000000000E+00 0.  1.
         23    2    1    2    0    0 -0.56104528329E+02 -0.27262443490E+02 -0.68955785207E+02  0.13001067977E+03  0.90867582877E+02 0.  0.
        -11    1    1    2    0    0  0.63963426008E+02  0.15185598210E+03  0.44459517607E+03  0.47414810951E+03  0.00000000000E+00 0. -1.
         11    1    1    2    0    0 -0.78588976784E+01 -0.12459353861E+03 -0.37563939086E+03  0.39584121072E+03  0.00000000000E+00 0.  1.
        -15    1    3    3    0    0 -0.47895403847E+02 -0.11515960185E+02  0.89400495063E+01  0.50096599314E+02  0.17770000000E+01 0. -1.
         15    1    3    3    0    0 -0.82091244827E+01 -0.15746483304E+02 -0.77895834713E+02  0.79914080461E+02  0.17770000000E+01 0.  1.
</event>
<event>
 7    1  0.3970441E-006  0.5106642E+03  0.7546771E-02  0.9376259E-01
        -11   -1    0    0    0    0  0.00000000000E+00  0.00000000000E+00  0.50000000000E+03  0.50000000000E+03  0.00000000000E+00 0.  1.
         11   -1    0    0    0    0 -0.00000000000E+00 -0.00000000000E+00 -0.50000000000E+03  0.50000000000E+03  0.00000000000E+00 0. -1.
         23    2    1    2    0    0 -0.39241105736E+02 -0.11693118191E+03 -0.30011754668E+03  0.33729139633E+03  0.92098743390E+02 0.  0.
        -11    1    1    2    0    0  0.92278564068E+02  0.22574673724E+03  0.42423175959E+03  0.48933578309E+03  0.00000000000E+00 0.  1.
         11    1    1    2    0    0 -0.53037458331E+02 -0.10881555534E+03 -0.12411421291E+03  0.17337282058E+03  0.00000000000E+00 0. -1.
        -15    1    3    3    0    0 -0.12216343338E+02 -0.33588116586E+01  0.24068108980E+01  0.13018107697E+02  0.17770000000E+01 0.  1.
         15    1    3    3    0    0 -0.27024762399E+02 -0.11357237025E+03 -0.30252435757E+03  0.32427328863E+03  0.17770000000E+01 0. -1.
</event>
<event>
 7    1  0.3970441E-006  0.5171271E+03  0.7546771E-02  0.9362281E-01
        -11   -1    0    0    0    0  0.00000000000E+00  0.00000000000E+00  0.50000000000E+03  0.50000000000E+03  0.00000000000E+00 0. -1.
         11   -1    0    0    0    0 -0.00000000000E+00 -0.00000000000E+00 -0.50000000000E+03  0.50000000000E+03  0.00000000000E+00 0.  1.
         23    2    1    2    0    0  0.68660762934E+02 -0.53127366288E+02 -0.28480908528E+03  0.31136478038E+03  0.91076857581E+02 0.  0.
        -11    1    1    2    0    0 -0.94071096684E+00  0.11517034489E+03  0.46893619298E+03  0.48287290912E+03  0.00000000000E+00 0. -1.
         11    1    1    2    0    0 -0.67720051967E+02 -0.62042978597E+02 -0.18412710770E+03  0.20576231050E+03  0.00000000000E+00 0.  1.
        -15    1    3    3    0    0  0.14259345794E+02  0.15712566811E+02 -0.11266804321E+02  0.24089672203E+02  0.17770000000E+01 0. -1.
         15    1    3    3    0    0  0.54401417141E+02 -0.68839933099E+02 -0.27354228096E+03  0.28727510818E+03  0.17770000000E+01 0.  1.
</event>
<event>
 7    1  0.3970441E-006  0.5124137E+03  0.7546771E-02  0.9372454E-01
        -11   -1    0    0    0    0  0.00000000000E+00  0.00000000000E+00  0.50000000000E+03  0.50000000000E+03  0.00000000000E+00 0. -1.
         11   -1    0    0    0    0 -0.00000000000E+00 -0.00000000000E+00 -0.50000000000E+03  0.50000000000E+03  0.00000000000E+00 0.  1.
         23    2    1    2    0    0  0.25941000887E+02  0.19333515620E+02 -0.35664926798E+03  0.37030504310E+03  0.94235896765E+02 0.  0.
        -11    1    1    2    0    0 -0.10068764440E+03 -0.82764990392E+01  0.47700516778E+03  0.48758633314E+03  0.00000000000E+00 0. -1.
         11    1    1    2    0    0  0.74746643509E+02 -0.11057016581E+02 -0.12035589980E+03  0.14210862376E+03  0.00000000000E+00 0.  1.
        -15    1    3    3    0    0 -0.22479314665E+02  0.34396073624E+02 -0.91132012569E+02  0.99983053126E+02  0.17770000000E+01 0. -1.
         15    1    3    3    0    0  0.48420315552E+02 -0.15062558004E+02 -0.26551725541E+03  0.27032198997E+03  0.17770000000E+01 0.  1.
</event>
<event>
 7    1  0.3970441E-006  0.5221562E+03  0.7546771E-02  0.9351554E-01
        -11   -1    0    0    0    0  0.00000000000E+00  0.00000000000E+00  0.50000000000E+03  0.50000000000E+03  0.00000000000E+00 0. -1.
         11   -1    0    0    0    0 -0.00000000000E+00 -0.00000000000E+00 -0.50000000000E+03  0.50000000000E+03  0.00000000000E+00 0.  1.
         23    2    1    2    0    0  0.17425088111E+02  0.52268172304E+02 -0.26803021529E+03  0.28894743781E+03  0.92816108395E+02 0.  0.
        -11    1    1    2    0    0 -0.76835569890E+02  0.50135512095E+02  0.46895356850E+03  0.47784382782E+03  0.00000000000E+00 0. -1.
         11    1    1    2    0    0  0.59410481779E+02 -0.10240368440E+03 -0.20092335321E+03  0.23320873437E+03  0.00000000000E+00 0.  1.
        -15    1    3    3    0    0  0.36412669963E+02 -0.88833065429E+00 -0.40434091825E+02  0.54449473606E+02  0.17770000000E+01 0. -1.
         15    1    3    3    0    0 -0.18987581853E+02  0.53156502958E+02 -0.22759612346E+03  0.23449796420E+03  0.17770000000E+01 0.  1.
</event>
<event>
 7    1  0.3970441E-006  0.3665681E+03  0.7546771E-02  0.9760690E-01
        -11   -1    0    0    0    0  0.00000000000E+00  0.00000000000E+00  0.50000000000E+03  0.50000000000E+03  0.00000000000E+00 0. -1.
         11   -1    0    0    0    0 -0.00000000000E+00 -0.00000000000E+00 -0.50000000000E+03  0.50000000000E+03  0.00000000000E+00 0. -1.
         23    2    1    2    0    0 -0.19233570190E+02  0.14455641921E+03 -0.15699228210E+03  0.23619266464E+03  0.99367548199E+02 0.  0.
        -11    1    1    2    0    0 -0.59382126080E+02 -0.63107472806E+02  0.44551941942E+03  0.45386820014E+03  0.00000000000E+00 0. -1.
         11    1    1    2    0    0  0.78615696271E+02 -0.81448946404E+02 -0.28852713732E+03  0.30993913521E+03  0.00000000000E+00 0. -1.
        -15    1    3    3    0    0  0.21410380694E+01  0.78830745891E+02 -0.17929583420E+02  0.80891892254E+02  0.17770000000E+01 0. -1.
         15    1    3    3    0    0 -0.21374608260E+02  0.65725673319E+02 -0.13906269868E+03  0.15530077239E+03  0.17770000000E+01 0.  1.
</event>
<event>
 7    1  0.3970441E-006  0.5143446E+03  0.7546771E-02  0.9368272E-01
        -11   -1    0    0    0    0  0.00000000000E+00  0.00000000000E+00  0.50000000000E+03  0.50000000000E+03  0.00000000000E+00 0.  1.
         11   -1    0    0    0    0 -0.00000000000E+00 -0.00000000000E+00 -0.50000000000E+03  0.50000000000E+03  0.00000000000E+00 0. -1.
         23    2    1    2    0    0 -0.71284674605E+02  0.40767513207E+01 -0.32873414767E+03  0.34755751231E+03  0.87361088488E+02 0.  0.
        -11    1    1    2    0    0  0.60947114978E+02 -0.84863436998E+02  0.47428342947E+03  0.48565535643E+03  0.00000000000E+00 0.  1.
         11    1    1    2    0    0  0.10337559627E+02  0.80786685677E+02 -0.14554928180E+03  0.16678713126E+03  0.00000000000E+00 0. -1.
        -15    1    3    3    0    0 -0.78496332165E+02  0.27067584111E+02 -0.29207030423E+03  0.30364872569E+03  0.17770000000E+01 0. -1.
         15    1    3    3    0    0  0.72116575592E+01 -0.22990832790E+02 -0.36663843441E+02  0.43908786615E+02  0.17770000000E+01 0.  1.
</event>
<event>
 7    1  0.3970441E-006  0.3780127E+03  0.7546771E-02  0.9723694E-01
        -11   -1    0    0    0    0  0.00000000000E+00  0.00000000000E+00  0.50000000000E+03  0.50000000000E+03  0.00000000000E+00 0.  1.
         11   -1    0    0    0    0 -0.00000000000E+00 -0.00000000000E+00 -0.50000000000E+03  0.50000000000E+03  0.00000000000E+00 0. -1.
         23    2    1    2    0    0 -0.13946793728E+03  0.25366802285E+03  0.18409462386E+03  0.35263273140E+03  0.81610301889E+02 0.  0.
        -11    1    1    2    0    0  0.29960990216E+02 -0.95982639169E+02  0.19670317172E+03  0.22091280117E+03  0.00000000000E+00 0.  1.
         11    1    1    2    0    0  0.10950694706E+03 -0.15768538368E+03 -0.38079779558E+03  0.42645446744E+03  0.00000000000E+00 0. -1.
        -15    1    3    3    0    0 -0.92329974142E+02  0.21411151593E+03  0.17235377715E+03  0.28996128640E+03  0.17770000000E+01 0. -1.
         15    1    3    3    0    0 -0.47137963139E+02  0.39556506912E+02  0.11740846704E+02  0.62671444999E+02  0.17770000000E+01 0.  1.
</event>
<event>
 7    1  0.3970441E-006  0.3669752E+03  0.7546771E-02  0.9759349E-01
        -11   -1    0    0    0    0  0.00000000000E+00  0.00000000000E+00  0.50000000000E+03  0.50000000000E+03  0.00000000000E+00 0.  1.
         11   -1    0    0    0    0 -0.00000000000E+00 -0.00000000000E+00 -0.50000000000E+03  0.50000000000E+03  0.00000000000E+00 0. -1.
         23    2    1    2    0    0 -0.22736101726E+02  0.21481069495E+03 -0.13254775359E+02  0.23480753921E+03  0.91095150342E+02 0.  0.
        -11    1    1    2    0    0 -0.85536958547E+02  0.14032547790E+03  0.26838818913E+03  0.31470626160E+03  0.00000000000E+00 0.  1.
         11    1    1    2    0    0  0.10827306027E+03 -0.35513617284E+03 -0.25513341377E+03  0.45048619919E+03  0.00000000000E+00 0. -1.
        -15    1    3    3    0    0 -0.20752505427E+02  0.12931046478E+03  0.36344770471E+02  0.13592631406E+03  0.17770000000E+01 0.  1.
         15    1    3    3    0    0 -0.19835962991E+01  0.85500230162E+02 -0.49599545830E+02  0.98881225152E+02  0.17770000000E+01 0. -1.
</event>
<event>
 7    1  0.3970441E-006  0.4427763E+03  0.7546771E-02  0.9537824E-01
        -11   -1    0    0    0    0  0.00000000000E+00  0.00000000000E+00  0.50000000000E+03  0.50000000000E+03  0.00000000000E+00 0. -1.
         11   -1    0    0    0    0 -0.00000000000E+00 -0.00000000000E+00 -0.50000000000E+03  0.50000000000E+03  0.00000000000E+00 0.  1.
         23    2    1    2    0    0  0.58278657861E+02 -0.27855510226E+02 -0.11510875955E+02  0.11202020938E+03  0.90794799586E+02 0.  0.
        -11    1    1    2    0    0 -0.48817050149E+02 -0.37076767425E+03  0.22424145725E+03  0.43604587351E+03  0.00000000000E+00 0. -1.
         11    1    1    2    0    0 -0.94616077116E+01  0.39862318447E+03 -0.21273058130E+03  0.45193391711E+03  0.00000000000E+00 0.  1.
        -15    1    3    3    0    0 -0.23375294208E+02  0.30584635302E+01 -0.66408480890E+01  0.24556407938E+02  0.17770000000E+01 0.  1.
         15    1    3    3    0    0  0.81653952069E+02 -0.30913973756E+02 -0.48700278656E+01  0.87463801440E+02  0.17770000000E+01 0. -1.
</event>
<event>
 7    1  0.3970441E-006  0.4197293E+03  0.7546771E-02  0.9599839E-01
        -11   -1    0    0    0    0  0.00000000000E+00  0.00000000000E+00  0.50000000000E+03  0.50000000000E+03  0.00000000000E+00 0.  1.
         11   -1    0    0    0    0 -0.00000000000E+00 -0.00000000000E+00 -0.50000000000E+03  0.50000000000E+03  0.00000000000E+00 0. -1.
         23    2    1    2    0    0  0.14669384227E+02 -0.52177995405E+02 -0.37510513290E+03  0.38989147091E+03  0.91508274646E+02 0.  0.
        -11    1    1    2    0    0  0.94937626694E+02  0.15555539108E+03  0.41585069852E+03  0.45402911373E+03  0.00000000000E+00 0.  1.
         11    1    1    2    0    0 -0.10960701092E+03 -0.10337739567E+03 -0.40745565626E+02  0.15607941535E+03  0.00000000000E+00 0. -1.
        -15    1    3    3    0    0  0.37058282718E+00  0.24126740987E+02 -0.48734250953E+02  0.54409759302E+02  0.17770000000E+01 0.  1.
         15    1    3    3    0    0  0.14298801400E+02 -0.76304736392E+02 -0.32637088194E+03  0.33548171161E+03  0.17770000000E+01 0. -1.
</event>
<event>
 7    1  0.3970441E-006  0.5203139E+03  0.7546771E-02  0.9355469E-01
        -11   -1    0    0    0    0  0.00000000000E+00  0.00000000000E+00  0.50000000000E+03  0.50000000000E+03  0.00000000000E+00 0.  1.
         11   -1    0    0    0    0 -0.00000000000E+00 -0.00000000000E+00 -0.50000000000E+03  0.50000000000E+03  0.00000000000E+00 0. -1.
         23    2    1    2    0    0  0.39567782888E+02  0.15543744338E+03 -0.26480746730E+03  0.32216160974E+03  0.89099381633E+02 0.  0.
        -11    1    1    2    0    0  0.11076761547E+02 -0.32630919259E+03  0.35142333782E+03  0.47968609129E+03  0.00000000000E+00 0.  1.
         11    1    1    2    0    0 -0.50644544436E+02  0.17087174921E+03 -0.86615870524E+02  0.19815229896E+03  0.00000000000E+00 0. -1.
        -15    1    3    3    0    0  0.45544009763E+02  0.74571158208E+02 -0.72867933425E+02  0.11378931370E+03  0.17770000000E+01 0.  1.
         15    1    3    3    0    0 -0.59762268747E+01  0.80866285173E+02 -0.19193953387E+03  0.20837229604E+03  0.17770000000E+01 0. -1.
</event>
<event>
 7    1  0.3970441E-006  0.5355502E+03  0.7546771E-02  0.9323598E-01
        -11   -1    0    0    0    0  0.00000000000E+00  0.00000000000E+00  0.50000000000E+03  0.50000000000E+03  0.00000000000E+00 0.  1.
         11   -1    0    0    0    0 -0.00000000000E+00 -0.00000000000E+00 -0.50000000000E+03  0.50000000000E+03  0.00000000000E+00 0. -1.
         23    2    1    2    0    0 -0.12037502722E+03  0.41237244869E+02 -0.25442106784E+03  0.29875783152E+03  0.91298984633E+02 0.  0.
        -11    1    1    2    0    0  0.48258725345E+01 -0.75598131787E+02  0.45823060690E+03  0.46444984193E+03  0.00000000000E+00 0.  1.
         11    1    1    2    0    0  0.11554915468E+03  0.34360886918E+02 -0.20380953906E+03  0.23679232654E+03  0.00000000000E+00 0. -1.
        -15    1    3    3    0    0 -0.43730478519E+01  0.26777020223E+02 -0.12208550314E+02  0.29805012821E+02  0.17770000000E+01 0.  1.
         15    1    3    3    0    0 -0.11600197937E+03  0.14460224646E+02 -0.24221251752E+03  0.26895281870E+03  0.17770000000E+01 0. -1.
</event>
<event>
 7    1  0.3970441E-006  0.3420134E+03  0.7546771E-02  0.9845186E-01
        -11   -1    0    0    0    0  0.00000000000E+00  0.00000000000E+00  0.50000000000E+03  0.50000000000E+03  0.00000000000E+00 0. -1.
         11   -1    0    0    0    0 -0.00000000000E+00 -0.00000000000E+00 -0.50000000000E+03  0.50000000000E+03  0.00000000000E+00 0.  1.
         23    2    1    2    0    0  0.36938940842E+02  0.12978793072E+03 -0.21560109377E+03  0.27021518535E+03  0.91230600376E+02 0.  0.
        -11    1    1    2    0    0 -0.71323318402E+02  0.27772896219E+02  0.44380033847E+03  0.45035218434E+03  0.00000000000E+00 0. -1.
         11    1    1    2    0    0  0.34384377560E+02 -0.15756082694E+03 -0.22819924469E+03  0.27943263032E+03  0.00000000000E+00 0.  1.
        -15    1    3    3    0    0  0.47602128799E+02  0.10177458554E+03 -0.98839106594E+02  0.14965412006E+03  0.17770000000E+01 0. -1.
         15    1    3    3    0    0 -0.10663187957E+02  0.28013345181E+02 -0.11676198718E+03  0.12056106529E+03  0.17770000000E+01 0.  1.
</event>
<event>
 7    1  0.3970441E-006  0.4072152E+03  0.7546771E-02  0.9635319E-01
        -11   -1    0    0    0    0  0.00000000000E+00  0.00000000000E+00  0.50000000000E+03  0.50000000000E+03  0.00000000000E+00 0. -1.
         11   -1    0    0    0    0 -0.00000000000E+00 -0.00000000000E+00 -0.50000000000E+03  0.50000000000E+03  0.00000000000E+00 0. -1.
         23    2    1    2    0    0  0.83689728328E+02 -0.38105377960E+01 -0.39888643164E+03  0.41674294673E+03  0.86866607393E+02 0.  0.
        -11    1    1    2    0    0  0.46662303155E+02  0.12127733372E+03  0.38603181160E+03  0.40731575194E+03  0.00000000000E+00 0. -1.
         11    1    1    2    0    0 -0.13035203148E+03 -0.11746679593E+03  0.12854620045E+02  0.17594130133E+03  0.00000000000E+00 0. -1.
        -15    1    3    3    0    0  0.72671107507E+02 -0.31085954377E+02 -0.35621950888E+03  0.36488754797E+03  0.17770000000E+01 0. -1.
         15    1    3    3    0    0  0.11018620821E+02  0.27275416581E+02 -0.42666922761E+02  0.51855398767E+02  0.17770000000E+01 0.  1.
</event>
<event>
 7    1  0.3970441E-006  0.4262108E+03  0.7546771E-02  0.9581977E-01
        -11   -1    0    0    0    0  0.00000000000E+00  0.00000000000E+00  0.50000000000E+03  0.50000000000E+03  0.00000000000E+00 0.  1.
         11   -1    0    0    0    0 -0.00000000000E+00 -0.00000000000E+00 -0.50000000000E+03  0.50000000000E+03  0.00000000000E+00 0. -1.
         23    2    1    2    0    0  0.21978138341E+02 -0.32994282573E+02 -0.39201516972E+03  0.40519199758E+03  0.94514551100E+02 0.  0.
        -11    1    1    2    0    0 -0.98852333106E+02  0.15548201640E+03  0.40959898141E+03  0.44913001097E+03  0.00000000000E+00 0.  1.
         11    1    1    2    0    0  0.76874194765E+02 -0.12248773383E+03 -0.17583811688E+02  0.14567799145E+03  0.00000000000E+00 0. -1.
        -15    1    3    3    0    0 -0.61703300620E+01  0.31296249250E+02 -0.13835832619E+03  0.14199898713E+03  0.17770000000E+01 0.  1.
         15    1    3    3    0    0  0.28148468403E+02 -0.64290531823E+02 -0.25365684353E+03  0.26319301046E+03  0.17770000000E+01 0. -1.
</event>
<event>
 7    1  0.3970441E-006  0.5174894E+03  0.7546771E-02  0.9361504E-01
        -11   -1    0    0    0    0  0.00000000000E+00  0.00000000000E+00  0.50000000000E+03  0.50000000000E+03  0.00000000000E+00 0. -1.
         11   -1    0    0    0    0 -0.00000000000E+00 -0.00000000000E+00 -0.50000000000E+03  0.50000000000E+03  0.00000000000E+00 0.  1.
         23    2    1    2    0    0  0.22266702330E+01  0.27919739244E+02 -0.28862441256E+03  0.30377506277E+03  0.90502858148E+02 0.  0.
        -11    1    1    2    0    0 -0.11590479076E+03 -0.83293566803E+02  0.46091729393E+03  0.48251061194E+03  0.00000000000E+00 0. -1.
         11    1    1    2    0    0  0.11367812052E+03  0.55373827559E+02 -0.17229288137E+03  0.21371432529E+03  0.00000000000E+00 0.  1.
        -15    1    3    3    0    0  0.23465976985E+02  0.51136583914E+02 -0.23432837105E+03  0.24099490762E+03  0.17770000000E+01 0. -1.
         15    1    3    3    0    0 -0.21239306751E+02 -0.23216844670E+02 -0.54296041518E+02  0.62780155154E+02  0.17770000000E+01 0.  1.
</event>
<event>
 7    1  0.3970441E-006  0.5140296E+03  0.7546771E-02  0.9368953E-01
        -11   -1    0    0    0    0  0.00000000000E+00  0.00000000000E+00  0.50000000000E+03  0.50000000000E+03  0.00000000000E+00 0.  1.
         11   -1    0    0    0    0 -0.00000000000E+00 -0.00000000000E+00 -0.50000000000E+03  0.50000000000E+03  0.00000000000E+00 0. -1.
         23    2    1    2    0    0 -0.14568468228E+03  0.86400096299E+01  0.34544547598E+03  0.38757630924E+03  0.97898632221E+02 0.  0.
        -11    1    1    2    0    0  0.31128248535E+01  0.52181959611E+02  0.11514242919E+03  0.12645325456E+03  0.00000000000E+00 0.  1.
         11    1    1    2    0    0  0.14257185743E+03 -0.60821969241E+02 -0.46058790517E+03  0.48597043620E+03  0.00000000000E+00 0. -1.
        -15    1    3    3    0    0 -0.85373139157E+02 -0.41723855500E+02  0.21843171204E+03  0.23821213983E+03  0.17770000000E+01 0.  1.
         15    1    3    3    0    0 -0.60311543127E+02  0.50363865130E+02  0.12701376393E+03  0.14936416941E+03  0.17770000000E+01 0. -1.
</event>
<event>
 7    1  0.3970441E-006  0.5263533E+03  0.7546771E-02  0.9342699E-01
        -11   -1    0    0    0    0  0.00000000000E+00  0.00000000000E+00  0.50000000000E+03  0.50000000000E+03  0.00000000000E+00 0.  1.
         11   -1    0    0    0    0 -0.00000000000E+00 -0.00000000000E+00 -0.50000000000E+03  0.50000000000E+03  0.00000000000E+00 0. -1.
         23    2    1    2    0    0  0.58442575629E+02  0.46835871041E+02  0.13345101856E+03  0.17988693756E+03  0.94556874351E+02 0.  0.
        -11    1    1    2    0    0  0.21219779591E+02 -0.10332776018E+03  0.33001824745E+03  0.34646637459E+03  0.00000000000E+00 0.  1.
         11    1    1    2    0    0 -0.79662355220E+02  0.56491889138E+02 -0.46346926601E+03  0.47364668785E+03  0.00000000000E+00 0. -1.
        -15    1    3    3    0    0 -0.25858712398E+02  0.55455966046E+01  0.34135936026E+02  0.43218589819E+02  0.17770000000E+01 0.  1.
         15    1    3    3    0    0  0.84301288026E+02  0.41290274436E+02  0.99315082537E+02  0.13666834774E+03  0.17770000000E+01 0. -1.
</event>
<event>
 7    1  0.3970441E-006  0.5166541E+03  0.7546771E-02  0.9363297E-01
        -11   -1    0    0    0    0  0.00000000000E+00  0.00000000000E+00  0.50000000000E+03  0.50000000000E+03  0.00000000000E+00 0.  1.
         11   -1    0    0    0    0 -0.00000000000E+00 -0.00000000000E+00 -0.50000000000E+03  0.50000000000E+03  0.00000000000E+00 0. -1.
         23    2    1    2    0    0 -0.11841798745E+02 -0.12791141983E+02 -0.33186378333E+03  0.34619369018E+03  0.97018858608E+02 0.  0.
        -11    1    1    2    0    0  0.91864406060E+02 -0.39877195453E+02  0.47285729776E+03  0.48334592567E+03  0.00000000000E+00 0.  1.
         11    1    1    2    0    0 -0.80022607316E+02  0.52668337435E+02 -0.14099351444E+03  0.17046038414E+03  0.00000000000E+00 0. -1.
        -15    1    3    3    0    0 -0.12125543454E+02 -0.54523078770E+02 -0.21279566745E+03  0.22001124684E+03  0.17770000000E+01 0.  1.
         15    1    3    3    0    0  0.28374470971E+00  0.41731936788E+02 -0.11906811588E+03  0.12618244334E+03  0.17770000000E+01 0. -1.
</event>
<event>
 7    1  0.3970441E-006  0.3573870E+03  0.7546771E-02  0.9791430E-01
        -11   -1    0    0    0    0  0.00000000000E+00  0.00000000000E+00  0.50000000000E+03  0.50000000000E+03  0.00000000000E+00 0. -1.
         11   -1    0    0    0    0 -0.00000000000E+00 -0.00000000000E+00 -0.50000000000E+03  0.50000000000E+03  0.00000000000E+00 0. -1.
         23    2    1    2    0    0 -0.10547105134E+03  0.20054863998E+03 -0.49645855419E+02  0.24852774566E+03  0.89204426646E+02 0.  0.
        -11    1    1    2    0    0  0.61545359444E+02  0.38613227426E+02  0.35430109711E+03  0.36167399687E+03  0.00000000000E+00 0. -1.
         11    1    1    2    0    0  0.43925691898E+02 -0.23916186741E+03 -0.30465524169E+03  0.38979825746E+03  0.00000000000E+00 0. -1.
        -15    1    3    3    0    0 -0.80051302274E+02  0.11381233302E+03 -0.70136883736E+02  0.15583259714E+03  0.17770000000E+01 0.  1.
         15    1    3    3    0    0 -0.25419749068E+02  0.86736306966E+02  0.20491028317E+02  0.92695148520E+02  0.17770000000E+01 0. -1.
</event>
<event>
 7    1  0.3970441E-006  0.3885659E+03  0.7546771E-02  0.9690802E-01
        -11   -1    0    0    0    0  0.00000000000E+00  0.00000000000E+00  0.50000000000E+03  0.50000000000E+03  0.00000000000E+00 0. -1.
         11   -1    0    0    0    0 -0.00000000000E+00 -0.00000000000E+00 -0.50000000000E+03  0.50000000000E+03  0.00000000000E+00 0. -1.
         23    2    1    2    0    0 -0.89548367510E+02  0.62187068752E+02 -0.13478542516E+03  0.20376695756E+03  0.10708744330E+03 0.  0.
        -11    1    1    2    0    0 -0.18529204222E+03  0.25097229051E+03  0.20556934006E+03  0.37360271022E+03  0.00000000000E+00 0. -1.
         11    1    1    2    0    0  0.27484040973E+03 -0.31315935926E+03 -0.70783914902E+02  0.42263033223E+03  0.00000000000E+00 0. -1.
        -15    1    3    3    0    0 -0.28020532831E+02 -0.27284418968E+02 -0.14600440147E+02  0.41784211851E+02  0.17770000000E+01 0.  1.
         15    1    3    3    0    0 -0.61527834679E+02  0.89471487720E+02 -0.12018498501E+03  0.16198274570E+03  0.17770000000E+01 0. -1.
</event>
<event>
 7    1  0.3970441E-006  0.5132054E+03  0.7546771E-02  0.9370737E-01
        -11   -1    0    0    0    0  0.00000000000E+00  0.00000000000E+00  0.50000000000E+03  0.50000000000E+03  0.00000000000E+00 0.  1.
         11   -1    0    0    0    0 -0.00000000000E+00 -0.00000000000E+00 -0.50000000000E+03  0.50000000000E+03  0.00000000000E+00 0. -1.
         23    2    1    2    0    0  0.26162309397E+01  0.58434890332E+02 -0.29222525631E+03  0.31142756375E+03  0.90388306585E+02 0.  0.
        -11    1    1    2    0    0  0.76821767427E+02 -0.53976545077E+02  0.47765458332E+03  0.48679456892E+03  0.00000000000E+00 0.  1.
         11    1    1    2    0    0 -0.79437998367E+02 -0.44583452548E+01 -0.18542932701E+03  0.20177786732E+03  0.00000000000E+00 0. -1.
        -15    1    3    3    0    0 -0.30119851376E+02 -0.27153803494E+01 -0.42162546750E+02  0.51917403776E+02  0.17770000000E+01 0.  1.
         15    1    3    3    0    0  0.32736082316E+02  0.61150270682E+02 -0.25006270956E+03  0.25951015998E+03  0.17770000000E+01 0. -1.
</event>
<event>
 7    1  0.3970441E-006  0.5354516E+03  0.7546771E-02  0.9323801E-01
        -11   -1    0    0    0    0  0.00000000000E+00  0.00000000000E+00  0.50000000000E+03  0.50000000000E+03  0.00000000000E+00 0.  1.
         11   -1    0    0    0    0 -0.00000000000E+00 -0.00000000000E+00 -0.50000000000E+03  0.50000000000E+03  0.00000000000E+00 0. -1.
         23    2    1    2    0    0  0.81413718061E+01  0.75703361647E+01  0.25570553167E+02  0.94456965920E+02  0.90247843725E+02 0.  0.
        -11    1    1    2    0    0 -0.12387774355E+03  0.11163023515E+03  0.40825146073E+03  0.44099462574E+03  0.00000000000E+00 0.  1.
         11    1    1    2    0    0  0.11573637175E+03 -0.11920057131E+03 -0.43382201390E+03  0.46454840834E+03  0.00000000000E+00 0. -1.
        -15    1    3    3    0    0  0.32385587478E+02 -0.34485404161E+01 -0.22395291201E+02  0.39565458475E+02  0.17770000000E+01 0. -1.
         15    1    3    3    0    0 -0.24244215672E+02  0.11018876581E+02  0.47965844368E+02  0.54891507445E+02  0.17770000000E+01 0.  1.
</event>
<event>
 7    1  0.3970441E-006  0.3430815E+03  0.7546771E-02  0.9841354E-01
        -11   -1    0    0    0    0  0.00000000000E+00  0.00000000000E+00  0.50000000000E+03  0.50000000000E+03  0.00000000000E+00 0.  1.
         11   -1    0    0    0    0 -0.00000000000E+00 -0.00000000000E+00 -0.50000000000E+03  0.50000000000E+03  0.00000000000E+00 0. -1.
         23    2    1    2    0    0 -0.79438816338E+02  0.27811389316E+01 -0.23996646496E+03  0.26875321825E+03  0.91247617704E+02 0.  0.
        -11    1    1    2    0    0 -0.16498730202E+03  0.10963404085E+03  0.37956537661E+03  0.42814753049E+03  0.00000000000E+00 0.  1.
         11    1    1    2    0    0  0.24442611836E+03 -0.11241517979E+03 -0.13959891165E+03  0.30309925126E+03  0.00000000000E+00 0. -1.
        -15    1    3    3    0    0 -0.60173826514E+02 -0.31084359741E+02 -0.83656262856E+02  0.10765061478E+03  0.17770000000E+01 0. -1.
         15    1    3    3    0    0 -0.19264989824E+02  0.33865498673E+02 -0.15631020211E+03  0.16110260347E+03  0.17770000000E+01 0.  1.
</event>
<event>
 7    1  0.3970441E-006  0.5329614E+03  0.7546771E-02  0.9328934E-01
        -11   -1    0    0    0    0  0.00000000000E+00  0.00000000000E+00  0.50000000000E+03  0.50000000000E+03  0.00000000000E+00 0.  1.
         11   -1    0    0    0    0 -0.00000000000E+00 -0.00000000000E+00 -0.50000000000E+03  0.50000000000E+03  0.00000000000E+00 0.  1.
         23    2    1    2    0    0 -0.35208099349E+02 -0.52240301527E+02 -0.34012783715E+03  0.35739270733E+03  0.89855118296E+02 0.  0.
        -11    1    1    2    0    0 -0.92899778369E+02  0.24906580947E+02  0.45702776598E+03  0.46703863381E+03  0.00000000000E+00 0.  1.
         11    1    1    2    0    0  0.12810787772E+03  0.27333720580E+02 -0.11689992883E+03  0.17556865886E+03  0.00000000000E+00 0.  1.
        -15    1    3    3    0    0  0.29309876208E+01 -0.67828257377E+02 -0.19332277907E+03  0.20490514348E+03  0.17770000000E+01 0.  1.
         15    1    3    3    0    0 -0.38139086969E+02  0.15587955849E+02 -0.14680505808E+03  0.15248756385E+03  0.17770000000E+01 0. -1.
</event>
<event>
 7    1  0.3970441E-006  0.4501067E+03  0.7546771E-02  0.9518938E-01
        -11   -1    0    0    0    0  0.00000000000E+00  0.00000000000E+00  0.50000000000E+03  0.50000000000E+03  0.00000000000E+00 0. -1.
         11   -1    0    0    0    0 -0.00000000000E+00 -0.00000000000E+00 -0.50000000000E+03  0.50000000000E+03  0.00000000000E+00 0.  1.
         23    2    1    2    0    0  0.30454577980E+03 -0.32009766436E+03 -0.10000906730E+03  0.46233553757E+03  0.92421258554E+02 0.  0.
        -11    1    1    2    0    0 -0.26641379619E+02 -0.13605129369E+02  0.98973625435E+02  0.10339555689E+03  0.00000000000E+00 0. -1.
         11    1    1    2    0    0 -0.27790440018E+03  0.33370279373E+03  0.10354418676E+01  0.43426890554E+03  0.00000000000E+00 0.  1.
        -15    1    3    3    0    0  0.21047685197E+03 -0.15703532049E+03 -0.47281404664E+02  0.26683194347E+03  0.17770000000E+01 0. -1.
         15    1    3    3    0    0  0.94068927828E+02 -0.16306234387E+03 -0.52727662638E+02  0.19550359410E+03  0.17770000000E+01 0.  1.
</event>
<event>
 7    1  0.3970441E-006  0.5252832E+03  0.7546771E-02  0.9344948E-01
        -11   -1    0    0    0    0  0.00000000000E+00  0.00000000000E+00  0.50000000000E+03  0.50000000000E+03  0.00000000000E+00 0.  1.
         11   -1    0    0    0    0 -0.00000000000E+00 -0.00000000000E+00 -0.50000000000E+03  0.50000000000E+03  0.00000000000E+00 0.  1.
         23    2    1    2    0    0 -0.23819421808E+02  0.41822050935E+02  0.16292345555E+03  0.19217734272E+03  0.89842250009E+02 0.  0.
        -11    1    1    2    0    0 -0.78856027786E+02  0.26738383785E+03  0.18233800311E+03  0.33310589494E+03  0.00000000000E+00 0.  1.
         11    1    1    2    0    0  0.10267544959E+03 -0.30920588879E+03 -0.34526145866E+03  0.47471676234E+03  0.00000000000E+00 0.  1.
        -15    1    3    3    0    0  0.33166085159E+02  0.47736629667E+01  0.61774644443E+02  0.70299654963E+02  0.17770000000E+01 0. -1.
         15    1    3    3    0    0 -0.56985506968E+02  0.37048387968E+02  0.10114881111E+03  0.12187768776E+03  0.17770000000E+01 0.  1.
</event>
<event>
 7    1  0.3970441E-006  0.3744286E+03  0.7546771E-02  0.9735128E-01
        -11   -1    0    0    0    0  0.00000000000E+00  0.00000000000E+00  0.50000000000E+03  0.50000000000E+03  0.00000000000E+00 0. -1.
         11   -1    0    0    0    0 -0.00000000000E+00 -0.00000000000E+00 -0.50000000000E+03  0.50000000000E+03  0.00000000000E+00 0.  1.
         23    2    1    2    0    0 -0.11154679226E+02 -0.11839487583E+03 -0.37395148278E+03  0.40265431397E+03  0.90271875955E+02 0.  0.
        -11    1    1    2    0    0  0.78162702045E+02 -0.97754221631E+02  0.34768752047E+03  0.36952930565E+03  0.00000000000E+00 0. -1.
         11    1    1    2    0    0 -0.67008022819E+02  0.21614909747E+03  0.26263962308E+02  0.22781638039E+03  0.00000000000E+00 0.  1.
        -15    1    3    3    0    0 -0.18051217468E+02 -0.13225474358E+03 -0.32762877522E+03  0.35378091488E+03  0.17770000000E+01 0.  1.
         15    1    3    3    0    0  0.68965382418E+01  0.13859867743E+02 -0.46322707565E+02  0.48873399091E+02  0.17770000000E+01 0. -1.
</event>
<event>
 7    1  0.3970441E-006  0.5104750E+03  0.7546771E-02  0.9376671E-01
        -11   -1    0    0    0    0  0.00000000000E+00  0.00000000000E+00  0.50000000000E+03  0.50000000000E+03  0.00000000000E+00 0. -1.
         11   -1    0    0    0    0 -0.00000000000E+00 -0.00000000000E+00 -0.50000000000E+03  0.50000000000E+03  0.00000000000E+00 0. -1.
         23    2    1    2    0    0 -0.53537533276E+01  0.23125478789E+02 -0.23093212457E+03  0.24987862702E+03  0.92445830831E+02 0.  0.
        -11    1    1    2    0    0  0.52210026482E+02 -0.90785587257E+02  0.47819121439E+03  0.48952502207E+03  0.00000000000E+00 0. -1.
         11    1    1    2    0    0 -0.46856273155E+02  0.67660108468E+02 -0.24725908981E+03  0.26059635091E+03  0.00000000000E+00 0. -1.
        -15    1    3    3    0    0  0.28798009119E+02  0.45951749969E+02 -0.13607330032E+03  0.14649228459E+03  0.17770000000E+01 0. -1.
         15    1    3    3    0    0 -0.34151762447E+02 -0.22826271180E+02 -0.94858824253E+02  0.10338634243E+03  0.17770000000E+01 0.  1.
</event>
<event>
 7    1  0.3970441E-006  0.5100019E+03  0.7546771E-02  0.9377704E-01
        -11   -1    0    0    0    0  0.00000000000E+00  0.00000000000E+00  0.50000000000E+03  0.50000000000E+03  0.00000000000E+00 0. -1.
         11   -1    0    0    0    0 -0.00000000000E+00 -0.00000000000E+00 -0.50000000000E+03  0.50000000000E+03  0.00000000000E+00 0.  1.
         23    2    1    2    0    0  0.19857407979E+02  0.58973184199E+02 -0.27563695234E+03  0.29763841005E+03  0.93491927655E+02 0.  0.
        -11    1    1    2    0    0  0.20497830811E+02 -0.78797237459E+02  0.48318626347E+03  0.48999809276E+03  0.00000000000E+00 0. -1.
         11    1    1    2    0    0 -0.40355238790E+02  0.19824053260E+02 -0.20754931114E+03  0.21236349719E+03  0.00000000000E+00 0.  1.
        -15    1    3    3    0    0 -0.11990145446E+02  0.21960685760E+02 -0.91364203744E+01  0.26695827635E+02  0.17770000000E+01 0. -1.
         15    1    3    3    0    0  0.31847553425E+02  0.37012498439E+02 -0.26650053196E+03  0.27094258242E+03  0.17770000000E+01 0.  1.
</event>
<event>
 7    1  0.3970441E-006  0.5092756E+03  0.7546771E-02  0.9379291E-01
        -11   -1    0    0    0    0  0.00000000000E+00  0.00000000000E+00  0.50000000000E+03  0.50000000000E+03  0.00000000000E+00 0.  1.
         11   -1    0    0    0    0 -0.00000000000E+00 -0.00000000000E+00 -0.50000000000E+03  0.50000000000E+03  0.00000000000E+00 0.  1.
         23    2    1    2    0    0  0.10087439560E+03  0.23884124218E+02  0.24311917027E+03  0.27618558526E+03  0.80158913886E+02 0.  0.
        -11    1    1    2    0    0  0.70465365098E+02  0.93828891892E+02  0.20139941529E+03  0.23309001075E+03  0.00000000000E+00 0.  1.
         11    1    1    2    0    0 -0.17133976070E+03 -0.11771301611E+03 -0.44451858556E+03  0.49072440399E+03  0.00000000000E+00 0.  1.
        -15    1    3    3    0    0  0.55996550812E+02  0.12059971406E+02  0.21360177998E+03  0.22115590598E+03  0.17770000000E+01 0. -1.
         15    1    3    3    0    0  0.44877844790E+02  0.11824152812E+02  0.29517390296E+02  0.55029679280E+02  0.17770000000E+01 0.  1.
</event>
<event>
 7    1  0.3970441E-006  0.4420151E+03  0.7546771E-02  0.9539808E-01
        -11   -1    0    0    0    0  0.00000000000E+00  0.00000000000E+00  0.50000000000E+03  0.50000000000E+03  0.00000000000E+00 0.  1.
         11   -1    0    0    0    0 -0.00000000000E+00 -0.00000000000E+00 -0.50000000000E+03  0.50000000000E+03  0.00000000000E+00 0.  1.
         23    2    1    2    0    0  0.18158614766E+02  0.77086137060E+01  0.62376035801E+02  0.11355245879E+03  0.92812892636E+02 0.  0.
        -11    1    1    2    0    0 -0.31824054986E+03  0.18059316587E+03  0.22562668889E+03  0.42988177663E+03  0.00000000000E+00 0.  1.
         11    1    1    2    0    0  0.30008193510E+03 -0.18830177957E+03 -0.28800272469E+03  0.45656576459E+03  0.00000000000E+00 0.  1.
        -15    1    3    3    0    0 -0.58356051818E+01  0.45624525180E+02  0.15332011183E+02  0.48516799994E+02  0.17770000000E+01 0.  1.
         15    1    3    3    0    0  0.23994219947E+02 -0.37915911474E+02  0.47044024617E+02  0.65035658795E+02  0.17770000000E+01 0. -1.
</event>
<event>
 7    1  0.3970441E-006  0.5414813E+03  0.7546771E-02  0.9311495E-01
        -11   -1    0    0    0    0  0.00000000000E+00  0.00000000000E+00  0.50000000000E+03  0.50000000000E+03  0.00000000000E+00 0. -1.
         11   -1    0    0    0    0 -0.00000000000E+00 -0.00000000000E+00 -0.50000000000E+03  0.50000000000E+03  0.00000000000E+00 0.  1.
         23    2    1    2    0    0  0.12785663769E+02  0.35529514968E+02 -0.39509905968E+02  0.12739371878E+03  0.11507522445E+03 0.  0.
        -11    1    1    2    0    0  0.24434895295E+02 -0.99429365746E+02  0.44694085039E+03  0.45851868733E+03  0.00000000000E+00 0. -1.
         11    1    1    2    0    0 -0.37220559064E+02  0.63899850778E+02 -0.40743094442E+03  0.41408759390E+03  0.00000000000E+00 0.  1.
        -15    1    3    3    0    0  0.68559337319E+01 -0.31996574096E+02  0.18956902195E+02  0.37859033943E+02  0.17770000000E+01 0. -1.
         15    1    3    3    0    0  0.59297300369E+01  0.67526089064E+02 -0.58466808163E+02  0.89534684834E+02  0.17770000000E+01 0.  1.
</event>
<event>
 7    1  0.3970441E-006  0.5383958E+03  0.7546771E-02  0.9317771E-01
        -11   -1    0    0    0    0  0.00000000000E+00  0.00000000000E+00  0.50000000000E+03  0.50000000000E+03  0.00000000000E+00 0. -1.
         11   -1    0    0    0    0 -0.00000000000E+00 -0.00000000000E+00 -0.50000000000E+03  0.50000000000E+03  0.00000000000E+00 0.  1.
         23    2    1    2    0    0 -0.94668513534E+02 -0.71318036062E+02 -0.21896527009E+03  0.26545204012E+03  0.92035897200E+02 0.  0.
        -11    1    1    2    0    0  0.55107004507E+02 -0.61386084335E+02  0.45417329270E+03  0.46160417361E+03  0.00000000000E+00 0. -1.
         11    1    1    2    0    0  0.39561509027E+02  0.13270412040E+03 -0.23520802260E+03  0.27294378627E+03  0.00000000000E+00 0.  1.
        -15    1    3    3    0    0 -0.10400666430E+03 -0.83825894492E+02 -0.20330459469E+03  0.24326956809E+03  0.17770000000E+01 0.  1.
         15    1    3    3    0    0  0.93381507689E+01  0.12507858429E+02 -0.15660675401E+02  0.22182472028E+02  0.17770000000E+01 0. -1.
</event>
<event>
 7    1  0.3970441E-006  0.5161326E+03  0.7546771E-02  0.9364418E-01
        -11   -1    0    0    0    0  0.00000000000E+00  0.00000000000E+00  0.50000000000E+03  0.50000000000E+03  0.00000000000E+00 0.  1.
         11   -1    0    0    0    0 -0.00000000000E+00 -0.00000000000E+00 -0.50000000000E+03  0.50000000000E+03  0.00000000000E+00 0. -1.
         23    2    1    2    0    0 -0.33151954361E+02  0.24175026594E+02 -0.38507103958E+03  0.39873091369E+03  0.94990273297E+02 0.  0.
        -11    1    1    2    0    0  0.11352025651E+03 -0.44166579146E+02  0.46828421990E+03  0.48386738469E+03  0.00000000000E+00 0.  1.
         11    1    1    2    0    0 -0.80368302152E+02  0.19991552552E+02 -0.83213180322E+02  0.11740170162E+03  0.00000000000E+00 0. -1.
        -15    1    3    3    0    0  0.57380300316E+01  0.50755774643E+02 -0.13705366593E+03  0.14627350656E+03  0.17770000000E+01 0.  1.
         15    1    3    3    0    0 -0.38889984393E+02 -0.26580748049E+02 -0.24801737365E+03  0.25245740713E+03  0.17770000000E+01 0. -1.
</event>
<event>
 7    1  0.3970441E-006  0.5372904E+03  0.7546771E-02  0.9320030E-01
        -11   -1    0    0    0    0  0.00000000000E+00  0.00000000000E+00  0.50000000000E+03  0.50000000000E+03  0.00000000000E+00 0.  1.
         11   -1    0    0    0    0 -0.00000000000E+00 -0.00000000000E+00 -0.50000000000E+03  0.50000000000E+03  0.00000000000E+00 0. -1.
         23    2    1    2    0    0 -0.16671942029E+02 -0.21777546500E+02  0.68860002474E+01  0.97708972592E+02  0.93527595623E+02 0.  0.
        -11    1    1    2    0    0 -0.31839263002E+03 -0.13052581337E+03  0.27353430842E+03  0.43958147446E+03  0.00000000000E+00 0.  1.
         11    1    1    2    0    0  0.33506457205E+03  0.15230335987E+03 -0.28042030867E+03  0.46270955294E+03  0.00000000000E+00 0. -1.
        -15    1    3    3    0    0  0.23269385842E+02 -0.39719531983E+02 -0.15363096031E+02  0.48562207395E+02  0.17770000000E+01 0.  1.
         15    1    3    3    0    0 -0.39941327871E+02  0.17941985483E+02  0.22249096278E+02  0.49146765198E+02  0.17770000000E+01 0. -1.
</event>
<event>
 7    1  0.3970441E-006  0.3639250E+03  0.7546771E-02  0.9769440E-01
        -11   -1    0    0    0    0  0.00000000000E+00  0.00000000000E+00  0.50000000000E+03  0.50000000000E+03  0.00000000000E+00 0.  1.
         11   -1    0    0    0    0 -0.00000000000E+00 -0.00000000000E+00 -0.50000000000E+03  0.50000000000E+03  0.00000000000E+00 0.  1.
         23    2    1    2    0    0  0.82833649758E+02  0.22823510917E+03  0.27383751081E+03  0.37705399764E+03  0.90719657303E+02 0.  0.
        -11    1    1    2    0    0  0.10587355249E+03 -0.32870235262E+03 -0.15745044673E+03  0.37953272443E+03  0.00000000000E+00 0.  1.
         11    1    1    2    0    0 -0.18870720225E+03  0.10046724346E+03 -0.11638706408E+03  0.24341327793E+03  0.00000000000E+00 0.  1.
        -15    1    3    3    0    0  0.10120307020E+03  0.18356119841E+03  0.23613726540E+03  0.31575424117E+03  0.17770000000E+01 0.  1.
         15    1    3    3    0    0 -0.18369420444E+02  0.44673910759E+02  0.37700245410E+02  0.61299756467E+02  0.17770000000E+01 0. -1.
</event>
<event>
 7    1  0.3970441E-006  0.5100951E+03  0.7546771E-02  0.9377500E-01
        -11   -1    0    0    0    0  0.00000000000E+00  0.00000000000E+00  0.50000000000E+03  0.50000000000E+03  0.00000000000E+00 0. -1.
         11   -1    0    0    0    0 -0.00000000000E+00 -0.00000000000E+00 -0.50000000000E+03  0.50000000000E+03  0.00000000000E+00 0.  1.
         23    2    1    2    0    0  0.20786865807E+02 -0.52487632006E+02  0.29616249530E+03  0.31477991514E+03  0.90482738967E+02 0.  0.
        -11    1    1    2    0    0 -0.52474438470E+02 -0.28420122118E+02  0.18597510916E+03  0.19531515881E+03  0.00000000000E+00 0. -1.
         11    1    1    2    0    0  0.31687572663E+02  0.80907754124E+02 -0.48213760446E+03  0.48990492605E+03  0.00000000000E+00 0.  1.
        -15    1    3    3    0    0  0.26532182062E+02 -0.76277825817E+02  0.20413464716E+03  0.21953672881E+03  0.17770000000E+01 0. -1.
         15    1    3    3    0    0 -0.57453162554E+01  0.23790193811E+02  0.92027848143E+02  0.95243186335E+02  0.17770000000E+01 0.  1.
</event>
<event>
 7    1  0.3970441E-006  0.5280285E+03  0.7546771E-02  0.9339189E-01
        -11   -1    0    0    0    0  0.00000000000E+00  0.00000000000E+00  0.50000000000E+03  0.50000000000E+03  0.00000000000E+00 0.  1.
         11   -1    0    0    0    0 -0.00000000000E+00 -0.00000000000E+00 -0.50000000000E+03  0.50000000000E+03  0.00000000000E+00 0.  1.
         23    2    1    2    0    0  0.94782718068E+02  0.18786229857E+03  0.15092312134E+03  0.27521747578E+03  0.93224801169E+02 0.  0.
        -11    1    1    2    0    0  0.54375154554E+02  0.19114464502E+02  0.24615321914E+03  0.25281105094E+03  0.00000000000E+00 0.  1.
         11    1    1    2    0    0 -0.14915787262E+03 -0.20697676308E+03 -0.39707634048E+03  0.47197147327E+03  0.00000000000E+00 0.  1.
        -15    1    3    3    0    0 -0.18251486969E+02  0.39778231305E+02  0.26711590735E+02  0.51303910873E+02  0.17770000000E+01 0.  1.
         15    1    3    3    0    0  0.11303420504E+03  0.14808406727E+03  0.12421153060E+03  0.22391356491E+03  0.17770000000E+01 0. -1.
</event>
<event>
 7    1  0.3970441E-006  0.5076080E+03  0.7546771E-02  0.9382945E-01
        -11   -1    0    0    0    0  0.00000000000E+00  0.00000000000E+00  0.50000000000E+03  0.50000000000E+03  0.00000000000E+00 0.  1.
         11   -1    0    0    0    0 -0.00000000000E+00 -0.00000000000E+00 -0.50000000000E+03  0.50000000000E+03  0.00000000000E+00 0. -1.
         23    2    1    2    0    0  0.61429819436E+02 -0.99238383892E+02  0.33025253413E+03  0.36213786017E+03  0.91952237147E+02 0.  0.
        -11    1    1    2    0    0 -0.66636977857E+01 -0.23888112037E+02  0.14334055807E+03  0.14547014248E+03  0.00000000000E+00 0.  1.
         11    1    1    2    0    0 -0.54766121651E+02  0.12312649593E+03 -0.47359309220E+03  0.49239199735E+03  0.00000000000E+00 0. -1.
        -15    1    3    3    0    0  0.77023756518E+01 -0.52125642514E+02  0.49111165380E+02  0.72051880560E+02  0.17770000000E+01 0.  1.
         15    1    3    3    0    0  0.53727443785E+02 -0.47112741378E+02  0.28114136874E+03  0.29008597961E+03  0.17770000000E+01 0. -1.
</event>
<event>
 7    1  0.3970441E-006  0.5098476E+03  0.7546771E-02  0.9378041E-01
        -11   -1    0    0    0    0  0.00000000000E+00  0.00000000000E+00  0.50000000000E+03  0.50000000000E+03  0.00000000000E+00 0. -1.
         11   -1    0    0    0    0 -0.00000000000E+00 -0.00000000000E+00 -0.50000000000E+03  0.50000000000E+03  0.00000000000E+00 0.  1.
         23    2    1    2    0    0 -0.14676308518E-01  0.65123031216E+02  0.22538761729E+03  0.25157614152E+03  0.90829331953E+02 0.  0.
        -11    1    1    2    0    0  0.52257934673E+02  0.83181874368E+02  0.23885983135E+03  0.25827143665E+03  0.00000000000E+00 0. -1.
         11    1    1    2    0    0 -0.52243258365E+02 -0.14830490558E+03 -0.46424744863E+03  0.49015242183E+03  0.00000000000E+00 0.  1.
        -15    1    3    3    0    0  0.14985571369E+02  0.78296987504E+01 -0.15119147240E+01  0.17067956730E+02  0.17770000000E+01 0.  1.
         15    1    3    3    0    0 -0.15000247678E+02  0.57293332465E+02  0.22689953201E+03  0.23450818479E+03  0.17770000000E+01 0. -1.
</event>
<event>
 7    1  0.3970441E-006  0.5224112E+03  0.7546771E-02  0.9351014E-01
        -11   -1    0    0    0    0  0.00000000000E+00  0.00000000000E+00  0.50000000000E+03  0.50000000000E+03  0.00000000000E+00 0.  1.
         11   -1    0    0    0    0 -0.00000000000E+00 -0.00000000000E+00 -0.50000000000E+03  0.50000000000E+03  0.00000000000E+00 0. -1.
         23    2    1    2    0    0 -0.26325994833E+03 -0.44149031870E+02  0.27028724255E+03  0.39354760865E+03  0.10280850829E+03 0.  0.
        -11    1    1    2    0    0  0.62813861039E+01 -0.23552786776E+02  0.12653708709E+03  0.12886358673E+03  0.00000000000E+00 0.  1.
         11    1    1    2    0    0  0.25697856223E+03  0.67701818647E+02 -0.39682432964E+03  0.47758880461E+03  0.00000000000E+00 0. -1.
        -15    1    3    3    0    0 -0.12380096272E+03  0.30703584452E+02  0.11334891568E+03  0.17064736412E+03  0.17770000000E+01 0.  1.
         15    1    3    3    0    0 -0.13945898561E+03 -0.74852616322E+02  0.15693832688E+03  0.22290024453E+03  0.17770000000E+01 0. -1.
</event>
<event>
 7    1  0.3970441E-006  0.5151398E+03  0.7546771E-02  0.9366556E-01
        -11   -1    0    0    0    0  0.00000000000E+00  0.00000000000E+00  0.50000000000E+03  0.50000000000E+03  0.00000000000E+00 0.  1.
         11   -1    0    0    0    0 -0.00000000000E+00 -0.00000000000E+00 -0.50000000000E+03  0.50000000000E+03  0.00000000000E+00 0. -1.
         23    2    1    2    0    0  0.57988208188E+02  0.13136225493E+02  0.12450243766E+03  0.16523709460E+03  0.90924406718E+02 0.  0.
        -11    1    1    2    0    0  0.11435856190E+03 -0.45590841283E+02  0.32752934814E+03  0.34990267130E+03  0.00000000000E+00 0.  1.
         11    1    1    2    0    0 -0.17234677009E+03  0.32454615790E+02 -0.45203178580E+03  0.48486023411E+03  0.00000000000E+00 0. -1.
        -15    1    3    3    0    0  0.52223234861E+02  0.46195377658E+02  0.10596493201E+03  0.12685820321E+03  0.17770000000E+01 0.  1.
         15    1    3    3    0    0  0.57649733272E+01 -0.33059152165E+02  0.18537505655E+02  0.38378891389E+02  0.17770000000E+01 0. -1.
</event>
<event>
 7    1  0.3970441E-006  0.4130901E+03  0.7546771E-02  0.9618495E-01
        -11   -1    0    0    0    0  0.00000000000E+00  0.00000000000E+00  0.50000000000E+03  0.50000000000E+03  0.00000000000E+00 0.  1.
         11   -1    0    0    0    0 -0.00000000000E+00 -0.00000000000E+00 -0.50000000000E+03  0.50000000000E+03  0.00000000000E+00 0. -1.
         23    2    1    2    0    0  0.22229796612E+02 -0.57615563337E+02 -0.36419589186E+03  0.37955159513E+03  0.87218396682E+02 0.  0.
        -11    1    1    2    0    0  0.83670335182E+01 -0.83865541622E+02  0.44619454467E+03  0.45408480267E+03  0.00000000000E+00 0.  1.
         11    1    1    2    0    0 -0.30596830130E+02  0.14148110496E+03 -0.81998652809E+02  0.16636360220E+03  0.00000000000E+00 0. -1.
        -15    1    3    3    0    0 -0.22007783857E+02 -0.57006883861E+02 -0.17958641011E+03  0.18970652014E+03  0.17770000000E+01 0. -1.
         15    1    3    3    0    0  0.44237580469E+02 -0.60867947589E+00 -0.18460948175E+03  0.18984507499E+03  0.17770000000E+01 0.  1.
</event>
<event>
 7    1  0.3970441E-006  0.5327087E+03  0.7546771E-02  0.9329456E-01
        -11   -1    0    0    0    0  0.00000000000E+00  0.00000000000E+00  0.50000000000E+03  0.50000000000E+03  0.00000000000E+00 0. -1.
         11   -1    0    0    0    0 -0.00000000000E+00 -0.00000000000E+00 -0.50000000000E+03  0.50000000000E+03  0.00000000000E+00 0. -1.
         23    2    1    2    0    0 -0.11998856123E+03  0.78021985887E+01 -0.16298254593E+03  0.22223785944E+03  0.91478012445E+02 0.  0.
        -11    1    1    2    0    0  0.52435865976E+02 -0.78448260995E+02  0.45766527739E+03  0.46729129654E+03  0.00000000000E+00 0. -1.
         11    1    1    2    0    0  0.67552695255E+02  0.70646062406E+02 -0.29468273146E+03  0.31047084403E+03  0.00000000000E+00 0. -1.
        -15    1    3    3    0    0 -0.92121134269E+01  0.35412175702E+02 -0.45447667721E+02  0.58374082023E+02  0.17770000000E+01 0.  1.
         15    1    3    3    0    0 -0.11077644780E+03 -0.27609977113E+02 -0.11753487821E+03  0.16386377741E+03  0.17770000000E+01 0. -1.
</event>
<event>
 7    1  0.3970441E-006  0.5316864E+03  0.7546771E-02  0.9331573E-01
        -11   -1    0    0    0    0  0.00000000000E+00  0.00000000000E+00  0.50000000000E+03  0.50000000000E+03  0.00000000000E+00 0. -1.
         11   -1    0    0    0    0 -0.00000000000E+00 -0.00000000000E+00 -0.50000000000E+03  0.50000000000E+03  0.00000000000E+00 0.  1.
         23    2    1    2    0    0  0.92197846248E+02 -0.61132324025E+02  0.15575515052E+03  0.21184852265E+03  0.91556134366E+02 0.  0.
        -11    1    1    2    0    0 -0.77944242375E+02 -0.22063818077E+03  0.21803607732E+03  0.31983783820E+03  0.00000000000E+00 0. -1.
         11    1    1    2    0    0 -0.14253603873E+02  0.28177050479E+03 -0.37379122785E+03  0.46831363915E+03  0.00000000000E+00 0.  1.
        -15    1    3    3    0    0  0.20557014943E+02 -0.47998631421E+02  0.16677081438E+02  0.54842887013E+02  0.17770000000E+01 0.  1.
         15    1    3    3    0    0  0.71640831305E+02 -0.13133692604E+02  0.13907806909E+03  0.15700563564E+03  0.17770000000E+01 0. -1.
</event>
<event>
 7    1  0.3970441E-006  0.4566669E+03  0.7546771E-02  0.9502359E-01
        -11   -1    0    0    0    0  0.00000000000E+00  0.00000000000E+00  0.50000000000E+03  0.50000000000E+03  0.00000000000E+00 0.  1.
         11   -1    0    0    0    0 -0.00000000000E+00 -0.00000000000E+00 -0.50000000000E+03  0.50000000000E+03  0.00000000000E+00 0.  1.
         23    2    1    2    0    0  0.68528036518E+01  0.53739810209E+02 -0.44486900968E+03  0.45741580028E+03  0.91574289257E+02 0.  0.
        -11    1    1    2    0    0 -0.95966859236E+02 -0.34411519372E+02  0.43957706665E+03  0.45124470996E+03  0.00000000000E+00 0.  1.
         11    1    1    2    0    0  0.89114055584E+02 -0.19328290837E+02  0.52919430251E+01  0.91339489764E+02  0.00000000000E+00 0.  1.
        -15    1    3    3    0    0  0.36607954218E+02  0.61381316111E+02 -0.36259173836E+03  0.36957236739E+03  0.17770000000E+01 0.  1.
         15    1    3    3    0    0 -0.29755150566E+02 -0.76415059020E+01 -0.82277271313E+02  0.87843432887E+02  0.17770000000E+01 0. -1.
</event>
<event>
 7    1  0.3970441E-006  0.5246117E+03  0.7546771E-02  0.9346363E-01
        -11   -1    0    0    0    0  0.00000000000E+00  0.00000000000E+00  0.50000000000E+03  0.50000000000E+03  0.00000000000E+00 0.  1.
         11   -1    0    0    0    0 -0.00000000000E+00 -0.00000000000E+00 -0.50000000000E+03  0.50000000000E+03  0.00000000000E+00 0.  1.
         23    2    1    2    0    0 -0.15291820231E+03 -0.47570412759E+01  0.25986649173E+03  0.31482550712E+03  0.90431744249E+02 0.  0.
        -11    1    1    2    0    0  0.47194208342E+02  0.20932873804E+02  0.20333412939E+03  0.20978619278E+03  0.00000000000E+00 0.  1.
         11    1    1    2    0    0  0.10572399397E+03 -0.16175832528E+02 -0.46320062112E+03  0.47538830010E+03  0.00000000000E+00 0.  1.
        -15    1    3    3    0    0 -0.15186830001E+03  0.90324780962E+01  0.18915078901E+03  0.24274831600E+03  0.17770000000E+01 0. -1.
         15    1    3    3    0    0 -0.10499023034E+01 -0.13789519372E+02  0.70715702724E+02  0.72077191123E+02  0.17770000000E+01 0.  1.
</event>
<event>
 7    1  0.3970441E-006  0.3941112E+03  0.7546771E-02  0.9673962E-01
        -11   -1    0    0    0    0  0.00000000000E+00  0.00000000000E+00  0.50000000000E+03  0.50000000000E+03  0.00000000000E+00 0.  1.
         11   -1    0    0    0    0 -0.00000000000E+00 -0.00000000000E+00 -0.50000000000E+03  0.50000000000E+03  0.00000000000E+00 0. -1.
         23    2    1    2    0    0  0.20013951872E+03 -0.51550383735E+02 -0.27636112447E+03  0.35672995990E+03  0.90374355624E+02 0.  0.
        -11    1    1    2    0    0 -0.94939695996E+02  0.25296375947E-01  0.43546547599E+03  0.44569465702E+03  0.00000000000E+00 0.  1.
         11    1    1    2    0    0 -0.10519982273E+03  0.51525087359E+02 -0.15910435152E+03  0.19757538309E+03  0.00000000000E+00 0. -1.
        -15    1    3    3    0    0  0.14727062222E+03 -0.72234067004E+02 -0.17054116506E+03  0.23663018260E+03  0.17770000000E+01 0. -1.
         15    1    3    3    0    0  0.52868896503E+02  0.20683683269E+02 -0.10581995940E+03  0.12009977730E+03  0.17770000000E+01 0.  1.
</event>
<event>
 7    1  0.3970441E-006  0.5112207E+03  0.7546771E-02  0.9375047E-01
        -11   -1    0    0    0    0  0.00000000000E+00  0.00000000000E+00  0.50000000000E+03  0.50000000000E+03  0.00000000000E+00 0.  1.
         11   -1    0    0    0    0 -0.00000000000E+00 -0.00000000000E+00 -0.50000000000E+03  0.50000000000E+03  0.00000000000E+00 0.  1.
         23    2    1    2    0    0  0.11106438581E+03 -0.96707811649E+02  0.20797939748E+03  0.27102126433E+03  0.92246394573E+02 0.  0.
        -11    1    1    2    0    0  0.39309406463E+02 -0.13022835438E+03  0.19796749219E+03  0.24019946229E+03  0.00000000000E+00 0.  1.
         11    1    1    2    0    0 -0.15037379228E+03  0.22693616603E+03 -0.40594688967E+03  0.48877927338E+03  0.00000000000E+00 0.  1.
        -15    1    3    3    0    0  0.65195478698E+02 -0.52704019961E+02  0.18550805076E+03  0.20357936729E+03  0.17770000000E+01 0.  1.
         15    1    3    3    0    0  0.45868907115E+02 -0.44003791688E+02  0.22471346719E+02  0.67441897032E+02  0.17770000000E+01 0. -1.
</event>
<event>
 7    1  0.3970441E-006  0.5116088E+03  0.7546771E-02  0.9374202E-01
        -11   -1    0    0    0    0  0.00000000000E+00  0.00000000000E+00  0.50000000000E+03  0.50000000000E+03  0.00000000000E+00 0. -1.
         11   -1    0    0    0    0 -0.00000000000E+00 -0.00000000000E+00 -0.50000000000E+03  0.50000000000E+03  0.00000000000E+00 0.  1.
         23    2    1    2    0    0  0.23806343057E+02  0.23790085905E+02 -0.30310375107E+03  0.31815258861E+03  0.90644776837E+02 0.  0.
        -11    1    1    2    0    0 -0.10750961358E+03 -0.70322198955E+02  0.47119253992E+03  0.48839117350E+03  0.00000000000E+00 0. -1.
         11    1    1    2    0    0  0.83703270522E+02  0.46532113050E+02 -0.16808878885E+03  0.19345623789E+03  0.00000000000E+00 0.  1.
        -15    1    3    3    0    0  0.45665942996E+01 -0.21211690485E+02 -0.16296887996E+02  0.27194409060E+02  0.17770000000E+01 0. -1.
         15    1    3    3    0    0  0.19239748757E+02  0.45001776391E+02 -0.28680686307E+03  0.29095817955E+03  0.17770000000E+01 0.  1.
</event>
<event>
 7    1  0.3970441E-006  0.5143109E+03  0.7546771E-02  0.9368345E-01
        -11   -1    0    0    0    0  0.00000000000E+00  0.00000000000E+00  0.50000000000E+03  0.50000000000E+03  0.00000000000E+00 0.  1.
         11   -1    0    0    0    0 -0.00000000000E+00 -0.00000000000E+00 -0.50000000000E+03  0.50000000000E+03  0.00000000000E+00 0. -1.
         23    2    1    2    0    0 -0.48092375694E+01  0.70447292504E+02  0.14403176715E+03  0.18579927404E+03  0.93756442422E+02 0.  0.
        -11    1    1    2    0    0 -0.20237824476E+02  0.68862028411E+02  0.32057501346E+03  0.32851162499E+03  0.00000000000E+00 0.  1.
         11    1    1    2    0    0  0.25047062045E+02 -0.13930932092E+03 -0.46460678062E+03  0.48568910098E+03  0.00000000000E+00 0. -1.
        -15    1    3    3    0    0  0.23368285699E+02  0.44253911451E+02  0.13801574944E+03  0.14681958411E+03  0.17770000000E+01 0. -1.
         15    1    3    3    0    0 -0.28177523269E+02  0.26193381053E+02  0.60160177113E+01  0.38979689925E+02  0.17770000000E+01 0.  1.
</event>
<event>
 7    1  0.3970441E-006  0.5168456E+03  0.7546771E-02  0.9362886E-01
        -11   -1    0    0    0    0  0.00000000000E+00  0.00000000000E+00  0.50000000000E+03  0.50000000000E+03  0.00000000000E+00 0. -1.
         11   -1    0    0    0    0 -0.00000000000E+00 -0.00000000000E+00 -0.50000000000E+03  0.50000000000E+03  0.00000000000E+00 0.  1.
         23    2    1    2    0    0 -0.62045138317E+02  0.31830472198E+02  0.10014873397E+03  0.15225173795E+03  0.91038698617E+02 0.  0.
        -11    1    1    2    0    0 -0.99886647391E+02  0.67722031097E+02  0.34404221559E+03  0.36459383145E+03  0.00000000000E+00 0. -1.
         11    1    1    2    0    0  0.16193178571E+03 -0.99552503295E+02 -0.44419094956E+03  0.48315443060E+03  0.00000000000E+00 0.  1.
        -15    1    3    3    0    0 -0.26550562970E+02 -0.28760887691E+02  0.59049572925E+02  0.70866994055E+02  0.17770000000E+01 0. -1.
         15    1    3    3    0    0 -0.35494575346E+02  0.60591359889E+02  0.41099161043E+02  0.81384743900E+02  0.17770000000E+01 0.  1.
</event>
<event>
 7    1  0.3970441E-006  0.5365712E+03  0.7546771E-02  0.9321503E-01
        -11   -1    0    0    0    0  0.00000000000E+00  0.00000000000E+00  0.50000000000E+03  0.50000000000E+03  0.00000000000E+00 0. -1.
         11   -1    0    0    0    0 -0.00000000000E+00 -0.00000000000E+00 -0.50000000000E+03  0.50000000000E+03  0.00000000000E+00 0.  1.
         23    2    1    2    0    0 -0.10525413325E+02 -0.54873136143E+02 -0.75450105909E+02  0.13349265566E+03  0.94898499664E+02 0.  0.
        -11    1    1    2    0    0 -0.23177230448E+03  0.54612260634E+02  0.39757436676E+03  0.46342882651E+03  0.00000000000E+00 0. -1.
         11    1    1    2    0    0  0.24229771780E+03  0.26087550899E+00 -0.32212426085E+03  0.40307851783E+03  0.00000000000E+00 0.  1.
        -15    1    3    3    0    0  0.21293386266E+02 -0.39804864355E+02 -0.85616420373E+02  0.96804776181E+02  0.17770000000E+01 0. -1.
         15    1    3    3    0    0 -0.31818799591E+02 -0.15068271788E+02  0.10166314464E+02  0.36687879482E+02  0.17770000000E+01 0.  1.
</event>
<event>
 7    1  0.3970441E-006  0.5301982E+03  0.7546771E-02  0.9334664E-01
        -11   -1    0    0    0    0  0.00000000000E+00  0.00000000000E+00  0.50000000000E+03  0.50000000000E+03  0.00000000000E+00 0.  1.
         11   -1    0    0    0    0 -0.00000000000E+00 -0.00000000000E+00 -0.50000000000E+03  0.50000000000E+03  0.00000000000E+00 0. -1.
         23    2    1    2    0    0  0.37433841625E+02 -0.21346494384E+01 -0.15795854686E+03  0.18581460293E+03  0.90389794276E+02 0.  0.
        -11    1    1    2    0    0  0.14480921425E+03  0.78886251829E+02  0.43991018829E+03  0.46980179121E+03  0.00000000000E+00 0.  1.
         11    1    1    2    0    0 -0.18224305587E+03 -0.76751602390E+02 -0.28195164143E+03  0.34438360586E+03  0.00000000000E+00 0. -1.
        -15    1    3    3    0    0 -0.14989299984E+02  0.29662387690E+02 -0.79789698228E+02  0.86452819675E+02  0.17770000000E+01 0. -1.
         15    1    3    3    0    0  0.52423141609E+02 -0.31797037128E+02 -0.78168848636E+02  0.99361783259E+02  0.17770000000E+01 0.  1.
</event>
<event>
 7    1  0.3970441E-006  0.5313806E+03  0.7546771E-02  0.9332207E-01
        -11   -1    0    0    0    0  0.00000000000E+00  0.00000000000E+00  0.50000000000E+03  0.50000000000E+03  0.00000000000E+00 0.  1.
         11   -1    0    0    0    0 -0.00000000000E+00 -0.00000000000E+00 -0.50000000000E+03  0.50000000000E+03  0.00000000000E+00 0. -1.
         23    2    1    2    0    0  0.22123253325E+02 -0.13100519431E+03  0.76894329297E+02  0.17838235998E+03  0.90861043361E+02 0.  0.
        -11    1    1    2    0    0 -0.24037816705E+02 -0.74675688269E+02  0.34417076130E+03  0.35299828326E+03  0.00000000000E+00 0.  1.
         11    1    1    2    0    0  0.19145633803E+01  0.20568088258E+03 -0.42106509060E+03  0.46861935676E+03  0.00000000000E+00 0. -1.
        -15    1    3    3    0    0 -0.14366226206E+02 -0.18848252500E+02 -0.15649254978E+02  0.28455262924E+02  0.17770000000E+01 0. -1.
         15    1    3    3    0    0  0.36489479531E+02 -0.11215694181E+03  0.92543584276E+02  0.14992709706E+03  0.17770000000E+01 0.  1.
</event>
<event>
 7    1  0.3970441E-006  0.3913964E+03  0.7546771E-02  0.9682169E-01
        -11   -1    0    0    0    0  0.00000000000E+00  0.00000000000E+00  0.50000000000E+03  0.50000000000E+03  0.00000000000E+00 0.  1.
         11   -1    0    0    0    0 -0.00000000000E+00 -0.00000000000E+00 -0.50000000000E+03  0.50000000000E+03  0.00000000000E+00 0. -1.
         23    2    1    2    0    0  0.20024357474E+02 -0.45401371718E+01 -0.35289628647E+03  0.36476786460E+03  0.89990101151E+02 0.  0.
        -11    1    1    2    0    0  0.22897217922E+02 -0.18922130038E+03  0.38930669907E+03  0.43346128898E+03  0.00000000000E+00 0.  1.
         11    1    1    2    0    0 -0.42921575395E+02  0.19376143755E+03 -0.36410412603E+02  0.20177084641E+03  0.00000000000E+00 0. -1.
        -15    1    3    3    0    0  0.16392020310E+02 -0.44013271381E+02 -0.12710354525E+03  0.13551507419E+03  0.17770000000E+01 0.  1.
         15    1    3    3    0    0  0.36323371635E+01  0.39473134209E+02 -0.22579274122E+03  0.22925279042E+03  0.17770000000E+01 0. -1.
</event>
<event>
 6    1  0.3970441E-006  0.5305523E+03  0.7546771E-02  0.9333927E-01
        -11   -1    0    0    0    0  0.00000000000E+00  0.00000000000E+00  0.50000000000E+03  0.50000000000E+03  0.00000000000E+00 0. -1.
         11   -1    0    0    0    0 -0.00000000000E+00 -0.00000000000E+00 -0.50000000000E+03  0.50000000000E+03  0.00000000000E+00 0. -1.
        -11    1    1    2    0    0  0.15046917281E+03 -0.82753958456E+01  0.44460280870E+03  0.46944766656E+03  0.00000000000E+00 0. -1.
         11    1    1    2    0    0 -0.86107422525E+02 -0.34692412494E+02 -0.20242284563E+03  0.22269499351E+03  0.00000000000E+00 0. -1.
        -15    1    1    2    0    0 -0.58880707302E+01 -0.44809486650E+02 -0.17026930544E+01  0.45261643401E+02  0.17770000000E+01 0.  1.
         15    1    1    2    0    0 -0.58473679552E+02  0.87777294990E+02 -0.24047727001E+03  0.26259569653E+03  0.17770000000E+01 0. -1.
</event>
<event>
 7    1  0.3970441E-006  0.5300015E+03  0.7546771E-02  0.9335073E-01
        -11   -1    0    0    0    0  0.00000000000E+00  0.00000000000E+00  0.50000000000E+03  0.50000000000E+03  0.00000000000E+00 0. -1.
         11   -1    0    0    0    0 -0.00000000000E+00 -0.00000000000E+00 -0.50000000000E+03  0.50000000000E+03  0.00000000000E+00 0.  1.
         23    2    1    2    0    0 -0.36927839370E+02 -0.61398923212E+02 -0.18525687702E+03  0.21776367435E+03  0.89260373573E+02 0.  0.
        -11    1    1    2    0    0  0.46318169506E+02 -0.87758327363E+02  0.45940358901E+03  0.46999846217E+03  0.00000000000E+00 0. -1.
         11    1    1    2    0    0 -0.93903301364E+01  0.14915725058E+03 -0.27414671198E+03  0.31223786348E+03  0.00000000000E+00 0.  1.
        -15    1    3    3    0    0 -0.48928524271E+02 -0.24269269489E+01 -0.11637515838E+03  0.12627836584E+03  0.17770000000E+01 0.  1.
         15    1    3    3    0    0  0.12000684901E+02 -0.58971996263E+02 -0.68881718638E+02  0.91485308509E+02  0.17770000000E+01 0. -1.
</event>
<event>
 7    1  0.3970441E-006  0.5333613E+03  0.7546771E-02  0.9328107E-01
        -11   -1    0    0    0    0  0.00000000000E+00  0.00000000000E+00  0.50000000000E+03  0.50000000000E+03  0.00000000000E+00 0.  1.
         11   -1    0    0    0    0 -0.00000000000E+00 -0.00000000000E+00 -0.50000000000E+03  0.50000000000E+03  0.00000000000E+00 0. -1.
         23    2    1    2    0    0 -0.11750005353E+02  0.30889561550E+02 -0.22746187983E+03  0.24558129574E+03  0.86481433861E+02 0.  0.
        -11    1    1    2    0    0  0.21233777858E+03  0.64368674217E+02  0.41051310365E+03  0.46663868968E+03  0.00000000000E+00 0.  1.
         11    1    1    2    0    0 -0.20058777323E+03 -0.95258235767E+02 -0.18305122383E+03  0.28778001458E+03  0.00000000000E+00 0. -1.
        -15    1    3    3    0    0 -0.43889639291E+02  0.20694529858E+02 -0.18535072931E+03  0.19160536158E+03  0.17770000000E+01 0. -1.
         15    1    3    3    0    0  0.32139633938E+02  0.10195031692E+02 -0.42111150522E+02  0.53975934157E+02  0.17770000000E+01 0.  1.
</event>
<event>
 7    1  0.3970441E-006  0.3862355E+03  0.7546771E-02  0.9697968E-01
        -11   -1    0    0    0    0  0.00000000000E+00  0.00000000000E+00  0.50000000000E+03  0.50000000000E+03  0.00000000000E+00 0.  1.
         11   -1    0    0    0    0 -0.00000000000E+00 -0.00000000000E+00 -0.50000000000E+03  0.50000000000E+03  0.00000000000E+00 0. -1.
         23    2    1    2    0    0  0.13406829469E+03 -0.28095977181E+02 -0.12401335187E+03  0.20573659125E+03  0.90468458382E+02 0.  0.
        -11    1    1    2    0    0  0.96507863232E+02  0.24563710994E+03  0.32519551329E+03  0.41881198564E+03  0.00000000000E+00 0.  1.
         11    1    1    2    0    0 -0.23057615792E+03 -0.21754113276E+03 -0.20118216143E+03  0.37545142312E+03  0.00000000000E+00 0. -1.
        -15    1    3    3    0    0  0.76237828511E+02  0.21907818303E+02 -0.95411122075E+02  0.12409109131E+03  0.17770000000E+01 0. -1.
         15    1    3    3    0    0  0.57830466178E+02 -0.50003795484E+02 -0.28602229791E+02  0.81645499932E+02  0.17770000000E+01 0.  1.
</event>
<event>
 7    1  0.3970441E-006  0.5347498E+03  0.7546771E-02  0.9325245E-01
        -11   -1    0    0    0    0  0.00000000000E+00  0.00000000000E+00  0.50000000000E+03  0.50000000000E+03  0.00000000000E+00 0.  1.
         11   -1    0    0    0    0 -0.00000000000E+00 -0.00000000000E+00 -0.50000000000E+03  0.50000000000E+03  0.00000000000E+00 0. -1.
         23    2    1    2    0    0 -0.53478333317E+02  0.11595935854E+02  0.71088705162E+02  0.12808446903E+03  0.91420070788E+02 0.  0.
        -11    1    1    2    0    0  0.11959679482E+03  0.92019210471E+02  0.37763173871E+03  0.40666529051E+03  0.00000000000E+00 0.  1.
         11    1    1    2    0    0 -0.66118461499E+02 -0.10361514632E+03 -0.44872044387E+03  0.46525024046E+03  0.00000000000E+00 0. -1.
        -15    1    3    3    0    0 -0.12756423059E+01  0.26566171627E+02  0.68706732601E+02  0.73696414919E+02  0.17770000000E+01 0.  1.
         15    1    3    3    0    0 -0.52202691011E+02 -0.14970235773E+02  0.23819725612E+01  0.54388054113E+02  0.17770000000E+01 0. -1.
</event>
<event>
 7    1  0.3970441E-006  0.3287307E+03  0.7546771E-02  0.9894132E-01
        -11   -1    0    0    0    0  0.00000000000E+00  0.00000000000E+00  0.50000000000E+03  0.50000000000E+03  0.00000000000E+00 0.  1.
         11   -1    0    0    0    0 -0.00000000000E+00 -0.00000000000E+00 -0.50000000000E+03  0.50000000000E+03  0.00000000000E+00 0. -1.
         23    2    1    2    0    0  0.89187336347E+02 -0.11061536831E+01 -0.32961672493E+03  0.35327749878E+03  0.90566004912E+02 0.  0.
        -11    1    1    2    0    0  0.45331223111E+02 -0.24609737022E+03  0.25119515549E+03  0.35456711855E+03  0.00000000000E+00 0.  1.
         11    1    1    2    0    0 -0.13451855946E+03  0.24720352390E+03  0.78421569444E+02  0.29215538267E+03  0.00000000000E+00 0. -1.
        -15    1    3    3    0    0 -0.14383911897E+02 -0.13240540839E+02 -0.87112500772E+02  0.89297000861E+02  0.17770000000E+01 0.  1.
         15    1    3    3    0    0  0.10357124824E+03  0.12134387156E+02 -0.24250422416E+03  0.26398049792E+03  0.17770000000E+01 0. -1.
</event>
<event>
 7    1  0.3970441E-006  0.3689895E+03  0.7546771E-02  0.9752743E-01
        -11   -1    0    0    0    0  0.00000000000E+00  0.00000000000E+00  0.50000000000E+03  0.50000000000E+03  0.00000000000E+00 0.  1.
         11   -1    0    0    0    0 -0.00000000000E+00 -0.00000000000E+00 -0.50000000000E+03  0.50000000000E+03  0.00000000000E+00 0. -1.
         23    2    1    2    0    0  0.32329204375E+02 -0.25751692774E+02 -0.20823278898E+03  0.23209240185E+03  0.93795849862E+02 0.  0.
        -11    1    1    2    0    0  0.69418134879E+02 -0.31359002675E+03  0.25561809220E+03  0.41048531203E+03  0.00000000000E+00 0.  1.
         11    1    1    2    0    0 -0.10174733925E+03  0.33934171953E+03 -0.47385303218E+02  0.35742228612E+03  0.00000000000E+00 0. -1.
        -15    1    3    3    0    0 -0.32711618684E+02 -0.34809467892E+01 -0.54585137986E+02  0.63756270323E+02  0.17770000000E+01 0.  1.
         15    1    3    3    0    0  0.65040823059E+02 -0.22270745984E+02 -0.15364765100E+03  0.16833613152E+03  0.17770000000E+01 0. -1.
</event>
<event>
 7    1  0.3970441E-006  0.4042758E+03  0.7546771E-02  0.9643851E-01
        -11   -1    0    0    0    0  0.00000000000E+00  0.00000000000E+00  0.50000000000E+03  0.50000000000E+03  0.00000000000E+00 0.  1.
         11   -1    0    0    0    0 -0.00000000000E+00 -0.00000000000E+00 -0.50000000000E+03  0.50000000000E+03  0.00000000000E+00 0. -1.
         23    2    1    2    0    0 -0.11888477048E+03 -0.88318447468E+02  0.24613540829E+02  0.17762831166E+03  0.94932891540E+02 0.  0.
        -11    1    1    2    0    0  0.12942700917E+03 -0.63716167575E+02  0.37119233383E+03  0.39823968839E+03  0.00000000000E+00 0.  1.
         11    1    1    2    0    0 -0.10542238688E+02  0.15203461504E+03 -0.39580587466E+03  0.42413199995E+03  0.00000000000E+00 0. -1.
        -15    1    3    3    0    0 -0.29136879425E+02 -0.56717390295E+02 -0.27115203920E+02  0.69312423974E+02  0.17770000000E+01 0.  1.
         15    1    3    3    0    0 -0.89747891055E+02 -0.31601057173E+02  0.51728744749E+02  0.10831588769E+03  0.17770000000E+01 0. -1.
</event>
<event>
 7    1  0.3970441E-006  0.3119388E+03  0.7546771E-02  0.9959688E-01
        -11   -1    0    0    0    0  0.00000000000E+00  0.00000000000E+00  0.50000000000E+03  0.50000000000E+03  0.00000000000E+00 0. -1.
         11   -1    0    0    0    0 -0.00000000000E+00 -0.00000000000E+00 -0.50000000000E+03  0.50000000000E+03  0.00000000000E+00 0. -1.
         23    2    1    2    0    0  0.19436709473E+03 -0.16378076084E+03 -0.18518545354E+03  0.32568958168E+03  0.84719220244E+02 0.  0.
        -11    1    1    2    0    0  0.14989150693E+03  0.83259292374E+02  0.26142061547E+03  0.31263446996E+03  0.00000000000E+00 0. -1.
         11    1    1    2    0    0 -0.34425860166E+03  0.80521468468E+02 -0.76235161931E+02  0.36167594835E+03  0.00000000000E+00 0. -1.
        -15    1    3    3    0    0  0.94185687718E+02 -0.10307283956E+03 -0.14632298816E+03  0.20225856872E+03  0.17770000000E+01 0. -1.
         15    1    3    3    0    0  0.10018140701E+03 -0.60707921281E+02 -0.38862465375E+02  0.12343101297E+03  0.17770000000E+01 0.  1.
</event>
<event>
 7    1  0.3970441E-006  0.4683835E+03  0.7546771E-02  0.9473473E-01
        -11   -1    0    0    0    0  0.00000000000E+00  0.00000000000E+00  0.50000000000E+03  0.50000000000E+03  0.00000000000E+00 0. -1.
         11   -1    0    0    0    0 -0.00000000000E+00 -0.00000000000E+00 -0.50000000000E+03  0.50000000000E+03  0.00000000000E+00 0. -1.
         23    2    1    2    0    0  0.50925442186E+02 -0.39245001734E+02 -0.42891911091E+03  0.44159141205E+03  0.83052999145E+02 0.  0.
        -11    1    1    2    0    0 -0.91500934624E+02  0.65056072836E+02  0.47722101497E+03  0.49024953929E+03  0.00000000000E+00 0. -1.
         11    1    1    2    0    0  0.40575492439E+02 -0.25811071102E+02 -0.48301904056E+02  0.68159048655E+02  0.00000000000E+00 0. -1.
        -15    1    3    3    0    0 -0.20043386820E+02 -0.25260044907E+02 -0.11561222074E+03  0.12003812119E+03  0.17770000000E+01 0.  1.
         15    1    3    3    0    0  0.70968829006E+02 -0.13984956827E+02 -0.31330689017E+03  0.32155329086E+03  0.17770000000E+01 0. -1.
</event>
<event>
 7    1  0.3970441E-006  0.3290143E+03  0.7546771E-02  0.9893061E-01
        -11   -1    0    0    0    0  0.00000000000E+00  0.00000000000E+00  0.50000000000E+03  0.50000000000E+03  0.00000000000E+00 0.  1.
         11   -1    0    0    0    0 -0.00000000000E+00 -0.00000000000E+00 -0.50000000000E+03  0.50000000000E+03  0.00000000000E+00 0.  1.
         23    2    1    2    0    0  0.49336654626E+02 -0.34951179345E+03 -0.11122491197E+03  0.38022676942E+03  0.87228526850E+02 0.  0.
        -11    1    1    2    0    0  0.37347100146E+02  0.14062486516E+03  0.29462713867E+03  0.32859596685E+03  0.00000000000E+00 0.  1.
         11    1    1    2    0    0 -0.86683754772E+02  0.20888692828E+03 -0.18340222670E+03  0.29117726372E+03  0.00000000000E+00 0.  1.
        -15    1    3    3    0    0 -0.14326601127E+02 -0.17857187525E+02 -0.19890930403E+02  0.30379886232E+02  0.17770000000E+01 0. -1.
         15    1    3    3    0    0  0.63663255753E+02 -0.33165460592E+03 -0.91333981563E+02  0.34984688319E+03  0.17770000000E+01 0.  1.
</event>
<event>
 7    1  0.3970441E-006  0.5126164E+03  0.7546771E-02  0.9372014E-01
        -11   -1    0    0    0    0  0.00000000000E+00  0.00000000000E+00  0.50000000000E+03  0.50000000000E+03  0.00000000000E+00 0.  1.
         11   -1    0    0    0    0 -0.00000000000E+00 -0.00000000000E+00 -0.50000000000E+03  0.50000000000E+03  0.00000000000E+00 0.  1.
         23    2    1    2    0    0  0.29617242753E+02 -0.13511839337E+02 -0.36381302067E+03  0.37327836560E+03  0.76922515158E+02 0.  0.
        -11    1    1    2    0    0 -0.68687143437E+02 -0.53540104111E+02  0.47953969699E+03  0.48738361422E+03  0.00000000000E+00 0.  1.
         11    1    1    2    0    0  0.39069900684E+02  0.67051943448E+02 -0.11572667631E+03  0.13933802019E+03  0.00000000000E+00 0.  1.
        -15    1    3    3    0    0  0.17432404746E+02 -0.45763241969E+02 -0.21469295475E+03  0.22021440824E+03  0.17770000000E+01 0.  1.
         15    1    3    3    0    0  0.12184838007E+02  0.32251402632E+02 -0.14912006593E+03  0.15306395735E+03  0.17770000000E+01 0. -1.
</event>
<event>
 7    1  0.3970441E-006  0.3936325E+03  0.7546771E-02  0.9675404E-01
        -11   -1    0    0    0    0  0.00000000000E+00  0.00000000000E+00  0.50000000000E+03  0.50000000000E+03  0.00000000000E+00 0.  1.
         11   -1    0    0    0    0 -0.00000000000E+00 -0.00000000000E+00 -0.50000000000E+03  0.50000000000E+03  0.00000000000E+00 0.  1.
         23    2    1    2    0    0  0.88732953796E+02  0.60980731759E+02 -0.41854934138E+03  0.44175069483E+03  0.91476436734E+02 0.  0.
        -11    1    1    2    0    0  0.57460756827E+02  0.55011224385E+02  0.35081041335E+03  0.35971644319E+03  0.00000000000E+00 0.  1.
         11    1    1    2    0    0 -0.14619371062E+03 -0.11599195614E+03  0.67738928033E+02  0.19853286198E+03  0.00000000000E+00 0.  1.
        -15    1    3    3    0    0  0.81786846489E+02  0.20920183200E+02 -0.36415749800E+03  0.37381891793E+03  0.17770000000E+01 0.  1.
         15    1    3    3    0    0  0.69461073064E+01  0.40060548559E+02 -0.54391843386E+02  0.67931776905E+02  0.17770000000E+01 0. -1.
</event>
<event>
 7    1  0.3970441E-006  0.5234532E+03  0.7546771E-02  0.9348808E-01
        -11   -1    0    0    0    0  0.00000000000E+00  0.00000000000E+00  0.50000000000E+03  0.50000000000E+03  0.00000000000E+00 0.  1.
         11   -1    0    0    0    0 -0.00000000000E+00 -0.00000000000E+00 -0.50000000000E+03  0.50000000000E+03  0.00000000000E+00 0.  1.
         23    2    1    2    0    0  0.22113283911E+03 -0.11306146991E+03  0.30096884996E+03  0.39766450623E+03  0.76630166066E+02 0.  0.
        -11    1    1    2    0    0 -0.33269925794E+02 -0.32221966630E+01  0.12126630069E+03  0.12578865687E+03  0.00000000000E+00 0.  1.
         11    1    1    2    0    0 -0.18786291332E+03  0.11628366658E+03 -0.42223515066E+03  0.47654683690E+03  0.00000000000E+00 0.  1.
        -15    1    3    3    0    0  0.14077148434E+02  0.10774087604E+02  0.13418746586E+02  0.22303980825E+02  0.17770000000E+01 0. -1.
         15    1    3    3    0    0  0.20705569068E+03 -0.12383555752E+03  0.28755010338E+03  0.37536052540E+03  0.17770000000E+01 0.  1.
</event>
<event>
 7    1  0.3970441E-006  0.4647135E+03  0.7546771E-02  0.9482423E-01
        -11   -1    0    0    0    0  0.00000000000E+00  0.00000000000E+00  0.50000000000E+03  0.50000000000E+03  0.00000000000E+00 0. -1.
         11   -1    0    0    0    0 -0.00000000000E+00 -0.00000000000E+00 -0.50000000000E+03  0.50000000000E+03  0.00000000000E+00 0.  1.
         23    2    1    2    0    0  0.37035013304E+02  0.54563704623E+02 -0.44213854157E+03  0.45606710647E+03  0.90343376018E+02 0.  0.
        -11    1    1    2    0    0 -0.10462518867E+03 -0.89608358705E+02  0.44689989221E+03  0.46764901552E+03  0.00000000000E+00 0. -1.
         11    1    1    2    0    0  0.67590175364E+02  0.35044654082E+02 -0.47613506477E+01  0.76283878018E+02  0.00000000000E+00 0.  1.
        -15    1    3    3    0    0  0.57143126224E+02  0.22513522582E+02 -0.36494494655E+03  0.37008129825E+03  0.17770000000E+01 0.  1.
         15    1    3    3    0    0 -0.20108112920E+02  0.32050182041E+02 -0.77193595016E+02  0.85985808216E+02  0.17770000000E+01 0. -1.
</event>
<event>
 7    1  0.3970441E-006  0.5312095E+03  0.7546771E-02  0.9332562E-01
        -11   -1    0    0    0    0  0.00000000000E+00  0.00000000000E+00  0.50000000000E+03  0.50000000000E+03  0.00000000000E+00 0. -1.
         11   -1    0    0    0    0 -0.00000000000E+00 -0.00000000000E+00 -0.50000000000E+03  0.50000000000E+03  0.00000000000E+00 0.  1.
         23    2    1    2    0    0  0.30684692289E+02 -0.72243519866E+02 -0.32028911704E+03  0.34322022325E+03  0.95154225586E+02 0.  0.
        -11    1    1    2    0    0  0.10674237683E+03  0.93746638459E+02  0.44674618410E+03  0.46879048651E+03  0.00000000000E+00 0. -1.
         11    1    1    2    0    0 -0.13742706912E+03 -0.21503118593E+02 -0.12645706706E+03  0.18798929024E+03  0.00000000000E+00 0.  1.
        -15    1    3    3    0    0  0.44498032632E+02 -0.17958495773E+02 -0.59408813114E+02  0.76388135748E+02  0.17770000000E+01 0. -1.
         15    1    3    3    0    0 -0.13813340343E+02 -0.54285024093E+02 -0.26088030393E+03  0.26683208750E+03  0.17770000000E+01 0.  1.
</event>
<event>
 7    1  0.3970441E-006  0.4123376E+03  0.7546771E-02  0.9620633E-01
        -11   -1    0    0    0    0  0.00000000000E+00  0.00000000000E+00  0.50000000000E+03  0.50000000000E+03  0.00000000000E+00 0. -1.
         11   -1    0    0    0    0 -0.00000000000E+00 -0.00000000000E+00 -0.50000000000E+03  0.50000000000E+03  0.00000000000E+00 0.  1.
         23    2    1    2    0    0 -0.96505335330E+02  0.89027919878E+02  0.23056299344E+02  0.16461975922E+03  0.96585826714E+02 0.  0.
        -11    1    1    2    0    0  0.47392269315E+02  0.58647838096E+02  0.38830796386E+03  0.39556121005E+03  0.00000000000E+00 0. -1.
         11    1    1    2    0    0  0.49113066015E+02 -0.14767575797E+03 -0.41136426320E+03  0.43981903072E+03  0.00000000000E+00 0.  1.
        -15    1    3    3    0    0 -0.34734758926E+02 -0.87225965197E+01  0.32758047280E+02  0.48567834605E+02  0.17770000000E+01 0. -1.
         15    1    3    3    0    0 -0.61770576404E+02  0.97750516397E+02 -0.97017479361E+01  0.11605192462E+03  0.17770000000E+01 0.  1.
</event>
<event>
 7    1  0.3970441E-006  0.3492768E+03  0.7546771E-02  0.9819419E-01
        -11   -1    0    0    0    0  0.00000000000E+00  0.00000000000E+00  0.50000000000E+03  0.50000000000E+03  0.00000000000E+00 0.  1.
         11   -1    0    0    0    0 -0.00000000000E+00 -0.00000000000E+00 -0.50000000000E+03  0.50000000000E+03  0.00000000000E+00 0. -1.
         23    2    1    2    0    0  0.85070081755E+02  0.12813120407E+02 -0.44211571938E+03  0.45866923599E+03  0.86660624613E+02 0.  0.
        -11    1    1    2    0    0  0.93112885041E+02 -0.62020726138E+02  0.25422093286E+03  0.27774964003E+03  0.00000000000E+00 0.  1.
         11    1    1    2    0    0 -0.17818296680E+03  0.49207605731E+02  0.18789478652E+03  0.26358112398E+03  0.00000000000E+00 0. -1.
        -15    1    3    3    0    0  0.71931273823E+02 -0.25250994149E+02 -0.34849546307E+03  0.35674075513E+03  0.17770000000E+01 0. -1.
         15    1    3    3    0    0  0.13138807932E+02  0.38064114556E+02 -0.93620256305E+02  0.10192848086E+03  0.17770000000E+01 0.  1.
</event>
<event>
 7    1  0.3970441E-006  0.4280182E+03  0.7546771E-02  0.9577056E-01
        -11   -1    0    0    0    0  0.00000000000E+00  0.00000000000E+00  0.50000000000E+03  0.50000000000E+03  0.00000000000E+00 0.  1.
         11   -1    0    0    0    0 -0.00000000000E+00 -0.00000000000E+00 -0.50000000000E+03  0.50000000000E+03  0.00000000000E+00 0. -1.
         23    2    1    2    0    0  0.45666031045E+02  0.77704622820E+02 -0.40477931227E+03  0.42475090806E+03  0.91889321788E+02 0.  0.
        -11    1    1    2    0    0 -0.69525947874E+02  0.61163453851E+02  0.42314094040E+03  0.43315480023E+03  0.00000000000E+00 0.  1.
         11    1    1    2    0    0  0.23859916829E+02 -0.13886807667E+03 -0.18361628136E+02  0.14209429171E+03  0.00000000000E+00 0. -1.
        -15    1    3    3    0    0  0.37195471210E+02 -0.10133444657E+02 -0.15857852834E+03  0.16320691517E+03  0.17770000000E+01 0. -1.
         15    1    3    3    0    0  0.84705598349E+01  0.87838067477E+02 -0.24620078392E+03  0.26154399289E+03  0.17770000000E+01 0.  1.
</event>
<event>
 7    1  0.3970441E-006  0.5264567E+03  0.7546771E-02  0.9342482E-01
        -11   -1    0    0    0    0  0.00000000000E+00  0.00000000000E+00  0.50000000000E+03  0.50000000000E+03  0.00000000000E+00 0.  1.
         11   -1    0    0    0    0 -0.00000000000E+00 -0.00000000000E+00 -0.50000000000E+03  0.50000000000E+03  0.00000000000E+00 0. -1.
         23    2    1    2    0    0  0.23797011115E+02  0.15263003112E+02 -0.31302073577E+03  0.32676883026E+03  0.89423880511E+02 0.  0.
        -11    1    1    2    0    0  0.90444430362E+02  0.53298927476E+02  0.46176003867E+03  0.47354334962E+03  0.00000000000E+00 0.  1.
         11    1    1    2    0    0 -0.11424144148E+03 -0.68561930588E+02 -0.14873930290E+03  0.19968782012E+03  0.00000000000E+00 0. -1.
        -15    1    3    3    0    0 -0.10279688396E+02  0.45269430798E+02 -0.19081228768E+03  0.19638604894E+03  0.17770000000E+01 0.  1.
         15    1    3    3    0    0  0.34076699511E+02 -0.30006427686E+02 -0.12220844809E+03  0.13038278132E+03  0.17770000000E+01 0. -1.
</event>
<event>
 7    1  0.3970441E-006  0.4809099E+03  0.7546771E-02  0.9443569E-01
        -11   -1    0    0    0    0  0.00000000000E+00  0.00000000000E+00  0.50000000000E+03  0.50000000000E+03  0.00000000000E+00 0.  1.
         11   -1    0    0    0    0 -0.00000000000E+00 -0.00000000000E+00 -0.50000000000E+03  0.50000000000E+03  0.00000000000E+00 0. -1.
         23    2    1    2    0    0 -0.12615431900E+03 -0.45756001458E+02  0.43208091016E+03  0.46156716140E+03  0.91333497099E+02 0.  0.
        -11    1    1    2    0    0  0.10537319360E+02 -0.96819853825E+01  0.43540196187E+02  0.45831480711E+02  0.00000000000E+00 0.  1.
         11    1    1    2    0    0  0.11561699964E+03  0.55437986841E+02 -0.47562110634E+03  0.49260135789E+03  0.00000000000E+00 0. -1.
        -15    1    3    3    0    0 -0.34872459022E+02 -0.58033979964E+02  0.14435773212E+03  0.15945640087E+03  0.17770000000E+01 0. -1.
         15    1    3    3    0    0 -0.91281859982E+02  0.12277978506E+02  0.28772317804E+03  0.30211076053E+03  0.17770000000E+01 0.  1.
</event>
<event>
 7    1  0.3970441E-006  0.5067858E+03  0.7546771E-02  0.9384753E-01
        -11   -1    0    0    0    0  0.00000000000E+00  0.00000000000E+00  0.50000000000E+03  0.50000000000E+03  0.00000000000E+00 0.  1.
         11   -1    0    0    0    0 -0.00000000000E+00 -0.00000000000E+00 -0.50000000000E+03  0.50000000000E+03  0.00000000000E+00 0. -1.
         23    2    1    2    0    0 -0.50290992772E+02  0.21651328187E+02 -0.28385319044E+03  0.30259804146E+03  0.89414635315E+02 0.  0.
        -11    1    1    2    0    0  0.92111499165E+02 -0.37265422223E+02  0.48310146942E+03  0.49321422295E+03  0.00000000000E+00 0.  1.
         11    1    1    2    0    0 -0.41820506393E+02  0.15614094036E+02 -0.19924827898E+03  0.20418773559E+03  0.00000000000E+00 0. -1.
        -15    1    3    3    0    0 -0.71047563946E+02 -0.69431548603E+00 -0.16075721924E+03  0.17576768669E+03  0.17770000000E+01 0.  1.
         15    1    3    3    0    0  0.20756571174E+02  0.22345643673E+02 -0.12309597120E+03  0.12683035477E+03  0.17770000000E+01 0. -1.
</event>
<event>
 7    1  0.3970441E-006  0.5116037E+03  0.7546771E-02  0.9374213E-01
        -11   -1    0    0    0    0  0.00000000000E+00  0.00000000000E+00  0.50000000000E+03  0.50000000000E+03  0.00000000000E+00 0.  1.
         11   -1    0    0    0    0 -0.00000000000E+00 -0.00000000000E+00 -0.50000000000E+03  0.50000000000E+03  0.00000000000E+00 0. -1.
         23    2    1    2    0    0  0.19869030975E+02  0.32005415253E+02 -0.34466150310E+03  0.35827891373E+03  0.90294536398E+02 0.  0.
        -11    1    1    2    0    0  0.36314271055E+02 -0.71343551580E+02  0.48179075751E+03  0.48839631720E+03  0.00000000000E+00 0.  1.
         11    1    1    2    0    0 -0.56183302030E+02  0.39338136327E+02 -0.13712925441E+03  0.15332476907E+03  0.00000000000E+00 0. -1.
        -15    1    3    3    0    0  0.31889227445E+02 -0.21366621652E+02 -0.19891119480E+03  0.20258893478E+03  0.17770000000E+01 0.  1.
         15    1    3    3    0    0 -0.12020196470E+02  0.53372036905E+02 -0.14575030830E+03  0.15568997895E+03  0.17770000000E+01 0. -1.
</event>
<event>
 7    1  0.3970441E-006  0.4114162E+03  0.7546771E-02  0.9623258E-01
        -11   -1    0    0    0    0  0.00000000000E+00  0.00000000000E+00  0.50000000000E+03  0.50000000000E+03  0.00000000000E+00 0.  1.
         11   -1    0    0    0    0 -0.00000000000E+00 -0.00000000000E+00 -0.50000000000E+03  0.50000000000E+03  0.00000000000E+00 0. -1.
         23    2    1    2    0    0 -0.62186613605E+02  0.45429215494E+02 -0.34768887278E+03  0.36749760300E+03  0.90752120783E+02 0.  0.
        -11    1    1    2    0    0 -0.69716879934E+02 -0.55570931318E+02  0.45407183891E+03  0.46274161975E+03  0.00000000000E+00 0.  1.
         11    1    1    2    0    0  0.13190349354E+03  0.10141715824E+02 -0.10638296614E+03  0.16976077725E+03  0.00000000000E+00 0. -1.
        -15    1    3    3    0    0 -0.80220669842E+02  0.52637336016E+02 -0.31635804728E+03  0.33059282633E+03  0.17770000000E+01 0. -1.
         15    1    3    3    0    0  0.18034056237E+02 -0.72081205221E+01 -0.31330825493E+02  0.36904776668E+02  0.17770000000E+01 0.  1.
</event>
<event>
 7    1  0.3970441E-006  0.5368353E+03  0.7546771E-02  0.9320962E-01
        -11   -1    0    0    0    0  0.00000000000E+00  0.00000000000E+00  0.50000000000E+03  0.50000000000E+03  0.00000000000E+00 0.  1.
         11   -1    0    0    0    0 -0.00000000000E+00 -0.00000000000E+00 -0.50000000000E+03  0.50000000000E+03  0.00000000000E+00 0. -1.
         23    2    1    2    0    0 -0.13512596332E+03  0.10250753162E+03  0.15975561846E+03  0.24988602545E+03  0.90301429040E+02 0.  0.
        -11    1    1    2    0    0 -0.34152085039E+02 -0.87598411451E+02  0.27110888436E+03  0.28694925297E+03  0.00000000000E+00 0.  1.
         11    1    1    2    0    0  0.16927804836E+03 -0.14909120168E+02 -0.43086450282E+03  0.46316472157E+03  0.00000000000E+00 0. -1.
        -15    1    3    3    0    0 -0.43125039928E+02  0.11184863722E+02  0.57367504689E+00  0.44590997716E+02  0.17770000000E+01 0. -1.
         15    1    3    3    0    0 -0.92000923393E+02  0.91322667898E+02  0.15918194341E+03  0.20529502774E+03  0.17770000000E+01 0.  1.
</event>
<event>
 7    1  0.3970441E-006  0.5213316E+03  0.7546771E-02  0.9353304E-01
        -11   -1    0    0    0    0  0.00000000000E+00  0.00000000000E+00  0.50000000000E+03  0.50000000000E+03  0.00000000000E+00 0. -1.
         11   -1    0    0    0    0 -0.00000000000E+00 -0.00000000000E+00 -0.50000000000E+03  0.50000000000E+03  0.00000000000E+00 0. -1.
         23    2    1    2    0    0 -0.60558343428E+02  0.30007436115E+02 -0.46265152689E+03  0.47866841647E+03  0.10251467416E+03 0.  0.
        -11    1    1    2    0    0 -0.79350014896E+02  0.29398848655E+02  0.12387556185E+03  0.15001957202E+03  0.00000000000E+00 0. -1.
         11    1    1    2    0    0  0.13990835832E+03 -0.59406284769E+02  0.33877596504E+03  0.37131201150E+03  0.00000000000E+00 0. -1.
        -15    1    3    3    0    0 -0.32188808612E+02 -0.35897033879E+02 -0.23759394605E+03  0.24244330754E+03  0.17770000000E+01 0.  1.
         15    1    3    3    0    0 -0.28369534815E+02  0.65904469994E+02 -0.22505758084E+03  0.23622510894E+03  0.17770000000E+01 0. -1.
</event>
<event>
 7    1  0.3970441E-006  0.3911603E+03  0.7546771E-02  0.9682886E-01
        -11   -1    0    0    0    0  0.00000000000E+00  0.00000000000E+00  0.50000000000E+03  0.50000000000E+03  0.00000000000E+00 0.  1.
         11   -1    0    0    0    0 -0.00000000000E+00 -0.00000000000E+00 -0.50000000000E+03  0.50000000000E+03  0.00000000000E+00 0. -1.
         23    2    1    2    0    0 -0.82124052450E+02  0.11169429992E+03  0.10965048871E+03  0.19795971229E+03  0.89133839760E+02 0.  0.
        -11    1    1    2    0    0 -0.13009410879E+03 -0.11832618490E+03  0.29593402715E+03  0.34424193760E+03  0.00000000000E+00 0.  1.
         11    1    1    2    0    0  0.21221816124E+03  0.66318849862E+01 -0.40558451586E+03  0.45779835011E+03  0.00000000000E+00 0. -1.
        -15    1    3    3    0    0 -0.64441359085E+02  0.11021234686E+03  0.52434527487E+02  0.13802893741E+03  0.17770000000E+01 0. -1.
         15    1    3    3    0    0 -0.17682693365E+02  0.14819530551E+01  0.57215961225E+02  0.59930774877E+02  0.17770000000E+01 0.  1.
</event>
<event>
 7    1  0.3970441E-006  0.4399451E+03  0.7546771E-02  0.9545223E-01
        -11   -1    0    0    0    0  0.00000000000E+00  0.00000000000E+00  0.50000000000E+03  0.50000000000E+03  0.00000000000E+00 0. -1.
         11   -1    0    0    0    0 -0.00000000000E+00 -0.00000000000E+00 -0.50000000000E+03  0.50000000000E+03  0.00000000000E+00 0. -1.
         23    2    1    2    0    0  0.10251391748E+02  0.75903267618E+02 -0.43386780885E+03  0.45000421920E+03  0.91630369805E+02 0.  0.
        -11    1    1    2    0    0  0.78995456348E+02  0.53357666055E+01  0.42128100859E+03  0.42865655335E+03  0.00000000000E+00 0. -1.
         11    1    1    2    0    0 -0.89246848096E+02 -0.81239034224E+02  0.12586800260E+02  0.12133922745E+03  0.00000000000E+00 0. -1.
        -15    1    3    3    0    0  0.47300261132E+02  0.63688280289E+02 -0.26184517686E+03  0.27360476261E+03  0.17770000000E+01 0.  1.
         15    1    3    3    0    0 -0.37048869384E+02  0.12214987329E+02 -0.17202263200E+03  0.17639945659E+03  0.17770000000E+01 0. -1.
</event>
<event>
 6    1  0.3970441E-006  0.5119236E+03  0.7546771E-02  0.9373518E-01
        -11   -1    0    0    0    0  0.00000000000E+00  0.00000000000E+00  0.50000000000E+03  0.50000000000E+03  0.00000000000E+00 0. -1.
         11   -1    0    0    0    0 -0.00000000000E+00 -0.00000000000E+00 -0.50000000000E+03  0.50000000000E+03  0.00000000000E+00 0. -1.
        -11    1    1    2    0    0 -0.16574888705E+03 -0.40781054160E+02  0.45725568768E+03  0.48807637912E+03  0.00000000000E+00 0. -1.
         11    1    1    2    0    0  0.49771115352E+02  0.15926222459E+02 -0.85432336306E+02  0.10014735429E+03  0.00000000000E+00 0. -1.
        -15    1    1    2    0    0  0.59290738962E+02  0.19413506379E+02 -0.37883639854E+02  0.73010984476E+02  0.17770000000E+01 0.  1.
         15    1    1    2    0    0  0.56687032737E+02  0.54413253228E+01 -0.33393971152E+03  0.33876528211E+03  0.17770000000E+01 0. -1.
</event>
<event>
 7    1  0.3970441E-006  0.5274413E+03  0.7546771E-02  0.9340418E-01
        -11   -1    0    0    0    0  0.00000000000E+00  0.00000000000E+00  0.50000000000E+03  0.50000000000E+03  0.00000000000E+00 0. -1.
         11   -1    0    0    0    0 -0.00000000000E+00 -0.00000000000E+00 -0.50000000000E+03  0.50000000000E+03  0.00000000000E+00 0.  1.
         23    2    1    2    0    0  0.12452689790E+03 -0.55264267403E+02 -0.26378724546E+03  0.31264205629E+03  0.97980900924E+02 0.  0.
        -11    1    1    2    0    0 -0.48441400697E+02  0.81756949081E+02  0.46290491763E+03  0.47255870619E+03  0.00000000000E+00 0. -1.
         11    1    1    2    0    0 -0.76085497199E+02 -0.26492681678E+02 -0.19911767217E+03  0.21479923752E+03  0.00000000000E+00 0.  1.
        -15    1    3    3    0    0  0.78283189177E+02 -0.19721556599E+02 -0.23314807425E+03  0.24673544487E+03  0.17770000000E+01 0.  1.
         15    1    3    3    0    0  0.46243708720E+02 -0.35542710804E+02 -0.30639171210E+02  0.65906611420E+02  0.17770000000E+01 0. -1.
</event>
<event>
 7    1  0.3970441E-006  0.5033987E+03  0.7546771E-02  0.9392237E-01
        -11   -1    0    0    0    0  0.00000000000E+00  0.00000000000E+00  0.50000000000E+03  0.50000000000E+03  0.00000000000E+00 0. -1.
         11   -1    0    0    0    0 -0.00000000000E+00 -0.00000000000E+00 -0.50000000000E+03  0.50000000000E+03  0.00000000000E+00 0. -1.
         23    2    1    2    0    0 -0.42359227861E+03 -0.97997360916E+01 -0.24299797791E+03  0.49660130831E+03  0.89657062308E+02 0.  0.
        -11    1    1    2    0    0  0.23213594829E+02 -0.54293611782E+00  0.57507073138E+02  0.62017975018E+02  0.00000000000E+00 0. -1.
         11    1    1    2    0    0  0.40037868378E+03  0.10342672209E+02  0.18549090477E+03  0.44138071667E+03  0.00000000000E+00 0. -1.
        -15    1    3    3    0    0 -0.33847759165E+03  0.51067703494E+01 -0.15193548449E+03  0.37105351141E+03  0.17770000000E+01 0.  1.
         15    1    3    3    0    0 -0.85114686964E+02 -0.14906506441E+02 -0.91062493413E+02  0.12554779690E+03  0.17770000000E+01 0. -1.
</event>
<event>
 6    1  0.3970441E-006  0.3852472E+03  0.7546771E-02  0.9701024E-01
        -11   -1    0    0    0    0  0.00000000000E+00  0.00000000000E+00  0.50000000000E+03  0.50000000000E+03  0.00000000000E+00 0. -1.
         11   -1    0    0    0    0 -0.00000000000E+00 -0.00000000000E+00 -0.50000000000E+03  0.50000000000E+03  0.00000000000E+00 0.  1.
        -11    1    1    2    0    0 -0.47556746501E+02 -0.69922257189E+02  0.31929418725E+03  0.33030220133E+03  0.00000000000E+00 0. -1.
         11    1    1    2    0    0  0.21622394156E+03 -0.91768374269E+02  0.25925337994E+01  0.23490625503E+03  0.00000000000E+00 0.  1.
        -15    1    1    2    0    0 -0.13966090515E+03  0.97450491432E+02 -0.90417349060E+02  0.19282173489E+03  0.17770000000E+01 0. -1.
         15    1    1    2    0    0 -0.29006289916E+02  0.64240140026E+02 -0.23146937199E+03  0.24196980875E+03  0.17770000000E+01 0.  1.
</event>
<event>
 7    1  0.3970441E-006  0.3831510E+03  0.7546771E-02  0.9707538E-01
        -11   -1    0    0    0    0  0.00000000000E+00  0.00000000000E+00  0.50000000000E+03  0.50000000000E+03  0.00000000000E+00 0.  1.
         11   -1    0    0    0    0 -0.00000000000E+00 -0.00000000000E+00 -0.50000000000E+03  0.50000000000E+03  0.00000000000E+00 0.  1.
         23    2    1    2    0    0 -0.12696613361E+02 -0.11743920353E+03 -0.14846163159E+03  0.21056180638E+03  0.91335906052E+02 0.  0.
        -11    1    1    2    0    0 -0.12614335287E+03 -0.21338690035E+03  0.30920136998E+03  0.39629736551E+03  0.00000000000E+00 0.  1.
         11    1    1    2    0    0  0.13883996623E+03  0.33082610388E+03 -0.16073973839E+03  0.39314082811E+03  0.00000000000E+00 0.  1.
        -15    1    3    3    0    0  0.38616787125E+02 -0.35463288837E+02 -0.56414815569E+02  0.77036940799E+02  0.17770000000E+01 0.  1.
         15    1    3    3    0    0 -0.51313400486E+02 -0.81975914697E+02 -0.92046816019E+02  0.13352486558E+03  0.17770000000E+01 0. -1.
</event>
<event>
 7    1  0.3970441E-006  0.4266859E+03  0.7546771E-02  0.9580681E-01
        -11   -1    0    0    0    0  0.00000000000E+00  0.00000000000E+00  0.50000000000E+03  0.50000000000E+03  0.00000000000E+00 0.  1.
         11   -1    0    0    0    0 -0.00000000000E+00 -0.00000000000E+00 -0.50000000000E+03  0.50000000000E+03  0.00000000000E+00 0.  1.
         23    2    1    2    0    0 -0.77550816884E+02  0.38570213406E+02  0.61848881776E+02  0.14001707016E+03  0.90981894886E+02 0.  0.
        -11    1    1    2    0    0  0.98766398017E+02  0.86560660794E+02  0.37906265386E+03  0.40116834985E+03  0.00000000000E+00 0.  1.
         11    1    1    2    0    0 -0.21215581133E+02 -0.12513087420E+03 -0.44091153563E+03  0.45881457999E+03  0.00000000000E+00 0.  1.
        -15    1    3    3    0    0 -0.34750539460E+02 -0.88937457226E-01 -0.19801190065E+02  0.40035643614E+02  0.17770000000E+01 0.  1.
         15    1    3    3    0    0 -0.42800277424E+02  0.38659150863E+02  0.81650071841E+02  0.99981426543E+02  0.17770000000E+01 0. -1.
</event>
<event>
 7    1  0.3970441E-006  0.3510319E+03  0.7546771E-02  0.9813293E-01
        -11   -1    0    0    0    0  0.00000000000E+00  0.00000000000E+00  0.50000000000E+03  0.50000000000E+03  0.00000000000E+00 0.  1.
         11   -1    0    0    0    0 -0.00000000000E+00 -0.00000000000E+00 -0.50000000000E+03  0.50000000000E+03  0.00000000000E+00 0. -1.
         23    2    1    2    0    0 -0.10848840260E+03 -0.54001697368E+02 -0.20817306781E+03  0.25776319600E+03  0.91760134207E+02 0.  0.
        -11    1    1    2    0    0 -0.76518830213E+02 -0.19519717184E+03  0.34447273707E+03  0.40325988377E+03  0.00000000000E+00 0.  1.
         11    1    1    2    0    0  0.18500723282E+03  0.24919886921E+03 -0.13629966926E+03  0.33897692023E+03  0.00000000000E+00 0. -1.
        -15    1    3    3    0    0 -0.48485689009E+02 -0.51602814535E+02 -0.45084382711E+02  0.83961132675E+02  0.17770000000E+01 0.  1.
         15    1    3    3    0    0 -0.60002713595E+02 -0.23988828331E+01 -0.16308868510E+03  0.17380206332E+03  0.17770000000E+01 0. -1.
</event>
<event>
 7    1  0.3970441E-006  0.5343533E+03  0.7546771E-02  0.9326061E-01
        -11   -1    0    0    0    0  0.00000000000E+00  0.00000000000E+00  0.50000000000E+03  0.50000000000E+03  0.00000000000E+00 0.  1.
         11   -1    0    0    0    0 -0.00000000000E+00 -0.00000000000E+00 -0.50000000000E+03  0.50000000000E+03  0.00000000000E+00 0. -1.
         23    2    1    2    0    0 -0.54039976413E+02  0.82709496000E+02  0.93459317413E+02  0.16413226964E+03  0.91888944646E+02 0.  0.
        -11    1    1    2    0    0  0.62411434754E+02 -0.11946689918E+01  0.36492054144E+03  0.37022103667E+03  0.00000000000E+00 0.  1.
         11    1    1    2    0    0 -0.83714583415E+01 -0.81514827008E+02 -0.45837985886E+03  0.46564669369E+03  0.00000000000E+00 0. -1.
        -15    1    3    3    0    0 -0.11081517670E+02  0.32305498174E+01  0.69735734233E+02  0.70706908036E+02  0.17770000000E+01 0. -1.
         15    1    3    3    0    0 -0.42958458743E+02  0.79478946182E+02  0.23723583180E+02  0.93425361609E+02  0.17770000000E+01 0.  1.
</event>
<event>
 7    1  0.3970441E-006  0.5414440E+03  0.7546771E-02  0.9311570E-01
        -11   -1    0    0    0    0  0.00000000000E+00  0.00000000000E+00  0.50000000000E+03  0.50000000000E+03  0.00000000000E+00 0.  1.
         11   -1    0    0    0    0 -0.00000000000E+00 -0.00000000000E+00 -0.50000000000E+03  0.50000000000E+03  0.00000000000E+00 0.  1.
         23    2    1    2    0    0 -0.16843291197E+02  0.16222755916E+03  0.12760864025E+03  0.22583332837E+03  0.90084680869E+02 0.  0.
        -11    1    1    2    0    0 -0.58247256744E+02 -0.39189696953E+02  0.30770358581E+03  0.31561063352E+03  0.00000000000E+00 0.  1.
         11    1    1    2    0    0  0.75090547941E+02 -0.12303786221E+03 -0.43531222607E+03  0.45855603811E+03  0.00000000000E+00 0.  1.
        -15    1    3    3    0    0 -0.32028520174E+02  0.67431944053E+02  0.12134204311E+02  0.75652427764E+02  0.17770000000E+01 0.  1.
         15    1    3    3    0    0  0.15185228977E+02  0.94795615107E+02  0.11547443594E+03  0.15018090061E+03  0.17770000000E+01 0. -1.
</event>
<event>
 7    1  0.3970441E-006  0.3272209E+03  0.7546771E-02  0.9899853E-01
        -11   -1    0    0    0    0  0.00000000000E+00  0.00000000000E+00  0.50000000000E+03  0.50000000000E+03  0.00000000000E+00 0.  1.
         11   -1    0    0    0    0 -0.00000000000E+00 -0.00000000000E+00 -0.50000000000E+03  0.50000000000E+03  0.00000000000E+00 0. -1.
         23    2    1    2    0    0  0.21095889829E+03  0.45396593192E+02 -0.16999163625E+03  0.29024252998E+03  0.93696650808E+02 0.  0.
        -11    1    1    2    0    0  0.10757347486E+03 -0.98373822888E+02  0.32155132750E+03  0.35305058808E+03  0.00000000000E+00 0.  1.
         11    1    1    2    0    0 -0.31853237315E+03  0.52977229695E+02 -0.15155969125E+03  0.35670688194E+03  0.00000000000E+00 0. -1.
        -15    1    3    3    0    0  0.55511316571E+00  0.23585033272E+02 -0.19018983195E+02  0.30355253184E+02  0.17770000000E+01 0. -1.
         15    1    3    3    0    0  0.21040378512E+03  0.21811559920E+02 -0.15097265306E+03  0.25988727680E+03  0.17770000000E+01 0.  1.
</event>
<event>
 7    1  0.3970441E-006  0.5288204E+03  0.7546771E-02  0.9337535E-01
        -11   -1    0    0    0    0  0.00000000000E+00  0.00000000000E+00  0.50000000000E+03  0.50000000000E+03  0.00000000000E+00 0. -1.
         11   -1    0    0    0    0 -0.00000000000E+00 -0.00000000000E+00 -0.50000000000E+03  0.50000000000E+03  0.00000000000E+00 0. -1.
         23    2    1    2    0    0  0.11144911722E+03  0.14976535745E+03  0.31121635182E+03  0.37413887111E+03  0.90959931925E+02 0.  0.
        -11    1    1    2    0    0 -0.81020763330E+02  0.86813115705E+01  0.13147874002E+03  0.15468157078E+03  0.00000000000E+00 0. -1.
         11    1    1    2    0    0 -0.30428353893E+02 -0.15844666902E+03 -0.44269509184E+03  0.47117955811E+03  0.00000000000E+00 0. -1.
        -15    1    3    3    0    0 -0.13410578916E+02  0.96412041373E+01  0.10487960322E+02  0.19645647986E+02  0.17770000000E+01 0. -1.
         15    1    3    3    0    0  0.12485969614E+03  0.14012415331E+03  0.30072839149E+03  0.35449322312E+03  0.17770000000E+01 0.  1.
</event>
<event>
 7    1  0.3970441E-006  0.4243152E+03  0.7546771E-02  0.9587165E-01
        -11   -1    0    0    0    0  0.00000000000E+00  0.00000000000E+00  0.50000000000E+03  0.50000000000E+03  0.00000000000E+00 0.  1.
         11   -1    0    0    0    0 -0.00000000000E+00 -0.00000000000E+00 -0.50000000000E+03  0.50000000000E+03  0.00000000000E+00 0. -1.
         23    2    1    2    0    0  0.77728416726E+02  0.99516163538E+01 -0.42789664822E+03  0.44455976476E+03  0.91635699616E+02 0.  0.
        -11    1    1    2    0    0 -0.63816721458E+02  0.12993448414E+03  0.38047131160E+03  0.40707979938E+03  0.00000000000E+00 0.  1.
         11    1    1    2    0    0 -0.13911695268E+02 -0.13988610050E+03  0.47425336622E+02  0.14836043587E+03  0.00000000000E+00 0. -1.
        -15    1    3    3    0    0  0.96607700832E+02  0.33740157878E+01 -0.38844129723E+03  0.40029268163E+03  0.17770000000E+01 0. -1.
         15    1    3    3    0    0 -0.18879284106E+02  0.65776005660E+01 -0.39455350992E+02  0.44267083126E+02  0.17770000000E+01 0.  1.
</event>
<event>
 7    1  0.3970441E-006  0.5156660E+03  0.7546771E-02  0.9365422E-01
        -11   -1    0    0    0    0  0.00000000000E+00  0.00000000000E+00  0.50000000000E+03  0.50000000000E+03  0.00000000000E+00 0. -1.
         11   -1    0    0    0    0 -0.00000000000E+00 -0.00000000000E+00 -0.50000000000E+03  0.50000000000E+03  0.00000000000E+00 0. -1.
         23    2    1    2    0    0  0.18220527292E+02 -0.37312090231E+02  0.27417028519E+03  0.29163004824E+03  0.90302602753E+02 0.  0.
        -11    1    1    2    0    0  0.97317955909E+02  0.47746690168E+02  0.19606521144E+03  0.22403593038E+03  0.00000000000E+00 0. -1.
         11    1    1    2    0    0 -0.11553848320E+03 -0.10434599938E+02 -0.47023549663E+03  0.48433402138E+03  0.00000000000E+00 0. -1.
        -15    1    3    3    0    0  0.53741164891E+02 -0.10786832109E+02  0.14271845965E+03  0.15289272385E+03  0.17770000000E+01 0. -1.
         15    1    3    3    0    0 -0.35520637600E+02 -0.26525258122E+02  0.13145182554E+03  0.13873732439E+03  0.17770000000E+01 0.  1.
</event>
<event>
 7    1  0.3970441E-006  0.4186153E+03  0.7546771E-02  0.9602943E-01
        -11   -1    0    0    0    0  0.00000000000E+00  0.00000000000E+00  0.50000000000E+03  0.50000000000E+03  0.00000000000E+00 0.  1.
         11   -1    0    0    0    0 -0.00000000000E+00 -0.00000000000E+00 -0.50000000000E+03  0.50000000000E+03  0.00000000000E+00 0. -1.
         23    2    1    2    0    0 -0.88838428677E+02  0.20278140170E+03 -0.30860146078E+03  0.38957678011E+03  0.86733169640E+02 0.  0.
        -11    1    1    2    0    0  0.80570401851E+02 -0.10725957809E+03  0.43303358039E+03  0.45333683778E+03  0.00000000000E+00 0.  1.
         11    1    1    2    0    0  0.82680268260E+01 -0.95521823613E+02 -0.12443211961E+03  0.15708638211E+03  0.00000000000E+00 0. -1.
        -15    1    3    3    0    0 -0.56979347918E+02  0.19733119165E+03 -0.26653397049E+03  0.33649630078E+03  0.17770000000E+01 0. -1.
         15    1    3    3    0    0 -0.31859080758E+02  0.54502100459E+01 -0.42067490295E+02  0.53080479322E+02  0.17770000000E+01 0.  1.
</event>
<event>
 7    1  0.3970441E-006  0.4333824E+03  0.7546771E-02  0.9562604E-01
        -11   -1    0    0    0    0  0.00000000000E+00  0.00000000000E+00  0.50000000000E+03  0.50000000000E+03  0.00000000000E+00 0.  1.
         11   -1    0    0    0    0 -0.00000000000E+00 -0.00000000000E+00 -0.50000000000E+03  0.50000000000E+03  0.00000000000E+00 0. -1.
         23    2    1    2    0    0 -0.49711702985E+02  0.76449666993E+02  0.53685421305E+00  0.12845128827E+03  0.90463474663E+02 0.  0.
        -11    1    1    2    0    0 -0.62271908532E+02 -0.10565973516E+03  0.41887597032E+03  0.43646173800E+03  0.00000000000E+00 0.  1.
         11    1    1    2    0    0  0.11198361152E+03  0.29210068166E+02 -0.41941282453E+03  0.43508697373E+03  0.00000000000E+00 0. -1.
        -15    1    3    3    0    0 -0.49384230308E+02  0.91167779169E+02 -0.17431734680E+02  0.10515412148E+03  0.17770000000E+01 0.  1.
         15    1    3    3    0    0 -0.32747267667E+00 -0.14718112176E+02  0.17968588893E+02  0.23297166785E+02  0.17770000000E+01 0. -1.
</event>
<event>
 7    1  0.3970441E-006  0.4287467E+03  0.7546771E-02  0.9575080E-01
        -11   -1    0    0    0    0  0.00000000000E+00  0.00000000000E+00  0.50000000000E+03  0.50000000000E+03  0.00000000000E+00 0.  1.
         11   -1    0    0    0    0 -0.00000000000E+00 -0.00000000000E+00 -0.50000000000E+03  0.50000000000E+03  0.00000000000E+00 0. -1.
         23    2    1    2    0    0  0.10441492767E+03  0.13382809660E+03 -0.38904440579E+03  0.43430297302E+03  0.91929789175E+02 0.  0.
        -11    1    1    2    0    0  0.35912281800E+02 -0.13530218552E+03  0.40111813040E+03  0.42484365115E+03  0.00000000000E+00 0.  1.
         11    1    1    2    0    0 -0.14032720947E+03  0.14740889115E+01 -0.12073724616E+02  0.14085337583E+03  0.00000000000E+00 0. -1.
        -15    1    3    3    0    0  0.98594433940E+02  0.93605360728E+02 -0.20622091659E+03  0.24700819850E+03  0.17770000000E+01 0. -1.
         15    1    3    3    0    0  0.58204937308E+01  0.40222735876E+02 -0.18282348920E+03  0.18729477451E+03  0.17770000000E+01 0.  1.
</event>
<event>
 7    1  0.3970441E-006  0.4498284E+03  0.7546771E-02  0.9519648E-01
        -11   -1    0    0    0    0  0.00000000000E+00  0.00000000000E+00  0.50000000000E+03  0.50000000000E+03  0.00000000000E+00 0. -1.
         11   -1    0    0    0    0 -0.00000000000E+00 -0.00000000000E+00 -0.50000000000E+03  0.50000000000E+03  0.00000000000E+00 0.  1.
         23    2    1    2    0    0  0.89122595180E+01  0.12165037955E+02 -0.41531043168E+03  0.42587826428E+03  0.93070536714E+02 0.  0.
        -11    1    1    2    0    0 -0.97618905376E+02 -0.46369154746E+02  0.45751250800E+03  0.47010343987E+03  0.00000000000E+00 0. -1.
         11    1    1    2    0    0  0.88706645858E+02  0.34204116791E+02 -0.42202076321E+02  0.10401829585E+03  0.00000000000E+00 0.  1.
        -15    1    3    3    0    0 -0.11454636057E+02 -0.35838074643E+02 -0.11337846394E+03  0.11947137773E+03  0.17770000000E+01 0. -1.
         15    1    3    3    0    0  0.20366895575E+02  0.48003112597E+02 -0.30193196774E+03  0.30640688656E+03  0.17770000000E+01 0.  1.
</event>
<event>
 7    1  0.3970441E-006  0.4220859E+03  0.7546771E-02  0.9593305E-01
        -11   -1    0    0    0    0  0.00000000000E+00  0.00000000000E+00  0.50000000000E+03  0.50000000000E+03  0.00000000000E+00 0.  1.
         11   -1    0    0    0    0 -0.00000000000E+00 -0.00000000000E+00 -0.50000000000E+03  0.50000000000E+03  0.00000000000E+00 0. -1.
         23    2    1    2    0    0 -0.23781758046E+02  0.48966809109E+02 -0.39991699655E+03  0.41367147625E+03  0.90703725005E+02 0.  0.
        -11    1    1    2    0    0  0.93779550006E+02  0.85009766291E+02  0.41551450961E+03  0.43436571234E+03  0.00000000000E+00 0.  1.
         11    1    1    2    0    0 -0.69997791961E+02 -0.13397657540E+03 -0.15597513063E+02  0.15196281140E+03  0.00000000000E+00 0. -1.
        -15    1    3    3    0    0  0.21378505428E+02 -0.15720657426E+02 -0.88316602569E+02  0.92234264688E+02  0.17770000000E+01 0.  1.
         15    1    3    3    0    0 -0.45160263473E+02  0.64687466535E+02 -0.31160039398E+03  0.32143721157E+03  0.17770000000E+01 0. -1.
</event>
<event>
 7    1  0.3970441E-006  0.5249338E+03  0.7546771E-02  0.9345684E-01
        -11   -1    0    0    0    0  0.00000000000E+00  0.00000000000E+00  0.50000000000E+03  0.50000000000E+03  0.00000000000E+00 0.  1.
         11   -1    0    0    0    0 -0.00000000000E+00 -0.00000000000E+00 -0.50000000000E+03  0.50000000000E+03  0.00000000000E+00 0. -1.
         23    2    1    2    0    0  0.49100843326E+02  0.68541779209E+02 -0.27979204487E+03  0.30665048429E+03  0.92962695927E+02 0.  0.
        -11    1    1    2    0    0  0.59829973461E+02 -0.52903059368E+02  0.46830495265E+03  0.47506619338E+03  0.00000000000E+00 0.  1.
         11    1    1    2    0    0 -0.10893081679E+03 -0.15638719841E+02 -0.18851290778E+03  0.21828332233E+03  0.00000000000E+00 0. -1.
        -15    1    3    3    0    0  0.34511940321E+02 -0.48559685190E+01 -0.30448409896E+02  0.46313257812E+02  0.17770000000E+01 0.  1.
         15    1    3    3    0    0  0.14588903005E+02  0.73397747728E+02 -0.24934363497E+03  0.26033722648E+03  0.17770000000E+01 0. -1.
</event>
<event>
 7    1  0.3970441E-006  0.3578673E+03  0.7546771E-02  0.9789797E-01
        -11   -1    0    0    0    0  0.00000000000E+00  0.00000000000E+00  0.50000000000E+03  0.50000000000E+03  0.00000000000E+00 0. -1.
         11   -1    0    0    0    0 -0.00000000000E+00 -0.00000000000E+00 -0.50000000000E+03  0.50000000000E+03  0.00000000000E+00 0. -1.
         23    2    1    2    0    0  0.14281789886E+03 -0.29229055570E+03  0.46826019422E+01  0.33768357442E+03  0.90429798658E+02 0.  0.
        -11    1    1    2    0    0  0.65954496149E+02  0.38024739551E+02  0.24033735975E+03  0.25210696712E+03  0.00000000000E+00 0. -1.
         11    1    1    2    0    0 -0.20877239501E+03  0.25426581615E+03 -0.24501996169E+03  0.41020945846E+03  0.00000000000E+00 0. -1.
        -15    1    3    3    0    0  0.14795772041E+02 -0.93181841978E+02 -0.28667508364E+02  0.98624308917E+02  0.17770000000E+01 0.  1.
         15    1    3    3    0    0  0.12802212682E+03 -0.19910871372E+03  0.33350110306E+02  0.23905926550E+03  0.17770000000E+01 0. -1.
</event>
<event>
 7    1  0.3970441E-006  0.5097462E+03  0.7546771E-02  0.9378262E-01
        -11   -1    0    0    0    0  0.00000000000E+00  0.00000000000E+00  0.50000000000E+03  0.50000000000E+03  0.00000000000E+00 0.  1.
         11   -1    0    0    0    0 -0.00000000000E+00 -0.00000000000E+00 -0.50000000000E+03  0.50000000000E+03  0.00000000000E+00 0. -1.
         23    2    1    2    0    0  0.19088346338E+02 -0.11680230800E+03  0.31952142632E+03  0.35300710107E+03  0.92265526638E+02 0.  0.
        -11    1    1    2    0    0  0.31657180226E+02 -0.16216139452E+01  0.15350024211E+03  0.15673905391E+03  0.00000000000E+00 0.  1.
         11    1    1    2    0    0 -0.50745526565E+02  0.11842392194E+03 -0.47302166843E+03  0.49025384502E+03  0.00000000000E+00 0. -1.
        -15    1    3    3    0    0  0.43123557733E+02 -0.16548415516E+02  0.11561800688E+03  0.12451575214E+03  0.17770000000E+01 0.  1.
         15    1    3    3    0    0 -0.24035211395E+02 -0.10025389248E+03  0.20390341944E+03  0.22849134893E+03  0.17770000000E+01 0. -1.
</event>
<event>
 7    1  0.3970441E-006  0.5129634E+03  0.7546771E-02  0.9371261E-01
        -11   -1    0    0    0    0  0.00000000000E+00  0.00000000000E+00  0.50000000000E+03  0.50000000000E+03  0.00000000000E+00 0.  1.
         11   -1    0    0    0    0 -0.00000000000E+00 -0.00000000000E+00 -0.50000000000E+03  0.50000000000E+03  0.00000000000E+00 0. -1.
         23    2    1    2    0    0 -0.82690365494E+01  0.72947008190E+00 -0.30733826001E+03  0.31640721809E+03  0.74751672224E+02 0.  0.
        -11    1    1    2    0    0  0.90480479426E+02  0.61868539488E+02  0.47454207370E+03  0.48703656233E+03  0.00000000000E+00 0.  1.
         11    1    1    2    0    0 -0.82211442877E+02 -0.62598009570E+02 -0.16720381370E+03  0.19655621958E+03  0.00000000000E+00 0. -1.
        -15    1    3    3    0    0 -0.31748300445E+02  0.25293121761E+02 -0.18615423265E+03  0.19053674882E+03  0.17770000000E+01 0. -1.
         15    1    3    3    0    0  0.23479263895E+02 -0.24563651679E+02 -0.12118402736E+03  0.12587046927E+03  0.17770000000E+01 0.  1.
</event>
<event>
 7    1  0.3970441E-006  0.4891031E+03  0.7546771E-02  0.9424528E-01
        -11   -1    0    0    0    0  0.00000000000E+00  0.00000000000E+00  0.50000000000E+03  0.50000000000E+03  0.00000000000E+00 0.  1.
         11   -1    0    0    0    0 -0.00000000000E+00 -0.00000000000E+00 -0.50000000000E+03  0.50000000000E+03  0.00000000000E+00 0.  1.
         23    2    1    2    0    0 -0.32645630377E+01 -0.96022749481E+02  0.45688302455E+03  0.47624003980E+03  0.93975803286E+02 0.  0.
        -11    1    1    2    0    0 -0.14739693793E+02 -0.29017302660E+00  0.26619579242E+02  0.30429340653E+02  0.00000000000E+00 0.  1.
         11    1    1    2    0    0  0.18004256831E+02  0.96312922508E+02 -0.48350260379E+03  0.49333061954E+03  0.00000000000E+00 0.  1.
        -15    1    3    3    0    0  0.24284090237E+02 -0.14155028614E+02  0.31857331858E+02  0.42522102439E+02  0.17770000000E+01 0. -1.
         15    1    3    3    0    0 -0.27548653275E+02 -0.81867720867E+02  0.42502569269E+03  0.43371793737E+03  0.17770000000E+01 0.  1.
</event>
<event>
 7    1  0.3970441E-006  0.3440165E+03  0.7546771E-02  0.9838012E-01
        -11   -1    0    0    0    0  0.00000000000E+00  0.00000000000E+00  0.50000000000E+03  0.50000000000E+03  0.00000000000E+00 0. -1.
         11   -1    0    0    0    0 -0.00000000000E+00 -0.00000000000E+00 -0.50000000000E+03  0.50000000000E+03  0.00000000000E+00 0.  1.
         23    2    1    2    0    0  0.15194577448E+03 -0.15555729276E+03  0.13349778879E+03  0.26617662362E+03  0.75780905493E+02 0.  0.
        -11    1    1    2    0    0 -0.84480654341E+02 -0.33005338981E+02  0.26920388169E+03  0.28407228530E+03  0.00000000000E+00 0. -1.
         11    1    1    2    0    0 -0.67465120135E+02  0.18856263174E+03 -0.40270167048E+03  0.44975109108E+03  0.00000000000E+00 0.  1.
        -15    1    3    3    0    0  0.14935040229E+03 -0.13263162712E+03  0.94837174356E+02  0.22111973803E+03  0.17770000000E+01 0. -1.
         15    1    3    3    0    0  0.25953721910E+01 -0.22925665634E+02  0.38660614439E+02  0.45056885594E+02  0.17770000000E+01 0.  1.
</event>
<event>
 7    1  0.3970441E-006  0.4320214E+03  0.7546771E-02  0.9566249E-01
        -11   -1    0    0    0    0  0.00000000000E+00  0.00000000000E+00  0.50000000000E+03  0.50000000000E+03  0.00000000000E+00 0.  1.
         11   -1    0    0    0    0 -0.00000000000E+00 -0.00000000000E+00 -0.50000000000E+03  0.50000000000E+03  0.00000000000E+00 0. -1.
         23    2    1    2    0    0  0.18347552724E+03 -0.95308798502E+00 -0.37522020341E+03  0.42769059684E+03  0.92004717838E+02 0.  0.
        -11    1    1    2    0    0 -0.70639838757E+02  0.53583888144E+02  0.42799309830E+03  0.43708044120E+03  0.00000000000E+00 0.  1.
         11    1    1    2    0    0 -0.11283568848E+03 -0.52630800159E+02 -0.52772894883E+02  0.13522896197E+03  0.00000000000E+00 0. -1.
        -15    1    3    3    0    0 -0.10566632151E+02 -0.13124024963E+01 -0.14370789722E+02  0.17973687478E+02  0.17770000000E+01 0.  1.
         15    1    3    3    0    0  0.19404215939E+03  0.35931451132E+00 -0.36084941369E+03  0.40971690936E+03  0.17770000000E+01 0. -1.
</event>
<event>
 7    1  0.6546395E-006  0.3509971E+03  0.7546771E-02  0.9813414E-01
        -11   -1    0    0    0    0  0.00000000000E+00  0.00000000000E+00  0.50000000000E+03  0.50000000000E+03  0.00000000000E+00 0. -1.
         11   -1    0    0    0    0 -0.00000000000E+00 -0.00000000000E+00 -0.50000000000E+03  0.50000000000E+03  0.00000000000E+00 0. -1.
         23    2    1    2    0    0  0.11348559491E+03  0.14964856079E+03  0.13593076629E+03  0.26071202433E+03  0.11924728260E+03 0.  0.
        -11    1    1    2    0    0 -0.51561718541E+02 -0.42014886608E+02  0.28901562791E+03  0.29657021882E+03  0.00000000000E+00 0. -1.
         11    1    1    2    0    0 -0.61923876368E+02 -0.10763367418E+03 -0.42494639420E+03  0.44271775685E+03  0.00000000000E+00 0. -1.
        -15    1    3    3    0    0 -0.62781067687E+01  0.11396867162E+02  0.62066698092E+02  0.63440806637E+02  0.17770000000E+01 0. -1.
         15    1    3    3    0    0  0.11976370168E+03  0.13825169363E+03  0.73864068199E+02  0.19727121769E+03  0.17770000000E+01 0.  1.
</event>
<event>
 7    1  0.3970441E-006  0.4704277E+03  0.7546771E-02  0.9468525E-01
        -11   -1    0    0    0    0  0.00000000000E+00  0.00000000000E+00  0.50000000000E+03  0.50000000000E+03  0.00000000000E+00 0.  1.
         11   -1    0    0    0    0 -0.00000000000E+00 -0.00000000000E+00 -0.50000000000E+03  0.50000000000E+03  0.00000000000E+00 0.  1.
         23    2    1    2    0    0 -0.70799521118E+02  0.98140571583E+02 -0.45562913320E+03  0.48053815429E+03  0.93138964581E+02 0.  0.
        -11    1    1    2    0    0  0.62840142071E+01 -0.10195012606E+03  0.44169127689E+03  0.45334810148E+03  0.00000000000E+00 0.  1.
         11    1    1    2    0    0  0.64515506911E+02  0.38095544823E+01  0.13937856317E+02  0.66113744230E+02  0.00000000000E+00 0.  1.
        -15    1    3    3    0    0 -0.54889826444E+02  0.64741724773E+02 -0.42218225910E+03  0.43063372093E+03  0.17770000000E+01 0.  1.
         15    1    3    3    0    0 -0.15909694674E+02  0.33398846810E+02 -0.33446874108E+02  0.49904433364E+02  0.17770000000E+01 0. -1.
</event>
<event>
 7    1  0.3970441E-006  0.3660381E+03  0.7546771E-02  0.9762438E-01
        -11   -1    0    0    0    0  0.00000000000E+00  0.00000000000E+00  0.50000000000E+03  0.50000000000E+03  0.00000000000E+00 0. -1.
         11   -1    0    0    0    0 -0.00000000000E+00 -0.00000000000E+00 -0.50000000000E+03  0.50000000000E+03  0.00000000000E+00 0.  1.
         23    2    1    2    0    0  0.14201964452E+03 -0.42020404732E+01 -0.16341286687E+03  0.23656921484E+03  0.95257502490E+02 0.  0.
        -11    1    1    2    0    0  0.30221709057E+02 -0.80422784675E+02  0.42802075232E+03  0.43655806076E+03  0.00000000000E+00 0. -1.
         11    1    1    2    0    0 -0.17224135358E+03  0.84624825149E+02 -0.26460788545E+03  0.32687272440E+03  0.00000000000E+00 0.  1.
        -15    1    3    3    0    0  0.61034025691E+02 -0.39418535423E+02 -0.34887755234E+02  0.80618151933E+02  0.17770000000E+01 0. -1.
         15    1    3    3    0    0  0.80985618828E+02  0.35216494949E+02 -0.12852511163E+03  0.15595106291E+03  0.17770000000E+01 0.  1.
</event>
<event>
 7    1  0.3970441E-006  0.5021431E+03  0.7546771E-02  0.9395027E-01
        -11   -1    0    0    0    0  0.00000000000E+00  0.00000000000E+00  0.50000000000E+03  0.50000000000E+03  0.00000000000E+00 0.  1.
         11   -1    0    0    0    0 -0.00000000000E+00 -0.00000000000E+00 -0.50000000000E+03  0.50000000000E+03  0.00000000000E+00 0.  1.
         23    2    1    2    0    0 -0.14333946020E+03  0.13261683239E+03 -0.45533789387E+03  0.50214309752E+03  0.81741468709E+02 0.  0.
        -11    1    1    2    0    0  0.15848716228E+02 -0.11447916948E+02  0.93668334958E+02  0.95686956177E+02  0.00000000000E+00 0.  1.
         11    1    1    2    0    0  0.12749074397E+03 -0.12116891544E+03  0.36166955891E+03  0.40216994631E+03  0.00000000000E+00 0.  1.
        -15    1    3    3    0    0 -0.15137462714E+03  0.11300682113E+03 -0.38835560771E+03  0.43186578370E+03  0.17770000000E+01 0.  1.
         15    1    3    3    0    0  0.80351669328E+01  0.19610011256E+02 -0.66982286156E+02  0.70277313813E+02  0.17770000000E+01 0. -1.
</event>
<event>
 7    1  0.3970441E-006  0.5222572E+03  0.7546771E-02  0.9351340E-01
        -11   -1    0    0    0    0  0.00000000000E+00  0.00000000000E+00  0.50000000000E+03  0.50000000000E+03  0.00000000000E+00 0.  1.
         11   -1    0    0    0    0 -0.00000000000E+00 -0.00000000000E+00 -0.50000000000E+03  0.50000000000E+03  0.00000000000E+00 0.  1.
         23    2    1    2    0    0 -0.77136029941E+02 -0.35990547450E+02 -0.40171183891E+03  0.42081315972E+03  0.92011017021E+02 0.  0.
        -11    1    1    2    0    0  0.81563406055E+02 -0.39754204464E+02  0.46904707003E+03  0.47774275493E+03  0.00000000000E+00 0.  1.
         11    1    1    2    0    0 -0.44273761143E+01  0.75744751914E+02 -0.67335231120E+02  0.10144408535E+03  0.00000000000E+00 0.  1.
        -15    1    3    3    0    0 -0.58163881912E+02  0.14564971964E+02 -0.29686343319E+03  0.30286338713E+03  0.17770000000E+01 0.  1.
         15    1    3    3    0    0 -0.18972148029E+02 -0.50555519414E+02 -0.10484840572E+03  0.11794977260E+03  0.17770000000E+01 0. -1.
</event>
<event>
 7    1  0.3970441E-006  0.4443711E+03  0.7546771E-02  0.9533682E-01
        -11   -1    0    0    0    0  0.00000000000E+00  0.00000000000E+00  0.50000000000E+03  0.50000000000E+03  0.00000000000E+00 0.  1.
         11   -1    0    0    0    0 -0.00000000000E+00 -0.00000000000E+00 -0.50000000000E+03  0.50000000000E+03  0.00000000000E+00 0. -1.
         23    2    1    2    0    0 -0.61824827188E+02 -0.28468173342E+01  0.43068979880E+01  0.10909512188E+03  0.89737297828E+02 0.  0.
        -11    1    1    2    0    0  0.11823900227E+03  0.93710317450E+02  0.42368840723E+03  0.44974876506E+03  0.00000000000E+00 0.  1.
         11    1    1    2    0    0 -0.56414175083E+02 -0.90863500115E+02 -0.42799530522E+03  0.44115611306E+03  0.00000000000E+00 0. -1.
        -15    1    3    3    0    0  0.39657990316E+01 -0.32133957633E+02 -0.13120347204E+02  0.34980280657E+02  0.17770000000E+01 0.  1.
         15    1    3    3    0    0 -0.65790626220E+02  0.29287140298E+02  0.17427245192E+02  0.74114841221E+02  0.17770000000E+01 0. -1.
</event>
<event>
 7    1  0.3970441E-006  0.5256103E+03  0.7546771E-02  0.9344260E-01
        -11   -1    0    0    0    0  0.00000000000E+00  0.00000000000E+00  0.50000000000E+03  0.50000000000E+03  0.00000000000E+00 0.  1.
         11   -1    0    0    0    0 -0.00000000000E+00 -0.00000000000E+00 -0.50000000000E+03  0.50000000000E+03  0.00000000000E+00 0. -1.
         23    2    1    2    0    0 -0.75669124987E+02 -0.57539611135E+02 -0.18099580790E+03  0.22446593231E+03  0.92676043108E+02 0.  0.
        -11    1    1    2    0    0  0.92389773132E+02  0.30566472850E+03  0.35082590342E+03  0.47438972474E+03  0.00000000000E+00 0.  1.
         11    1    1    2    0    0 -0.16720648146E+02 -0.24812511736E+03 -0.16983009552E+03  0.30114434294E+03  0.00000000000E+00 0. -1.
        -15    1    3    3    0    0 -0.18453433530E+02 -0.24233552453E+02  0.12730482479E+01  0.30538052563E+02  0.17770000000E+01 0.  1.
         15    1    3    3    0    0 -0.57215691457E+02 -0.33306058682E+02 -0.18226885615E+03  0.19392787975E+03  0.17770000000E+01 0. -1.
</event>
<event>
 7    1  0.3970441E-006  0.3580576E+03  0.7546771E-02  0.9789151E-01
        -11   -1    0    0    0    0  0.00000000000E+00  0.00000000000E+00  0.50000000000E+03  0.50000000000E+03  0.00000000000E+00 0. -1.
         11   -1    0    0    0    0 -0.00000000000E+00 -0.00000000000E+00 -0.50000000000E+03  0.50000000000E+03  0.00000000000E+00 0.  1.
         23    2    1    2    0    0  0.18038453318E+03 -0.14302011297E+03  0.92172901183E+01  0.24773715343E+03  0.91079120696E+02 0.  0.
        -11    1    1    2    0    0 -0.25655132605E+03 -0.75733376298E+02  0.27631981162E+03  0.38458648635E+03  0.00000000000E+00 0. -1.
         11    1    1    2    0    0  0.76166792874E+02  0.21875348926E+03 -0.28553710174E+03  0.36767636023E+03  0.00000000000E+00 0.  1.
        -15    1    3    3    0    0  0.80353029347E+02 -0.11856637846E+03 -0.73121940372E+01  0.14342671068E+03  0.17770000000E+01 0.  1.
         15    1    3    3    0    0  0.10003150383E+03 -0.24453734510E+02  0.16529484156E+02  0.10431044275E+03  0.17770000000E+01 0. -1.
</event>
<event>
 7    1  0.3970441E-006  0.5158610E+03  0.7546771E-02  0.9365003E-01
        -11   -1    0    0    0    0  0.00000000000E+00  0.00000000000E+00  0.50000000000E+03  0.50000000000E+03  0.00000000000E+00 0. -1.
         11   -1    0    0    0    0 -0.00000000000E+00 -0.00000000000E+00 -0.50000000000E+03  0.50000000000E+03  0.00000000000E+00 0.  1.
         23    2    1    2    0    0  0.34783307094E+02  0.12829857586E+03  0.30543037987E+03  0.34920397456E+03  0.10481076224E+03 0.  0.
        -11    1    1    2    0    0  0.47518044461E+02 -0.17956809806E+02  0.15872665771E+03  0.16665702336E+03  0.00000000000E+00 0. -1.
         11    1    1    2    0    0 -0.82301351555E+02 -0.11034176605E+03 -0.46415703758E+03  0.48413900208E+03  0.00000000000E+00 0.  1.
        -15    1    3    3    0    0  0.60425492183E+02  0.12815692317E+03  0.27508370582E+03  0.30943438723E+03  0.17770000000E+01 0.  1.
         15    1    3    3    0    0 -0.25642185089E+02  0.14165268965E+00  0.30346674045E+02  0.39769587328E+02  0.17770000000E+01 0. -1.
</event>
<event>
 7    1  0.3970441E-006  0.3512909E+03  0.7546771E-02  0.9812393E-01
        -11   -1    0    0    0    0  0.00000000000E+00  0.00000000000E+00  0.50000000000E+03  0.50000000000E+03  0.00000000000E+00 0. -1.
         11   -1    0    0    0    0 -0.00000000000E+00 -0.00000000000E+00 -0.50000000000E+03  0.50000000000E+03  0.00000000000E+00 0.  1.
         23    2    1    2    0    0 -0.34792452705E+02 -0.60799693110E+01 -0.28408167815E+03  0.29999439321E+03  0.89703708423E+02 0.  0.
        -11    1    1    2    0    0 -0.97916368928E+02  0.21404641689E+03  0.37021019611E+03  0.43870157647E+03  0.00000000000E+00 0. -1.
         11    1    1    2    0    0  0.13270882163E+03 -0.20796644758E+03 -0.86128517964E+02  0.26130403032E+03  0.00000000000E+00 0.  1.
        -15    1    3    3    0    0 -0.54890362264E+02 -0.23360646923E+02 -0.24863798333E+03  0.25570036405E+03  0.17770000000E+01 0.  1.
         15    1    3    3    0    0  0.20097909558E+02  0.17280677612E+02 -0.35443694821E+02  0.44294029157E+02  0.17770000000E+01 0. -1.
</event>
<event>
 7    1  0.3970441E-006  0.4446606E+03  0.7546771E-02  0.9532933E-01
        -11   -1    0    0    0    0  0.00000000000E+00  0.00000000000E+00  0.50000000000E+03  0.50000000000E+03  0.00000000000E+00 0.  1.
         11   -1    0    0    0    0 -0.00000000000E+00 -0.00000000000E+00 -0.50000000000E+03  0.50000000000E+03  0.00000000000E+00 0. -1.
         23    2    1    2    0    0  0.12053356809E+02 -0.18756641456E+01 -0.41956340157E+03  0.42816856152E+03  0.84534416732E+02 0.  0.
        -11    1    1    2    0    0 -0.67443352091E+02  0.95521749814E+02  0.44499174400E+03  0.46009853581E+03  0.00000000000E+00 0.  1.
         11    1    1    2    0    0  0.55389995282E+02 -0.93646085668E+02 -0.25428342429E+02  0.11173290266E+03  0.00000000000E+00 0. -1.
        -15    1    3    3    0    0  0.11733889843E+01 -0.42816921082E+02 -0.19865367719E+03  0.20322673733E+03  0.17770000000E+01 0. -1.
         15    1    3    3    0    0  0.10879967824E+02  0.40941256937E+02 -0.22090972438E+03  0.22494182420E+03  0.17770000000E+01 0.  1.
</event>
<event>
 7    1  0.3970441E-006  0.3826846E+03  0.7546771E-02  0.9708993E-01
        -11   -1    0    0    0    0  0.00000000000E+00  0.00000000000E+00  0.50000000000E+03  0.50000000000E+03  0.00000000000E+00 0. -1.
         11   -1    0    0    0    0 -0.00000000000E+00 -0.00000000000E+00 -0.50000000000E+03  0.50000000000E+03  0.00000000000E+00 0. -1.
         23    2    1    2    0    0  0.49699168458E+02 -0.23264009712E+03 -0.20325830664E+03  0.32582519286E+03  0.90866357640E+02 0.  0.
        -11    1    1    2    0    0 -0.15404938368E+03  0.19176523387E+03  0.38723307104E+03  0.45875327665E+03  0.00000000000E+00 0. -1.
         11    1    1    2    0    0  0.10435021522E+03  0.40874863249E+02 -0.18397476440E+03  0.21542153049E+03  0.00000000000E+00 0. -1.
        -15    1    3    3    0    0  0.93569882786E+01 -0.85577035777E+02 -0.13173669546E+03  0.15738073878E+03  0.17770000000E+01 0. -1.
         15    1    3    3    0    0  0.40342180180E+02 -0.14706306134E+03 -0.71521611183E+02  0.16844445407E+03  0.17770000000E+01 0.  1.
</event>
<event>
 7    1  0.3970441E-006  0.5132149E+03  0.7546771E-02  0.9370716E-01
        -11   -1    0    0    0    0  0.00000000000E+00  0.00000000000E+00  0.50000000000E+03  0.50000000000E+03  0.00000000000E+00 0.  1.
         11   -1    0    0    0    0 -0.00000000000E+00 -0.00000000000E+00 -0.50000000000E+03  0.50000000000E+03  0.00000000000E+00 0. -1.
         23    2    1    2    0    0 -0.64756229586E+02  0.68541804189E+01 -0.39181753859E+03  0.40808512998E+03  0.93659706937E+02 0.  0.
        -11    1    1    2    0    0  0.52725963798E+02 -0.63154171904E+02  0.47978255179E+03  0.48678514119E+03  0.00000000000E+00 0.  1.
         11    1    1    2    0    0  0.12030265788E+02  0.56299991485E+02 -0.87965013198E+02  0.10512972883E+03  0.00000000000E+00 0. -1.
        -15    1    3    3    0    0 -0.69410427555E+02 -0.30834983507E+02 -0.26839291982E+03  0.27893820248E+03  0.17770000000E+01 0. -1.
         15    1    3    3    0    0  0.46541979690E+01  0.37689163926E+02 -0.12342461877E+03  0.12914692750E+03  0.17770000000E+01 0.  1.
</event>
<event>
 7    1  0.3970441E-006  0.3445558E+03  0.7546771E-02  0.9836090E-01
        -11   -1    0    0    0    0  0.00000000000E+00  0.00000000000E+00  0.50000000000E+03  0.50000000000E+03  0.00000000000E+00 0.  1.
         11   -1    0    0    0    0 -0.00000000000E+00 -0.00000000000E+00 -0.50000000000E+03  0.50000000000E+03  0.00000000000E+00 0. -1.
         23    2    1    2    0    0  0.78785494845E+02 -0.21999211147E+03 -0.61740928502E+02  0.26973261153E+03  0.11974997353E+03 0.  0.
        -11    1    1    2    0    0 -0.13757828108E+03 -0.52819955445E+02  0.31856642328E+03  0.35100184780E+03  0.00000000000E+00 0.  1.
         11    1    1    2    0    0  0.58792786240E+02  0.27281206692E+03 -0.25682549478E+03  0.37926554067E+03  0.00000000000E+00 0. -1.
        -15    1    3    3    0    0  0.25465216945E+01 -0.11737592061E+03  0.18387387158E+02  0.11884799219E+03  0.17770000000E+01 0.  1.
         15    1    3    3    0    0  0.76238973150E+02 -0.10261619087E+03 -0.80128315659E+02  0.15088461934E+03  0.17770000000E+01 0. -1.
</event>
<event>
 7    1  0.3970441E-006  0.4840068E+03  0.7546771E-02  0.9436324E-01
        -11   -1    0    0    0    0  0.00000000000E+00  0.00000000000E+00  0.50000000000E+03  0.50000000000E+03  0.00000000000E+00 0.  1.
         11   -1    0    0    0    0 -0.00000000000E+00 -0.00000000000E+00 -0.50000000000E+03  0.50000000000E+03  0.00000000000E+00 0.  1.
         23    2    1    2    0    0  0.53288671805E+02 -0.70292591950E+02  0.44784117660E+03  0.46566945463E+03  0.92225758279E+02 0.  0.
        -11    1    1    2    0    0  0.17183304746E+02 -0.95189709294E+01  0.34866859507E+02  0.40019678427E+02  0.00000000000E+00 0.  1.
         11    1    1    2    0    0 -0.70471976551E+02  0.79811562880E+02 -0.48270803611E+03  0.49431086694E+03  0.00000000000E+00 0.  1.
        -15    1    3    3    0    0  0.16398510980E+01 -0.71075796473E+02  0.19411031699E+03  0.20672791502E+03  0.17770000000E+01 0.  1.
         15    1    3    3    0    0  0.51648820707E+02  0.78320452315E+00  0.25373085961E+03  0.25894153961E+03  0.17770000000E+01 0. -1.
</event>
<event>
 7    1  0.3970441E-006  0.4695661E+03  0.7546771E-02  0.9470607E-01
        -11   -1    0    0    0    0  0.00000000000E+00  0.00000000000E+00  0.50000000000E+03  0.50000000000E+03  0.00000000000E+00 0.  1.
         11   -1    0    0    0    0 -0.00000000000E+00 -0.00000000000E+00 -0.50000000000E+03  0.50000000000E+03  0.00000000000E+00 0. -1.
         23    2    1    2    0    0 -0.85618861325E+02 -0.11196694595E+03 -0.42585090564E+03  0.46006531535E+03  0.10219547030E+03 0.  0.
        -11    1    1    2    0    0  0.58323041114E+02  0.59873703668E+02  0.46292671953E+03  0.47041214394E+03  0.00000000000E+00 0.  1.
         11    1    1    2    0    0  0.27295820211E+02  0.52093242278E+02 -0.37075813885E+02  0.69522540714E+02  0.00000000000E+00 0. -1.
        -15    1    3    3    0    0  0.10018701335E+02 -0.53985612509E+02 -0.83905707170E+02  0.10029030940E+03  0.17770000000E+01 0.  1.
         15    1    3    3    0    0 -0.95637562660E+02 -0.57981333437E+02 -0.34194519847E+03  0.35977500595E+03  0.17770000000E+01 0. -1.
</event>
<event>
 7    1  0.3970441E-006  0.5179997E+03  0.7546771E-02  0.9360411E-01
        -11   -1    0    0    0    0  0.00000000000E+00  0.00000000000E+00  0.50000000000E+03  0.50000000000E+03  0.00000000000E+00 0.  1.
         11   -1    0    0    0    0 -0.00000000000E+00 -0.00000000000E+00 -0.50000000000E+03  0.50000000000E+03  0.00000000000E+00 0. -1.
         23    2    1    2    0    0 -0.24173467898E+02 -0.11464730835E+01  0.16582412891E+03  0.19117376322E+03  0.92000516649E+02 0.  0.
        -11    1    1    2    0    0  0.10521423013E+03  0.12235496120E+02  0.30918509323E+03  0.32682589166E+03  0.00000000000E+00 0.  1.
         11    1    1    2    0    0 -0.81040762237E+02 -0.11089023036E+02 -0.47500922214E+03  0.48200034512E+03  0.00000000000E+00 0. -1.
        -15    1    3    3    0    0 -0.58325838883E+02  0.93018204202E+01  0.96061311850E+02  0.11278014323E+03  0.17770000000E+01 0. -1.
         15    1    3    3    0    0  0.34152370986E+02 -0.10448293504E+02  0.69762817063E+02  0.78393619987E+02  0.17770000000E+01 0.  1.
</event>
<event>
 7    1  0.1137306E-005  0.5090349E+03  0.7546771E-02  0.9379817E-01
        -11   -1    0    0    0    0  0.00000000000E+00  0.00000000000E+00  0.50000000000E+03  0.50000000000E+03  0.00000000000E+00 0.  1.
         11   -1    0    0    0    0 -0.00000000000E+00 -0.00000000000E+00 -0.50000000000E+03  0.50000000000E+03  0.00000000000E+00 0. -1.
         23    2    1    2    0    0 -0.65124192737E+02 -0.23131339062E+02  0.30015803339E+03  0.32592752372E+03  0.10657244663E+03 0.  0.
        -11    1    1    2    0    0 -0.33717439316E+02 -0.58363711106E+01  0.17988152864E+03  0.18310732724E+03  0.00000000000E+00 0.  1.
         11    1    1    2    0    0  0.98841632053E+02  0.28967710173E+02 -0.48003956203E+03  0.49096514905E+03  0.00000000000E+00 0. -1.
        -15    1    3    3    0    0 -0.89951147372E+02  0.21899129538E+01  0.23637859119E+03  0.25293082203E+03  0.17770000000E+01 0.  1.
         15    1    3    3    0    0  0.24826954635E+02 -0.25321252016E+02  0.63779442202E+02  0.72996701683E+02  0.17770000000E+01 0. -1.
</event>
<event>
 7    1  0.3970441E-006  0.5124714E+03  0.7546771E-02  0.9372328E-01
        -11   -1    0    0    0    0  0.00000000000E+00  0.00000000000E+00  0.50000000000E+03  0.50000000000E+03  0.00000000000E+00 0. -1.
         11   -1    0    0    0    0 -0.00000000000E+00 -0.00000000000E+00 -0.50000000000E+03  0.50000000000E+03  0.00000000000E+00 0.  1.
         23    2    1    2    0    0 -0.20071784848E+02 -0.12607696351E+02 -0.22419490365E+03  0.24256497192E+03  0.89513017064E+02 0.  0.
        -11    1    1    2    0    0  0.12357365397E+03 -0.21563691325E+02  0.47111427764E+03  0.48752856669E+03  0.00000000000E+00 0. -1.
         11    1    1    2    0    0 -0.10350186912E+03  0.34171387675E+02 -0.24691937399E+03  0.26990646139E+03  0.00000000000E+00 0.  1.
        -15    1    3    3    0    0 -0.31646659611E+02  0.25635262149E+02 -0.53580756267E+02  0.67325573901E+02  0.17770000000E+01 0.  1.
         15    1    3    3    0    0  0.11574874763E+02 -0.38242958499E+02 -0.17061414738E+03  0.17523939802E+03  0.17770000000E+01 0. -1.
</event>
<event>
 7    1  0.3970441E-006  0.5166547E+03  0.7546771E-02  0.9363296E-01
        -11   -1    0    0    0    0  0.00000000000E+00  0.00000000000E+00  0.50000000000E+03  0.50000000000E+03  0.00000000000E+00 0.  1.
         11   -1    0    0    0    0 -0.00000000000E+00 -0.00000000000E+00 -0.50000000000E+03  0.50000000000E+03  0.00000000000E+00 0. -1.
         23    2    1    2    0    0  0.15435929797E+03  0.94352633928E+01  0.18868390932E+03  0.25941768912E+03  0.88204890607E+02 0.  0.
        -11    1    1    2    0    0  0.52336289605E+02 -0.54354179608E+02  0.24592155663E+03  0.25723700368E+03  0.00000000000E+00 0.  1.
         11    1    1    2    0    0 -0.20669558758E+03  0.44918916215E+02 -0.43460546594E+03  0.48334530720E+03  0.00000000000E+00 0. -1.
        -15    1    3    3    0    0  0.70890986761E+02  0.18907046481E+02  0.28875015358E+02  0.78866549636E+02  0.17770000000E+01 0. -1.
         15    1    3    3    0    0  0.83468311214E+02 -0.94717830885E+01  0.15980889396E+03  0.18055113949E+03  0.17770000000E+01 0.  1.
</event>
<event>
 7    1  0.3970441E-006  0.4367102E+03  0.7546771E-02  0.9553750E-01
        -11   -1    0    0    0    0  0.00000000000E+00  0.00000000000E+00  0.50000000000E+03  0.50000000000E+03  0.00000000000E+00 0. -1.
         11   -1    0    0    0    0 -0.00000000000E+00 -0.00000000000E+00 -0.50000000000E+03  0.50000000000E+03  0.00000000000E+00 0. -1.
         23    2    1    2    0    0 -0.30616345478E+02  0.44096474944E+02 -0.40003700655E+03  0.41460911911E+03  0.94811683517E+02 0.  0.
        -11    1    1    2    0    0  0.22810218037E+02  0.72446241870E+02  0.45143415345E+03  0.45777894109E+03  0.00000000000E+00 0. -1.
         11    1    1    2    0    0  0.78061274401E+01 -0.11654271681E+03 -0.51397146903E+02  0.12761193979E+03  0.00000000000E+00 0. -1.
        -15    1    3    3    0    0  0.26649950437E+02 -0.99459340863E+01 -0.76882733090E+02  0.81995450115E+02  0.17770000000E+01 0.  1.
         15    1    3    3    0    0 -0.57266295915E+02  0.54042409031E+02 -0.32315427346E+03  0.33261366900E+03  0.17770000000E+01 0. -1.
</event>
<event>
 7    1  0.3970441E-006  0.4236510E+03  0.7546771E-02  0.9588990E-01
        -11   -1    0    0    0    0  0.00000000000E+00  0.00000000000E+00  0.50000000000E+03  0.50000000000E+03  0.00000000000E+00 0.  1.
         11   -1    0    0    0    0 -0.00000000000E+00 -0.00000000000E+00 -0.50000000000E+03  0.50000000000E+03  0.00000000000E+00 0.  1.
         23    2    1    2    0    0  0.22326787214E+02  0.26902310887E+02 -0.38852365531E+03  0.40063877119E+03  0.91315795390E+02 0.  0.
        -11    1    1    2    0    0 -0.94287244986E+02  0.97655357107E+02  0.42896790811E+03  0.44993346123E+03  0.00000000000E+00 0.  1.
         11    1    1    2    0    0  0.71960457772E+02 -0.12455766799E+03 -0.40444252801E+02  0.14942776758E+03  0.00000000000E+00 0.  1.
        -15    1    3    3    0    0 -0.26861438749E+02 -0.11456964709E+02 -0.66904722598E+02  0.73021904706E+02  0.17770000000E+01 0. -1.
         15    1    3    3    0    0  0.49188225963E+02  0.38359275596E+02 -0.32161893272E+03  0.32761686649E+03  0.17770000000E+01 0.  1.
</event>
<event>
 7    1  0.3970441E-006  0.5224158E+03  0.7546771E-02  0.9351004E-01
        -11   -1    0    0    0    0  0.00000000000E+00  0.00000000000E+00  0.50000000000E+03  0.50000000000E+03  0.00000000000E+00 0.  1.
         11   -1    0    0    0    0 -0.00000000000E+00 -0.00000000000E+00 -0.50000000000E+03  0.50000000000E+03  0.00000000000E+00 0. -1.
         23    2    1    2    0    0 -0.32420271190E+01 -0.16485258189E+02 -0.35041977117E+03  0.36601123766E+03  0.10434527104E+03 0.  0.
        -11    1    1    2    0    0 -0.56363071818E+02 -0.65192467140E+02  0.46974441050E+03  0.47758419659E+03  0.00000000000E+00 0.  1.
         11    1    1    2    0    0  0.59605098937E+02  0.81677725329E+02 -0.11932463933E+03  0.15640456575E+03  0.00000000000E+00 0. -1.
        -15    1    3    3    0    0 -0.36353906308E+02  0.23045998737E+02 -0.24363215604E+03  0.24741162007E+03  0.17770000000E+01 0.  1.
         15    1    3    3    0    0  0.33111879189E+02 -0.39531256926E+02 -0.10678761513E+03  0.11859961759E+03  0.17770000000E+01 0. -1.
</event>
<event>
 7    1  0.3970441E-006  0.5047904E+03  0.7546771E-02  0.9389154E-01
        -11   -1    0    0    0    0  0.00000000000E+00  0.00000000000E+00  0.50000000000E+03  0.50000000000E+03  0.00000000000E+00 0. -1.
         11   -1    0    0    0    0 -0.00000000000E+00 -0.00000000000E+00 -0.50000000000E+03  0.50000000000E+03  0.00000000000E+00 0.  1.
         23    2    1    2    0    0 -0.12458682145E+03  0.19141170401E+03 -0.42979692545E+03  0.49520958142E+03  0.91360910109E+02 0.  0.
        -11    1    1    2    0    0  0.29479892909E+02 -0.13814611921E+03  0.32135336246E+03  0.35102905564E+03  0.00000000000E+00 0. -1.
         11    1    1    2    0    0  0.95106928541E+02 -0.53265584792E+02  0.10844356299E+03  0.15376136294E+03  0.00000000000E+00 0.  1.
        -15    1    3    3    0    0 -0.13373642656E+03  0.17784202883E+03 -0.42182178845E+03  0.47691718143E+03  0.17770000000E+01 0.  1.
         15    1    3    3    0    0  0.91496051105E+01  0.13569675178E+02 -0.79751369991E+01  0.18292399987E+02  0.17770000000E+01 0. -1.
</event>
<event>
 7    1  0.3970441E-006  0.3165206E+03  0.7546771E-02  0.9941369E-01
        -11   -1    0    0    0    0  0.00000000000E+00  0.00000000000E+00  0.50000000000E+03  0.50000000000E+03  0.00000000000E+00 0.  1.
         11   -1    0    0    0    0 -0.00000000000E+00 -0.00000000000E+00 -0.50000000000E+03  0.50000000000E+03  0.00000000000E+00 0.  1.
         23    2    1    2    0    0  0.13410386384E+03 -0.24222304450E+03 -0.20911032787E+03  0.35950612276E+03  0.94136462072E+02 0.  0.
        -11    1    1    2    0    0  0.57108088411E+02  0.29851165064E+02  0.32558455459E+03  0.33190017777E+03  0.00000000000E+00 0.  1.
         11    1    1    2    0    0 -0.19121195225E+03  0.21237187944E+03 -0.11647422672E+03  0.30859369947E+03  0.00000000000E+00 0.  1.
        -15    1    3    3    0    0  0.14487193819E+03 -0.19456261726E+03 -0.16268284634E+03  0.29208107903E+03  0.17770000000E+01 0.  1.
         15    1    3    3    0    0 -0.10768074346E+02 -0.47660427247E+02 -0.46427481533E+02  0.67425043723E+02  0.17770000000E+01 0. -1.
</event>
<event>
 7    1  0.3970441E-006  0.5180770E+03  0.7546771E-02  0.9360245E-01
        -11   -1    0    0    0    0  0.00000000000E+00  0.00000000000E+00  0.50000000000E+03  0.50000000000E+03  0.00000000000E+00 0.  1.
         11   -1    0    0    0    0 -0.00000000000E+00 -0.00000000000E+00 -0.50000000000E+03  0.50000000000E+03  0.00000000000E+00 0.  1.
         23    2    1    2    0    0 -0.28103237354E+02  0.34405739367E+02 -0.19893193194E+03  0.22377258262E+03  0.92340177251E+02 0.  0.
        -11    1    1    2    0    0  0.53440113904E+02  0.66154799760E+02  0.47436011483E+03  0.48192304556E+03  0.00000000000E+00 0.  1.
         11    1    1    2    0    0 -0.25336876550E+02 -0.10056053913E+03 -0.27542818288E+03  0.29430437182E+03  0.00000000000E+00 0.  1.
        -15    1    3    3    0    0  0.25638757832E+02  0.37508300552E+02 -0.64169602103E+02  0.78645496225E+02  0.17770000000E+01 0. -1.
         15    1    3    3    0    0 -0.53741995186E+02 -0.31025611859E+01 -0.13476232984E+03  0.14512708640E+03  0.17770000000E+01 0.  1.
</event>
<event>
 7    1  0.3970441E-006  0.4391189E+03  0.7546771E-02  0.9547393E-01
        -11   -1    0    0    0    0  0.00000000000E+00  0.00000000000E+00  0.50000000000E+03  0.50000000000E+03  0.00000000000E+00 0.  1.
         11   -1    0    0    0    0 -0.00000000000E+00 -0.00000000000E+00 -0.50000000000E+03  0.50000000000E+03  0.00000000000E+00 0. -1.
         23    2    1    2    0    0 -0.79579999023E+02  0.17364447095E+03  0.35079725225E+03  0.40976192121E+03  0.91437089587E+02 0.  0.
        -11    1    1    2    0    0  0.40533457516E+02 -0.57809933036E+02  0.10041992108E+03  0.12275630365E+03  0.00000000000E+00 0.  1.
         11    1    1    2    0    0  0.39046541507E+02 -0.11583453791E+03 -0.45121717333E+03  0.46748177514E+03  0.00000000000E+00 0. -1.
        -15    1    3    3    0    0 -0.66080602793E+02  0.59206741702E+02  0.99658081868E+02  0.13344277927E+03  0.17770000000E+01 0.  1.
         15    1    3    3    0    0 -0.13499396230E+02  0.11443772925E+03  0.25113917039E+03  0.27631914194E+03  0.17770000000E+01 0. -1.
</event>
<event>
 7    1  0.3970441E-006  0.4067775E+03  0.7546771E-02  0.9636585E-01
        -11   -1    0    0    0    0  0.00000000000E+00  0.00000000000E+00  0.50000000000E+03  0.50000000000E+03  0.00000000000E+00 0.  1.
         11   -1    0    0    0    0 -0.00000000000E+00 -0.00000000000E+00 -0.50000000000E+03  0.50000000000E+03  0.00000000000E+00 0.  1.
         23    2    1    2    0    0 -0.23116201122E+03 -0.30240470346E+03 -0.25123170296E+03  0.46385604126E+03  0.84620200522E+02 0.  0.
        -11    1    1    2    0    0  0.89863402854E+01  0.30195988143E+02  0.17342595432E+03  0.17626432890E+03  0.00000000000E+00 0.  1.
         11    1    1    2    0    0  0.22217567094E+03  0.27220871532E+03  0.77805748641E+02  0.35987962984E+03  0.00000000000E+00 0.  1.
        -15    1    3    3    0    0 -0.18075105956E+03 -0.17017448191E+03 -0.15392752939E+03  0.29210809961E+03  0.17770000000E+01 0.  1.
         15    1    3    3    0    0 -0.50410951663E+02 -0.13223022154E+03 -0.97304173574E+02  0.17174794165E+03  0.17770000000E+01 0. -1.
</event>
<event>
 7    1  0.3970441E-006  0.5168187E+03  0.7546771E-02  0.9362943E-01
        -11   -1    0    0    0    0  0.00000000000E+00  0.00000000000E+00  0.50000000000E+03  0.50000000000E+03  0.00000000000E+00 0.  1.
         11   -1    0    0    0    0 -0.00000000000E+00 -0.00000000000E+00 -0.50000000000E+03  0.50000000000E+03  0.00000000000E+00 0. -1.
         23    2    1    2    0    0 -0.11087156265E+02  0.60882888375E+02 -0.38621758849E+03  0.40373198727E+03  0.10002919953E+03 0.  0.
        -11    1    1    2    0    0 -0.40879543832E+02 -0.12236797512E+03  0.46563835568E+03  0.48318126694E+03  0.00000000000E+00 0.  1.
         11    1    1    2    0    0  0.51966700097E+02  0.61485086746E+02 -0.79420767198E+02  0.11308674579E+03  0.00000000000E+00 0. -1.
        -15    1    3    3    0    0 -0.28611611690E+02 -0.15117305552E+02 -0.58712555120E+02  0.67063247076E+02  0.17770000000E+01 0.  1.
         15    1    3    3    0    0  0.17524455424E+02  0.76000193927E+02 -0.32750503337E+03  0.33666874019E+03  0.17770000000E+01 0. -1.
</event>
<event>
 7    1  0.3970441E-006  0.5246174E+03  0.7546771E-02  0.9346351E-01
        -11   -1    0    0    0    0  0.00000000000E+00  0.00000000000E+00  0.50000000000E+03  0.50000000000E+03  0.00000000000E+00 0. -1.
         11   -1    0    0    0    0 -0.00000000000E+00 -0.00000000000E+00 -0.50000000000E+03  0.50000000000E+03  0.00000000000E+00 0.  1.
         23    2    1    2    0    0  0.62514762636E+02  0.75916724118E+02  0.17715368276E+03  0.22215923665E+03  0.91103537621E+02 0.  0.
        -11    1    1    2    0    0  0.93554433715E+02 -0.95032281711E+02  0.27147264478E+03  0.30245820124E+03  0.00000000000E+00 0. -1.
         11    1    1    2    0    0 -0.15606919635E+03  0.19115557593E+02 -0.44862632754E+03  0.47538256210E+03  0.00000000000E+00 0.  1.
        -15    1    3    3    0    0  0.67553451160E+02  0.43473607826E+02  0.17067918895E+03  0.18864773152E+03  0.17770000000E+01 0.  1.
         15    1    3    3    0    0 -0.50386885238E+01  0.32443116292E+02  0.64744938108E+01  0.33511505127E+02  0.17770000000E+01 0. -1.
</event>
<event>
 7    1  0.3970441E-006  0.5220521E+03  0.7546771E-02  0.9351775E-01
        -11   -1    0    0    0    0  0.00000000000E+00  0.00000000000E+00  0.50000000000E+03  0.50000000000E+03  0.00000000000E+00 0.  1.
         11   -1    0    0    0    0 -0.00000000000E+00 -0.00000000000E+00 -0.50000000000E+03  0.50000000000E+03  0.00000000000E+00 0.  1.
         23    2    1    2    0    0  0.18401479716E+02  0.41152867639E+02  0.23883293264E+03  0.25991625897E+03  0.92103848957E+02 0.  0.
        -11    1    1    2    0    0  0.16759731840E+03 -0.17473710659E+02  0.20080092724E+03  0.26213585043E+03  0.00000000000E+00 0.  1.
         11    1    1    2    0    0 -0.18599879811E+03 -0.23679156980E+02 -0.43963385988E+03  0.47794789060E+03  0.00000000000E+00 0.  1.
        -15    1    3    3    0    0  0.25571906510E+02 -0.21169295770E+02  0.13097747573E+03  0.13513074544E+03  0.17770000000E+01 0.  1.
         15    1    3    3    0    0 -0.71704267933E+01  0.62322163409E+02  0.10785545691E+03  0.12478551353E+03  0.17770000000E+01 0. -1.
</event>
<event>
 7    1  0.3970441E-006  0.4047806E+03  0.7546771E-02  0.9642380E-01
        -11   -1    0    0    0    0  0.00000000000E+00  0.00000000000E+00  0.50000000000E+03  0.50000000000E+03  0.00000000000E+00 0. -1.
         11   -1    0    0    0    0 -0.00000000000E+00 -0.00000000000E+00 -0.50000000000E+03  0.50000000000E+03  0.00000000000E+00 0. -1.
         23    2    1    2    0    0  0.58457362346E+02 -0.13834072252E+03  0.23476922839E+02  0.17629136292E+03  0.89286393221E+02 0.  0.
        -11    1    1    2    0    0  0.13121864868E+03  0.12647739385E+03  0.35564354450E+03  0.39962131532E+03  0.00000000000E+00 0. -1.
         11    1    1    2    0    0 -0.18967601103E+03  0.11863328672E+02 -0.37912046734E+03  0.42408732176E+03  0.00000000000E+00 0. -1.
        -15    1    3    3    0    0 -0.70415654950E+01 -0.14827828269E+02  0.32217404830E+02  0.36201754637E+02  0.17770000000E+01 0.  1.
         15    1    3    3    0    0  0.65498927841E+02 -0.12351289425E+03 -0.87404819907E+01  0.14008960828E+03  0.17770000000E+01 0. -1.
</event>
<event>
 7    1  0.3970441E-006  0.4743338E+03  0.7546771E-02  0.9459145E-01
        -11   -1    0    0    0    0  0.00000000000E+00  0.00000000000E+00  0.50000000000E+03  0.50000000000E+03  0.00000000000E+00 0.  1.
         11   -1    0    0    0    0 -0.00000000000E+00 -0.00000000000E+00 -0.50000000000E+03  0.50000000000E+03  0.00000000000E+00 0. -1.
         23    2    1    2    0    0 -0.34160002203E+02  0.30663628144E+02 -0.43811583418E+03  0.45083506459E+03  0.95914584212E+02 0.  0.
        -11    1    1    2    0    0  0.43857804444E+02 -0.67899295914E+02  0.48318796698E+03  0.48990247277E+03  0.00000000000E+00 0.  1.
         11    1    1    2    0    0 -0.96978022414E+01  0.37235667770E+02 -0.45072132800E+02  0.59262462637E+02  0.00000000000E+00 0. -1.
        -15    1    3    3    0    0 -0.78808485872E+01 -0.30061369446E+02 -0.67198533731E+02  0.74058047314E+02  0.17770000000E+01 0.  1.
         15    1    3    3    0    0 -0.26279153616E+02  0.60724997590E+02 -0.37091730045E+03  0.37677701728E+03  0.17770000000E+01 0. -1.
</event>
<event>
 7    1  0.3970441E-006  0.5133655E+03  0.7546771E-02  0.9370390E-01
        -11   -1    0    0    0    0  0.00000000000E+00  0.00000000000E+00  0.50000000000E+03  0.50000000000E+03  0.00000000000E+00 0. -1.
         11   -1    0    0    0    0 -0.00000000000E+00 -0.00000000000E+00 -0.50000000000E+03  0.50000000000E+03  0.00000000000E+00 0. -1.
         23    2    1    2    0    0 -0.65833513717E+02 -0.44909580005E+02 -0.37615482939E+03  0.39527030977E+03  0.91625543397E+02 0.  0.
        -11    1    1    2    0    0  0.26394938620E+02  0.91594146946E+02  0.47720743436E+03  0.48663447879E+03  0.00000000000E+00 0. -1.
         11    1    1    2    0    0  0.39438575096E+02 -0.46684566941E+02 -0.10105260497E+03  0.11809521145E+03  0.00000000000E+00 0. -1.
        -15    1    3    3    0    0  0.69469538594E+01 -0.24958963674E+02 -0.24835711992E+02  0.35932998132E+02  0.17770000000E+01 0.  1.
         15    1    3    3    0    0 -0.72780467576E+02 -0.19950616331E+02 -0.35131911740E+03  0.35933731163E+03  0.17770000000E+01 0. -1.
</event>
<event>
 7    1  0.3970441E-006  0.3483246E+03  0.7546771E-02  0.9822759E-01
        -11   -1    0    0    0    0  0.00000000000E+00  0.00000000000E+00  0.50000000000E+03  0.50000000000E+03  0.00000000000E+00 0.  1.
         11   -1    0    0    0    0 -0.00000000000E+00 -0.00000000000E+00 -0.50000000000E+03  0.50000000000E+03  0.00000000000E+00 0. -1.
         23    2    1    2    0    0 -0.13660585331E+03  0.14543982789E+03 -0.19528991936E+03  0.29349779496E+03  0.90492543045E+02 0.  0.
        -11    1    1    2    0    0  0.78254875671E+02 -0.40141548351E+02  0.43204081639E+03  0.44090184452E+03  0.00000000000E+00 0.  1.
         11    1    1    2    0    0  0.58350977635E+02 -0.10529827954E+03 -0.23675089704E+03  0.26560036053E+03  0.00000000000E+00 0. -1.
        -15    1    3    3    0    0 -0.13853732004E+02  0.67257866659E+02 -0.92927047391E+02  0.11556011589E+03  0.17770000000E+01 0. -1.
         15    1    3    3    0    0 -0.12275212130E+03  0.78181961234E+02 -0.10236287197E+03  0.17793767907E+03  0.17770000000E+01 0.  1.
</event>
<event>
 7    1  0.3970441E-006  0.4142452E+03  0.7546771E-02  0.9615223E-01
        -11   -1    0    0    0    0  0.00000000000E+00  0.00000000000E+00  0.50000000000E+03  0.50000000000E+03  0.00000000000E+00 0.  1.
         11   -1    0    0    0    0 -0.00000000000E+00 -0.00000000000E+00 -0.50000000000E+03  0.50000000000E+03  0.00000000000E+00 0.  1.
         23    2    1    2    0    0 -0.20479194587E+03  0.32653816744E+03 -0.41518828558E+02  0.39812314730E+03  0.90616286606E+02 0.  0.
        -11    1    1    2    0    0 -0.11900226414E+02  0.33353495815E+02  0.16122002441E+03  0.16506352518E+03  0.00000000000E+00 0.  1.
         11    1    1    2    0    0  0.21669217229E+03 -0.35989166326E+03 -0.11970119586E+03  0.43681332752E+03  0.00000000000E+00 0.  1.
        -15    1    3    3    0    0 -0.18954723233E+03  0.32952031556E+03 -0.42114056370E+02  0.38247685306E+03  0.17770000000E+01 0.  1.
         15    1    3    3    0    0 -0.15244713539E+02 -0.29821481177E+01  0.59522781192E+00  0.15646294240E+02  0.17770000000E+01 0. -1.
</event>
<event>
 7    1  0.3970441E-006  0.4698901E+03  0.7546771E-02  0.9469824E-01
        -11   -1    0    0    0    0  0.00000000000E+00  0.00000000000E+00  0.50000000000E+03  0.50000000000E+03  0.00000000000E+00 0.  1.
         11   -1    0    0    0    0 -0.00000000000E+00 -0.00000000000E+00 -0.50000000000E+03  0.50000000000E+03  0.00000000000E+00 0.  1.
         23    2    1    2    0    0  0.19987220041E+02  0.38525618816E+02 -0.43725846152E+03  0.44874407249E+03  0.91063539114E+02 0.  0.
        -11    1    1    2    0    0  0.27632720784E+01 -0.87437170999E+02  0.47655417130E+03  0.48451705102E+03  0.00000000000E+00 0.  1.
         11    1    1    2    0    0 -0.22750492120E+02  0.48911552183E+02 -0.39295709777E+02  0.66738876492E+02  0.00000000000E+00 0.  1.
        -15    1    3    3    0    0 -0.35456574829E+02  0.23155560894E+02 -0.15598751184E+03  0.16164346655E+03  0.17770000000E+01 0.  1.
         15    1    3    3    0    0  0.55443794870E+02  0.15370057922E+02 -0.28127094968E+03  0.28710060594E+03  0.17770000000E+01 0. -1.
</event>
<event>
 7    1  0.3970441E-006  0.4731205E+03  0.7546771E-02  0.9462048E-01
        -11   -1    0    0    0    0  0.00000000000E+00  0.00000000000E+00  0.50000000000E+03  0.50000000000E+03  0.00000000000E+00 0. -1.
         11   -1    0    0    0    0 -0.00000000000E+00 -0.00000000000E+00 -0.50000000000E+03  0.50000000000E+03  0.00000000000E+00 0. -1.
         23    2    1    2    0    0 -0.16177366844E+02  0.36109098500E+02 -0.44724530490E+03  0.45589880050E+03  0.79055545940E+02 0.  0.
        -11    1    1    2    0    0  0.39403203138E+02 -0.80838768537E+02  0.47711379377E+03  0.48551528413E+03  0.00000000000E+00 0. -1.
         11    1    1    2    0    0 -0.23225836294E+02  0.44729670037E+02 -0.29868488866E+02  0.58585915375E+02  0.00000000000E+00 0. -1.
        -15    1    3    3    0    0 -0.14232673074E+02 -0.23004153165E+02 -0.98190115463E+02  0.10186371557E+03  0.17770000000E+01 0. -1.
         15    1    3    3    0    0 -0.19446937694E+01  0.59113251665E+02 -0.34905518944E+03  0.35403508493E+03  0.17770000000E+01 0.  1.
</event>
<event>
 7    1  0.3970441E-006  0.5302860E+03  0.7546771E-02  0.9334481E-01
        -11   -1    0    0    0    0  0.00000000000E+00  0.00000000000E+00  0.50000000000E+03  0.50000000000E+03  0.00000000000E+00 0. -1.
         11   -1    0    0    0    0 -0.00000000000E+00 -0.00000000000E+00 -0.50000000000E+03  0.50000000000E+03  0.00000000000E+00 0.  1.
         23    2    1    2    0    0 -0.77601294307E+02 -0.86408810978E+01 -0.33916045293E+03  0.35981622347E+03  0.91330587084E+02 0.  0.
        -11    1    1    2    0    0  0.54473268731E+02  0.14029827346E+03  0.44494975333E+03  0.46971398269E+03  0.00000000000E+00 0. -1.
         11    1    1    2    0    0  0.23128025575E+02 -0.13165739237E+03 -0.10578930040E+03  0.17046979384E+03  0.00000000000E+00 0.  1.
        -15    1    3    3    0    0 -0.35188795185E+02  0.23014636869E+02 -0.47813955140E+02  0.63696600003E+02  0.17770000000E+01 0. -1.
         15    1    3    3    0    0 -0.42412499121E+02 -0.31655517966E+02 -0.29134649779E+03  0.29611962347E+03  0.17770000000E+01 0.  1.
</event>
<event>
 7    1  0.3970441E-006  0.5104565E+03  0.7546771E-02  0.9376712E-01
        -11   -1    0    0    0    0  0.00000000000E+00  0.00000000000E+00  0.50000000000E+03  0.50000000000E+03  0.00000000000E+00 0. -1.
         11   -1    0    0    0    0 -0.00000000000E+00 -0.00000000000E+00 -0.50000000000E+03  0.50000000000E+03  0.00000000000E+00 0.  1.
         23    2    1    2    0    0 -0.86278591921E+02  0.55676725034E+00  0.32874050791E+03  0.35366173237E+03  0.97785448787E+02 0.  0.
        -11    1    1    2    0    0 -0.44524869757E+02  0.55711442358E+02  0.13963661978E+03  0.15679481630E+03  0.00000000000E+00 0. -1.
         11    1    1    2    0    0  0.13080346168E+03 -0.56268209608E+02 -0.46837712768E+03  0.48954345132E+03  0.00000000000E+00 0.  1.
        -15    1    3    3    0    0 -0.24971257569E+01 -0.35435456044E+02  0.13371380834E+03  0.13836346140E+03  0.17770000000E+01 0. -1.
         15    1    3    3    0    0 -0.83781466164E+02  0.35992223294E+02  0.19502669957E+03  0.21529827097E+03  0.17770000000E+01 0.  1.
</event>
<event>
 7    1  0.3970441E-006  0.5158429E+03  0.7546771E-02  0.9365041E-01
        -11   -1    0    0    0    0  0.00000000000E+00  0.00000000000E+00  0.50000000000E+03  0.50000000000E+03  0.00000000000E+00 0. -1.
         11   -1    0    0    0    0 -0.00000000000E+00 -0.00000000000E+00 -0.50000000000E+03  0.50000000000E+03  0.00000000000E+00 0.  1.
         23    2    1    2    0    0 -0.61514385448E+02 -0.17520061620E+02 -0.35566943005E+03  0.37246029640E+03  0.90193995065E+02 0.  0.
        -11    1    1    2    0    0  0.74642645981E+02 -0.61855792555E+02  0.47435262309E+03  0.48415707648E+03  0.00000000000E+00 0. -1.
         11    1    1    2    0    0 -0.13128260533E+02  0.79375854175E+02 -0.11868319304E+03  0.14338262712E+03  0.00000000000E+00 0.  1.
        -15    1    3    3    0    0 -0.62123675960E+01  0.33142505545E+02 -0.81647326180E+02  0.88354189410E+02  0.17770000000E+01 0.  1.
         15    1    3    3    0    0 -0.55302017852E+02 -0.50662567166E+02 -0.27402210387E+03  0.28410610699E+03  0.17770000000E+01 0. -1.
</event>
<event>
 7    1  0.3970441E-006  0.3285769E+03  0.7546771E-02  0.9894713E-01
        -11   -1    0    0    0    0  0.00000000000E+00  0.00000000000E+00  0.50000000000E+03  0.50000000000E+03  0.00000000000E+00 0. -1.
         11   -1    0    0    0    0 -0.00000000000E+00 -0.00000000000E+00 -0.50000000000E+03  0.50000000000E+03  0.00000000000E+00 0. -1.
         23    2    1    2    0    0  0.24913439076E+03 -0.17616939350E+02 -0.26902708192E+03  0.37826216952E+03  0.91260050804E+02 0.  0.
        -11    1    1    2    0    0 -0.17933096528E+02 -0.16064364873E+03  0.28684240203E+03  0.32925148661E+03  0.00000000000E+00 0. -1.
         11    1    1    2    0    0 -0.23120129423E+03  0.17826058808E+03 -0.17815320113E+02  0.29248634387E+03  0.00000000000E+00 0. -1.
        -15    1    3    3    0    0  0.11082882866E+03  0.80921556386E+01 -0.18071642569E+03  0.21215583067E+03  0.17770000000E+01 0. -1.
         15    1    3    3    0    0  0.13830556211E+03 -0.25709094988E+02 -0.88310656235E+02  0.16610633886E+03  0.17770000000E+01 0.  1.
</event>
<event>
 7    1  0.3970441E-006  0.3760289E+03  0.7546771E-02  0.9730006E-01
        -11   -1    0    0    0    0  0.00000000000E+00  0.00000000000E+00  0.50000000000E+03  0.50000000000E+03  0.00000000000E+00 0.  1.
         11   -1    0    0    0    0 -0.00000000000E+00 -0.00000000000E+00 -0.50000000000E+03  0.50000000000E+03  0.00000000000E+00 0. -1.
         23    2    1    2    0    0  0.56737291183E+02  0.46844493829E+02  0.18752900654E+03  0.22142973573E+03  0.91926452990E+02 0.  0.
        -11    1    1    2    0    0 -0.27411588801E+03 -0.12432537907E+02  0.19542732052E+03  0.33687672176E+03  0.00000000000E+00 0.  1.
         11    1    1    2    0    0  0.21737859682E+03 -0.34411955922E+02 -0.38295632705E+03  0.44169354251E+03  0.00000000000E+00 0. -1.
        -15    1    3    3    0    0  0.32663929338E+02  0.64637384417E+02  0.17410324133E+03  0.18857364639E+03  0.17770000000E+01 0.  1.
         15    1    3    3    0    0  0.24073361845E+02 -0.17792890588E+02  0.13425765209E+02  0.32856089336E+02  0.17770000000E+01 0. -1.
</event>
<event>
 7    1  0.3970441E-006  0.5118512E+03  0.7546771E-02  0.9373675E-01
        -11   -1    0    0    0    0  0.00000000000E+00  0.00000000000E+00  0.50000000000E+03  0.50000000000E+03  0.00000000000E+00 0. -1.
         11   -1    0    0    0    0 -0.00000000000E+00 -0.00000000000E+00 -0.50000000000E+03  0.50000000000E+03  0.00000000000E+00 0. -1.
         23    2    1    2    0    0  0.26480691994E+03 -0.13252876445E+03 -0.37719912375E+03  0.48814882145E+03  0.91233298003E+02 0.  0.
        -11    1    1    2    0    0 -0.64355676499E+01 -0.18416585787E+02  0.10672899911E+03  0.10849731063E+03  0.00000000000E+00 0. -1.
         11    1    1    2    0    0 -0.25837135229E+03  0.15094535024E+03  0.27047012464E+03  0.40335386792E+03  0.00000000000E+00 0. -1.
        -15    1    3    3    0    0  0.93358048005E+02 -0.95995775588E+02 -0.14804371027E+03  0.19962718236E+03  0.17770000000E+01 0. -1.
         15    1    3    3    0    0  0.17144887193E+03 -0.36532988866E+02 -0.22915541348E+03  0.28852163909E+03  0.17770000000E+01 0.  1.
</event>
<event>
 7    1  0.3970441E-006  0.5110843E+03  0.7546771E-02  0.9375344E-01
        -11   -1    0    0    0    0  0.00000000000E+00  0.00000000000E+00  0.50000000000E+03  0.50000000000E+03  0.00000000000E+00 0. -1.
         11   -1    0    0    0    0 -0.00000000000E+00 -0.00000000000E+00 -0.50000000000E+03  0.50000000000E+03  0.00000000000E+00 0.  1.
         23    2    1    2    0    0  0.62809612943E+01 -0.40891601364E+02  0.20891553548E+03  0.23229026652E+03  0.92744236584E+02 0.  0.
        -11    1    1    2    0    0 -0.47370066327E+02 -0.75494847779E+02  0.26416419667E+03  0.27879404231E+03  0.00000000000E+00 0. -1.
         11    1    1    2    0    0  0.41089105033E+02  0.11638644914E+03 -0.47307973215E+03  0.48891569117E+03  0.00000000000E+00 0.  1.
        -15    1    3    3    0    0  0.39767631057E+02 -0.30775557607E+02  0.17990818292E+03  0.18681196813E+03  0.17770000000E+01 0.  1.
         15    1    3    3    0    0 -0.33486669763E+02 -0.10116043757E+02  0.29007352556E+02  0.45478298390E+02  0.17770000000E+01 0. -1.
</event>
<event>
 7    1  0.3970441E-006  0.4064484E+03  0.7546771E-02  0.9637537E-01
        -11   -1    0    0    0    0  0.00000000000E+00  0.00000000000E+00  0.50000000000E+03  0.50000000000E+03  0.00000000000E+00 0.  1.
         11   -1    0    0    0    0 -0.00000000000E+00 -0.00000000000E+00 -0.50000000000E+03  0.50000000000E+03  0.00000000000E+00 0. -1.
         23    2    1    2    0    0 -0.45333436826E+01 -0.48918375468E+02 -0.38763134725E+03  0.40099911598E+03  0.90159142532E+02 0.  0.
        -11    1    1    2    0    0 -0.35292055082E+01 -0.17502640354E+03  0.30964373698E+02  0.17777932857E+03  0.00000000000E+00 0. -1.
         11    1    1    2    0    0  0.80625491908E+01  0.22394477901E+03  0.35666697355E+03  0.42122155544E+03  0.00000000000E+00 0.  1.
        -15    1    3    3    0    0  0.34207611450E+02 -0.19948201803E+01 -0.74724011373E+02  0.82225151829E+02  0.17770000000E+01 0.  1.
         15    1    3    3    0    0 -0.38740955132E+02 -0.46923555288E+02 -0.31290733588E+03  0.31877396415E+03  0.17770000000E+01 0. -1.
</event>
<event>
 7    1  0.3970441E-006  0.5239334E+03  0.7546771E-02  0.9347794E-01
        -11   -1    0    0    0    0  0.00000000000E+00  0.00000000000E+00  0.50000000000E+03  0.50000000000E+03  0.00000000000E+00 0.  1.
         11   -1    0    0    0    0 -0.00000000000E+00 -0.00000000000E+00 -0.50000000000E+03  0.50000000000E+03  0.00000000000E+00 0. -1.
         23    2    1    2    0    0  0.30272417562E+02 -0.73541016036E+02 -0.34400459170E+03  0.36440541542E+03  0.90152356463E+02 0.  0.
        -11    1    1    2    0    0  0.95184359689E+01  0.20084787576E+03  0.43151933383E+03  0.47606659754E+03  0.00000000000E+00 0.  1.
         11    1    1    2    0    0 -0.39790853531E+02 -0.12730685973E+03 -0.87514742135E+02  0.15952798704E+03  0.00000000000E+00 0. -1.
        -15    1    3    3    0    0 -0.16117655614E+02 -0.49340630216E+02 -0.80856122241E+02  0.96099671411E+02  0.17770000000E+01 0.  1.
         15    1    3    3    0    0  0.46390073176E+02 -0.24200385820E+02 -0.26314846946E+03  0.26830574401E+03  0.17770000000E+01 0. -1.
</event>
<event>
 7    1  0.3970441E-006  0.4590076E+03  0.7546771E-02  0.9496515E-01
        -11   -1    0    0    0    0  0.00000000000E+00  0.00000000000E+00  0.50000000000E+03  0.50000000000E+03  0.00000000000E+00 0.  1.
         11   -1    0    0    0    0 -0.00000000000E+00 -0.00000000000E+00 -0.50000000000E+03  0.50000000000E+03  0.00000000000E+00 0.  1.
         23    2    1    2    0    0 -0.59076266118E+01  0.39407705708E+02 -0.41250835598E+03  0.42440174253E+03  0.91464900282E+02 0.  0.
        -11    1    1    2    0    0 -0.98100459359E+00 -0.94805824910E+02  0.47927821128E+03  0.48856597365E+03  0.00000000000E+00 0.  1.
         11    1    1    2    0    0  0.68886312054E+01  0.55398119202E+02 -0.66769855296E+02  0.87032283822E+02  0.00000000000E+00 0.  1.
        -15    1    3    3    0    0  0.19846887341E+02 -0.20733076948E+02 -0.69650793741E+02  0.75353501675E+02  0.17770000000E+01 0. -1.
         15    1    3    3    0    0 -0.25754513953E+02  0.60140782656E+02 -0.34285756224E+03  0.34904824085E+03  0.17770000000E+01 0.  1.
</event>
<event>
 7    1  0.3970441E-006  0.5155971E+03  0.7546771E-02  0.9365571E-01
        -11   -1    0    0    0    0  0.00000000000E+00  0.00000000000E+00  0.50000000000E+03  0.50000000000E+03  0.00000000000E+00 0.  1.
         11   -1    0    0    0    0 -0.00000000000E+00 -0.00000000000E+00 -0.50000000000E+03  0.50000000000E+03  0.00000000000E+00 0. -1.
         23    2    1    2    0    0 -0.38005527154E+02  0.10949658610E+03 -0.32536943054E+03  0.35737838551E+03  0.91761220746E+02 0.  0.
        -11    1    1    2    0    0  0.12550863098E+03 -0.10070076748E+03  0.45689508661E+03  0.48440291203E+03  0.00000000000E+00 0.  1.
         11    1    1    2    0    0 -0.87503103830E+02 -0.87958186219E+01 -0.13152565606E+03  0.15821870246E+03  0.00000000000E+00 0. -1.
        -15    1    3    3    0    0 -0.16390662958E+02  0.83970835168E+02 -0.30796141823E+03  0.31962970425E+03  0.17770000000E+01 0.  1.
         15    1    3    3    0    0 -0.21614864196E+02  0.25525750937E+02 -0.17408012314E+02  0.37748681259E+02  0.17770000000E+01 0. -1.
</event>
<event>
 7    1  0.3970441E-006  0.5224869E+03  0.7546771E-02  0.9350853E-01
        -11   -1    0    0    0    0  0.00000000000E+00  0.00000000000E+00  0.50000000000E+03  0.50000000000E+03  0.00000000000E+00 0.  1.
         11   -1    0    0    0    0 -0.00000000000E+00 -0.00000000000E+00 -0.50000000000E+03  0.50000000000E+03  0.00000000000E+00 0. -1.
         23    2    1    2    0    0 -0.26880038585E+02  0.97770401030E+01  0.18089997832E+03  0.20560716082E+03  0.93441829164E+02 0.  0.
        -11    1    1    2    0    0 -0.20999676496E+03 -0.51802698005E+02  0.23158277698E+03  0.31687969864E+03  0.00000000000E+00 0.  1.
         11    1    1    2    0    0  0.23687680355E+03  0.42025657902E+02 -0.41248275529E+03  0.47751314055E+03  0.00000000000E+00 0. -1.
        -15    1    3    3    0    0 -0.48773467642E+01  0.37208301896E+02  0.23491240973E+02  0.44308490980E+02  0.17770000000E+01 0. -1.
         15    1    3    3    0    0 -0.22002691821E+02 -0.27431261793E+02  0.15740873734E+03  0.16129866984E+03  0.17770000000E+01 0.  1.
</event>
<event>
 7    1  0.3970441E-006  0.5327314E+03  0.7546771E-02  0.9329409E-01
        -11   -1    0    0    0    0  0.00000000000E+00  0.00000000000E+00  0.50000000000E+03  0.50000000000E+03  0.00000000000E+00 0.  1.
         11   -1    0    0    0    0 -0.00000000000E+00 -0.00000000000E+00 -0.50000000000E+03  0.50000000000E+03  0.00000000000E+00 0. -1.
         23    2    1    2    0    0  0.30695695717E+01  0.17545382112E+02 -0.36106762156E+02  0.97715657856E+02  0.89035885046E+02 0.  0.
        -11    1    1    2    0    0  0.72196137128E+02  0.55117385758E+02  0.45835542258E+03  0.46726855430E+03  0.00000000000E+00 0.  1.
         11    1    1    2    0    0 -0.75265706700E+02 -0.72662767869E+02 -0.42224866043E+03  0.43501578784E+03  0.00000000000E+00 0. -1.
        -15    1    3    3    0    0 -0.33209174759E+02 -0.73988771777E+01  0.83966042515E+01  0.35089220049E+02  0.17770000000E+01 0. -1.
         15    1    3    3    0    0  0.36278744331E+02  0.24944259289E+02 -0.44503366408E+02  0.62626437807E+02  0.17770000000E+01 0.  1.
</event>
<event>
 7    1  0.3970441E-006  0.4116864E+03  0.7546771E-02  0.9622488E-01
        -11   -1    0    0    0    0  0.00000000000E+00  0.00000000000E+00  0.50000000000E+03  0.50000000000E+03  0.00000000000E+00 0.  1.
         11   -1    0    0    0    0 -0.00000000000E+00 -0.00000000000E+00 -0.50000000000E+03  0.50000000000E+03  0.00000000000E+00 0. -1.
         23    2    1    2    0    0  0.20810353728E+03  0.79130568060E+02  0.30687475023E+03  0.38919981122E+03  0.87952553677E+02 0.  0.
        -11    1    1    2    0    0  0.91145609252E+02 -0.14154983367E+03  0.12358190094E+02  0.16880936692E+03  0.00000000000E+00 0.  1.
         11    1    1    2    0    0 -0.29924914653E+03  0.62419265613E+02 -0.31923294032E+03  0.44199082186E+03  0.00000000000E+00 0. -1.
        -15    1    3    3    0    0  0.13914326743E+03  0.74945309315E+02  0.15054999377E+03  0.21827988137E+03  0.17770000000E+01 0.  1.
         15    1    3    3    0    0  0.68960269848E+02  0.41852587448E+01  0.15632475646E+03  0.17091992985E+03  0.17770000000E+01 0. -1.
</event>
<event>
 7    1  0.3970441E-006  0.5259460E+03  0.7546771E-02  0.9343555E-01
        -11   -1    0    0    0    0  0.00000000000E+00  0.00000000000E+00  0.50000000000E+03  0.50000000000E+03  0.00000000000E+00 0. -1.
         11   -1    0    0    0    0 -0.00000000000E+00 -0.00000000000E+00 -0.50000000000E+03  0.50000000000E+03  0.00000000000E+00 0.  1.
         23    2    1    2    0    0 -0.19467466659E+02 -0.71348688211E+01  0.14095806483E+03  0.17697332524E+03  0.10497853683E+03 0.  0.
        -11    1    1    2    0    0 -0.19402149034E+02 -0.20740285581E+03  0.27998128703E+03  0.34897264803E+03  0.00000000000E+00 0. -1.
         11    1    1    2    0    0  0.38869615693E+02  0.21453772463E+03 -0.42093935186E+03  0.47405402673E+03  0.00000000000E+00 0.  1.
        -15    1    3    3    0    0 -0.58753978185E+02 -0.19739091448E+02  0.10628674262E+03  0.12305157890E+03  0.17770000000E+01 0. -1.
         15    1    3    3    0    0  0.39286511526E+02  0.12604222627E+02  0.34671322211E+02  0.53921746344E+02  0.17770000000E+01 0.  1.
</event>
<event>
 7    1  0.3970441E-006  0.5328571E+03  0.7546771E-02  0.9329149E-01
        -11   -1    0    0    0    0  0.00000000000E+00  0.00000000000E+00  0.50000000000E+03  0.50000000000E+03  0.00000000000E+00 0.  1.
         11   -1    0    0    0    0 -0.00000000000E+00 -0.00000000000E+00 -0.50000000000E+03  0.50000000000E+03  0.00000000000E+00 0.  1.
         23    2    1    2    0    0  0.23453613311E+02 -0.39632604632E+02  0.24550970558E+03  0.26602981147E+03  0.91520651902E+02 0.  0.
        -11    1    1    2    0    0  0.23148062150E+02  0.17662528337E+03  0.19865668257E+03  0.26682728690E+03  0.00000000000E+00 0.  1.
         11    1    1    2    0    0 -0.46601675461E+02 -0.13699267873E+03 -0.44416638815E+03  0.46714290163E+03  0.00000000000E+00 0.  1.
        -15    1    3    3    0    0  0.47357398012E+02 -0.53063329604E+02  0.14051331208E+03  0.15749790061E+03  0.17770000000E+01 0. -1.
         15    1    3    3    0    0 -0.23903784701E+02  0.13430724973E+02  0.10499639351E+03  0.10853191086E+03  0.17770000000E+01 0.  1.
</event>
<event>
 7    1  0.3970441E-006  0.5395525E+03  0.7546771E-02  0.9315413E-01
        -11   -1    0    0    0    0  0.00000000000E+00  0.00000000000E+00  0.50000000000E+03  0.50000000000E+03  0.00000000000E+00 0.  1.
         11   -1    0    0    0    0 -0.00000000000E+00 -0.00000000000E+00 -0.50000000000E+03  0.50000000000E+03  0.00000000000E+00 0. -1.
         23    2    1    2    0    0 -0.13713691118E+03  0.28925224947E+02  0.36512627036E+02  0.17135955724E+03  0.91584523131E+02 0.  0.
        -11    1    1    2    0    0 -0.10014370757E+03  0.39603677093E+02  0.35209206528E+03  0.36819293290E+03  0.00000000000E+00 0.  1.
         11    1    1    2    0    0  0.23728061875E+03 -0.68528902040E+02 -0.38860469231E+03  0.46044750986E+03  0.00000000000E+00 0. -1.
        -15    1    3    3    0    0 -0.62689830399E+02 -0.13516571140E+02  0.54028362905E+02  0.83874514949E+02  0.17770000000E+01 0.  1.
         15    1    3    3    0    0 -0.74447080783E+02  0.42441796087E+02 -0.17515735869E+02  0.87485042289E+02  0.17770000000E+01 0. -1.
</event>
<event>
 7    1  0.3970441E-006  0.4773524E+03  0.7546771E-02  0.9451962E-01
        -11   -1    0    0    0    0  0.00000000000E+00  0.00000000000E+00  0.50000000000E+03  0.50000000000E+03  0.00000000000E+00 0.  1.
         11   -1    0    0    0    0 -0.00000000000E+00 -0.00000000000E+00 -0.50000000000E+03  0.50000000000E+03  0.00000000000E+00 0. -1.
         23    2    1    2    0    0 -0.42223357607E+02 -0.16604711675E+03  0.39600232510E+03  0.44967502483E+03  0.12663068178E+03 0.  0.
        -11    1    1    2    0    0  0.96418449817E+01 -0.28766939252E+02  0.52285989899E+02  0.60451027355E+02  0.00000000000E+00 0.  1.
         11    1    1    2    0    0  0.32581512626E+02  0.19481405600E+03 -0.44828831500E+03  0.48987394781E+03  0.00000000000E+00 0. -1.
        -15    1    3    3    0    0  0.87085811597E+01 -0.54044148666E+02  0.26233591878E+03  0.26799235325E+03  0.17770000000E+01 0.  1.
         15    1    3    3    0    0 -0.50931938767E+02 -0.11200296808E+03  0.13366640632E+03  0.18168267158E+03  0.17770000000E+01 0. -1.
</event>
<event>
 7    1  0.3970441E-006  0.4043726E+03  0.7546771E-02  0.9643569E-01
        -11   -1    0    0    0    0  0.00000000000E+00  0.00000000000E+00  0.50000000000E+03  0.50000000000E+03  0.00000000000E+00 0. -1.
         11   -1    0    0    0    0 -0.00000000000E+00 -0.00000000000E+00 -0.50000000000E+03  0.50000000000E+03  0.00000000000E+00 0.  1.
         23    2    1    2    0    0 -0.14684889540E+02 -0.67070705216E+02 -0.38551858860E+03  0.40197475148E+03  0.90801944878E+02 0.  0.
        -11    1    1    2    0    0 -0.82947478386E+02  0.21493361247E+03  0.34729414205E+03  0.41676127824E+03  0.00000000000E+00 0. -1.
         11    1    1    2    0    0  0.97632367926E+02 -0.14786290725E+03  0.38224446549E+02  0.18126397028E+03  0.00000000000E+00 0.  1.
        -15    1    3    3    0    0  0.27550708735E+02 -0.13538404811E+02 -0.43805112674E+02  0.53519861566E+02  0.17770000000E+01 0. -1.
         15    1    3    3    0    0 -0.42235598274E+02 -0.53532300406E+02 -0.34171347592E+03  0.34845488991E+03  0.17770000000E+01 0.  1.
</event>
<event>
 7    1  0.3970441E-006  0.3765487E+03  0.7546771E-02  0.9728348E-01
        -11   -1    0    0    0    0  0.00000000000E+00  0.00000000000E+00  0.50000000000E+03  0.50000000000E+03  0.00000000000E+00 0. -1.
         11   -1    0    0    0    0 -0.00000000000E+00 -0.00000000000E+00 -0.50000000000E+03  0.50000000000E+03  0.00000000000E+00 0.  1.
         23    2    1    2    0    0 -0.13923616388E+02  0.42666331346E+03 -0.14045353230E+03  0.46415508687E+03  0.11609177313E+03 0.  0.
        -11    1    1    2    0    0 -0.58087434435E+02 -0.21825883400E+03  0.20612778340E+03  0.30577725839E+03  0.00000000000E+00 0. -1.
         11    1    1    2    0    0  0.72011050823E+02 -0.20840447946E+03 -0.65674251100E+02  0.23006765474E+03  0.00000000000E+00 0.  1.
        -15    1    3    3    0    0 -0.40717433381E+02  0.10445636922E+03 -0.12363550161E+01  0.11213263911E+03  0.17770000000E+01 0. -1.
         15    1    3    3    0    0  0.26793816993E+02  0.32220694424E+03 -0.13921717729E+03  0.35202244776E+03  0.17770000000E+01 0.  1.
</event>
<event>
 7    1  0.3970441E-006  0.4701635E+03  0.7546771E-02  0.9469163E-01
        -11   -1    0    0    0    0  0.00000000000E+00  0.00000000000E+00  0.50000000000E+03  0.50000000000E+03  0.00000000000E+00 0.  1.
         11   -1    0    0    0    0 -0.00000000000E+00 -0.00000000000E+00 -0.50000000000E+03  0.50000000000E+03  0.00000000000E+00 0. -1.
         23    2    1    2    0    0 -0.32322792343E+02  0.61869667759E+01 -0.45339595517E+03  0.46398917408E+03  0.92924808485E+02 0.  0.
        -11    1    1    2    0    0  0.70979569022E+02  0.47382582656E+02  0.46161774759E+03  0.46944025525E+03  0.00000000000E+00 0.  1.
         11    1    1    2    0    0 -0.38656776679E+02 -0.53569549432E+02 -0.82217924195E+01  0.66570570676E+02  0.00000000000E+00 0. -1.
        -15    1    3    3    0    0 -0.51718685972E+02 -0.27904480197E+02 -0.29478633345E+03  0.30059212001E+03  0.17770000000E+01 0. -1.
         15    1    3    3    0    0  0.19395893628E+02  0.34091446973E+02 -0.15860962172E+03  0.16339705407E+03  0.17770000000E+01 0.  1.
</event>
<event>
 7    1  0.3970441E-006  0.5240562E+03  0.7546771E-02  0.9347535E-01
        -11   -1    0    0    0    0  0.00000000000E+00  0.00000000000E+00  0.50000000000E+03  0.50000000000E+03  0.00000000000E+00 0. -1.
         11   -1    0    0    0    0 -0.00000000000E+00 -0.00000000000E+00 -0.50000000000E+03  0.50000000000E+03  0.00000000000E+00 0. -1.
         23    2    1    2    0    0 -0.13757939462E+02  0.88706199691E+01 -0.15463841131E+03  0.18011375993E+03  0.90884319142E+02 0.  0.
        -11    1    1    2    0    0 -0.17396375224E+03 -0.14103033071E+02  0.44278691966E+03  0.47594384003E+03  0.00000000000E+00 0. -1.
         11    1    1    2    0    0  0.18772169170E+03  0.52324131022E+01 -0.28814850836E+03  0.34394240005E+03  0.00000000000E+00 0. -1.
        -15    1    3    3    0    0 -0.19139882928E+02 -0.30122925470E+02 -0.12713446449E+03  0.13206080246E+03  0.17770000000E+01 0.  1.
         15    1    3    3    0    0  0.53819434661E+01  0.38993545439E+02 -0.27503946821E+02  0.48052957464E+02  0.17770000000E+01 0. -1.
</event>
<event>
 7    1  0.3970441E-006  0.5163988E+03  0.7546771E-02  0.9363846E-01
        -11   -1    0    0    0    0  0.00000000000E+00  0.00000000000E+00  0.50000000000E+03  0.50000000000E+03  0.00000000000E+00 0.  1.
         11   -1    0    0    0    0 -0.00000000000E+00 -0.00000000000E+00 -0.50000000000E+03  0.50000000000E+03  0.00000000000E+00 0. -1.
         23    2    1    2    0    0 -0.87503754523E+01 -0.25222985872E+02 -0.15404500427E+03  0.18148226933E+03  0.92158464910E+02 0.  0.
        -11    1    1    2    0    0  0.67064174740E+01  0.19660845541E+03  0.44178082256E+03  0.48360123651E+03  0.00000000000E+00 0.  1.
         11    1    1    2    0    0  0.20439579782E+01 -0.17138546954E+03 -0.28773581829E+03  0.33491649416E+03  0.00000000000E+00 0. -1.
        -15    1    3    3    0    0  0.11944132799E+02  0.27837076047E+02 -0.21441398962E+02  0.37154494070E+02  0.17770000000E+01 0.  1.
         15    1    3    3    0    0 -0.20694508251E+02 -0.53060061919E+02 -0.13260360531E+03  0.14432777526E+03  0.17770000000E+01 0. -1.
</event>
<event>
 7    1  0.3970441E-006  0.5093087E+03  0.7546771E-02  0.9379218E-01
        -11   -1    0    0    0    0  0.00000000000E+00  0.00000000000E+00  0.50000000000E+03  0.50000000000E+03  0.00000000000E+00 0. -1.
         11   -1    0    0    0    0 -0.00000000000E+00 -0.00000000000E+00 -0.50000000000E+03  0.50000000000E+03  0.00000000000E+00 0. -1.
         23    2    1    2    0    0  0.36851434679E+02  0.19949491159E+02 -0.26089901252E+03  0.27915088669E+03  0.90005068562E+02 0.  0.
        -11    1    1    2    0    0 -0.37987295485E+02 -0.84076433823E+02  0.48193989072E+03  0.49069128748E+03  0.00000000000E+00 0. -1.
         11    1    1    2    0    0  0.11358608064E+01  0.64126942664E+02 -0.22104087820E+03  0.23015782583E+03  0.00000000000E+00 0. -1.
        -15    1    3    3    0    0  0.42326144148E+02  0.36305712516E+02 -0.25469625108E+03  0.26073539323E+03  0.17770000000E+01 0. -1.
         15    1    3    3    0    0 -0.54747094690E+01 -0.16356221357E+02 -0.62027614485E+01  0.18415493461E+02  0.17770000000E+01 0.  1.
</event>
<event>
 7    1  0.3970441E-006  0.5304428E+03  0.7546771E-02  0.9334155E-01
        -11   -1    0    0    0    0  0.00000000000E+00  0.00000000000E+00  0.50000000000E+03  0.50000000000E+03  0.00000000000E+00 0. -1.
         11   -1    0    0    0    0 -0.00000000000E+00 -0.00000000000E+00 -0.50000000000E+03  0.50000000000E+03  0.00000000000E+00 0. -1.
         23    2    1    2    0    0  0.17907362988E+03 -0.14793390842E+03  0.26145249046E+03  0.36306769720E+03  0.97513803143E+02 0.  0.
        -11    1    1    2    0    0 -0.34664919333E+02  0.97852873734E+01  0.16345342173E+03  0.16737511630E+03  0.00000000000E+00 0. -1.
         11    1    1    2    0    0 -0.14440871055E+03  0.13814862104E+03 -0.42490591219E+03  0.46955718650E+03  0.00000000000E+00 0. -1.
        -15    1    3    3    0    0  0.60423781390E+02 -0.13557359303E+02  0.11873452307E+03  0.13392490451E+03  0.17770000000E+01 0.  1.
         15    1    3    3    0    0  0.11864984849E+03 -0.13437654911E+03  0.14271796739E+03  0.22914279269E+03  0.17770000000E+01 0. -1.
</event>
<event>
 7    1  0.3970441E-006  0.5198066E+03  0.7546771E-02  0.9356550E-01
        -11   -1    0    0    0    0  0.00000000000E+00  0.00000000000E+00  0.50000000000E+03  0.50000000000E+03  0.00000000000E+00 0.  1.
         11   -1    0    0    0    0 -0.00000000000E+00 -0.00000000000E+00 -0.50000000000E+03  0.50000000000E+03  0.00000000000E+00 0. -1.
         23    2    1    2    0    0 -0.33236758654E+02  0.67831970587E+01 -0.25912495570E+03  0.27734994215E+03  0.92879243419E+02 0.  0.
        -11    1    1    2    0    0 -0.77751032034E+02  0.14479197184E+02  0.47363572223E+03  0.48019336471E+03  0.00000000000E+00 0.  1.
         11    1    1    2    0    0  0.11098779069E+03 -0.21262394242E+02 -0.21451076653E+03  0.24245669314E+03  0.00000000000E+00 0. -1.
        -15    1    3    3    0    0 -0.14725594050E+02  0.49519126728E+02 -0.15117255900E+03  0.15976635239E+03  0.17770000000E+01 0.  1.
         15    1    3    3    0    0 -0.18511164605E+02 -0.42735929670E+02 -0.10795239670E+03  0.11758358976E+03  0.17770000000E+01 0. -1.
</event>
<event>
 7    1  0.3970441E-006  0.4613786E+03  0.7546771E-02  0.9490633E-01
        -11   -1    0    0    0    0  0.00000000000E+00  0.00000000000E+00  0.50000000000E+03  0.50000000000E+03  0.00000000000E+00 0.  1.
         11   -1    0    0    0    0 -0.00000000000E+00 -0.00000000000E+00 -0.50000000000E+03  0.50000000000E+03  0.00000000000E+00 0. -1.
         23    2    1    2    0    0  0.17184625983E+03 -0.21206555157E+03 -0.36289771550E+03  0.46335880374E+03  0.92215475422E+02 0.  0.
        -11    1    1    2    0    0 -0.10195166928E+03  0.25639455997E+03  0.36032416009E+03  0.45383456633E+03  0.00000000000E+00 0.  1.
         11    1    1    2    0    0 -0.69894590550E+02 -0.44329008397E+02  0.25735554108E+01  0.82806629935E+02  0.00000000000E+00 0. -1.
        -15    1    3    3    0    0  0.33184768688E+02 -0.31506664049E+02 -0.16164245513E+02  0.48562735862E+02  0.17770000000E+01 0.  1.
         15    1    3    3    0    0  0.13866149114E+03 -0.18055888752E+03 -0.34673346998E+03  0.41479606788E+03  0.17770000000E+01 0. -1.
</event>
<event>
 7    1  0.3970441E-006  0.3452028E+03  0.7546771E-02  0.9833788E-01
        -11   -1    0    0    0    0  0.00000000000E+00  0.00000000000E+00  0.50000000000E+03  0.50000000000E+03  0.00000000000E+00 0. -1.
         11   -1    0    0    0    0 -0.00000000000E+00 -0.00000000000E+00 -0.50000000000E+03  0.50000000000E+03  0.00000000000E+00 0. -1.
         23    2    1    2    0    0  0.15238192844E+02  0.22467578718E+02 -0.27495158602E+03  0.28984689876E+03  0.87611959527E+02 0.  0.
        -11    1    1    2    0    0  0.16425643807E+03  0.14799802948E+03  0.38127557969E+03  0.44074330607E+03  0.00000000000E+00 0. -1.
         11    1    1    2    0    0 -0.17949463092E+03 -0.17046560819E+03 -0.10632399367E+03  0.26940979517E+03  0.00000000000E+00 0. -1.
        -15    1    3    3    0    0 -0.22699268953E+00  0.55313980855E+02 -0.16956654196E+03  0.17836944213E+03  0.17770000000E+01 0. -1.
         15    1    3    3    0    0  0.15465185534E+02 -0.32846402137E+02 -0.10538504406E+03  0.11147745663E+03  0.17770000000E+01 0.  1.
</event>
<event>
 7    1  0.3970441E-006  0.3331164E+03  0.7546771E-02  0.9877701E-01
        -11   -1    0    0    0    0  0.00000000000E+00  0.00000000000E+00  0.50000000000E+03  0.50000000000E+03  0.00000000000E+00 0. -1.
         11   -1    0    0    0    0 -0.00000000000E+00 -0.00000000000E+00 -0.50000000000E+03  0.50000000000E+03  0.00000000000E+00 0.  1.
         23    2    1    2    0    0 -0.11243177530E+03  0.14026933366E+02  0.24202334187E+03  0.28217059348E+03  0.90594077377E+02 0.  0.
        -11    1    1    2    0    0  0.20731482157E+03 -0.11991585117E+03  0.16225026626E+03  0.28928255306E+03  0.00000000000E+00 0. -1.
         11    1    1    2    0    0 -0.94883046269E+02  0.10588891780E+03 -0.40427360813E+03  0.42854685346E+03  0.00000000000E+00 0.  1.
        -15    1    3    3    0    0  0.10807194607E+02 -0.13812747872E+02  0.42387622963E+02  0.45907033976E+02  0.17770000000E+01 0.  1.
         15    1    3    3    0    0 -0.12323896990E+03  0.27839681238E+02  0.19963571891E+03  0.23626355950E+03  0.17770000000E+01 0. -1.
</event>
<event>
 7    1  0.3970441E-006  0.5241505E+03  0.7546771E-02  0.9347336E-01
        -11   -1    0    0    0    0  0.00000000000E+00  0.00000000000E+00  0.50000000000E+03  0.50000000000E+03  0.00000000000E+00 0. -1.
         11   -1    0    0    0    0 -0.00000000000E+00 -0.00000000000E+00 -0.50000000000E+03  0.50000000000E+03  0.00000000000E+00 0. -1.
         23    2    1    2    0    0  0.10611247103E+01 -0.27857895728E+02 -0.30625977680E+03  0.31995344918E+03  0.88306117662E+02 0.  0.
        -11    1    1    2    0    0  0.11099446875E+03 -0.45279648308E+02  0.46050269446E+03  0.47584950378E+03  0.00000000000E+00 0. -1.
         11    1    1    2    0    0 -0.11205559346E+03  0.73137544036E+02 -0.15424291765E+03  0.20419704704E+03  0.00000000000E+00 0. -1.
        -15    1    3    3    0    0 -0.72752766634E+00 -0.57635607199E+02 -0.24627641671E+03  0.25293798384E+03  0.17770000000E+01 0. -1.
         15    1    3    3    0    0  0.17886523766E+01  0.29777711471E+02 -0.59983360095E+02  0.67015465343E+02  0.17770000000E+01 0.  1.
</event>
<event>
 7    1  0.3970441E-006  0.5195939E+03  0.7546771E-02  0.9357004E-01
        -11   -1    0    0    0    0  0.00000000000E+00  0.00000000000E+00  0.50000000000E+03  0.50000000000E+03  0.00000000000E+00 0. -1.
         11   -1    0    0    0    0 -0.00000000000E+00 -0.00000000000E+00 -0.50000000000E+03  0.50000000000E+03  0.00000000000E+00 0.  1.
         23    2    1    2    0    0 -0.10928368790E+03  0.72662676835E+02  0.37962211226E+03  0.41190102000E+03  0.91250825260E+02 0.  0.
        -11    1    1    2    0    0 -0.42252718880E+02 -0.63338052320E+02  0.76162692154E+02  0.10769288185E+03  0.00000000000E+00 0. -1.
         11    1    1    2    0    0  0.15153640678E+03 -0.93246245145E+01 -0.45578480442E+03  0.48040609815E+03  0.00000000000E+00 0.  1.
        -15    1    3    3    0    0 -0.24781599804E+02 -0.15001188059E+02  0.14153086176E+03  0.14447596995E+03  0.17770000000E+01 0.  1.
         15    1    3    3    0    0 -0.84502088098E+02  0.87663864894E+02  0.23809125050E+03  0.26742505005E+03  0.17770000000E+01 0. -1.
</event>
<event>
 7    1  0.3970441E-006  0.5245083E+03  0.7546771E-02  0.9346581E-01
        -11   -1    0    0    0    0  0.00000000000E+00  0.00000000000E+00  0.50000000000E+03  0.50000000000E+03  0.00000000000E+00 0.  1.
         11   -1    0    0    0    0 -0.00000000000E+00 -0.00000000000E+00 -0.50000000000E+03  0.50000000000E+03  0.00000000000E+00 0.  1.
         23    2    1    2    0    0  0.63074989123E+02  0.23369313188E+02 -0.46112059816E+03  0.47549171992E+03  0.94528252985E+02 0.  0.
        -11    1    1    2    0    0  0.45131087865E+02  0.80000102084E+02  0.24485757055E+03  0.26151875895E+03  0.00000000000E+00 0.  1.
         11    1    1    2    0    0 -0.10820607699E+03 -0.10336941527E+03  0.21626302762E+03  0.26298952113E+03  0.00000000000E+00 0.  1.
        -15    1    3    3    0    0 -0.20607881694E+02 -0.96171446898E+01 -0.55332357367E+02  0.59849826739E+02  0.17770000000E+01 0. -1.
         15    1    3    3    0    0  0.83682870817E+02  0.32986457878E+02 -0.40578824080E+03  0.41564189319E+03  0.17770000000E+01 0.  1.
</event>
<event>
 7    1  0.3970441E-006  0.5218130E+03  0.7546771E-02  0.9352282E-01
        -11   -1    0    0    0    0  0.00000000000E+00  0.00000000000E+00  0.50000000000E+03  0.50000000000E+03  0.00000000000E+00 0.  1.
         11   -1    0    0    0    0 -0.00000000000E+00 -0.00000000000E+00 -0.50000000000E+03  0.50000000000E+03  0.00000000000E+00 0. -1.
         23    2    1    2    0    0  0.14148683477E+02 -0.18571215278E+02 -0.39529545115E+03  0.40670925160E+03  0.92783869013E+02 0.  0.
        -11    1    1    2    0    0 -0.61263051948E+02 -0.54053233553E+02  0.47115588316E+03  0.47818697162E+03  0.00000000000E+00 0.  1.
         11    1    1    2    0    0  0.47114368471E+02  0.72624448831E+02 -0.75860432009E+02  0.11510377678E+03  0.00000000000E+00 0. -1.
        -15    1    3    3    0    0  0.47213785783E+02  0.12215952270E+02 -0.24263204728E+03  0.24749108904E+03  0.17770000000E+01 0.  1.
         15    1    3    3    0    0 -0.33065102306E+02 -0.30787167548E+02 -0.15266340388E+03  0.15921816256E+03  0.17770000000E+01 0. -1.
</event>
<event>
 7    1  0.3970441E-006  0.5088787E+03  0.7546771E-02  0.9380159E-01
        -11   -1    0    0    0    0  0.00000000000E+00  0.00000000000E+00  0.50000000000E+03  0.50000000000E+03  0.00000000000E+00 0.  1.
         11   -1    0    0    0    0 -0.00000000000E+00 -0.00000000000E+00 -0.50000000000E+03  0.50000000000E+03  0.00000000000E+00 0. -1.
         23    2    1    2    0    0 -0.42996341141E+02  0.44842336319E+02 -0.25925439404E+03  0.28049927378E+03  0.87220876430E+02 0.  0.
        -11    1    1    2    0    0  0.28450198003E+02 -0.10785037277E+03  0.47828760873E+03  0.49112132243E+03  0.00000000000E+00 0.  1.
         11    1    1    2    0    0  0.14546143138E+02  0.63008036456E+02 -0.21903321470E+03  0.22837940380E+03  0.00000000000E+00 0. -1.
        -15    1    3    3    0    0 -0.32018066661E+02  0.64716789167E+02 -0.24014045409E+03  0.25076685350E+03  0.17770000000E+01 0. -1.
         15    1    3    3    0    0 -0.10978274480E+02 -0.19874452848E+02 -0.19113939944E+02  0.29732420280E+02  0.17770000000E+01 0.  1.
</event>
<event>
 7    1  0.3970441E-006  0.5222974E+03  0.7546771E-02  0.9351255E-01
        -11   -1    0    0    0    0  0.00000000000E+00  0.00000000000E+00  0.50000000000E+03  0.50000000000E+03  0.00000000000E+00 0. -1.
         11   -1    0    0    0    0 -0.00000000000E+00 -0.00000000000E+00 -0.50000000000E+03  0.50000000000E+03  0.00000000000E+00 0.  1.
         23    2    1    2    0    0 -0.45147312320E+01 -0.38739092797E+02 -0.39666521507E+03  0.40909273029E+03  0.92154593016E+02 0.  0.
        -11    1    1    2    0    0  0.92311125831E+02  0.30793282134E+02  0.46768601303E+03  0.47770260305E+03  0.00000000000E+00 0. -1.
         11    1    1    2    0    0 -0.87796394599E+02  0.79458106620E+01 -0.71020797958E+02  0.11320466666E+03  0.00000000000E+00 0.  1.
        -15    1    3    3    0    0 -0.99054093771E+01  0.21606698578E+02 -0.34761301610E+02  0.42148219144E+02  0.17770000000E+01 0. -1.
         15    1    3    3    0    0  0.53906781451E+01 -0.60345791375E+02 -0.36190391346E+03  0.36694451114E+03  0.17770000000E+01 0.  1.
</event>
<event>
 7    1  0.6106988E-006  0.5129825E+03  0.7546771E-02  0.9371220E-01
        -11   -1    0    0    0    0  0.00000000000E+00  0.00000000000E+00  0.50000000000E+03  0.50000000000E+03  0.00000000000E+00 0. -1.
         11   -1    0    0    0    0 -0.00000000000E+00 -0.00000000000E+00 -0.50000000000E+03  0.50000000000E+03  0.00000000000E+00 0.  1.
         23    2    1    2    0    0  0.46538692131E+02 -0.33267140239E+02  0.19360548876E+03  0.22316303246E+03  0.95110994607E+02 0.  0.
        -11    1    1    2    0    0 -0.13952862817E+02 -0.48647174781E+02  0.28536659364E+03  0.28981946581E+03  0.00000000000E+00 0. -1.
         11    1    1    2    0    0 -0.32585829313E+02  0.81914315020E+02 -0.47897208240E+03  0.48701750173E+03  0.00000000000E+00 0.  1.
        -15    1    3    3    0    0 -0.12737286134E+02 -0.41854757400E+02  0.44323977598E+02  0.62304348919E+02  0.17770000000E+01 0. -1.
         15    1    3    3    0    0  0.59275978264E+02  0.85876171614E+01  0.14928151116E+03  0.16085868354E+03  0.17770000000E+01 0.  1.
</event>
<event>
 7    1  0.3970441E-006  0.5143221E+03  0.7546771E-02  0.9368321E-01
        -11   -1    0    0    0    0  0.00000000000E+00  0.00000000000E+00  0.50000000000E+03  0.50000000000E+03  0.00000000000E+00 0.  1.
         11   -1    0    0    0    0 -0.00000000000E+00 -0.00000000000E+00 -0.50000000000E+03  0.50000000000E+03  0.00000000000E+00 0. -1.
         23    2    1    2    0    0 -0.17534029505E+02 -0.80101293996E+02 -0.21875196401E+03  0.25226802866E+03  0.95200194504E+02 0.  0.
        -11    1    1    2    0    0 -0.53178668380E+02  0.21318673471E+03  0.43313558160E+03  0.48567786307E+03  0.00000000000E+00 0.  1.
         11    1    1    2    0    0  0.70712697885E+02 -0.13308544072E+03 -0.21438361759E+03  0.26205410828E+03  0.00000000000E+00 0. -1.
        -15    1    3    3    0    0  0.36720018488E+02 -0.14491757100E+02 -0.55345722626E+02  0.68004981609E+02  0.17770000000E+01 0.  1.
         15    1    3    3    0    0 -0.54254047993E+02 -0.65609536895E+02 -0.16340624138E+03  0.18426304705E+03  0.17770000000E+01 0. -1.
</event>
<event>
 7    1  0.3970441E-006  0.4032582E+03  0.7546771E-02  0.9646822E-01
        -11   -1    0    0    0    0  0.00000000000E+00  0.00000000000E+00  0.50000000000E+03  0.50000000000E+03  0.00000000000E+00 0. -1.
         11   -1    0    0    0    0 -0.00000000000E+00 -0.00000000000E+00 -0.50000000000E+03  0.50000000000E+03  0.00000000000E+00 0.  1.
         23    2    1    2    0    0  0.34830170149E+02 -0.14892421167E+03  0.24518873571E+02  0.17874390364E+03  0.89200035609E+02 0.  0.
        -11    1    1    2    0    0  0.52854023348E+01  0.81040467815E+02  0.39047833711E+03  0.39883433234E+03  0.00000000000E+00 0. -1.
         11    1    1    2    0    0 -0.40115572483E+02  0.67883743860E+02 -0.41499721068E+03  0.42242176401E+03  0.00000000000E+00 0.  1.
        -15    1    3    3    0    0  0.57882635647E+02 -0.84712405501E+02  0.37539138909E+02  0.10926543751E+03  0.17770000000E+01 0. -1.
         15    1    3    3    0    0 -0.23052465498E+02 -0.64211806174E+02 -0.13020265338E+02  0.69478466133E+02  0.17770000000E+01 0.  1.
</event>
<event>
 7    1  0.3970441E-006  0.5211012E+03  0.7546771E-02  0.9353794E-01
        -11   -1    0    0    0    0  0.00000000000E+00  0.00000000000E+00  0.50000000000E+03  0.50000000000E+03  0.00000000000E+00 0. -1.
         11   -1    0    0    0    0 -0.00000000000E+00 -0.00000000000E+00 -0.50000000000E+03  0.50000000000E+03  0.00000000000E+00 0.  1.
         23    2    1    2    0    0 -0.84504190877E+02  0.11466652892E+03  0.22046482465E+03  0.27837780913E+03  0.92736694898E+02 0.  0.
        -11    1    1    2    0    0 -0.16835811590E+03 -0.16071933808E+02  0.17410307216E+03  0.24272338573E+03  0.00000000000E+00 0. -1.
         11    1    1    2    0    0  0.25286230677E+03 -0.98594595110E+02 -0.39456789681E+03  0.47889880514E+03  0.00000000000E+00 0.  1.
        -15    1    3    3    0    0 -0.26064583142E+02  0.98964427270E+02  0.97701819980E+02  0.14149955377E+03  0.17770000000E+01 0. -1.
         15    1    3    3    0    0 -0.58439607735E+02  0.15702101647E+02  0.12276300467E+03  0.13687825537E+03  0.17770000000E+01 0.  1.
</event>
<event>
 7    1  0.3970441E-006  0.4594662E+03  0.7546771E-02  0.9495374E-01
        -11   -1    0    0    0    0  0.00000000000E+00  0.00000000000E+00  0.50000000000E+03  0.50000000000E+03  0.00000000000E+00 0. -1.
         11   -1    0    0    0    0 -0.00000000000E+00 -0.00000000000E+00 -0.50000000000E+03  0.50000000000E+03  0.00000000000E+00 0. -1.
         23    2    1    2    0    0  0.72333743493E+02  0.80983110293E+02 -0.42487885703E+03  0.44818727927E+03  0.92516806837E+02 0.  0.
        -11    1    1    2    0    0  0.75624712750E+01 -0.86311200546E+02  0.45729198000E+03  0.46542751238E+03  0.00000000000E+00 0. -1.
         11    1    1    2    0    0 -0.79896214768E+02  0.53280902531E+01 -0.32413122965E+02  0.86385208342E+02  0.00000000000E+00 0. -1.
        -15    1    3    3    0    0  0.93259383347E+02  0.77690892536E+02 -0.36073370215E+03  0.38061154602E+03  0.17770000000E+01 0. -1.
         15    1    3    3    0    0 -0.20925639854E+02  0.32922177571E+01 -0.64145154886E+02  0.67575733259E+02  0.17770000000E+01 0.  1.
</event>
<event>
 7    1  0.3970441E-006  0.5183895E+03  0.7546771E-02  0.9359576E-01
        -11   -1    0    0    0    0  0.00000000000E+00  0.00000000000E+00  0.50000000000E+03  0.50000000000E+03  0.00000000000E+00 0.  1.
         11   -1    0    0    0    0 -0.00000000000E+00 -0.00000000000E+00 -0.50000000000E+03  0.50000000000E+03  0.00000000000E+00 0.  1.
         23    2    1    2    0    0  0.72506298126E+02  0.93548386180E+02  0.27607481078E+03  0.31373232601E+03  0.90566038983E+02 0.  0.
        -11    1    1    2    0    0  0.88758137239E+02 -0.54803734297E+02  0.17607701755E+03  0.20465720688E+03  0.00000000000E+00 0.  1.
         11    1    1    2    0    0 -0.16126443537E+03 -0.38744651883E+02 -0.45215182833E+03  0.48161046710E+03  0.00000000000E+00 0.  1.
        -15    1    3    3    0    0  0.58180346214E+02  0.49998836495E+01  0.12598991271E+03  0.13887608634E+03  0.17770000000E+01 0. -1.
         15    1    3    3    0    0  0.14325951913E+02  0.88548502531E+02  0.15008489806E+03  0.17485623968E+03  0.17770000000E+01 0.  1.
</event>
<event>
 7    1  0.3970441E-006  0.4309678E+03  0.7546771E-02  0.9569082E-01
        -11   -1    0    0    0    0  0.00000000000E+00  0.00000000000E+00  0.50000000000E+03  0.50000000000E+03  0.00000000000E+00 0. -1.
         11   -1    0    0    0    0 -0.00000000000E+00 -0.00000000000E+00 -0.50000000000E+03  0.50000000000E+03  0.00000000000E+00 0. -1.
         23    2    1    2    0    0 -0.31722235397E+01  0.83268460863E+02 -0.48049462544E+02  0.13271371561E+03  0.91435659802E+02 0.  0.
        -11    1    1    2    0    0 -0.73170324547E+02 -0.15156223448E+02  0.44813717046E+03  0.45432425761E+03  0.00000000000E+00 0. -1.
         11    1    1    2    0    0  0.76342548087E+02 -0.68112237415E+02 -0.40008770792E+03  0.41296202678E+03  0.00000000000E+00 0. -1.
        -15    1    3    3    0    0 -0.39689955981E+02  0.89579693541E+01 -0.12636084889E+02  0.42642305179E+02  0.17770000000E+01 0. -1.
         15    1    3    3    0    0  0.36517732441E+02  0.74310491509E+02 -0.35413377655E+02  0.90071410430E+02  0.17770000000E+01 0.  1.
</event>
<event>
 7    1  0.3970441E-006  0.4691924E+03  0.7546771E-02  0.9471512E-01
        -11   -1    0    0    0    0  0.00000000000E+00  0.00000000000E+00  0.50000000000E+03  0.50000000000E+03  0.00000000000E+00 0.  1.
         11   -1    0    0    0    0 -0.00000000000E+00 -0.00000000000E+00 -0.50000000000E+03  0.50000000000E+03  0.00000000000E+00 0. -1.
         23    2    1    2    0    0  0.29757569007E+02  0.81036964963E+02  0.41994248470E+03  0.43771686640E+03  0.88271524730E+02 0.  0.
        -11    1    1    2    0    0 -0.81979509687E+01  0.20925719324E+02  0.63695384269E+02  0.67544016067E+02  0.00000000000E+00 0.  1.
         11    1    1    2    0    0 -0.21559618038E+02 -0.10196268429E+03 -0.48363786896E+03  0.49473911753E+03  0.00000000000E+00 0. -1.
        -15    1    3    3    0    0  0.24344674507E+02 -0.96337718300E+01  0.46611111710E+02  0.53490430923E+02  0.17770000000E+01 0. -1.
         15    1    3    3    0    0  0.54128944998E+01  0.90670736793E+02  0.37333137299E+03  0.38422643548E+03  0.17770000000E+01 0.  1.
</event>
<event>
 7    1  0.3970441E-006  0.5258994E+03  0.7546771E-02  0.9343653E-01
        -11   -1    0    0    0    0  0.00000000000E+00  0.00000000000E+00  0.50000000000E+03  0.50000000000E+03  0.00000000000E+00 0.  1.
         11   -1    0    0    0    0 -0.00000000000E+00 -0.00000000000E+00 -0.50000000000E+03  0.50000000000E+03  0.00000000000E+00 0. -1.
         23    2    1    2    0    0 -0.80993561481E+02  0.74534055784E+02  0.14316006474E+03  0.20199509579E+03  0.90509292968E+02 0.  0.
        -11    1    1    2    0    0  0.47642274640E+02  0.23321666576E+02  0.31953136299E+03  0.32390427351E+03  0.00000000000E+00 0.  1.
         11    1    1    2    0    0  0.33351286841E+02 -0.97855722360E+02 -0.46269142773E+03  0.47410063070E+03  0.00000000000E+00 0. -1.
        -15    1    3    3    0    0 -0.66640406547E+01 -0.10971625787E+02  0.60154212047E+02  0.61534323481E+02  0.17770000000E+01 0.  1.
         15    1    3    3    0    0 -0.74329520826E+02  0.85505681571E+02  0.83005852693E+02  0.14046077231E+03  0.17770000000E+01 0. -1.
</event>
<event>
 7    1  0.3970441E-006  0.4255187E+03  0.7546771E-02  0.9583868E-01
        -11   -1    0    0    0    0  0.00000000000E+00  0.00000000000E+00  0.50000000000E+03  0.50000000000E+03  0.00000000000E+00 0. -1.
         11   -1    0    0    0    0 -0.00000000000E+00 -0.00000000000E+00 -0.50000000000E+03  0.50000000000E+03  0.00000000000E+00 0.  1.
         23    2    1    2    0    0 -0.74985615356E+02  0.56168019158E+02 -0.55103139027E+02  0.14204974309E+03  0.91455369960E+02 0.  0.
        -11    1    1    2    0    0 -0.18283094033E+03 -0.76030209661E+02  0.38848737930E+03  0.43603920626E+03  0.00000000000E+00 0. -1.
         11    1    1    2    0    0  0.25781655569E+03  0.19862190504E+02 -0.33338424027E+03  0.42191105065E+03  0.00000000000E+00 0.  1.
        -15    1    3    3    0    0 -0.60177388610E+02  0.16190401588E+02 -0.72809101148E+02  0.95852856726E+02  0.17770000000E+01 0.  1.
         15    1    3    3    0    0 -0.14808226747E+02  0.39977617570E+02  0.17705962122E+02  0.46196886362E+02  0.17770000000E+01 0. -1.
</event>
<event>
 7    1  0.3970441E-006  0.3328481E+03  0.7546771E-02  0.9878698E-01
        -11   -1    0    0    0    0  0.00000000000E+00  0.00000000000E+00  0.50000000000E+03  0.50000000000E+03  0.00000000000E+00 0. -1.
         11   -1    0    0    0    0 -0.00000000000E+00 -0.00000000000E+00 -0.50000000000E+03  0.50000000000E+03  0.00000000000E+00 0.  1.
         23    2    1    2    0    0 -0.82577280129E+02  0.11955685581E+02 -0.25583193255E+03  0.28197258680E+03  0.84241417274E+02 0.  0.
        -11    1    1    2    0    0  0.31323675129E+02 -0.29682228833E+03  0.30237219614E+03  0.42486890740E+03  0.00000000000E+00 0. -1.
         11    1    1    2    0    0  0.51253605001E+02  0.28486660275E+03 -0.46540263595E+02  0.29315850580E+03  0.00000000000E+00 0.  1.
        -15    1    3    3    0    0 -0.18782913554E+02  0.33724959858E+02 -0.16124643262E+03  0.16581236540E+03  0.17770000000E+01 0.  1.
         15    1    3    3    0    0 -0.63794366576E+02 -0.21769274277E+02 -0.94585499927E+02  0.11616022140E+03  0.17770000000E+01 0. -1.
</event>
<event>
 7    1  0.3970441E-006  0.5116475E+03  0.7546771E-02  0.9374118E-01
        -11   -1    0    0    0    0  0.00000000000E+00  0.00000000000E+00  0.50000000000E+03  0.50000000000E+03  0.00000000000E+00 0. -1.
         11   -1    0    0    0    0 -0.00000000000E+00 -0.00000000000E+00 -0.50000000000E+03  0.50000000000E+03  0.00000000000E+00 0. -1.
         23    2    1    2    0    0  0.85095717006E+02  0.41997023128E+01  0.28791159109E+03  0.31383163131E+03  0.91314237523E+02 0.  0.
        -11    1    1    2    0    0  0.55286187406E+01 -0.58553448302E+02  0.18887042210E+03  0.19781584435E+03  0.00000000000E+00 0. -1.
         11    1    1    2    0    0 -0.90624335746E+02  0.54353745989E+02 -0.47678201319E+03  0.48835252434E+03  0.00000000000E+00 0. -1.
        -15    1    3    3    0    0  0.91309977939E+02  0.30929237332E+02  0.23903418981E+03  0.25774916377E+03  0.17770000000E+01 0. -1.
         15    1    3    3    0    0 -0.62142609331E+01 -0.26729535019E+02  0.48877401274E+02  0.56082467542E+02  0.17770000000E+01 0.  1.
</event>
<event>
 7    1  0.3970441E-006  0.5194411E+03  0.7546771E-02  0.9357330E-01
        -11   -1    0    0    0    0  0.00000000000E+00  0.00000000000E+00  0.50000000000E+03  0.50000000000E+03  0.00000000000E+00 0.  1.
         11   -1    0    0    0    0 -0.00000000000E+00 -0.00000000000E+00 -0.50000000000E+03  0.50000000000E+03  0.00000000000E+00 0. -1.
         23    2    1    2    0    0  0.55579757689E+02  0.16702965915E+02 -0.29290461957E+03  0.31301786664E+03  0.93909371929E+02 0.  0.
        -11    1    1    2    0    0  0.24209849733E+00 -0.11191018700E+03  0.46734670573E+03  0.48055893699E+03  0.00000000000E+00 0.  1.
         11    1    1    2    0    0 -0.55821856186E+02  0.95207221089E+02 -0.17444208615E+03  0.20642319636E+03  0.00000000000E+00 0. -1.
        -15    1    3    3    0    0  0.43555234506E+01 -0.14232141381E+02 -0.98394983953E+00  0.15021661662E+02  0.17770000000E+01 0.  1.
         15    1    3    3    0    0  0.51224234238E+02  0.30935107296E+02 -0.29192066973E+03  0.29799620498E+03  0.17770000000E+01 0. -1.
</event>
<event>
 7    1  0.3970441E-006  0.5104982E+03  0.7546771E-02  0.9376621E-01
        -11   -1    0    0    0    0  0.00000000000E+00  0.00000000000E+00  0.50000000000E+03  0.50000000000E+03  0.00000000000E+00 0. -1.
         11   -1    0    0    0    0 -0.00000000000E+00 -0.00000000000E+00 -0.50000000000E+03  0.50000000000E+03  0.00000000000E+00 0.  1.
         23    2    1    2    0    0 -0.16798933166E+02 -0.15643506534E+02 -0.22220513375E+03  0.23494200222E+03  0.72771556855E+02 0.  0.
        -11    1    1    2    0    0  0.11650494574E+03  0.10033956720E+03  0.46472631683E+03  0.48950176781E+03  0.00000000000E+00 0. -1.
         11    1    1    2    0    0 -0.99706012572E+02 -0.84696060669E+02 -0.24252118308E+03  0.27555622998E+03  0.00000000000E+00 0.  1.
        -15    1    3    3    0    0  0.19896295769E+02  0.13751381656E+02 -0.40154081990E+02  0.46909179403E+02  0.17770000000E+01 0.  1.
         15    1    3    3    0    0 -0.36695228935E+02 -0.29394888189E+02 -0.18205105176E+03  0.18803282282E+03  0.17770000000E+01 0. -1.
</event>
<event>
 7    1  0.3970441E-006  0.4495251E+03  0.7546771E-02  0.9520423E-01
        -11   -1    0    0    0    0  0.00000000000E+00  0.00000000000E+00  0.50000000000E+03  0.50000000000E+03  0.00000000000E+00 0.  1.
         11   -1    0    0    0    0 -0.00000000000E+00 -0.00000000000E+00 -0.50000000000E+03  0.50000000000E+03  0.00000000000E+00 0. -1.
         23    2    1    2    0    0  0.19943816757E+02 -0.36292743026E+02 -0.38706624219E+01  0.99988264079E+02  0.90927179120E+02 0.  0.
        -11    1    1    2    0    0  0.11332959002E+03 -0.40500901672E+01  0.43365283011E+03  0.44823517964E+03  0.00000000000E+00 0.  1.
         11    1    1    2    0    0 -0.13327340677E+03  0.40342833193E+02 -0.42978216769E+03  0.45177655628E+03  0.00000000000E+00 0. -1.
        -15    1    3    3    0    0  0.29192677327E+02  0.10313182670E+02  0.28780437005E+02  0.42308928485E+02  0.17770000000E+01 0.  1.
         15    1    3    3    0    0 -0.92488605698E+01 -0.46605925696E+02 -0.32651099427E+02  0.57679335594E+02  0.17770000000E+01 0. -1.
</event>
<event>
 7    1  0.3970441E-006  0.4804645E+03  0.7546771E-02  0.9444615E-01
        -11   -1    0    0    0    0  0.00000000000E+00  0.00000000000E+00  0.50000000000E+03  0.50000000000E+03  0.00000000000E+00 0.  1.
         11   -1    0    0    0    0 -0.00000000000E+00 -0.00000000000E+00 -0.50000000000E+03  0.50000000000E+03  0.00000000000E+00 0. -1.
         23    2    1    2    0    0 -0.10528353007E+03 -0.22037561223E+02  0.43633179887E+03  0.45855330306E+03  0.91188909600E+02 0.  0.
        -11    1    1    2    0    0 -0.10904662931E+02 -0.13544110972E+02  0.43300275613E+02  0.46661209627E+02  0.00000000000E+00 0.  1.
         11    1    1    2    0    0  0.11618819300E+03  0.35581672195E+02 -0.47963207448E+03  0.49478548732E+03  0.00000000000E+00 0. -1.
        -15    1    3    3    0    0 -0.94353670024E+02  0.20839092530E+02  0.30669483373E+03  0.32156144295E+03  0.17770000000E+01 0. -1.
         15    1    3    3    0    0 -0.10929860047E+02 -0.42876653753E+02  0.12963696513E+03  0.13699186011E+03  0.17770000000E+01 0.  1.
</event>
<event>
 7    1  0.3970441E-006  0.4357235E+03  0.7546771E-02  0.9556366E-01
        -11   -1    0    0    0    0  0.00000000000E+00  0.00000000000E+00  0.50000000000E+03  0.50000000000E+03  0.00000000000E+00 0.  1.
         11   -1    0    0    0    0 -0.00000000000E+00 -0.00000000000E+00 -0.50000000000E+03  0.50000000000E+03  0.00000000000E+00 0. -1.
         23    2    1    2    0    0 -0.73357629251E+02 -0.38942471648E+02 -0.20249583223E+02  0.12437004147E+03  0.90332738953E+02 0.  0.
        -11    1    1    2    0    0 -0.21943329579E+03 -0.28719602989E+02  0.35966729169E+03  0.42229888421E+03  0.00000000000E+00 0.  1.
         11    1    1    2    0    0  0.29279092504E+03  0.67662074638E+02 -0.33941770846E+03  0.45333107432E+03  0.00000000000E+00 0. -1.
        -15    1    3    3    0    0 -0.50024917328E+02 -0.60712899081E+02  0.11259121891E+02  0.79488829550E+02  0.17770000000E+01 0.  1.
         15    1    3    3    0    0 -0.23332711923E+02  0.21770427433E+02 -0.31508705114E+02  0.44881211918E+02  0.17770000000E+01 0. -1.
</event>
<event>
 7    1  0.3970441E-006  0.3450844E+03  0.7546771E-02  0.9834209E-01
        -11   -1    0    0    0    0  0.00000000000E+00  0.00000000000E+00  0.50000000000E+03  0.50000000000E+03  0.00000000000E+00 0. -1.
         11   -1    0    0    0    0 -0.00000000000E+00 -0.00000000000E+00 -0.50000000000E+03  0.50000000000E+03  0.00000000000E+00 0. -1.
         23    2    1    2    0    0 -0.45030185411E+02 -0.84285494283E+01 -0.24537356679E+03  0.26607902355E+03  0.92147172779E+02 0.  0.
        -11    1    1    2    0    0 -0.16807146926E+03 -0.53085065480E+02  0.41749029042E+03  0.45317125411E+03  0.00000000000E+00 0. -1.
         11    1    1    2    0    0  0.21310165467E+03  0.61513614909E+02 -0.17211672363E+03  0.28074972234E+03  0.00000000000E+00 0. -1.
        -15    1    3    3    0    0  0.17898746292E+02 -0.30133145231E+02 -0.66110313407E+02  0.74847196528E+02  0.17770000000E+01 0.  1.
         15    1    3    3    0    0 -0.62928931704E+02  0.21704595802E+02 -0.17926325338E+03  0.19123182702E+03  0.17770000000E+01 0. -1.
</event>
<event>
 7    1  0.3970441E-006  0.4667950E+03  0.7546771E-02  0.9477336E-01
        -11   -1    0    0    0    0  0.00000000000E+00  0.00000000000E+00  0.50000000000E+03  0.50000000000E+03  0.00000000000E+00 0.  1.
         11   -1    0    0    0    0 -0.00000000000E+00 -0.00000000000E+00 -0.50000000000E+03  0.50000000000E+03  0.00000000000E+00 0. -1.
         23    2    1    2    0    0  0.93111844647E+02  0.97769724162E+02  0.40930592576E+03  0.44065251053E+03  0.91730908599E+02 0.  0.
        -11    1    1    2    0    0 -0.28691348631E+02 -0.12696697116E+02  0.65537732186E+02  0.72660814364E+02  0.00000000000E+00 0.  1.
         11    1    1    2    0    0 -0.64420496016E+02 -0.85073027046E+02 -0.47484365795E+03  0.48668667511E+03  0.00000000000E+00 0. -1.
        -15    1    3    3    0    0  0.10743400197E+03  0.70812246156E+02  0.28608778483E+03  0.31369701519E+03  0.17770000000E+01 0.  1.
         15    1    3    3    0    0 -0.14322157321E+02  0.26957478006E+02  0.12321814093E+03  0.12695549533E+03  0.17770000000E+01 0. -1.
</event>
<event>
 7    1  0.3970441E-006  0.4490623E+03  0.7546771E-02  0.9521606E-01
        -11   -1    0    0    0    0  0.00000000000E+00  0.00000000000E+00  0.50000000000E+03  0.50000000000E+03  0.00000000000E+00 0.  1.
         11   -1    0    0    0    0 -0.00000000000E+00 -0.00000000000E+00 -0.50000000000E+03  0.50000000000E+03  0.00000000000E+00 0. -1.
         23    2    1    2    0    0 -0.16975352789E+02 -0.22400098205E+02 -0.36711691790E+02  0.10068612459E+03  0.89442832967E+02 0.  0.
        -11    1    1    2    0    0 -0.15768589689E+03 -0.98647518573E+02  0.42095783130E+03  0.46021915511E+03  0.00000000000E+00 0.  1.
         11    1    1    2    0    0  0.17466124968E+03  0.12104761678E+03 -0.38424613951E+03  0.43909472030E+03  0.00000000000E+00 0. -1.
        -15    1    3    3    0    0  0.36006701956E+02 -0.17482836878E+02 -0.20662583914E+02  0.45080286979E+02  0.17770000000E+01 0.  1.
         15    1    3    3    0    0 -0.52982054745E+02 -0.49172613266E+01 -0.16049107876E+02  0.55605837612E+02  0.17770000000E+01 0. -1.
</event>
<event>
 7    1  0.3970441E-006  0.5403740E+03  0.7546771E-02  0.9313742E-01
        -11   -1    0    0    0    0  0.00000000000E+00  0.00000000000E+00  0.50000000000E+03  0.50000000000E+03  0.00000000000E+00 0.  1.
         11   -1    0    0    0    0 -0.00000000000E+00 -0.00000000000E+00 -0.50000000000E+03  0.50000000000E+03  0.00000000000E+00 0. -1.
         23    2    1    2    0    0 -0.34183622218E+02  0.64282070309E+02  0.20239759260E+03  0.23321509970E+03  0.90132084455E+02 0.  0.
        -11    1    1    2    0    0  0.22836863938E+03  0.90827678609E+02  0.18424078534E+03  0.30715886710E+03  0.00000000000E+00 0.  1.
         11    1    1    2    0    0 -0.19418501716E+03 -0.15510974892E+03 -0.38663837794E+03  0.45962603320E+03  0.00000000000E+00 0. -1.
        -15    1    3    3    0    0  0.15774986228E+02  0.62882160565E+02  0.98897179173E+02  0.11826591261E+03  0.17770000000E+01 0. -1.
         15    1    3    3    0    0 -0.49958608446E+02  0.13999097441E+01  0.10350041343E+03  0.11494918709E+03  0.17770000000E+01 0.  1.
</event>
<event>
 7    1  0.3970441E-006  0.3577063E+03  0.7546771E-02  0.9790344E-01
        -11   -1    0    0    0    0  0.00000000000E+00  0.00000000000E+00  0.50000000000E+03  0.50000000000E+03  0.00000000000E+00 0. -1.
         11   -1    0    0    0    0 -0.00000000000E+00 -0.00000000000E+00 -0.50000000000E+03  0.50000000000E+03  0.00000000000E+00 0. -1.
         23    2    1    2    0    0  0.20620027629E+03 -0.12214105538E+03 -0.23803433175E+03  0.35054518695E+03  0.93726163108E+02 0.  0.
        -11    1    1    2    0    0  0.11664977555E+03 -0.10462518437E+03  0.19857669818E+03  0.25295514306E+03  0.00000000000E+00 0. -1.
         11    1    1    2    0    0 -0.32285005184E+03  0.22676623975E+03  0.39457633568E+02  0.39649966999E+03  0.00000000000E+00 0. -1.
        -15    1    3    3    0    0  0.17766526766E+02 -0.19077148962E+02  0.45682483259E+01  0.26525717853E+02  0.17770000000E+01 0.  1.
         15    1    3    3    0    0  0.18843374952E+03 -0.10306390642E+03 -0.24260258007E+03  0.32401946910E+03  0.17770000000E+01 0. -1.
</event>
<event>
 7    1  0.8690765E-006  0.4788039E+03  0.7546771E-02  0.9448528E-01
        -11   -1    0    0    0    0  0.00000000000E+00  0.00000000000E+00  0.50000000000E+03  0.50000000000E+03  0.00000000000E+00 0.  1.
         11   -1    0    0    0    0 -0.00000000000E+00 -0.00000000000E+00 -0.50000000000E+03  0.50000000000E+03  0.00000000000E+00 0.  1.
         23    2    1    2    0    0 -0.50640508799E+02 -0.50423141453E+02  0.43934519078E+03  0.45490105558E+03  0.93828670318E+02 0.  0.
        -11    1    1    2    0    0 -0.14291740070E+02 -0.69338586344E+01  0.47768598606E+02  0.50340552665E+02  0.00000000000E+00 0.  1.
         11    1    1    2    0    0  0.64932248869E+02  0.57357000087E+02 -0.48711378939E+03  0.49475839176E+03  0.00000000000E+00 0.  1.
        -15    1    3    3    0    0 -0.32654180967E+02  0.24500988053E+02  0.14970274474E+03  0.15517945567E+03  0.17770000000E+01 0. -1.
         15    1    3    3    0    0 -0.17986327832E+02 -0.74924129506E+02  0.28964244604E+03  0.29972159990E+03  0.17770000000E+01 0.  1.
</event>
<event>
 7    1  0.3970441E-006  0.5000854E+03  0.7546771E-02  0.9399619E-01
        -11   -1    0    0    0    0  0.00000000000E+00  0.00000000000E+00  0.50000000000E+03  0.50000000000E+03  0.00000000000E+00 0. -1.
         11   -1    0    0    0    0 -0.00000000000E+00 -0.00000000000E+00 -0.50000000000E+03  0.50000000000E+03  0.00000000000E+00 0.  1.
         23    2    1    2    0    0 -0.49000832012E+02 -0.40029955544E+02 -0.48759261371E+03  0.50008541470E+03  0.91298336049E+02 0.  0.
        -11    1    1    2    0    0  0.11613984900E+02 -0.28854056950E+02  0.16774325573E+03  0.17060258231E+03  0.00000000000E+00 0.  1.
         11    1    1    2    0    0  0.37386847112E+02  0.68884012494E+02  0.31984935799E+03  0.32931200300E+03  0.00000000000E+00 0. -1.
        -15    1    3    3    0    0 -0.74247713807E+02 -0.42543903391E+02 -0.38239372504E+03  0.39185561806E+03  0.17770000000E+01 0.  1.
         15    1    3    3    0    0  0.25246881795E+02  0.25139478473E+01 -0.10519888867E+03  0.10822979664E+03  0.17770000000E+01 0. -1.
</event>
<event>
 7    1  0.3970441E-006  0.5256273E+03  0.7546771E-02  0.9344225E-01
        -11   -1    0    0    0    0  0.00000000000E+00  0.00000000000E+00  0.50000000000E+03  0.50000000000E+03  0.00000000000E+00 0.  1.
         11   -1    0    0    0    0 -0.00000000000E+00 -0.00000000000E+00 -0.50000000000E+03  0.50000000000E+03  0.00000000000E+00 0. -1.
         23    2    1    2    0    0  0.30977909164E+02  0.14006094920E+03  0.27879439001E+03  0.32645699999E+03  0.90945921243E+02 0.  0.
        -11    1    1    2    0    0  0.86984673089E+02 -0.50588224551E+02  0.17188167213E+03  0.19917030660E+03  0.00000000000E+00 0.  1.
         11    1    1    2    0    0 -0.11796258225E+03 -0.89472724652E+02 -0.45067606214E+03  0.47437269341E+03  0.00000000000E+00 0. -1.
        -15    1    3    3    0    0  0.24169366939E+02  0.15231729028E+03  0.24122022901E+03  0.28631289148E+03  0.17770000000E+01 0.  1.
         15    1    3    3    0    0  0.68085422254E+01 -0.12256341074E+02  0.37574161005E+02  0.40144108509E+02  0.17770000000E+01 0. -1.
</event>
<event>
 7    1  0.3970441E-006  0.5153937E+03  0.7546771E-02  0.9366009E-01
        -11   -1    0    0    0    0  0.00000000000E+00  0.00000000000E+00  0.50000000000E+03  0.50000000000E+03  0.00000000000E+00 0.  1.
         11   -1    0    0    0    0 -0.00000000000E+00 -0.00000000000E+00 -0.50000000000E+03  0.50000000000E+03  0.00000000000E+00 0. -1.
         23    2    1    2    0    0 -0.80452574542E+02  0.12928415023E+03  0.33392291373E+03  0.37810813650E+03  0.90962862321E+02 0.  0.
        -11    1    1    2    0    0 -0.14106488031E+02 -0.35159270098E+02  0.13195513711E+03  0.13728556183E+03  0.00000000000E+00 0.  1.
         11    1    1    2    0    0  0.94559062573E+02 -0.94124880136E+02 -0.46587805083E+03  0.48460630167E+03  0.00000000000E+00 0. -1.
        -15    1    3    3    0    0 -0.97796540170E+02  0.11098513581E+03  0.25030219451E+03  0.29075111340E+03  0.17770000000E+01 0.  1.
         15    1    3    3    0    0  0.17343965628E+02  0.18299014426E+02  0.83620719215E+02  0.87357023093E+02  0.17770000000E+01 0. -1.
</event>
<event>
 7    1  0.3970441E-006  0.3180337E+03  0.7546771E-02  0.9935392E-01
        -11   -1    0    0    0    0  0.00000000000E+00  0.00000000000E+00  0.50000000000E+03  0.50000000000E+03  0.00000000000E+00 0. -1.
         11   -1    0    0    0    0 -0.00000000000E+00 -0.00000000000E+00 -0.50000000000E+03  0.50000000000E+03  0.00000000000E+00 0.  1.
         23    2    1    2    0    0 -0.79673943919E+02  0.88494385100E+02 -0.26155967808E+03  0.30202127326E+03  0.92866521270E+02 0.  0.
        -11    1    1    2    0    0 -0.22931373502E+03  0.46611027893E+02  0.27423969934E+03  0.36050629632E+03  0.00000000000E+00 0. -1.
         11    1    1    2    0    0  0.30898767894E+03 -0.13510541299E+03 -0.12680021259E+02  0.33747243042E+03  0.00000000000E+00 0.  1.
        -15    1    3    3    0    0 -0.98840429126E+02  0.59313628697E+02 -0.21285076165E+03  0.24206639883E+03  0.17770000000E+01 0. -1.
         15    1    3    3    0    0  0.19166485207E+02  0.29180756403E+02 -0.48708916427E+02  0.59954874431E+02  0.17770000000E+01 0.  1.
</event>
<event>
 7    1  0.3970441E-006  0.3611661E+03  0.7546771E-02  0.9778658E-01
        -11   -1    0    0    0    0  0.00000000000E+00  0.00000000000E+00  0.50000000000E+03  0.50000000000E+03  0.00000000000E+00 0. -1.
         11   -1    0    0    0    0 -0.00000000000E+00 -0.00000000000E+00 -0.50000000000E+03  0.50000000000E+03  0.00000000000E+00 0.  1.
         23    2    1    2    0    0  0.87852298413E+02  0.52167900484E+02 -0.20106941811E+03  0.24327532006E+03  0.91183629428E+02 0.  0.
        -11    1    1    2    0    0  0.11184677793E+02 -0.31667598681E+03  0.31992933493E+03  0.45029274587E+03  0.00000000000E+00 0. -1.
         11    1    1    2    0    0 -0.99036976206E+02  0.26450808633E+03 -0.11885991682E+03  0.30643193406E+03  0.00000000000E+00 0.  1.
        -15    1    3    3    0    0  0.74868306393E+02  0.20111597013E+02 -0.19259896122E+03  0.20762287260E+03  0.17770000000E+01 0.  1.
         15    1    3    3    0    0  0.12983992021E+02  0.32056303471E+02 -0.84704568917E+01  0.35652447461E+02  0.17770000000E+01 0. -1.
</event>
<event>
 7    1  0.3970441E-006  0.3402780E+03  0.7546771E-02  0.9851445E-01
        -11   -1    0    0    0    0  0.00000000000E+00  0.00000000000E+00  0.50000000000E+03  0.50000000000E+03  0.00000000000E+00 0.  1.
         11   -1    0    0    0    0 -0.00000000000E+00 -0.00000000000E+00 -0.50000000000E+03  0.50000000000E+03  0.00000000000E+00 0.  1.
         23    2    1    2    0    0 -0.13919092656E+03 -0.13582073845E+03 -0.16886682124E+03  0.27233670861E+03  0.88486679862E+02 0.  0.
        -11    1    1    2    0    0  0.17341270714E+03 -0.66323921488E+02  0.38643108889E+03  0.42871880763E+03  0.00000000000E+00 0.  1.
         11    1    1    2    0    0 -0.34221780581E+02  0.20214465994E+03 -0.21756426765E+03  0.29894448376E+03  0.00000000000E+00 0.  1.
        -15    1    3    3    0    0 -0.81548697358E+02 -0.26788614526E+02 -0.97184508163E+02  0.12967577362E+03  0.17770000000E+01 0.  1.
         15    1    3    3    0    0 -0.57642229199E+02 -0.10903212393E+03 -0.71682313073E+02  0.14266093499E+03  0.17770000000E+01 0. -1.
</event>
<event>
 7    1  0.3970441E-006  0.5145969E+03  0.7546771E-02  0.9367728E-01
        -11   -1    0    0    0    0  0.00000000000E+00  0.00000000000E+00  0.50000000000E+03  0.50000000000E+03  0.00000000000E+00 0. -1.
         11   -1    0    0    0    0 -0.00000000000E+00 -0.00000000000E+00 -0.50000000000E+03  0.50000000000E+03  0.00000000000E+00 0.  1.
         23    2    1    2    0    0 -0.44892634856E+02  0.73654736980E+02 -0.23718429675E+03  0.26808306191E+03  0.90397834675E+02 0.  0.
        -11    1    1    2    0    0  0.96899842163E+02 -0.32136463379E+02  0.47454594027E+03  0.48540311197E+03  0.00000000000E+00 0. -1.
         11    1    1    2    0    0 -0.52007207307E+02 -0.41518273601E+02 -0.23736164352E+03  0.24651382612E+03  0.00000000000E+00 0.  1.
        -15    1    3    3    0    0 -0.58468610926E+02  0.60513758787E+02 -0.23421046473E+03  0.24887384953E+03  0.17770000000E+01 0.  1.
         15    1    3    3    0    0  0.13575976070E+02  0.13140978193E+02 -0.29738320236E+01  0.19209212374E+02  0.17770000000E+01 0. -1.
</event>
<event>
 7    1  0.3970441E-006  0.5380261E+03  0.7546771E-02  0.9318526E-01
        -11   -1    0    0    0    0  0.00000000000E+00  0.00000000000E+00  0.50000000000E+03  0.50000000000E+03  0.00000000000E+00 0. -1.
         11   -1    0    0    0    0 -0.00000000000E+00 -0.00000000000E+00 -0.50000000000E+03  0.50000000000E+03  0.00000000000E+00 0.  1.
         23    2    1    2    0    0  0.85537903623E+02 -0.64929161263E+02 -0.18759239320E+03  0.23399199142E+03  0.89603666899E+02 0.  0.
        -11    1    1    2    0    0 -0.23142301567E+03 -0.11754843195E+03  0.38215914224E+03  0.46197386943E+03  0.00000000000E+00 0. -1.
         11    1    1    2    0    0  0.14588511204E+03  0.18247759321E+03 -0.19456674904E+03  0.30403413916E+03  0.00000000000E+00 0.  1.
        -15    1    3    3    0    0  0.97655868288E+02 -0.65183742847E+02 -0.13030089057E+03  0.17540544106E+03  0.17770000000E+01 0.  1.
         15    1    3    3    0    0 -0.12117964666E+02  0.25458158359E+00 -0.57291502633E+02  0.58586550354E+02  0.17770000000E+01 0. -1.
</event>
<event>
 6    1  0.3970441E-006  0.4695886E+03  0.7546771E-02  0.9470553E-01
        -11   -1    0    0    0    0  0.00000000000E+00  0.00000000000E+00  0.50000000000E+03  0.50000000000E+03  0.00000000000E+00 0. -1.
         11   -1    0    0    0    0 -0.00000000000E+00 -0.00000000000E+00 -0.50000000000E+03  0.50000000000E+03  0.00000000000E+00 0.  1.
        -11    1    1    2    0    0 -0.86952904311E+02 -0.49688390969E+02  0.45970786206E+03  0.47049023604E+03  0.00000000000E+00 0. -1.
         11    1    1    2    0    0 -0.46165578129E+02  0.39091013269E+02 -0.45460755562E+02  0.75670656259E+02  0.00000000000E+00 0.  1.
        -15    1    1    2    0    0  0.20896377250E+02  0.22427067849E+02 -0.73385413554E+01  0.31569666972E+02  0.17770000000E+01 0. -1.
         15    1    1    2    0    0  0.11222210519E+03 -0.11829690149E+02 -0.40690856514E+03  0.42226944073E+03  0.17770000000E+01 0.  1.
</event>
<event>
 7    1  0.3970441E-006  0.5025347E+03  0.7546771E-02  0.9394156E-01
        -11   -1    0    0    0    0  0.00000000000E+00  0.00000000000E+00  0.50000000000E+03  0.50000000000E+03  0.00000000000E+00 0.  1.
         11   -1    0    0    0    0 -0.00000000000E+00 -0.00000000000E+00 -0.50000000000E+03  0.50000000000E+03  0.00000000000E+00 0. -1.
         23    2    1    2    0    0 -0.25513751545E+02  0.50976063563E+02 -0.48674998699E+03  0.49746533913E+03  0.85420742320E+02 0.  0.
        -11    1    1    2    0    0  0.10557744062E+02 -0.79716949845E+02  0.42757267723E+03  0.43506856054E+03  0.00000000000E+00 0.  1.
         11    1    1    2    0    0  0.14956007483E+02  0.28740886282E+02  0.59177309763E+02  0.67466100339E+02  0.00000000000E+00 0. -1.
        -15    1    3    3    0    0 -0.27442950040E+02  0.74281326425E+02 -0.38082995713E+03  0.38898000583E+03  0.17770000000E+01 0. -1.
         15    1    3    3    0    0  0.19291984946E+01 -0.23305262862E+02 -0.10592002987E+03  0.10848533330E+03  0.17770000000E+01 0.  1.
</event>
<event>
 7    1  0.3970441E-006  0.4571437E+03  0.7546771E-02  0.9501165E-01
        -11   -1    0    0    0    0  0.00000000000E+00  0.00000000000E+00  0.50000000000E+03  0.50000000000E+03  0.00000000000E+00 0. -1.
         11   -1    0    0    0    0 -0.00000000000E+00 -0.00000000000E+00 -0.50000000000E+03  0.50000000000E+03  0.00000000000E+00 0.  1.
         23    2    1    2    0    0  0.23186505331E+02  0.87447990653E+02 -0.40463471217E+03  0.42468218567E+03  0.91874607156E+02 0.  0.
        -11    1    1    2    0    0  0.29550336791E+02 -0.77876418906E+02  0.47758498594E+03  0.48479416026E+03  0.00000000000E+00 0. -1.
         11    1    1    2    0    0 -0.52736842122E+02 -0.95715717462E+01 -0.72950273772E+02  0.90523654069E+02  0.00000000000E+00 0.  1.
        -15    1    3    3    0    0  0.40350694462E+02  0.23812756520E+02 -0.27784820533E+03  0.28177652288E+03  0.17770000000E+01 0.  1.
         15    1    3    3    0    0 -0.17164189131E+02  0.63635234133E+02 -0.12678650684E+03  0.14290566279E+03  0.17770000000E+01 0. -1.
</event>
<event>
 7    1  0.3970441E-006  0.5208471E+03  0.7546771E-02  0.9354334E-01
        -11   -1    0    0    0    0  0.00000000000E+00  0.00000000000E+00  0.50000000000E+03  0.50000000000E+03  0.00000000000E+00 0.  1.
         11   -1    0    0    0    0 -0.00000000000E+00 -0.00000000000E+00 -0.50000000000E+03  0.50000000000E+03  0.00000000000E+00 0. -1.
         23    2    1    2    0    0 -0.22177768677E+02 -0.27067747982E+03  0.31723715102E+03  0.42747626531E+03  0.91314817558E+02 0.  0.
        -11    1    1    2    0    0  0.48198345959E+02  0.38248009577E+01  0.79877482557E+02  0.93370883444E+02  0.00000000000E+00 0.  1.
         11    1    1    2    0    0 -0.26020577282E+02  0.26685267887E+03 -0.39711463358E+03  0.47915285125E+03  0.00000000000E+00 0. -1.
        -15    1    3    3    0    0 -0.45713277225E+02 -0.13630861503E+03  0.11797713663E+03  0.18598791558E+03  0.17770000000E+01 0.  1.
         15    1    3    3    0    0  0.23535508548E+02 -0.13436886479E+03  0.19926001439E+03  0.24148834972E+03  0.17770000000E+01 0. -1.
</event>
<event>
 7    1  0.3970441E-006  0.5152136E+03  0.7546771E-02  0.9366397E-01
        -11   -1    0    0    0    0  0.00000000000E+00  0.00000000000E+00  0.50000000000E+03  0.50000000000E+03  0.00000000000E+00 0.  1.
         11   -1    0    0    0    0 -0.00000000000E+00 -0.00000000000E+00 -0.50000000000E+03  0.50000000000E+03  0.00000000000E+00 0. -1.
         23    2    1    2    0    0  0.52699689931E+02  0.87589502495E+02 -0.35739588331E+03  0.38238955891E+03  0.89670391388E+02 0.  0.
        -11    1    1    2    0    0  0.74847433757E+01 -0.13720930482E+03  0.46490370284E+03  0.48478641444E+03  0.00000000000E+00 0.  1.
         11    1    1    2    0    0 -0.60184433307E+02  0.49619802324E+02 -0.10750781953E+03  0.13282402665E+03  0.00000000000E+00 0. -1.
        -15    1    3    3    0    0  0.22033683195E+02 -0.15387881571E+02 -0.50664754248E+02  0.57378960834E+02  0.17770000000E+01 0.  1.
         15    1    3    3    0    0  0.30666006737E+02  0.10297738407E+03 -0.30673112906E+03  0.32501059808E+03  0.17770000000E+01 0. -1.
</event>
<event>
 7    1  0.3970441E-006  0.5274587E+03  0.7546771E-02  0.9340382E-01
        -11   -1    0    0    0    0  0.00000000000E+00  0.00000000000E+00  0.50000000000E+03  0.50000000000E+03  0.00000000000E+00 0.  1.
         11   -1    0    0    0    0 -0.00000000000E+00 -0.00000000000E+00 -0.50000000000E+03  0.50000000000E+03  0.00000000000E+00 0. -1.
         23    2    1    2    0    0  0.39312011802E+02 -0.34935930745E+02 -0.11244711883E+03  0.15226509711E+03  0.88172284393E+02 0.  0.
        -11    1    1    2    0    0 -0.49263956785E+01 -0.94225131994E+02  0.46302557296E+03  0.47254134855E+03  0.00000000000E+00 0.  1.
         11    1    1    2    0    0 -0.34385616123E+02  0.12916106274E+03 -0.35057845413E+03  0.37519355435E+03  0.00000000000E+00 0. -1.
        -15    1    3    3    0    0 -0.27185013696E+02 -0.19697925522E+02 -0.28458164764E+02  0.44046090748E+02  0.17770000000E+01 0.  1.
         15    1    3    3    0    0  0.66497025498E+02 -0.15238005223E+02 -0.83988954064E+02  0.10821900636E+03  0.17770000000E+01 0. -1.
</event>
<event>
 7    1  0.3970441E-006  0.5395111E+03  0.7546771E-02  0.9315497E-01
        -11   -1    0    0    0    0  0.00000000000E+00  0.00000000000E+00  0.50000000000E+03  0.50000000000E+03  0.00000000000E+00 0. -1.
         11   -1    0    0    0    0 -0.00000000000E+00 -0.00000000000E+00 -0.50000000000E+03  0.50000000000E+03  0.00000000000E+00 0.  1.
         23    2    1    2    0    0 -0.14235998000E+03 -0.17004803425E+02  0.14272193825E+03  0.22163385496E+03  0.90534450696E+02 0.  0.
        -11    1    1    2    0    0  0.62431213773E+02  0.24605720513E+02  0.31071344430E+03  0.31787724424E+03  0.00000000000E+00 0. -1.
         11    1    1    2    0    0  0.79928766226E+02 -0.76009170890E+01 -0.45343538255E+03  0.46048890080E+03  0.00000000000E+00 0.  1.
        -15    1    3    3    0    0 -0.12680847183E+03 -0.41592052654E+02  0.88708555438E+02  0.16025808219E+03  0.17770000000E+01 0.  1.
         15    1    3    3    0    0 -0.15551508170E+02  0.24587249230E+02  0.54013382814E+02  0.61375772770E+02  0.17770000000E+01 0. -1.
</event>
<event>
 7    1  0.3970441E-006  0.3916266E+03  0.7546771E-02  0.9681470E-01
        -11   -1    0    0    0    0  0.00000000000E+00  0.00000000000E+00  0.50000000000E+03  0.50000000000E+03  0.00000000000E+00 0. -1.
         11   -1    0    0    0    0 -0.00000000000E+00 -0.00000000000E+00 -0.50000000000E+03  0.50000000000E+03  0.00000000000E+00 0.  1.
         23    2    1    2    0    0 -0.13896327115E+03  0.14376382246E+03 -0.26490568966E+03  0.34356609445E+03  0.88790818582E+02 0.  0.
        -11    1    1    2    0    0  0.12478821787E+02 -0.18461179875E+03  0.41594121256E+03  0.45524095767E+03  0.00000000000E+00 0. -1.
         11    1    1    2    0    0  0.12648444936E+03  0.40847976290E+02 -0.15103552290E+03  0.20119294788E+03  0.00000000000E+00 0.  1.
        -15    1    3    3    0    0 -0.39739622728E+02  0.81837810903E+01 -0.10092308676E+03  0.10878804648E+03  0.17770000000E+01 0.  1.
         15    1    3    3    0    0 -0.99223648421E+02  0.13558004137E+03 -0.16398260290E+03  0.23477804797E+03  0.17770000000E+01 0. -1.
</event>
<event>
 7    1  0.3970441E-006  0.4477361E+03  0.7546771E-02  0.9525004E-01
        -11   -1    0    0    0    0  0.00000000000E+00  0.00000000000E+00  0.50000000000E+03  0.50000000000E+03  0.00000000000E+00 0. -1.
         11   -1    0    0    0    0 -0.00000000000E+00 -0.00000000000E+00 -0.50000000000E+03  0.50000000000E+03  0.00000000000E+00 0.  1.
         23    2    1    2    0    0 -0.36284424913E+03  0.17133436232E+03 -0.21575512923E+03  0.46483612815E+03  0.92254741920E+02 0.  0.
        -11    1    1    2    0    0 -0.27342259244E+02 -0.47094663135E+02  0.92827519442E+02  0.10762181378E+03  0.00000000000E+00 0. -1.
         11    1    1    2    0    0  0.39018650837E+03 -0.12423969919E+03  0.12292760979E+03  0.42754205807E+03  0.00000000000E+00 0.  1.
        -15    1    3    3    0    0 -0.34457166796E+03  0.18007105010E+03 -0.21546231819E+03  0.44450240239E+03  0.17770000000E+01 0. -1.
         15    1    3    3    0    0 -0.18272581165E+02 -0.87366877802E+01 -0.29281104591E+00  0.20333725756E+02  0.17770000000E+01 0.  1.
</event>
<event>
 7    1  0.3970441E-006  0.5067019E+03  0.7546771E-02  0.9384937E-01
        -11   -1    0    0    0    0  0.00000000000E+00  0.00000000000E+00  0.50000000000E+03  0.50000000000E+03  0.00000000000E+00 0.  1.
         11   -1    0    0    0    0 -0.00000000000E+00 -0.00000000000E+00 -0.50000000000E+03  0.50000000000E+03  0.00000000000E+00 0. -1.
         23    2    1    2    0    0 -0.32125355446E+02  0.91397413618E+02  0.35190985687E+03  0.37789964161E+03  0.97888028346E+02 0.  0.
        -11    1    1    2    0    0 -0.19370989762E+02  0.21767651729E+02  0.12546296493E+03  0.12880225726E+03  0.00000000000E+00 0.  1.
         11    1    1    2    0    0  0.51496345207E+02 -0.11316506535E+03 -0.47737282180E+03  0.49329810113E+03  0.00000000000E+00 0. -1.
        -15    1    3    3    0    0  0.30502568089E+02  0.38725884493E+02  0.19229696598E+03  0.19852300029E+03  0.17770000000E+01 0.  1.
         15    1    3    3    0    0 -0.62627923535E+02  0.52671529125E+02  0.15961289089E+03  0.17937664133E+03  0.17770000000E+01 0. -1.
</event>
<event>
 7    1  0.3970441E-006  0.3815686E+03  0.7546771E-02  0.9712484E-01
        -11   -1    0    0    0    0  0.00000000000E+00  0.00000000000E+00  0.50000000000E+03  0.50000000000E+03  0.00000000000E+00 0.  1.
         11   -1    0    0    0    0 -0.00000000000E+00 -0.00000000000E+00 -0.50000000000E+03  0.50000000000E+03  0.00000000000E+00 0. -1.
         23    2    1    2    0    0  0.73180504111E+02  0.11297333253E+03 -0.38561469471E+03  0.41935107215E+03  0.95069810614E+02 0.  0.
        -11    1    1    2    0    0  0.52951449730E+01  0.87524413941E+02  0.35196968308E+03  0.36272747263E+03  0.00000000000E+00 0.  1.
         11    1    1    2    0    0 -0.78475649084E+02 -0.20049774647E+03  0.33645011633E+02  0.21792145522E+03  0.00000000000E+00 0. -1.
        -15    1    3    3    0    0  0.22962115721E+02  0.11091678714E+03 -0.24244649104E+03  0.26760652304E+03  0.17770000000E+01 0.  1.
         15    1    3    3    0    0  0.50218388390E+02  0.20565453818E+01 -0.14316820367E+03  0.15174454910E+03  0.17770000000E+01 0. -1.
</event>
<event>
 7    1  0.3970441E-006  0.5140019E+03  0.7546771E-02  0.9369013E-01
        -11   -1    0    0    0    0  0.00000000000E+00  0.00000000000E+00  0.50000000000E+03  0.50000000000E+03  0.00000000000E+00 0. -1.
         11   -1    0    0    0    0 -0.00000000000E+00 -0.00000000000E+00 -0.50000000000E+03  0.50000000000E+03  0.00000000000E+00 0.  1.
         23    2    1    2    0    0  0.13859101231E+03 -0.58598533173E+02  0.34237279561E+03  0.38543723346E+03  0.93281686208E+02 0.  0.
        -11    1    1    2    0    0  0.10586609342E+03 -0.56263111683E+01  0.72729616810E+02  0.12856470073E+03  0.00000000000E+00 0. -1.
         11    1    1    2    0    0 -0.24445710572E+03  0.64224844341E+02 -0.41510241242E+03  0.48599806581E+03  0.00000000000E+00 0.  1.
        -15    1    3    3    0    0  0.92664481515E+02 -0.13637408469E+02  0.28232741979E+03  0.29746363599E+03  0.17770000000E+01 0. -1.
         15    1    3    3    0    0  0.45926530792E+02 -0.44961124704E+02  0.60045375826E+02  0.87973597473E+02  0.17770000000E+01 0.  1.
</event>
<event>
 7    1  0.3970441E-006  0.5392088E+03  0.7546771E-02  0.9316113E-01
        -11   -1    0    0    0    0  0.00000000000E+00  0.00000000000E+00  0.50000000000E+03  0.50000000000E+03  0.00000000000E+00 0.  1.
         11   -1    0    0    0    0 -0.00000000000E+00 -0.00000000000E+00 -0.50000000000E+03  0.50000000000E+03  0.00000000000E+00 0.  1.
         23    2    1    2    0    0 -0.48845039242E+02 -0.93303089352E+02  0.10381994122E+03  0.17379599475E+03  0.91297115269E+02 0.  0.
        -11    1    1    2    0    0 -0.10889400934E+03  0.11739832381E+03  0.32846043790E+03  0.36541282267E+03  0.00000000000E+00 0.  1.
         11    1    1    2    0    0  0.15773904858E+03 -0.24095234455E+02 -0.43228037912E+03  0.46079118258E+03  0.00000000000E+00 0.  1.
        -15    1    3    3    0    0 -0.64108719993E+02 -0.47905589672E+02  0.29400215333E+02  0.85278390531E+02  0.17770000000E+01 0.  1.
         15    1    3    3    0    0  0.15263680751E+02 -0.45397499680E+02  0.74419725888E+02  0.88517604223E+02  0.17770000000E+01 0. -1.
</event>
<event>
 7    1  0.3970441E-006  0.4271417E+03  0.7546771E-02  0.9579439E-01
        -11   -1    0    0    0    0  0.00000000000E+00  0.00000000000E+00  0.50000000000E+03  0.50000000000E+03  0.00000000000E+00 0.  1.
         11   -1    0    0    0    0 -0.00000000000E+00 -0.00000000000E+00 -0.50000000000E+03  0.50000000000E+03  0.00000000000E+00 0. -1.
         23    2    1    2    0    0 -0.20778705993E+03 -0.23506475891E+02 -0.40739137161E+03  0.46667850618E+03  0.89961557238E+02 0.  0.
        -11    1    1    2    0    0  0.70305087775E+02 -0.88923884508E+01  0.38359154416E+03  0.39008249472E+03  0.00000000000E+00 0.  1.
         11    1    1    2    0    0  0.13748197215E+03  0.32398864342E+02  0.23799827455E+02  0.14323899910E+03  0.00000000000E+00 0. -1.
        -15    1    3    3    0    0 -0.11397945050E+03 -0.30882625819E+02 -0.13974224286E+03  0.18296476131E+03  0.17770000000E+01 0. -1.
         15    1    3    3    0    0 -0.93807609428E+02  0.73761499280E+01 -0.26764912875E+03  0.28371374486E+03  0.17770000000E+01 0.  1.
</event>
<event>
 7    1  0.3970441E-006  0.4417686E+03  0.7546771E-02  0.9540451E-01
        -11   -1    0    0    0    0  0.00000000000E+00  0.00000000000E+00  0.50000000000E+03  0.50000000000E+03  0.00000000000E+00 0.  1.
         11   -1    0    0    0    0 -0.00000000000E+00 -0.00000000000E+00 -0.50000000000E+03  0.50000000000E+03  0.00000000000E+00 0.  1.
         23    2    1    2    0    0  0.14793580695E+03  0.13066040272E+02 -0.39943130056E+03  0.43569746600E+03  0.90725925857E+02 0.  0.
        -11    1    1    2    0    0 -0.87165276096E+02 -0.11128852953E+03  0.42336956288E+03  0.44634595207E+03  0.00000000000E+00 0.  1.
         11    1    1    2    0    0 -0.60770530855E+02  0.98222489261E+02 -0.23938262315E+02  0.11795658193E+03  0.00000000000E+00 0.  1.
        -15    1    3    3    0    0  0.76819785702E+02 -0.34358354702E+02 -0.24670292224E+03  0.26066696296E+03  0.17770000000E+01 0.  1.
         15    1    3    3    0    0  0.71116021250E+02  0.47424394974E+02 -0.15272837833E+03  0.17503050303E+03  0.17770000000E+01 0. -1.
</event>
<event>
 7    1  0.4293256E-006  0.5090700E+03  0.7546771E-02  0.9379740E-01
        -11   -1    0    0    0    0  0.00000000000E+00  0.00000000000E+00  0.50000000000E+03  0.50000000000E+03  0.00000000000E+00 0. -1.
         11   -1    0    0    0    0 -0.00000000000E+00 -0.00000000000E+00 -0.50000000000E+03  0.50000000000E+03  0.00000000000E+00 0.  1.
         23    2    1    2    0    0 -0.82603100727E+02  0.51579356387E+02  0.34841893588E+03  0.37375488335E+03  0.93878941669E+02 0.  0.
        -11    1    1    2    0    0 -0.74980457338E+01 -0.22173592684E+02  0.13327528072E+03  0.13531514828E+03  0.00000000000E+00 0. -1.
         11    1    1    2    0    0  0.90101146460E+02 -0.29405763702E+02 -0.48169421661E+03  0.49092996837E+03  0.00000000000E+00 0.  1.
        -15    1    3    3    0    0 -0.97016114202E+02  0.57718712568E+02  0.33333084957E+03  0.35193208038E+03  0.17770000000E+01 0. -1.
         15    1    3    3    0    0  0.14413013476E+02 -0.61393561811E+01  0.15088086310E+02  0.21822802965E+02  0.17770000000E+01 0.  1.
</event>
<event>
 7    1  0.3970441E-006  0.4713730E+03  0.7546771E-02  0.9466246E-01
        -11   -1    0    0    0    0  0.00000000000E+00  0.00000000000E+00  0.50000000000E+03  0.50000000000E+03  0.00000000000E+00 0. -1.
         11   -1    0    0    0    0 -0.00000000000E+00 -0.00000000000E+00 -0.50000000000E+03  0.50000000000E+03  0.00000000000E+00 0.  1.
         23    2    1    2    0    0 -0.78879855372E+02 -0.37792613437E+02 -0.42527135535E+03  0.44430566319E+03  0.94347673273E+02 0.  0.
        -11    1    1    2    0    0  0.69047599256E+02  0.68002016574E+02  0.48147602907E+03  0.49113237706E+03  0.00000000000E+00 0. -1.
         11    1    1    2    0    0  0.98322561161E+01 -0.30209403137E+02 -0.56204673727E+02  0.64561959752E+02  0.00000000000E+00 0.  1.
        -15    1    3    3    0    0 -0.18622412911E+02  0.14695559269E+01 -0.72143169020E+01  0.20103680126E+02  0.17770000000E+01 0. -1.
         15    1    3    3    0    0 -0.60257442461E+02 -0.39262169364E+02 -0.41805703844E+03  0.42420198307E+03  0.17770000000E+01 0.  1.
</event>
<event>
 7    1  0.3970441E-006  0.5099271E+03  0.7546771E-02  0.9377867E-01
        -11   -1    0    0    0    0  0.00000000000E+00  0.00000000000E+00  0.50000000000E+03  0.50000000000E+03  0.00000000000E+00 0.  1.
         11   -1    0    0    0    0 -0.00000000000E+00 -0.00000000000E+00 -0.50000000000E+03  0.50000000000E+03  0.00000000000E+00 0.  1.
         23    2    1    2    0    0 -0.30378058469E+02  0.21352015420E+02 -0.19768438992E+03  0.21943927951E+03  0.87725391854E+02 0.  0.
        -11    1    1    2    0    0  0.80338096639E+02 -0.97738784615E+02  0.47346003630E+03  0.49007293923E+03  0.00000000000E+00 0.  1.
         11    1    1    2    0    0 -0.49960038170E+02  0.76386769195E+02 -0.27577564639E+03  0.29048778126E+03  0.00000000000E+00 0.  1.
        -15    1    3    3    0    0 -0.14932123824E+01  0.52131535154E+02 -0.94695455273E+02  0.10812175368E+03  0.17770000000E+01 0.  1.
         15    1    3    3    0    0 -0.28884846087E+02 -0.30779519733E+02 -0.10298893465E+03  0.11131752583E+03  0.17770000000E+01 0. -1.
</event>
<event>
 7    1  0.3970441E-006  0.5116365E+03  0.7546771E-02  0.9374142E-01
        -11   -1    0    0    0    0  0.00000000000E+00  0.00000000000E+00  0.50000000000E+03  0.50000000000E+03  0.00000000000E+00 0.  1.
         11   -1    0    0    0    0 -0.00000000000E+00 -0.00000000000E+00 -0.50000000000E+03  0.50000000000E+03  0.00000000000E+00 0. -1.
         23    2    1    2    0    0  0.47977600826E+02 -0.55267646666E+02  0.26261546873E+03  0.28861376790E+03  0.94734680319E+02 0.  0.
        -11    1    1    2    0    0 -0.37251121719E+02 -0.42243665409E+02  0.21579378414E+03  0.22302271322E+03  0.00000000000E+00 0.  1.
         11    1    1    2    0    0 -0.10726479107E+02  0.97511312076E+02 -0.47840925288E+03  0.48836351888E+03  0.00000000000E+00 0. -1.
        -15    1    3    3    0    0  0.62532574764E+02 -0.70058517130E+02  0.24072069728E+03  0.25839529902E+03  0.17770000000E+01 0.  1.
         15    1    3    3    0    0 -0.14554973938E+02  0.14790870464E+02  0.21894771455E+02  0.30218468880E+02  0.17770000000E+01 0. -1.
</event>
<event>
 7    1  0.3970441E-006  0.5210583E+03  0.7546771E-02  0.9353885E-01
        -11   -1    0    0    0    0  0.00000000000E+00  0.00000000000E+00  0.50000000000E+03  0.50000000000E+03  0.00000000000E+00 0.  1.
         11   -1    0    0    0    0 -0.00000000000E+00 -0.00000000000E+00 -0.50000000000E+03  0.50000000000E+03  0.00000000000E+00 0. -1.
         23    2    1    2    0    0  0.27485222890E+02  0.48665851981E+02 -0.12482037302E+03  0.16482008533E+03  0.91987675167E+02 0.  0.
        -11    1    1    2    0    0 -0.11569931582E+03  0.11924514575E+02  0.46460374273E+03  0.47894171199E+03  0.00000000000E+00 0.  1.
         11    1    1    2    0    0  0.88214092929E+02 -0.60590366556E+02 -0.33978336971E+03  0.35623820267E+03  0.00000000000E+00 0. -1.
        -15    1    3    3    0    0 -0.89092575514E+01  0.48427044043E+02 -0.18840824313E+02  0.52751188183E+02  0.17770000000E+01 0.  1.
         15    1    3    3    0    0  0.36394480441E+02  0.23880793726E+00 -0.10597954871E+03  0.11206889715E+03  0.17770000000E+01 0. -1.
</event>
<event>
 7    1  0.3970441E-006  0.5161224E+03  0.7546771E-02  0.9364440E-01
        -11   -1    0    0    0    0  0.00000000000E+00  0.00000000000E+00  0.50000000000E+03  0.50000000000E+03  0.00000000000E+00 0. -1.
         11   -1    0    0    0    0 -0.00000000000E+00 -0.00000000000E+00 -0.50000000000E+03  0.50000000000E+03  0.00000000000E+00 0.  1.
         23    2    1    2    0    0  0.12880685145E+03 -0.49719027453E+01 -0.20243289359E+03  0.25706344829E+03  0.92122826927E+02 0.  0.
        -11    1    1    2    0    0 -0.34576299416E+03  0.58841883160E+02  0.33335127293E+03  0.48387755322E+03  0.00000000000E+00 0. -1.
         11    1    1    2    0    0  0.21695614271E+03 -0.53869980415E+02 -0.13091837934E+03  0.25905899849E+03  0.00000000000E+00 0.  1.
        -15    1    3    3    0    0  0.14969023703E+02  0.27632114724E+02 -0.13873850964E+02  0.34398356129E+02  0.17770000000E+01 0.  1.
         15    1    3    3    0    0  0.11383782775E+03 -0.32604017470E+02 -0.18855904262E+03  0.22266509216E+03  0.17770000000E+01 0. -1.
</event>
<event>
 7    1  0.3970441E-006  0.3724183E+03  0.7546771E-02  0.9741601E-01
        -11   -1    0    0    0    0  0.00000000000E+00  0.00000000000E+00  0.50000000000E+03  0.50000000000E+03  0.00000000000E+00 0.  1.
         11   -1    0    0    0    0 -0.00000000000E+00 -0.00000000000E+00 -0.50000000000E+03  0.50000000000E+03  0.00000000000E+00 0. -1.
         23    2    1    2    0    0  0.17770077311E+03 -0.68103198818E+02 -0.24907343657E+03  0.32701761717E+03  0.93205872595E+02 0.  0.
        -11    1    1    2    0    0 -0.90753749445E+02 -0.47641544350E+02  0.42955601618E+03  0.44161559169E+03  0.00000000000E+00 0.  1.
         11    1    1    2    0    0 -0.86947023662E+02  0.11574474317E+03 -0.18048257962E+03  0.23136679113E+03  0.00000000000E+00 0. -1.
        -15    1    3    3    0    0  0.11693599071E+03 -0.71955656680E+02 -0.22044460732E+03  0.25971258167E+03  0.17770000000E+01 0. -1.
         15    1    3    3    0    0  0.60764782393E+02  0.38524578624E+01 -0.28628829246E+02  0.67305035502E+02  0.17770000000E+01 0.  1.
</event>
<event>
 7    1  0.3970441E-006  0.5178695E+03  0.7546771E-02  0.9360690E-01
        -11   -1    0    0    0    0  0.00000000000E+00  0.00000000000E+00  0.50000000000E+03  0.50000000000E+03  0.00000000000E+00 0. -1.
         11   -1    0    0    0    0 -0.00000000000E+00 -0.00000000000E+00 -0.50000000000E+03  0.50000000000E+03  0.00000000000E+00 0.  1.
         23    2    1    2    0    0 -0.20534520567E+02  0.22718817558E+02 -0.31492834168E+03  0.32926888803E+03  0.91106141518E+02 0.  0.
        -11    1    1    2    0    0 -0.79656225351E+02 -0.30456942735E+02  0.47452825512E+03  0.48213048494E+03  0.00000000000E+00 0. -1.
         11    1    1    2    0    0  0.10019074592E+03  0.77381251769E+01 -0.15959991344E+03  0.18860062704E+03  0.00000000000E+00 0.  1.
        -15    1    3    3    0    0 -0.11958420766E+02 -0.31715920837E+02 -0.64967813566E+02  0.73299918078E+02  0.17770000000E+01 0. -1.
         15    1    3    3    0    0 -0.85760998008E+01  0.54434738395E+02 -0.24996052812E+03  0.25596896995E+03  0.17770000000E+01 0.  1.
</event>
<event>
 7    1  0.3970441E-006  0.5154283E+03  0.7546771E-02  0.9365934E-01
        -11   -1    0    0    0    0  0.00000000000E+00  0.00000000000E+00  0.50000000000E+03  0.50000000000E+03  0.00000000000E+00 0.  1.
         11   -1    0    0    0    0 -0.00000000000E+00 -0.00000000000E+00 -0.50000000000E+03  0.50000000000E+03  0.00000000000E+00 0. -1.
         23    2    1    2    0    0  0.13726062165E+00  0.90680169164E+01 -0.21216839052E+03  0.22513960365E+03  0.74767422210E+02 0.  0.
        -11    1    1    2    0    0 -0.12490942253E+03  0.64540275234E+02  0.46372608899E+03  0.48457166299E+03  0.00000000000E+00 0.  1.
         11    1    1    2    0    0  0.12477216190E+03 -0.73608292150E+02 -0.25155769847E+03  0.29028873337E+03  0.00000000000E+00 0. -1.
        -15    1    3    3    0    0 -0.24636898723E+02  0.26201932888E+02 -0.59741147239E+02  0.69754429739E+02  0.17770000000E+01 0. -1.
         15    1    3    3    0    0  0.24774159345E+02 -0.17133915972E+02 -0.15242724328E+03  0.15538517391E+03  0.17770000000E+01 0.  1.
</event>
<event>
 7    1  0.3970441E-006  0.5127036E+03  0.7546771E-02  0.9371825E-01
        -11   -1    0    0    0    0  0.00000000000E+00  0.00000000000E+00  0.50000000000E+03  0.50000000000E+03  0.00000000000E+00 0.  1.
         11   -1    0    0    0    0 -0.00000000000E+00 -0.00000000000E+00 -0.50000000000E+03  0.50000000000E+03  0.00000000000E+00 0.  1.
         23    2    1    2    0    0 -0.13114276503E+03 -0.13127967219E+02  0.34339760177E+03  0.37449676149E+03  0.70392777456E+02 0.  0.
        -11    1    1    2    0    0 -0.11269243436E+03  0.15475297507E+02  0.78498864220E+02  0.13820687855E+03  0.00000000000E+00 0.  1.
         11    1    1    2    0    0  0.24383519938E+03 -0.23473302883E+01 -0.42189646599E+03  0.48729635997E+03  0.00000000000E+00 0.  1.
        -15    1    3    3    0    0 -0.10628313696E+03  0.19408987914E+02  0.26046386145E+03  0.28198828852E+03  0.17770000000E+01 0.  1.
         15    1    3    3    0    0 -0.24859628067E+02 -0.32536955133E+02  0.82933740321E+02  0.92508472961E+02  0.17770000000E+01 0. -1.
</event>
<event>
 7    1  0.3970441E-006  0.4674117E+03  0.7546771E-02  0.9475834E-01
        -11   -1    0    0    0    0  0.00000000000E+00  0.00000000000E+00  0.50000000000E+03  0.50000000000E+03  0.00000000000E+00 0. -1.
         11   -1    0    0    0    0 -0.00000000000E+00 -0.00000000000E+00 -0.50000000000E+03  0.50000000000E+03  0.00000000000E+00 0.  1.
         23    2    1    2    0    0 -0.41716960785E+02 -0.72736931733E+02 -0.42760143525E+03  0.44468946863E+03  0.88739901018E+02 0.  0.
        -11    1    1    2    0    0  0.80021328132E+02  0.12161091059E+03  0.46195167149E+03  0.48434695552E+03  0.00000000000E+00 0. -1.
         11    1    1    2    0    0 -0.38304367347E+02 -0.48873978858E+02 -0.34350236240E+02  0.70963575847E+02  0.00000000000E+00 0.  1.
        -15    1    3    3    0    0  0.27840722947E+02 -0.18520481026E+02 -0.10231346256E+03  0.10765368745E+03  0.17770000000E+01 0.  1.
         15    1    3    3    0    0 -0.69557683732E+02 -0.54216450707E+02 -0.32528797269E+03  0.33703578119E+03  0.17770000000E+01 0. -1.
</event>
<event>
 7    1  0.3970441E-006  0.5118260E+03  0.7546771E-02  0.9373730E-01
        -11   -1    0    0    0    0  0.00000000000E+00  0.00000000000E+00  0.50000000000E+03  0.50000000000E+03  0.00000000000E+00 0.  1.
         11   -1    0    0    0    0 -0.00000000000E+00 -0.00000000000E+00 -0.50000000000E+03  0.50000000000E+03  0.00000000000E+00 0.  1.
         23    2    1    2    0    0 -0.87027816547E+01 -0.34784928766E+02 -0.36873093092E+03  0.37880395962E+03  0.79020318461E+02 0.  0.
        -11    1    1    2    0    0  0.80035632362E+02  0.62817032896E+02  0.47745387894E+03  0.48817403514E+03  0.00000000000E+00 0.  1.
         11    1    1    2    0    0 -0.71332850707E+02 -0.28032104129E+02 -0.10872294802E+03  0.13302200524E+03  0.00000000000E+00 0.  1.
        -15    1    3    3    0    0  0.18920899050E+02 -0.50355172058E+02 -0.20031387771E+03  0.20741854090E+03  0.17770000000E+01 0.  1.
         15    1    3    3    0    0 -0.27623680705E+02  0.15570243291E+02 -0.16841705320E+03  0.17138541872E+03  0.17770000000E+01 0. -1.
</event>
<event>
 6    1  0.3970441E-006  0.5042126E+03  0.7546771E-02  0.9390433E-01
        -11   -1    0    0    0    0  0.00000000000E+00  0.00000000000E+00  0.50000000000E+03  0.50000000000E+03  0.00000000000E+00 0.  1.
         11   -1    0    0    0    0 -0.00000000000E+00 -0.00000000000E+00 -0.50000000000E+03  0.50000000000E+03  0.00000000000E+00 0.  1.
        -11    1    1    2    0    0  0.24000523553E+02 -0.62305772282E+02  0.19061705507E+03  0.20197251316E+03  0.00000000000E+00 0.  1.
         11    1    1    2    0    0 -0.32428001810E+02 -0.23730658395E+03  0.17017982101E+03  0.29381484231E+03  0.00000000000E+00 0.  1.
        -15    1    1    2    0    0  0.45537471676E+02  0.30945355971E+03 -0.30867380491E+03  0.43945175220E+03  0.17770000000E+01 0.  1.
         15    1    1    2    0    0 -0.37109993419E+02 -0.98412034831E+01 -0.52123071165E+02  0.64760892321E+02  0.17770000000E+01 0. -1.
</event>
<event>
 7    1  0.3970441E-006  0.5241979E+03  0.7546771E-02  0.9347236E-01
        -11   -1    0    0    0    0  0.00000000000E+00  0.00000000000E+00  0.50000000000E+03  0.50000000000E+03  0.00000000000E+00 0.  1.
         11   -1    0    0    0    0 -0.00000000000E+00 -0.00000000000E+00 -0.50000000000E+03  0.50000000000E+03  0.00000000000E+00 0. -1.
         23    2    1    2    0    0  0.15147697997E+03 -0.41020600006E+02  0.23402396921E+03  0.29780860800E+03  0.96409458809E+02 0.  0.
        -11    1    1    2    0    0 -0.34506772011E+02 -0.27894757425E+02  0.22199832089E+03  0.22638924287E+03  0.00000000000E+00 0.  1.
         11    1    1    2    0    0 -0.11697020796E+03  0.68915357432E+02 -0.45602229011E+03  0.47580214913E+03  0.00000000000E+00 0. -1.
        -15    1    3    3    0    0  0.52414458732E+02 -0.36933768519E+02  0.29687241208E+02  0.70681459809E+02  0.17770000000E+01 0. -1.
         15    1    3    3    0    0  0.99062521243E+02 -0.40868314878E+01  0.20433672800E+03  0.22712714820E+03  0.17770000000E+01 0.  1.
</event>
<event>
 7    1  0.3970441E-006  0.3927311E+03  0.7546771E-02  0.9678125E-01
        -11   -1    0    0    0    0  0.00000000000E+00  0.00000000000E+00  0.50000000000E+03  0.50000000000E+03  0.00000000000E+00 0. -1.
         11   -1    0    0    0    0 -0.00000000000E+00 -0.00000000000E+00 -0.50000000000E+03  0.50000000000E+03  0.00000000000E+00 0. -1.
         23    2    1    2    0    0 -0.14605248523E+03 -0.54559960619E+02 -0.41274054451E+03  0.45088456386E+03  0.92919401089E+02 0.  0.
        -11    1    1    2    0    0 -0.69707733636E+02 -0.75978249379E+02  0.17162883637E+03  0.20022067821E+03  0.00000000000E+00 0. -1.
         11    1    1    2    0    0  0.21576021886E+03  0.13053821000E+03  0.24111170814E+03  0.34889475793E+03  0.00000000000E+00 0. -1.
        -15    1    3    3    0    0  0.10987299549E+02  0.51926111826E+01 -0.43638947602E+02  0.45334307528E+02  0.17770000000E+01 0.  1.
         15    1    3    3    0    0 -0.15703978478E+03 -0.59752571801E+02 -0.36910159691E+03  0.40555025633E+03  0.17770000000E+01 0. -1.
</event>
<event>
 7    1  0.3970441E-006  0.5169408E+03  0.7546771E-02  0.9362681E-01
        -11   -1    0    0    0    0  0.00000000000E+00  0.00000000000E+00  0.50000000000E+03  0.50000000000E+03  0.00000000000E+00 0.  1.
         11   -1    0    0    0    0 -0.00000000000E+00 -0.00000000000E+00 -0.50000000000E+03  0.50000000000E+03  0.00000000000E+00 0. -1.
         23    2    1    2    0    0 -0.12780258885E+02 -0.69334912557E+02 -0.40089051580E+03  0.41703376044E+03  0.90737459617E+02 0.  0.
        -11    1    1    2    0    0 -0.47233288112E+02  0.11417598797E+03  0.46698938805E+03  0.48305923890E+03  0.00000000000E+00 0.  1.
         11    1    1    2    0    0  0.60013546997E+02 -0.44841075416E+02 -0.66098872252E+02  0.99907000659E+02  0.00000000000E+00 0. -1.
        -15    1    3    3    0    0 -0.78706559414E+01 -0.90198538284E+02 -0.35476143121E+03  0.36613734354E+03  0.17770000000E+01 0. -1.
         15    1    3    3    0    0 -0.49096029435E+01  0.20863625727E+02 -0.46129084588E+02  0.50896416902E+02  0.17770000000E+01 0.  1.
</event>
<event>
 7    1  0.3970441E-006  0.5215990E+03  0.7546771E-02  0.9352736E-01
        -11   -1    0    0    0    0  0.00000000000E+00  0.00000000000E+00  0.50000000000E+03  0.50000000000E+03  0.00000000000E+00 0. -1.
         11   -1    0    0    0    0 -0.00000000000E+00 -0.00000000000E+00 -0.50000000000E+03  0.50000000000E+03  0.00000000000E+00 0.  1.
         23    2    1    2    0    0 -0.78767538488E+02 -0.78078459810E+02 -0.17158516591E+03  0.22359034126E+03  0.90832816417E+02 0.  0.
        -11    1    1    2    0    0  0.15250657689E+02  0.24005853920E+03  0.41352977488E+03  0.47840104464E+03  0.00000000000E+00 0. -1.
         11    1    1    2    0    0  0.63516880799E+02 -0.16198007939E+03 -0.24194460897E+03  0.29800861409E+03  0.00000000000E+00 0.  1.
        -15    1    3    3    0    0 -0.64915079236E+01 -0.22986741359E+02  0.54679736356E+01  0.24567995810E+02  0.17770000000E+01 0.  1.
         15    1    3    3    0    0 -0.72276030565E+02 -0.55091718452E+02 -0.17705313955E+03  0.19902234545E+03  0.17770000000E+01 0. -1.
</event>
<event>
 7    1  0.3970441E-006  0.4595659E+03  0.7546771E-02  0.9495127E-01
        -11   -1    0    0    0    0  0.00000000000E+00  0.00000000000E+00  0.50000000000E+03  0.50000000000E+03  0.00000000000E+00 0.  1.
         11   -1    0    0    0    0 -0.00000000000E+00 -0.00000000000E+00 -0.50000000000E+03  0.50000000000E+03  0.00000000000E+00 0.  1.
         23    2    1    2    0    0 -0.51832622595E+02  0.21067099791E+03 -0.38999263131E+03  0.45543635175E+03  0.90879744115E+02 0.  0.
        -11    1    1    2    0    0 -0.31782051911E+02 -0.20529678080E+03  0.40892131729E+03  0.45866492210E+03  0.00000000000E+00 0.  1.
         11    1    1    2    0    0  0.83614674505E+02 -0.53742171030E+01 -0.18928685973E+02  0.85898726153E+02  0.00000000000E+00 0.  1.
        -15    1    3    3    0    0  0.10251451665E+02  0.42731420666E+02 -0.29598647192E+02  0.53012302515E+02  0.17770000000E+01 0. -1.
         15    1    3    3    0    0 -0.62084074260E+02  0.16793957724E+03 -0.36039398412E+03  0.40242404923E+03  0.17770000000E+01 0.  1.
</event>
<event>
 7    1  0.3970441E-006  0.5318395E+03  0.7546771E-02  0.9331256E-01
        -11   -1    0    0    0    0  0.00000000000E+00  0.00000000000E+00  0.50000000000E+03  0.50000000000E+03  0.00000000000E+00 0.  1.
         11   -1    0    0    0    0 -0.00000000000E+00 -0.00000000000E+00 -0.50000000000E+03  0.50000000000E+03  0.00000000000E+00 0.  1.
         23    2    1    2    0    0 -0.30341019879E+02 -0.63325493361E+02  0.31156189434E+03  0.33189861497E+03  0.90306040879E+02 0.  0.
        -11    1    1    2    0    0 -0.29555387754E+02  0.13145295810E+03  0.14772594929E+03  0.19994088434E+03  0.00000000000E+00 0.  1.
         11    1    1    2    0    0  0.59896407633E+02 -0.68127464735E+02 -0.45928784363E+03  0.46816050069E+03  0.00000000000E+00 0.  1.
        -15    1    3    3    0    0 -0.41328699786E+02 -0.80911516192E+02  0.22055470696E+03  0.23854196983E+03  0.17770000000E+01 0.  1.
         15    1    3    3    0    0  0.10987679908E+02  0.17586022831E+02  0.91007187372E+02  0.93356645137E+02  0.17770000000E+01 0. -1.
</event>
<event>
 7    1  0.4572063E-006  0.5130154E+03  0.7546771E-02  0.9371149E-01
        -11   -1    0    0    0    0  0.00000000000E+00  0.00000000000E+00  0.50000000000E+03  0.50000000000E+03  0.00000000000E+00 0.  1.
         11   -1    0    0    0    0 -0.00000000000E+00 -0.00000000000E+00 -0.50000000000E+03  0.50000000000E+03  0.00000000000E+00 0. -1.
         23    2    1    2    0    0  0.21104736087E+02  0.25879016109E+02  0.22561511037E+03  0.24626411204E+03  0.92890804126E+02 0.  0.
        -11    1    1    2    0    0 -0.59522217026E+01  0.11676902472E+03  0.23976204514E+03  0.26675133058E+03  0.00000000000E+00 0.  1.
         11    1    1    2    0    0 -0.15152514385E+02 -0.14264804083E+03 -0.46537715552E+03  0.48698455737E+03  0.00000000000E+00 0. -1.
        -15    1    3    3    0    0  0.51767009021E+02  0.38728279311E+02  0.13410771681E+03  0.14888834837E+03  0.17770000000E+01 0.  1.
         15    1    3    3    0    0 -0.30662272934E+02 -0.12849263202E+02  0.91507393558E+02  0.97375763674E+02  0.17770000000E+01 0. -1.
</event>
<event>
 6    1  0.3970441E-006  0.3072569E+03  0.7546771E-02  0.9978761E-01
        -11   -1    0    0    0    0  0.00000000000E+00  0.00000000000E+00  0.50000000000E+03  0.50000000000E+03  0.00000000000E+00 0. -1.
         11   -1    0    0    0    0 -0.00000000000E+00 -0.00000000000E+00 -0.50000000000E+03  0.50000000000E+03  0.00000000000E+00 0.  1.
        -11    1    1    2    0    0 -0.57217301216E+02  0.68925207549E+02  0.14318003224E+03  0.16889353281E+03  0.00000000000E+00 0. -1.
         11    1    1    2    0    0  0.12178075406E+03  0.74970616245E+02  0.73378081882E+02  0.16073421621E+03  0.00000000000E+00 0.  1.
        -15    1    1    2    0    0 -0.12329945674E+02  0.35559451186E+02  0.20542251677E+03  0.20884939611E+03  0.17770000000E+01 0. -1.
         15    1    1    2    0    0 -0.52233507170E+02 -0.17945527498E+03 -0.42198063089E+03  0.46152285487E+03  0.17770000000E+01 0.  1.
</event>
<event>
 7    1  0.3970441E-006  0.3508528E+03  0.7546771E-02  0.9813917E-01
        -11   -1    0    0    0    0  0.00000000000E+00  0.00000000000E+00  0.50000000000E+03  0.50000000000E+03  0.00000000000E+00 0. -1.
         11   -1    0    0    0    0 -0.00000000000E+00 -0.00000000000E+00 -0.50000000000E+03  0.50000000000E+03  0.00000000000E+00 0. -1.
         23    2    1    2    0    0  0.13660611546E+02  0.35769250317E+02 -0.29907931703E+03  0.31508308102E+03  0.91448665880E+02 0.  0.
        -11    1    1    2    0    0 -0.20295784363E+03  0.14027089332E+03  0.34320132427E+03  0.42267595009E+03  0.00000000000E+00 0. -1.
         11    1    1    2    0    0  0.18929723208E+03 -0.17604014363E+03 -0.44122007240E+02  0.26224096890E+03  0.00000000000E+00 0. -1.
        -15    1    3    3    0    0  0.39896767606E+02 -0.13149075632E+02 -0.10195229251E+03  0.11028181143E+03  0.17770000000E+01 0.  1.
         15    1    3    3    0    0 -0.26236156060E+02  0.48918325949E+02 -0.19712702452E+03  0.20480126959E+03  0.17770000000E+01 0. -1.
</event>
<event>
 7    1  0.3970441E-006  0.5248831E+03  0.7546771E-02  0.9345791E-01
        -11   -1    0    0    0    0  0.00000000000E+00  0.00000000000E+00  0.50000000000E+03  0.50000000000E+03  0.00000000000E+00 0. -1.
         11   -1    0    0    0    0 -0.00000000000E+00 -0.00000000000E+00 -0.50000000000E+03  0.50000000000E+03  0.00000000000E+00 0. -1.
         23    2    1    2    0    0  0.58189974377E+02  0.90205448141E+00  0.52730347226E+02  0.10930034408E+03  0.76020976555E+02 0.  0.
        -11    1    1    2    0    0  0.32121445498E+02 -0.60365227442E+02  0.40991861191E+03  0.41558274306E+03  0.00000000000E+00 0. -1.
         11    1    1    2    0    0 -0.90311419875E+02  0.59463172960E+02 -0.46264895913E+03  0.47511691286E+03  0.00000000000E+00 0. -1.
        -15    1    3    3    0    0  0.19116469911E+02 -0.33746344261E+02  0.39524848358E+02  0.55404210486E+02  0.17770000000E+01 0.  1.
         15    1    3    3    0    0  0.39073504466E+02  0.34648398742E+02  0.13205498868E+02  0.53896133591E+02  0.17770000000E+01 0. -1.
</event>
<event>
 7    1  0.3970441E-006  0.5152681E+03  0.7546771E-02  0.9366280E-01
        -11   -1    0    0    0    0  0.00000000000E+00  0.00000000000E+00  0.50000000000E+03  0.50000000000E+03  0.00000000000E+00 0.  1.
         11   -1    0    0    0    0 -0.00000000000E+00 -0.00000000000E+00 -0.50000000000E+03  0.50000000000E+03  0.00000000000E+00 0.  1.
         23    2    1    2    0    0 -0.23949562006E+03  0.65729521520E+02  0.28608736298E+03  0.39261851757E+03  0.10307666589E+03 0.  0.
        -11    1    1    2    0    0 -0.10821930145E+03  0.48122853617E+02  0.31870099212E+02  0.12264962075E+03  0.00000000000E+00 0.  1.
         11    1    1    2    0    0  0.34771492151E+03 -0.11385237514E+03 -0.31795746219E+03  0.48473186168E+03  0.00000000000E+00 0.  1.
        -15    1    3    3    0    0 -0.12968798682E+03 -0.12836752107E+02  0.17226525019E+03  0.21601442147E+03  0.17770000000E+01 0.  1.
         15    1    3    3    0    0 -0.10980763325E+03  0.78566273627E+02  0.11382211279E+03  0.17660409610E+03  0.17770000000E+01 0. -1.
</event>
<event>
 7    1  0.3970441E-006  0.5232566E+03  0.7546771E-02  0.9349224E-01
        -11   -1    0    0    0    0  0.00000000000E+00  0.00000000000E+00  0.50000000000E+03  0.50000000000E+03  0.00000000000E+00 0.  1.
         11   -1    0    0    0    0 -0.00000000000E+00 -0.00000000000E+00 -0.50000000000E+03  0.50000000000E+03  0.00000000000E+00 0. -1.
         23    2    1    2    0    0 -0.16306583433E+02 -0.72593887652E+02 -0.28730778838E+03  0.30949643731E+03  0.87786686081E+02 0.  0.
        -11    1    1    2    0    0  0.16326745713E+03  0.69415085128E+02  0.44250376460E+03  0.47674343025E+03  0.00000000000E+00 0.  1.
         11    1    1    2    0    0 -0.14696087370E+03  0.31788025244E+01 -0.15519597622E+03  0.21376013244E+03  0.00000000000E+00 0. -1.
        -15    1    3    3    0    0 -0.94769279624E+01 -0.87693499750E+02 -0.27492346459E+03  0.28873176336E+03  0.17770000000E+01 0. -1.
         15    1    3    3    0    0 -0.68296554701E+01  0.15099612098E+02 -0.12384323793E+02  0.20764673947E+02  0.17770000000E+01 0.  1.
</event>
<event>
 7    1  0.3970441E-006  0.3852418E+03  0.7546771E-02  0.9701041E-01
        -11   -1    0    0    0    0  0.00000000000E+00  0.00000000000E+00  0.50000000000E+03  0.50000000000E+03  0.00000000000E+00 0. -1.
         11   -1    0    0    0    0 -0.00000000000E+00 -0.00000000000E+00 -0.50000000000E+03  0.50000000000E+03  0.00000000000E+00 0.  1.
         23    2    1    2    0    0  0.13726010540E+03 -0.33490966993E+02 -0.11671225539E+03  0.20802231907E+03  0.98435528483E+02 0.  0.
        -11    1    1    2    0    0 -0.10305260793E+02  0.10032220049E+03  0.43304332877E+03  0.44463160808E+03  0.00000000000E+00 0. -1.
         11    1    1    2    0    0 -0.12695484461E+03 -0.66831233502E+02 -0.31633107337E+03  0.34734607285E+03  0.00000000000E+00 0.  1.
        -15    1    3    3    0    0  0.32290441013E+02  0.31338592046E+02 -0.51672152876E+02  0.68541586238E+02  0.17770000000E+01 0. -1.
         15    1    3    3    0    0  0.10496966439E+03 -0.64829559039E+02 -0.65040102519E+02  0.13948073283E+03  0.17770000000E+01 0.  1.
</event>
<event>
 7    1  0.3970441E-006  0.4824387E+03  0.7546771E-02  0.9439985E-01
        -11   -1    0    0    0    0  0.00000000000E+00  0.00000000000E+00  0.50000000000E+03  0.50000000000E+03  0.00000000000E+00 0. -1.
         11   -1    0    0    0    0 -0.00000000000E+00 -0.00000000000E+00 -0.50000000000E+03  0.50000000000E+03  0.00000000000E+00 0.  1.
         23    2    1    2    0    0 -0.72174592324E+02  0.18475560394E+03  0.41315213576E+03  0.46737950161E+03  0.91679366694E+02 0.  0.
        -11    1    1    2    0    0  0.20856765305E+02 -0.31841628090E+00  0.37544058136E+02  0.42949532584E+02  0.00000000000E+00 0. -1.
         11    1    1    2    0    0  0.51317827019E+02 -0.18443718766E+03 -0.45069619389E+03  0.48967096581E+03  0.00000000000E+00 0.  1.
        -15    1    3    3    0    0 -0.33451420744E+02  0.41549057122E+02  0.20456073950E+03  0.21140855132E+03  0.17770000000E+01 0.  1.
         15    1    3    3    0    0 -0.38723171580E+02  0.14320654682E+03  0.20859139626E+03  0.25597095029E+03  0.17770000000E+01 0. -1.
</event>
<event>
 7    1  0.3970441E-006  0.4068807E+03  0.7546771E-02  0.9636286E-01
        -11   -1    0    0    0    0  0.00000000000E+00  0.00000000000E+00  0.50000000000E+03  0.50000000000E+03  0.00000000000E+00 0.  1.
         11   -1    0    0    0    0 -0.00000000000E+00 -0.00000000000E+00 -0.50000000000E+03  0.50000000000E+03  0.00000000000E+00 0. -1.
         23    2    1    2    0    0 -0.24648786257E+02  0.53884668445E+02 -0.38572214978E+03  0.40132681375E+03  0.93651024770E+02 0.  0.
        -11    1    1    2    0    0  0.17922656384E+03  0.33593454887E+02  0.37940156026E+03  0.42094682007E+03  0.00000000000E+00 0.  1.
         11    1    1    2    0    0 -0.15457777759E+03 -0.87478123332E+02  0.63205895213E+01  0.17772636618E+03  0.00000000000E+00 0. -1.
        -15    1    3    3    0    0 -0.19092803507E+02 -0.82945419455E+01 -0.15863295265E+02  0.26232354784E+02  0.17770000000E+01 0.  1.
         15    1    3    3    0    0 -0.55559827500E+01  0.62179210390E+02 -0.36985885452E+03  0.37509445896E+03  0.17770000000E+01 0. -1.
</event>
<event>
 7    1  0.3970441E-006  0.5091825E+03  0.7546771E-02  0.9379494E-01
        -11   -1    0    0    0    0  0.00000000000E+00  0.00000000000E+00  0.50000000000E+03  0.50000000000E+03  0.00000000000E+00 0.  1.
         11   -1    0    0    0    0 -0.00000000000E+00 -0.00000000000E+00 -0.50000000000E+03  0.50000000000E+03  0.00000000000E+00 0. -1.
         23    2    1    2    0    0  0.43502394512E+02 -0.42269836284E+02  0.38199524629E+03  0.39672167982E+03  0.88252624119E+02 0.  0.
        -11    1    1    2    0    0 -0.14872360622E+02 -0.51294686092E+02  0.98970241102E+02  0.11246084010E+03  0.00000000000E+00 0.  1.
         11    1    1    2    0    0 -0.28630033890E+02  0.93564522376E+02 -0.48096548739E+03  0.49081748008E+03  0.00000000000E+00 0. -1.
        -15    1    3    3    0    0  0.52549199738E+02  0.95129544477E+01  0.22027955799E+03  0.22666750118E+03  0.17770000000E+01 0. -1.
         15    1    3    3    0    0 -0.90468052258E+01 -0.51782790732E+02  0.16171568830E+03  0.17005417864E+03  0.17770000000E+01 0.  1.
</event>
<event>
 7    1  0.3970441E-006  0.5087910E+03  0.7546771E-02  0.9380351E-01
        -11   -1    0    0    0    0  0.00000000000E+00  0.00000000000E+00  0.50000000000E+03  0.50000000000E+03  0.00000000000E+00 0. -1.
         11   -1    0    0    0    0 -0.00000000000E+00 -0.00000000000E+00 -0.50000000000E+03  0.50000000000E+03  0.00000000000E+00 0. -1.
         23    2    1    2    0    0  0.51158984969E+02 -0.71188590245E+02 -0.32333760641E+03  0.34743307397E+03  0.92073210258E+02 0.  0.
        -11    1    1    2    0    0 -0.26525873727E+02  0.10044264967E+03  0.48009786956E+03  0.49120903107E+03  0.00000000000E+00 0. -1.
         11    1    1    2    0    0 -0.24633111243E+02 -0.29254059422E+02 -0.15676026315E+03  0.16135789496E+03  0.00000000000E+00 0. -1.
        -15    1    3    3    0    0  0.31292003549E+02 -0.20630096941E+02 -0.27187480218E+02  0.46336888065E+02  0.17770000000E+01 0.  1.
         15    1    3    3    0    0  0.19866981420E+02 -0.50558493303E+02 -0.29615012619E+03  0.30109618591E+03  0.17770000000E+01 0. -1.
</event>
<event>
 7    1  0.3970441E-006  0.3614275E+03  0.7546771E-02  0.9777781E-01
        -11   -1    0    0    0    0  0.00000000000E+00  0.00000000000E+00  0.50000000000E+03  0.50000000000E+03  0.00000000000E+00 0.  1.
         11   -1    0    0    0    0 -0.00000000000E+00 -0.00000000000E+00 -0.50000000000E+03  0.50000000000E+03  0.00000000000E+00 0.  1.
         23    2    1    2    0    0  0.70605458246E+02 -0.18897034158E+03  0.24923212160E+03  0.33356799783E+03  0.91956718140E+02 0.  0.
        -11    1    1    2    0    0 -0.17880495284E+03  0.91942771887E+02  0.14393165662E+03  0.24726707472E+03  0.00000000000E+00 0.  1.
         11    1    1    2    0    0  0.10819949459E+03  0.97027569690E+02 -0.39316377821E+03  0.41916492745E+03  0.00000000000E+00 0.  1.
        -15    1    3    3    0    0  0.72825469702E+02 -0.76953443355E+02  0.15151121494E+03  0.18488966294E+03  0.17770000000E+01 0.  1.
         15    1    3    3    0    0 -0.22200114567E+01 -0.11201689822E+03  0.97720906657E+02  0.14867833489E+03  0.17770000000E+01 0. -1.
</event>
<event>
 7    1  0.3970441E-006  0.4562004E+03  0.7546771E-02  0.9503528E-01
        -11   -1    0    0    0    0  0.00000000000E+00  0.00000000000E+00  0.50000000000E+03  0.50000000000E+03  0.00000000000E+00 0. -1.
         11   -1    0    0    0    0 -0.00000000000E+00 -0.00000000000E+00 -0.50000000000E+03  0.50000000000E+03  0.00000000000E+00 0.  1.
         23    2    1    2    0    0  0.21011152741E+03  0.38150594824E+03 -0.17070689083E+03  0.47660231544E+03  0.91188168129E+02 0.  0.
        -11    1    1    2    0    0  0.53515072490E+01 -0.16629686367E+02  0.90448389009E+02  0.92120009623E+02  0.00000000000E+00 0. -1.
         11    1    1    2    0    0 -0.21546303466E+03 -0.36487626188E+03  0.80258501823E+02  0.43127767494E+03  0.00000000000E+00 0.  1.
        -15    1    3    3    0    0  0.99322895070E+02  0.15171925607E+03 -0.25688155110E+02  0.18315788050E+03  0.17770000000E+01 0. -1.
         15    1    3    3    0    0  0.11078863234E+03  0.22978669217E+03 -0.14501873572E+03  0.29344443494E+03  0.17770000000E+01 0.  1.
</event>
<event>
 6    1  0.3970441E-006  0.5025662E+03  0.7546771E-02  0.9394086E-01
        -11   -1    0    0    0    0  0.00000000000E+00  0.00000000000E+00  0.50000000000E+03  0.50000000000E+03  0.00000000000E+00 0. -1.
         11   -1    0    0    0    0 -0.00000000000E+00 -0.00000000000E+00 -0.50000000000E+03  0.50000000000E+03  0.00000000000E+00 0. -1.
        -11    1    1    2    0    0 -0.39368023824E+02  0.54760850406E+02  0.36823604584E+03  0.37436129273E+03  0.00000000000E+00 0. -1.
         11    1    1    2    0    0  0.26538236544E+02 -0.36954282165E+02  0.11435450963E+03  0.12307254300E+03  0.00000000000E+00 0. -1.
        -15    1    1    2    0    0 -0.19330464097E+02 -0.69942343712E+02 -0.18498377490E+03  0.19871525606E+03  0.17770000000E+01 0.  1.
         15    1    1    2    0    0  0.32160251377E+02  0.52135775470E+02 -0.29760678056E+03  0.30385090821E+03  0.17770000000E+01 0. -1.
</event>
<event>
 7    1  0.3970441E-006  0.3839138E+03  0.7546771E-02  0.9705162E-01
        -11   -1    0    0    0    0  0.00000000000E+00  0.00000000000E+00  0.50000000000E+03  0.50000000000E+03  0.00000000000E+00 0. -1.
         11   -1    0    0    0    0 -0.00000000000E+00 -0.00000000000E+00 -0.50000000000E+03  0.50000000000E+03  0.00000000000E+00 0.  1.
         23    2    1    2    0    0 -0.38441458982E+02 -0.18435325330E+03  0.33966665395E+01  0.20940869749E+03  0.91523753585E+02 0.  0.
        -11    1    1    2    0    0  0.15615693223E+03 -0.15882959299E+03  0.25991734209E+03  0.34229935994E+03  0.00000000000E+00 0. -1.
         11    1    1    2    0    0 -0.11771547325E+03  0.34318284629E+03 -0.26331400863E+03  0.44829194257E+03  0.00000000000E+00 0.  1.
        -15    1    3    3    0    0 -0.40382369351E+02 -0.95931135881E+02 -0.39187839198E+02  0.11123112449E+03  0.17770000000E+01 0.  1.
         15    1    3    3    0    0  0.19409103698E+01 -0.88422117417E+02  0.42584505738E+02  0.98177572996E+02  0.17770000000E+01 0. -1.
</event>
<event>
 7    1  0.3970441E-006  0.5096466E+03  0.7546771E-02  0.9378480E-01
        -11   -1    0    0    0    0  0.00000000000E+00  0.00000000000E+00  0.50000000000E+03  0.50000000000E+03  0.00000000000E+00 0. -1.
         11   -1    0    0    0    0 -0.00000000000E+00 -0.00000000000E+00 -0.50000000000E+03  0.50000000000E+03  0.00000000000E+00 0.  1.
         23    2    1    2    0    0  0.16480765160E+02  0.66503363875E+02 -0.27540403151E+03  0.29799775280E+03  0.90889862316E+02 0.  0.
        -11    1    1    2    0    0  0.22444261252E+02 -0.82662964267E+02  0.48281415653E+03  0.49035336266E+03  0.00000000000E+00 0. -1.
         11    1    1    2    0    0 -0.38925026412E+02  0.16159600392E+02 -0.20741012502E+03  0.21164888454E+03  0.00000000000E+00 0.  1.
        -15    1    3    3    0    0  0.84217094343E+01  0.16787571254E+02 -0.87966120031E+00  0.18885954337E+02  0.17770000000E+01 0. -1.
         15    1    3    3    0    0  0.80590557254E+01  0.49715792621E+02 -0.27452437031E+03  0.27911179846E+03  0.17770000000E+01 0.  1.
</event>
<event>
 7    1  0.3970441E-006  0.3418959E+03  0.7546771E-02  0.9845609E-01
        -11   -1    0    0    0    0  0.00000000000E+00  0.00000000000E+00  0.50000000000E+03  0.50000000000E+03  0.00000000000E+00 0.  1.
         11   -1    0    0    0    0 -0.00000000000E+00 -0.00000000000E+00 -0.50000000000E+03  0.50000000000E+03  0.00000000000E+00 0. -1.
         23    2    1    2    0    0  0.23361215736E+02 -0.12462293317E+03 -0.25116508019E+03  0.29636009287E+03  0.93106311640E+02 0.  0.
        -11    1    1    2    0    0  0.12961575432E+03 -0.43093499106E+02  0.40632923735E+03  0.42867323517E+03  0.00000000000E+00 0.  1.
         11    1    1    2    0    0 -0.15297697005E+03  0.16771643227E+03 -0.15516415715E+03  0.27496667196E+03  0.00000000000E+00 0. -1.
        -15    1    3    3    0    0 -0.15796280802E+02 -0.32759289050E+01 -0.18627755211E+01  0.16336519182E+02  0.17770000000E+01 0.  1.
         15    1    3    3    0    0  0.39157496537E+02 -0.12134700426E+03 -0.24930230467E+03  0.28002357369E+03  0.17770000000E+01 0. -1.
</event>
<event>
 7    1  0.3970441E-006  0.5348232E+03  0.7546771E-02  0.9325093E-01
        -11   -1    0    0    0    0  0.00000000000E+00  0.00000000000E+00  0.50000000000E+03  0.50000000000E+03  0.00000000000E+00 0. -1.
         11   -1    0    0    0    0 -0.00000000000E+00 -0.00000000000E+00 -0.50000000000E+03  0.50000000000E+03  0.00000000000E+00 0.  1.
         23    2    1    2    0    0  0.79617970512E+02 -0.93129063690E+01  0.93352601807E+02  0.15362583724E+03  0.91980640089E+02 0.  0.
        -11    1    1    2    0    0 -0.65010978615E+02  0.91840196766E+02  0.36421198435E+03  0.38119734866E+03  0.00000000000E+00 0. -1.
         11    1    1    2    0    0 -0.14606991896E+02 -0.82527290397E+02 -0.45756458615E+03  0.46517681410E+03  0.00000000000E+00 0.  1.
        -15    1    3    3    0    0  0.97346868730E+02 -0.44932197712E+01  0.57141995783E+02  0.11298215473E+03  0.17770000000E+01 0.  1.
         15    1    3    3    0    0 -0.17728898219E+02 -0.48196865978E+01  0.36210606024E+02  0.40643682517E+02  0.17770000000E+01 0. -1.
</event>
<event>
 6    1  0.3970441E-006  0.4372301E+03  0.7546771E-02  0.9552374E-01
        -11   -1    0    0    0    0  0.00000000000E+00  0.00000000000E+00  0.50000000000E+03  0.50000000000E+03  0.00000000000E+00 0.  1.
         11   -1    0    0    0    0 -0.00000000000E+00 -0.00000000000E+00 -0.50000000000E+03  0.50000000000E+03  0.00000000000E+00 0. -1.
        -11    1    1    2    0    0  0.87149936263E+02 -0.52330066726E+02  0.40455338928E+03  0.41712946677E+03  0.00000000000E+00 0.  1.
         11    1    1    2    0    0 -0.23140790335E+02 -0.13219357853E+03 -0.29104348700E+02  0.13732334650E+03  0.00000000000E+00 0. -1.
        -15    1    1    2    0    0  0.34895293618E+02  0.93635515770E+02 -0.20888089878E+03  0.23155923418E+03  0.17770000000E+01 0.  1.
         15    1    1    2    0    0 -0.98904439546E+02  0.90888129485E+02 -0.16656814180E+03  0.21398795255E+03  0.17770000000E+01 0. -1.
</event>
<event>
 7    1  0.3970441E-006  0.5414373E+03  0.7546771E-02  0.9311584E-01
        -11   -1    0    0    0    0  0.00000000000E+00  0.00000000000E+00  0.50000000000E+03  0.50000000000E+03  0.00000000000E+00 0.  1.
         11   -1    0    0    0    0 -0.00000000000E+00 -0.00000000000E+00 -0.50000000000E+03  0.50000000000E+03  0.00000000000E+00 0.  1.
         23    2    1    2    0    0 -0.20210848942E+03  0.31379101931E+01 -0.13482769772E+03  0.26042029535E+03  0.93715175859E+02 0.  0.
        -11    1    1    2    0    0  0.24960992543E+03 -0.20259730042E+03  0.32699988442E+03  0.45856265158E+03  0.00000000000E+00 0.  1.
         11    1    1    2    0    0 -0.47501436015E+02  0.19945939022E+03 -0.19217218671E+03  0.28101705307E+03  0.00000000000E+00 0.  1.
        -15    1    3    3    0    0 -0.62194209761E+02  0.42318802762E+02 -0.28922861794E+02  0.80614455642E+02  0.17770000000E+01 0. -1.
         15    1    3    3    0    0 -0.13991427965E+03 -0.39180892569E+02 -0.10590483592E+03  0.17980583971E+03  0.17770000000E+01 0.  1.
</event>
<event>
 7    1  0.3970441E-006  0.5274394E+03  0.7546771E-02  0.9340422E-01
        -11   -1    0    0    0    0  0.00000000000E+00  0.00000000000E+00  0.50000000000E+03  0.50000000000E+03  0.00000000000E+00 0. -1.
         11   -1    0    0    0    0 -0.00000000000E+00 -0.00000000000E+00 -0.50000000000E+03  0.50000000000E+03  0.00000000000E+00 0.  1.
         23    2    1    2    0    0  0.58338660408E+02 -0.38404946324E+02  0.31386123808E+03  0.33461642124E+03  0.92633327675E+02 0.  0.
        -11    1    1    2    0    0  0.16421798701E+03 -0.22325882342E+02  0.98563138548E+02  0.19282293577E+03  0.00000000000E+00 0. -1.
         11    1    1    2    0    0 -0.22255664742E+03  0.60730828667E+02 -0.41242437663E+03  0.47256064298E+03  0.00000000000E+00 0.  1.
        -15    1    3    3    0    0  0.77617869332E+02 -0.48100693227E+02  0.27909461088E+03  0.29365825355E+03  0.17770000000E+01 0. -1.
         15    1    3    3    0    0 -0.19279208923E+02  0.96957469024E+01  0.34766627204E+02  0.40958167694E+02  0.17770000000E+01 0.  1.
</event>
<event>
 7    1  0.3970441E-006  0.5262419E+03  0.7546771E-02  0.9342933E-01
        -11   -1    0    0    0    0  0.00000000000E+00  0.00000000000E+00  0.50000000000E+03  0.50000000000E+03  0.00000000000E+00 0.  1.
         11   -1    0    0    0    0 -0.00000000000E+00 -0.00000000000E+00 -0.50000000000E+03  0.50000000000E+03  0.00000000000E+00 0. -1.
         23    2    1    2    0    0  0.52924958049E+02 -0.52430020495E+02 -0.22122443246E+03  0.24982851093E+03  0.89017285522E+02 0.  0.
        -11    1    1    2    0    0  0.74085641979E+02  0.17482431218E+03  0.43404434910E+03  0.47375808116E+03  0.00000000000E+00 0.  1.
         11    1    1    2    0    0 -0.12701060003E+03 -0.12239429168E+03 -0.21281991664E+03  0.27641340791E+03  0.00000000000E+00 0. -1.
        -15    1    3    3    0    0  0.57043604300E+02  0.39280981532E+00 -0.74689781002E+02  0.93999192583E+02  0.17770000000E+01 0.  1.
         15    1    3    3    0    0 -0.41186462513E+01 -0.52822830310E+02 -0.14653465146E+03  0.15582931835E+03  0.17770000000E+01 0. -1.
</event>
<event>
 7    1  0.3970441E-006  0.5116479E+03  0.7546771E-02  0.9374117E-01
        -11   -1    0    0    0    0  0.00000000000E+00  0.00000000000E+00  0.50000000000E+03  0.50000000000E+03  0.00000000000E+00 0.  1.
         11   -1    0    0    0    0 -0.00000000000E+00 -0.00000000000E+00 -0.50000000000E+03  0.50000000000E+03  0.00000000000E+00 0.  1.
         23    2    1    2    0    0  0.22692615193E+03 -0.24348384769E+03 -0.34521694533E+03  0.48835206900E+03  0.92375004405E+02 0.  0.
        -11    1    1    2    0    0 -0.26555064714E+01  0.21017956245E+02  0.12448963124E+03  0.12627935099E+03  0.00000000000E+00 0.  1.
         11    1    1    2    0    0 -0.22427064546E+03  0.22246589145E+03  0.22072731409E+03  0.38536858001E+03  0.00000000000E+00 0.  1.
        -15    1    3    3    0    0  0.16286140266E+03 -0.11389677769E+03 -0.17294426112E+03  0.26345623475E+03  0.17770000000E+01 0. -1.
         15    1    3    3    0    0  0.64064749272E+02 -0.12958707001E+03 -0.17227268421E+03  0.22489583426E+03  0.17770000000E+01 0.  1.
</event>
<event>
 7    1  0.3970441E-006  0.4123324E+03  0.7546771E-02  0.9620648E-01
        -11   -1    0    0    0    0  0.00000000000E+00  0.00000000000E+00  0.50000000000E+03  0.50000000000E+03  0.00000000000E+00 0. -1.
         11   -1    0    0    0    0 -0.00000000000E+00 -0.00000000000E+00 -0.50000000000E+03  0.50000000000E+03  0.00000000000E+00 0.  1.
         23    2    1    2    0    0  0.11455354432E+03  0.63892405853E+02 -0.37954163430E+02  0.16410680876E+03  0.91026216652E+02 0.  0.
        -11    1    1    2    0    0 -0.89772963774E+02  0.10908702685E+03  0.40523783182E+03  0.42915832136E+03  0.00000000000E+00 0. -1.
         11    1    1    2    0    0 -0.24780580545E+02 -0.17297943270E+03 -0.36728366839E+03  0.40673486988E+03  0.00000000000E+00 0.  1.
        -15    1    3    3    0    0  0.66217639015E+02  0.82044328591E+02 -0.11522221791E+02  0.10607528880E+03  0.17770000000E+01 0.  1.
         15    1    3    3    0    0  0.48335905303E+02 -0.18151922739E+02 -0.26431941639E+02  0.58031519956E+02  0.17770000000E+01 0. -1.
</event>
<event>
 7    1  0.3970441E-006  0.4607178E+03  0.7546771E-02  0.9492269E-01
        -11   -1    0    0    0    0  0.00000000000E+00  0.00000000000E+00  0.50000000000E+03  0.50000000000E+03  0.00000000000E+00 0.  1.
         11   -1    0    0    0    0 -0.00000000000E+00 -0.00000000000E+00 -0.50000000000E+03  0.50000000000E+03  0.00000000000E+00 0. -1.
         23    2    1    2    0    0  0.89062980657E+02  0.16362090433E+03 -0.40755680887E+03  0.45756280263E+03  0.92504870338E+02 0.  0.
        -11    1    1    2    0    0 -0.72104155138E+02 -0.89620040547E+02  0.44369026476E+03  0.45835773354E+03  0.00000000000E+00 0.  1.
         11    1    1    2    0    0 -0.16958825519E+02 -0.74000863783E+02 -0.36133455887E+02  0.84079463830E+02  0.00000000000E+00 0. -1.
        -15    1    3    3    0    0  0.12827073346E+01 -0.10986639166E+02 -0.12365065190E+02  0.16685447084E+02  0.17770000000E+01 0.  1.
         15    1    3    3    0    0  0.87780273322E+02  0.17460754350E+03 -0.39519174368E+03  0.44087735555E+03  0.17770000000E+01 0. -1.
</event>
<event>
 7    1  0.3970441E-006  0.5080127E+03  0.7546771E-02  0.9382057E-01
        -11   -1    0    0    0    0  0.00000000000E+00  0.00000000000E+00  0.50000000000E+03  0.50000000000E+03  0.00000000000E+00 0. -1.
         11   -1    0    0    0    0 -0.00000000000E+00 -0.00000000000E+00 -0.50000000000E+03  0.50000000000E+03  0.00000000000E+00 0. -1.
         23    2    1    2    0    0  0.76727074636E+02 -0.23777456994E+02 -0.30407945872E+03  0.32728379253E+03  0.90542543539E+02 0.  0.
        -11    1    1    2    0    0 -0.10706103385E+03 -0.32251706842E+01  0.48018641918E+03  0.49198725986E+03  0.00000000000E+00 0. -1.
         11    1    1    2    0    0  0.30333959211E+02  0.27002627678E+02 -0.17610696046E+03  0.18072894761E+03  0.00000000000E+00 0. -1.
        -15    1    3    3    0    0  0.45918814308E+02 -0.22291062077E+02 -0.28792525121E+03  0.29242013776E+03  0.17770000000E+01 0.  1.
         15    1    3    3    0    0  0.30808260328E+02 -0.14863949164E+01 -0.16154207517E+02  0.34863654768E+02  0.17770000000E+01 0. -1.
</event>
<event>
 7    1  0.3970441E-006  0.3810138E+03  0.7546771E-02  0.9714225E-01
        -11   -1    0    0    0    0  0.00000000000E+00  0.00000000000E+00  0.50000000000E+03  0.50000000000E+03  0.00000000000E+00 0.  1.
         11   -1    0    0    0    0 -0.00000000000E+00 -0.00000000000E+00 -0.50000000000E+03  0.50000000000E+03  0.00000000000E+00 0. -1.
         23    2    1    2    0    0  0.13888226195E+03 -0.30048306064E+03 -0.22905054178E+03  0.41258994609E+03  0.90487349999E+02 0.  0.
        -11    1    1    2    0    0 -0.21576709646E+03  0.10346950101E+03  0.28155474899E+03  0.36950568903E+03  0.00000000000E+00 0.  1.
         11    1    1    2    0    0  0.76884834511E+02  0.19701355963E+03 -0.52504207205E+02  0.21790436487E+03  0.00000000000E+00 0. -1.
        -15    1    3    3    0    0  0.36761054486E+02 -0.15327105431E+02 -0.20396405489E+02  0.44782433762E+02  0.17770000000E+01 0.  1.
         15    1    3    3    0    0  0.10212120746E+03 -0.28515595521E+03 -0.20865413629E+03  0.36780751233E+03  0.17770000000E+01 0. -1.
</event>
<event>
 7    1  0.3970441E-006  0.3581696E+03  0.7546771E-02  0.9788771E-01
        -11   -1    0    0    0    0  0.00000000000E+00  0.00000000000E+00  0.50000000000E+03  0.50000000000E+03  0.00000000000E+00 0.  1.
         11   -1    0    0    0    0 -0.00000000000E+00 -0.00000000000E+00 -0.50000000000E+03  0.50000000000E+03  0.00000000000E+00 0. -1.
         23    2    1    2    0    0 -0.14485465157E+03 -0.17634167161E+03  0.29204832306E+02  0.24762111387E+03  0.91564395794E+02 0.  0.
        -11    1    1    2    0    0  0.36014917951E+03  0.13239358579E+03  0.20181384987E+03  0.43354852446E+03  0.00000000000E+00 0.  1.
         11    1    1    2    0    0 -0.21529452794E+03  0.43948085817E+02 -0.23101868218E+03  0.31883036167E+03  0.00000000000E+00 0. -1.
        -15    1    3    3    0    0 -0.11402909764E+02 -0.60858777128E+02  0.34786129845E+02  0.71042590487E+02  0.17770000000E+01 0.  1.
         15    1    3    3    0    0 -0.13345174181E+03 -0.11548289448E+03 -0.55812975392E+01  0.17657852338E+03  0.17770000000E+01 0. -1.
</event>
<event>
 7    1  0.3970441E-006  0.4133697E+03  0.7546771E-02  0.9617702E-01
        -11   -1    0    0    0    0  0.00000000000E+00  0.00000000000E+00  0.50000000000E+03  0.50000000000E+03  0.00000000000E+00 0. -1.
         11   -1    0    0    0    0 -0.00000000000E+00 -0.00000000000E+00 -0.50000000000E+03  0.50000000000E+03  0.00000000000E+00 0.  1.
         23    2    1    2    0    0  0.53960996472E+02  0.50875129366E+02 -0.11274139226E+03  0.16231944967E+03  0.90204846235E+02 0.  0.
        -11    1    1    2    0    0  0.37959412376E+03 -0.55869015598E+02 -0.20080964268E+02  0.38420865532E+03  0.00000000000E+00 0. -1.
         11    1    1    2    0    0 -0.43355512023E+03  0.49938862326E+01  0.13282235652E+03  0.45347189502E+03  0.00000000000E+00 0.  1.
        -15    1    3    3    0    0  0.27634251583E+02  0.33995614715E+02  0.14894523358E+01  0.43871743500E+02  0.17770000000E+01 0.  1.
         15    1    3    3    0    0  0.26326744889E+02  0.16879514650E+02 -0.11423084459E+03  0.11844770617E+03  0.17770000000E+01 0. -1.
</event>
<event>
 7    1  0.3970441E-006  0.5119509E+03  0.7546771E-02  0.9373459E-01
        -11   -1    0    0    0    0  0.00000000000E+00  0.00000000000E+00  0.50000000000E+03  0.50000000000E+03  0.00000000000E+00 0. -1.
         11   -1    0    0    0    0 -0.00000000000E+00 -0.00000000000E+00 -0.50000000000E+03  0.50000000000E+03  0.00000000000E+00 0.  1.
         23    2    1    2    0    0  0.67369946348E+02  0.66964943154E+02  0.26162547228E+03  0.29291763843E+03  0.91267967417E+02 0.  0.
        -11    1    1    2    0    0  0.32009729154E+02 -0.29207110659E+02  0.21470419438E+03  0.21903326039E+03  0.00000000000E+00 0. -1.
         11    1    1    2    0    0 -0.99379675502E+02 -0.37757832495E+02 -0.47632966666E+03  0.48804910118E+03  0.00000000000E+00 0.  1.
        -15    1    3    3    0    0  0.41341608945E+02  0.13043139188E+02  0.20813606086E+03  0.21261004132E+03  0.17770000000E+01 0.  1.
         15    1    3    3    0    0  0.26028337404E+02  0.53921803966E+02  0.53489411416E+02  0.80307597110E+02  0.17770000000E+01 0. -1.
</event>
<event>
 7    1  0.3970441E-006  0.5259399E+03  0.7546771E-02  0.9343567E-01
        -11   -1    0    0    0    0  0.00000000000E+00  0.00000000000E+00  0.50000000000E+03  0.50000000000E+03  0.00000000000E+00 0.  1.
         11   -1    0    0    0    0 -0.00000000000E+00 -0.00000000000E+00 -0.50000000000E+03  0.50000000000E+03  0.00000000000E+00 0. -1.
         23    2    1    2    0    0 -0.36174911695E+02  0.74090203079E+01 -0.40393568599E+03  0.41749703564E+03  0.98874761882E+02 0.  0.
        -11    1    1    2    0    0  0.12905096488E+03 -0.29965754778E+02  0.45517127380E+03  0.47406010852E+03  0.00000000000E+00 0.  1.
         11    1    1    2    0    0 -0.92876053180E+02  0.22556734470E+02 -0.51235587813E+02  0.10844285584E+03  0.00000000000E+00 0. -1.
        -15    1    3    3    0    0  0.27259565594E+02 -0.18946666299E+02 -0.18720896809E+03  0.19013788560E+03  0.17770000000E+01 0.  1.
         15    1    3    3    0    0 -0.63434477289E+02  0.26355686607E+02 -0.21672671790E+03  0.22735915004E+03  0.17770000000E+01 0. -1.
</event>
<event>
 7    1  0.3970441E-006  0.5419379E+03  0.7546771E-02  0.9310570E-01
        -11   -1    0    0    0    0  0.00000000000E+00  0.00000000000E+00  0.50000000000E+03  0.50000000000E+03  0.00000000000E+00 0. -1.
         11   -1    0    0    0    0 -0.00000000000E+00 -0.00000000000E+00 -0.50000000000E+03  0.50000000000E+03  0.00000000000E+00 0. -1.
         23    2    1    2    0    0  0.75994123555E+02 -0.51210063925E+02 -0.19011331368E+03  0.22944564954E+03  0.90025866230E+02 0.  0.
        -11    1    1    2    0    0  0.68062876991E+02 -0.42980632084E+02  0.45093342441E+03  0.45806205170E+03  0.00000000000E+00 0. -1.
         11    1    1    2    0    0 -0.14405700055E+03  0.94190696010E+02 -0.26082011073E+03  0.31249229876E+03  0.00000000000E+00 0. -1.
        -15    1    3    3    0    0  0.56621517817E+02  0.15093970293E+02 -0.99574821936E+02  0.11555140463E+03  0.17770000000E+01 0. -1.
         15    1    3    3    0    0  0.19372605739E+02 -0.66304034219E+02 -0.90538491748E+02  0.11389424491E+03  0.17770000000E+01 0.  1.
</event>
<event>
 7    1  0.5017129E-006  0.5086032E+03  0.7546771E-02  0.9380763E-01
        -11   -1    0    0    0    0  0.00000000000E+00  0.00000000000E+00  0.50000000000E+03  0.50000000000E+03  0.00000000000E+00 0. -1.
         11   -1    0    0    0    0 -0.00000000000E+00 -0.00000000000E+00 -0.50000000000E+03  0.50000000000E+03  0.00000000000E+00 0. -1.
         23    2    1    2    0    0  0.89954684587E+02 -0.17270421670E+02  0.38143497216E+03  0.40307779557E+03  0.92676634315E+02 0.  0.
        -11    1    1    2    0    0 -0.14786424142E+02 -0.18253412576E+02  0.10287753119E+03  0.10552540847E+03  0.00000000000E+00 0. -1.
         11    1    1    2    0    0 -0.75168260444E+02  0.35523834246E+02 -0.48431250335E+03  0.49139679596E+03  0.00000000000E+00 0. -1.
        -15    1    3    3    0    0  0.10896281209E+03 -0.20566772613E+02  0.32161355456E+03  0.34019747612E+03  0.17770000000E+01 0. -1.
         15    1    3    3    0    0 -0.19008127503E+02  0.32963509429E+01  0.59821417598E+02  0.62880319442E+02  0.17770000000E+01 0.  1.
</event>
<event>
 6    1  0.3970441E-006  0.3328500E+03  0.7546771E-02  0.9878691E-01
        -11   -1    0    0    0    0  0.00000000000E+00  0.00000000000E+00  0.50000000000E+03  0.50000000000E+03  0.00000000000E+00 0. -1.
         11   -1    0    0    0    0 -0.00000000000E+00 -0.00000000000E+00 -0.50000000000E+03  0.50000000000E+03  0.00000000000E+00 0.  1.
        -11    1    1    2    0    0 -0.11013482445E+01 -0.35517494098E+02  0.99348371328E+02  0.10551210471E+03  0.00000000000E+00 0. -1.
         11    1    1    2    0    0  0.97528480840E+02  0.63025022314E+02 -0.18234662401E+03  0.21618105676E+03  0.00000000000E+00 0.  1.
        -15    1    1    2    0    0 -0.67068289313E+02  0.25155492806E+02  0.37416174519E+03  0.38096079003E+03  0.17770000000E+01 0. -1.
         15    1    1    2    0    0 -0.29358843283E+02 -0.52663021022E+02 -0.29116349250E+03  0.29734604850E+03  0.17770000000E+01 0.  1.
</event>
<event>
 7    1  0.3970441E-006  0.5274686E+03  0.7546771E-02  0.9340361E-01
        -11   -1    0    0    0    0  0.00000000000E+00  0.00000000000E+00  0.50000000000E+03  0.50000000000E+03  0.00000000000E+00 0. -1.
         11   -1    0    0    0    0 -0.00000000000E+00 -0.00000000000E+00 -0.50000000000E+03  0.50000000000E+03  0.00000000000E+00 0. -1.
         23    2    1    2    0    0  0.38354447162E+02  0.33050753309E+02  0.27895246536E+03  0.30966216903E+03  0.12455025125E+03 0.  0.
        -11    1    1    2    0    0  0.13899652486E+03 -0.54759249007E+02  0.15849615789E+03  0.21780643090E+03  0.00000000000E+00 0. -1.
         11    1    1    2    0    0 -0.17735097202E+03  0.21708495698E+02 -0.43744862325E+03  0.47253140007E+03  0.00000000000E+00 0. -1.
        -15    1    3    3    0    0 -0.30989570860E+02  0.11832986050E+02  0.19880947303E+03  0.20156571474E+03  0.17770000000E+01 0. -1.
         15    1    3    3    0    0  0.69344018022E+02  0.21217767259E+02  0.80142992329E+02  0.10809645430E+03  0.17770000000E+01 0.  1.
</event>
<event>
 7    1  0.3970441E-006  0.4304755E+03  0.7546771E-02  0.9570408E-01
        -11   -1    0    0    0    0  0.00000000000E+00  0.00000000000E+00  0.50000000000E+03  0.50000000000E+03  0.00000000000E+00 0.  1.
         11   -1    0    0    0    0 -0.00000000000E+00 -0.00000000000E+00 -0.50000000000E+03  0.50000000000E+03  0.00000000000E+00 0. -1.
         23    2    1    2    0    0  0.66438736967E+02 -0.13000808585E+02  0.70570604433E+02  0.13351283118E+03  0.90897409683E+02 0.  0.
        -11    1    1    2    0    0 -0.25125075570E+03  0.17927232762E+03  0.29331306262E+03  0.42579110183E+03  0.00000000000E+00 0.  1.
         11    1    1    2    0    0  0.18481201874E+03 -0.16627151904E+03 -0.36388366705E+03  0.44069606699E+03  0.00000000000E+00 0. -1.
        -15    1    3    3    0    0  0.40581326332E+02  0.36568679405E+02  0.49499426546E+02  0.73739157289E+02  0.17770000000E+01 0.  1.
         15    1    3    3    0    0  0.25857410635E+02 -0.49569487990E+02  0.21071177887E+02  0.59773673895E+02  0.17770000000E+01 0. -1.
</event>
<event>
 7    1  0.3970441E-006  0.5039208E+03  0.7546771E-02  0.9391079E-01
        -11   -1    0    0    0    0  0.00000000000E+00  0.00000000000E+00  0.50000000000E+03  0.50000000000E+03  0.00000000000E+00 0. -1.
         11   -1    0    0    0    0 -0.00000000000E+00 -0.00000000000E+00 -0.50000000000E+03  0.50000000000E+03  0.00000000000E+00 0.  1.
         23    2    1    2    0    0 -0.18455416444E+03  0.25112450770E+02 -0.45064723439E+03  0.49607915200E+03  0.91217982819E+02 0.  0.
        -11    1    1    2    0    0  0.11326643618E+03 -0.14467460602E+01  0.39366833119E+03  0.40964146961E+03  0.00000000000E+00 0. -1.
         11    1    1    2    0    0  0.71287728260E+02 -0.23665704710E+02  0.56978903198E+02  0.94279378390E+02  0.00000000000E+00 0.  1.
        -15    1    3    3    0    0 -0.11034146825E+03  0.59665972064E+02 -0.26692890874E+03  0.29493976994E+03  0.17770000000E+01 0.  1.
         15    1    3    3    0    0 -0.74212696191E+02 -0.34553521294E+02 -0.18371832565E+03  0.20113938207E+03  0.17770000000E+01 0. -1.
</event>
<event>
 7    1  0.3970441E-006  0.3803227E+03  0.7546771E-02  0.9716397E-01
        -11   -1    0    0    0    0  0.00000000000E+00  0.00000000000E+00  0.50000000000E+03  0.50000000000E+03  0.00000000000E+00 0. -1.
         11   -1    0    0    0    0 -0.00000000000E+00 -0.00000000000E+00 -0.50000000000E+03  0.50000000000E+03  0.00000000000E+00 0. -1.
         23    2    1    2    0    0  0.10392766060E+03 -0.69940650012E+02 -0.14910914115E+03  0.21482009243E+03  0.90672393687E+02 0.  0.
        -11    1    1    2    0    0  0.75985478855E+02  0.23691228746E+03  0.37603977636E+03  0.45089592851E+03  0.00000000000E+00 0. -1.
         11    1    1    2    0    0 -0.17991313945E+03 -0.16697163744E+03 -0.22693063521E+03  0.33428397906E+03  0.00000000000E+00 0. -1.
        -15    1    3    3    0    0  0.72276240620E+02 -0.80113968414E+02 -0.14575858802E+03  0.18135828242E+03  0.17770000000E+01 0. -1.
         15    1    3    3    0    0  0.31651419980E+02  0.10173318402E+02 -0.33505531337E+01  0.33461810013E+02  0.17770000000E+01 0.  1.
</event>
<event>
 7    1  0.3970441E-006  0.3354439E+03  0.7546771E-02  0.9869091E-01
        -11   -1    0    0    0    0  0.00000000000E+00  0.00000000000E+00  0.50000000000E+03  0.50000000000E+03  0.00000000000E+00 0. -1.
         11   -1    0    0    0    0 -0.00000000000E+00 -0.00000000000E+00 -0.50000000000E+03  0.50000000000E+03  0.00000000000E+00 0. -1.
         23    2    1    2    0    0  0.19835579629E+03  0.30669826253E+02 -0.17168175033E+03  0.27899332874E+03  0.89872097575E+02 0.  0.
        -11    1    1    2    0    0 -0.45723640561E+02 -0.95470462046E+02  0.41403682278E+03  0.42735436238E+03  0.00000000000E+00 0. -1.
         11    1    1    2    0    0 -0.15263215573E+03  0.64800635793E+02 -0.24235507246E+03  0.29365230887E+03  0.00000000000E+00 0. -1.
        -15    1    3    3    0    0  0.11841532017E+03  0.45951329679E+02 -0.59212344058E+02  0.14015338800E+03  0.17770000000E+01 0. -1.
         15    1    3    3    0    0  0.79940476120E+02 -0.15281503426E+02 -0.11246940627E+03  0.13883994074E+03  0.17770000000E+01 0.  1.
</event>
<event>
 7    1  0.3970441E-006  0.4032052E+03  0.7546771E-02  0.9646978E-01
        -11   -1    0    0    0    0  0.00000000000E+00  0.00000000000E+00  0.50000000000E+03  0.50000000000E+03  0.00000000000E+00 0.  1.
         11   -1    0    0    0    0 -0.00000000000E+00 -0.00000000000E+00 -0.50000000000E+03  0.50000000000E+03  0.00000000000E+00 0. -1.
         23    2    1    2    0    0  0.10128886914E+03 -0.40806725727E+03 -0.47487191026E+02  0.43280713217E+03  0.91042072054E+02 0.  0.
        -11    1    1    2    0    0 -0.15823981732E+03  0.30392822830E+02  0.87157746293E+02  0.18319398517E+03  0.00000000000E+00 0. -1.
         11    1    1    2    0    0  0.56950948181E+02  0.37767443444E+03 -0.39670555267E+02  0.38399888266E+03  0.00000000000E+00 0.  1.
        -15    1    3    3    0    0  0.10729774148E+03 -0.39777651861E+03 -0.32074942538E+02  0.41324438744E+03  0.17770000000E+01 0. -1.
         15    1    3    3    0    0 -0.60088723458E+01 -0.10290738659E+02 -0.15412248488E+02  0.19562744733E+02  0.17770000000E+01 0.  1.
</event>
<event>
 7    1  0.3970441E-006  0.5156526E+03  0.7546771E-02  0.9365451E-01
        -11   -1    0    0    0    0  0.00000000000E+00  0.00000000000E+00  0.50000000000E+03  0.50000000000E+03  0.00000000000E+00 0.  1.
         11   -1    0    0    0    0 -0.00000000000E+00 -0.00000000000E+00 -0.50000000000E+03  0.50000000000E+03  0.00000000000E+00 0.  1.
         23    2    1    2    0    0 -0.56445036082E+02 -0.48513116728E+02  0.12262326815E+03  0.16923481275E+03  0.89801956339E+02 0.  0.
        -11    1    1    2    0    0 -0.20946555904E+03 -0.32717787340E+02  0.27396904311E+03  0.34641782664E+03  0.00000000000E+00 0.  1.
         11    1    1    2    0    0  0.26591059512E+03  0.81230904068E+02 -0.39659231126E+03  0.48434736061E+03  0.00000000000E+00 0.  1.
        -15    1    3    3    0    0 -0.51930401853E+02  0.12894689699E+02  0.43633608829E+02  0.69065832417E+02  0.17770000000E+01 0.  1.
         15    1    3    3    0    0 -0.45146342285E+01 -0.61407806428E+02  0.78989659325E+02  0.10016898034E+03  0.17770000000E+01 0. -1.
</event>
<event>
 7    1  0.3970441E-006  0.4269338E+03  0.7546771E-02  0.9580005E-01
        -11   -1    0    0    0    0  0.00000000000E+00  0.00000000000E+00  0.50000000000E+03  0.50000000000E+03  0.00000000000E+00 0.  1.
         11   -1    0    0    0    0 -0.00000000000E+00 -0.00000000000E+00 -0.50000000000E+03  0.50000000000E+03  0.00000000000E+00 0. -1.
         23    2    1    2    0    0 -0.95661000799E+02  0.13667495204E+02 -0.42282792381E+02  0.13964210515E+03  0.91510958362E+02 0.  0.
        -11    1    1    2    0    0  0.97012340028E+02  0.10449472644E+03  0.43105385586E+03  0.45402419388E+03  0.00000000000E+00 0.  1.
         11    1    1    2    0    0 -0.13513392294E+01 -0.11816222165E+03 -0.38877106348E+03  0.40633370097E+03  0.00000000000E+00 0. -1.
        -15    1    3    3    0    0 -0.71204403552E+02  0.42583715977E+02 -0.55109650516E+02  0.99617625251E+02  0.17770000000E+01 0.  1.
         15    1    3    3    0    0 -0.24456597247E+02 -0.28916220773E+02  0.12826858135E+02  0.40024479900E+02  0.17770000000E+01 0. -1.
</event>
<event>
 7    1  0.3970441E-006  0.3804618E+03  0.7546771E-02  0.9715959E-01
        -11   -1    0    0    0    0  0.00000000000E+00  0.00000000000E+00  0.50000000000E+03  0.50000000000E+03  0.00000000000E+00 0. -1.
         11   -1    0    0    0    0 -0.00000000000E+00 -0.00000000000E+00 -0.50000000000E+03  0.50000000000E+03  0.00000000000E+00 0.  1.
         23    2    1    2    0    0 -0.10611376276E+02 -0.15473612537E+03 -0.11648459302E+03  0.21474258436E+03  0.92140367520E+02 0.  0.
        -11    1    1    2    0    0 -0.88821975303E+02  0.60171105988E+02  0.42991822166E+03  0.44310222591E+03  0.00000000000E+00 0. -1.
         11    1    1    2    0    0  0.99433351579E+02  0.94565019381E+02 -0.31343362864E+03  0.34215518973E+03  0.00000000000E+00 0.  1.
        -15    1    3    3    0    0 -0.25736919230E+02 -0.11101127625E+03 -0.31957848286E+02  0.11836534231E+03  0.17770000000E+01 0. -1.
         15    1    3    3    0    0  0.15125542954E+02 -0.43724849123E+02 -0.84526744732E+02  0.96377242046E+02  0.17770000000E+01 0.  1.
</event>
<event>
 7    1  0.3970441E-006  0.5250559E+03  0.7546771E-02  0.9345427E-01
        -11   -1    0    0    0    0  0.00000000000E+00  0.00000000000E+00  0.50000000000E+03  0.50000000000E+03  0.00000000000E+00 0.  1.
         11   -1    0    0    0    0 -0.00000000000E+00 -0.00000000000E+00 -0.50000000000E+03  0.50000000000E+03  0.00000000000E+00 0. -1.
         23    2    1    2    0    0 -0.46975576693E+02  0.65327894317E+02 -0.15629653749E+03  0.20043800368E+03  0.96293027305E+02 0.  0.
        -11    1    1    2    0    0  0.81795642074E+02  0.20594833249E+02  0.46739403571E+03  0.47494405864E+03  0.00000000000E+00 0.  1.
         11    1    1    2    0    0 -0.34820065381E+02 -0.85922727566E+02 -0.31109749822E+03  0.32461793768E+03  0.00000000000E+00 0. -1.
        -15    1    3    3    0    0  0.10548619279E+02  0.55363880321E+02 -0.11746978827E+03  0.13030249997E+03  0.17770000000E+01 0. -1.
         15    1    3    3    0    0 -0.57524195972E+02  0.99640139963E+01 -0.38826749215E+02  0.70135503711E+02  0.17770000000E+01 0.  1.
</event>
<event>
 7    1  0.3970441E-006  0.4446811E+03  0.7546771E-02  0.9532879E-01
        -11   -1    0    0    0    0  0.00000000000E+00  0.00000000000E+00  0.50000000000E+03  0.50000000000E+03  0.00000000000E+00 0.  1.
         11   -1    0    0    0    0 -0.00000000000E+00 -0.00000000000E+00 -0.50000000000E+03  0.50000000000E+03  0.00000000000E+00 0. -1.
         23    2    1    2    0    0 -0.30111195926E+02  0.85260134671E+02 -0.43082591371E+03  0.44965897016E+03  0.91685586838E+02 0.  0.
        -11    1    1    2    0    0 -0.68772369276E+02 -0.30633057700E+02  0.43084330176E+03  0.43737166538E+03  0.00000000000E+00 0.  1.
         11    1    1    2    0    0  0.98883565203E+02 -0.54627076971E+02 -0.17388054004E-01  0.11296936447E+03  0.00000000000E+00 0. -1.
        -15    1    3    3    0    0  0.31317213379E+02  0.17958914424E+02 -0.93651695656E+02  0.10038470147E+03  0.17770000000E+01 0.  1.
         15    1    3    3    0    0 -0.61428409306E+02  0.67301220248E+02 -0.33717421805E+03  0.34927426869E+03  0.17770000000E+01 0. -1.
</event>
<event>
 7    1  0.3970441E-006  0.5426644E+03  0.7546771E-02  0.9309100E-01
        -11   -1    0    0    0    0  0.00000000000E+00  0.00000000000E+00  0.50000000000E+03  0.50000000000E+03  0.00000000000E+00 0.  1.
         11   -1    0    0    0    0 -0.00000000000E+00 -0.00000000000E+00 -0.50000000000E+03  0.50000000000E+03  0.00000000000E+00 0.  1.
         23    2    1    2    0    0 -0.93384704394E+02  0.39631221423E+02 -0.20522922703E+03  0.24598203802E+03  0.89982168644E+02 0.  0.
        -11    1    1    2    0    0 -0.25169729924E+02  0.79646965243E+02  0.44964281993E+03  0.45733556596E+03  0.00000000000E+00 0.  1.
         11    1    1    2    0    0  0.11855443432E+03 -0.11927818667E+03 -0.24441359290E+03  0.29668239602E+03  0.00000000000E+00 0.  1.
        -15    1    3    3    0    0 -0.14438326575E+02 -0.28017984634E+02 -0.50722117676E+02  0.59744151912E+02  0.17770000000E+01 0.  1.
         15    1    3    3    0    0 -0.78946377820E+02  0.67649206058E+02 -0.15450710936E+03  0.18623788611E+03  0.17770000000E+01 0. -1.
</event>
<event>
 7    1  0.3970441E-006  0.5162205E+03  0.7546771E-02  0.9364229E-01
        -11   -1    0    0    0    0  0.00000000000E+00  0.00000000000E+00  0.50000000000E+03  0.50000000000E+03  0.00000000000E+00 0. -1.
         11   -1    0    0    0    0 -0.00000000000E+00 -0.00000000000E+00 -0.50000000000E+03  0.50000000000E+03  0.00000000000E+00 0.  1.
         23    2    1    2    0    0  0.20538112597E+02  0.53934702743E+02 -0.31799636837E+03  0.33604986616E+03  0.92070929284E+02 0.  0.
        -11    1    1    2    0    0 -0.79885085017E+02  0.62846903051E+01  0.47709697469E+03  0.48377954421E+03  0.00000000000E+00 0. -1.
         11    1    1    2    0    0  0.59346972420E+02 -0.60219393048E+02 -0.15910060632E+03  0.18017058963E+03  0.00000000000E+00 0.  1.
        -15    1    3    3    0    0  0.48028889309E+02  0.49196802485E+02 -0.28312030730E+03  0.29135436451E+03  0.17770000000E+01 0.  1.
         15    1    3    3    0    0 -0.27490776712E+02  0.47379002577E+01 -0.34876061074E+02  0.44695501654E+02  0.17770000000E+01 0. -1.
</event>
<event>
 7    1  0.3970441E-006  0.3831926E+03  0.7546771E-02  0.9707408E-01
        -11   -1    0    0    0    0  0.00000000000E+00  0.00000000000E+00  0.50000000000E+03  0.50000000000E+03  0.00000000000E+00 0.  1.
         11   -1    0    0    0    0 -0.00000000000E+00 -0.00000000000E+00 -0.50000000000E+03  0.50000000000E+03  0.00000000000E+00 0.  1.
         23    2    1    2    0    0 -0.11313106455E+03 -0.10066193949E+03 -0.11370103251E+03  0.21056622502E+03  0.92080109133E+02 0.  0.
        -11    1    1    2    0    0 -0.36992743486E+02  0.65403803822E+02  0.43054649402E+03  0.43705423478E+03  0.00000000000E+00 0.  1.
         11    1    1    2    0    0  0.15012380804E+03  0.35258135669E+02 -0.31684546151E+03  0.35237954020E+03  0.00000000000E+00 0.  1.
        -15    1    3    3    0    0 -0.12573880122E+03 -0.10380136842E+03 -0.98541614961E+02  0.19052185656E+03  0.17770000000E+01 0. -1.
         15    1    3    3    0    0  0.12607736665E+02  0.31394289314E+01 -0.15159417546E+02  0.20044368465E+02  0.17770000000E+01 0.  1.
</event>
<event>
 7    1  0.3970441E-006  0.3362658E+03  0.7546771E-02  0.9866068E-01
        -11   -1    0    0    0    0  0.00000000000E+00  0.00000000000E+00  0.50000000000E+03  0.50000000000E+03  0.00000000000E+00 0.  1.
         11   -1    0    0    0    0 -0.00000000000E+00 -0.00000000000E+00 -0.50000000000E+03  0.50000000000E+03  0.00000000000E+00 0. -1.
         23    2    1    2    0    0 -0.65892469463E+02 -0.29847535915E+03 -0.12455929358E+03  0.34210526408E+03  0.89953524326E+02 0.  0.
        -11    1    1    2    0    0 -0.11153457411E+03  0.18127687162E+03  0.30981042027E+03  0.37587732296E+03  0.00000000000E+00 0.  1.
         11    1    1    2    0    0  0.17742704358E+03  0.11719848753E+03 -0.18525112669E+03  0.28201741296E+03  0.00000000000E+00 0. -1.
        -15    1    3    3    0    0 -0.69494237057E+02 -0.24607622313E+03 -0.67362519729E+02  0.26443113162E+03  0.17770000000E+01 0.  1.
         15    1    3    3    0    0  0.36017675936E+01 -0.52399136020E+02 -0.57196773849E+02  0.77674132458E+02  0.17770000000E+01 0. -1.
</event>
<event>
 7    1  0.3970441E-006  0.4643687E+03  0.7546771E-02  0.9483269E-01
        -11   -1    0    0    0    0  0.00000000000E+00  0.00000000000E+00  0.50000000000E+03  0.50000000000E+03  0.00000000000E+00 0.  1.
         11   -1    0    0    0    0 -0.00000000000E+00 -0.00000000000E+00 -0.50000000000E+03  0.50000000000E+03  0.00000000000E+00 0. -1.
         23    2    1    2    0    0 -0.23727467926E+02  0.82686988270E+02 -0.42226040987E+03  0.44095510203E+03  0.93474154166E+02 0.  0.
        -11    1    1    2    0    0  0.14239700966E+02 -0.15136508964E+03  0.45690858537E+03  0.48153879889E+03  0.00000000000E+00 0.  1.
         11    1    1    2    0    0  0.94877669594E+01  0.68678101373E+02 -0.34648175501E+02  0.77506099087E+02  0.00000000000E+00 0. -1.
        -15    1    3    3    0    0 -0.36299528776E+02  0.15615315968E+02 -0.57060858030E+02  0.69430491358E+02  0.17770000000E+01 0.  1.
         15    1    3    3    0    0  0.12572060851E+02  0.67071672302E+02 -0.36519955184E+03  0.37152461067E+03  0.17770000000E+01 0. -1.
</event>
<event>
 7    1  0.3970441E-006  0.5201538E+03  0.7546771E-02  0.9355810E-01
        -11   -1    0    0    0    0  0.00000000000E+00  0.00000000000E+00  0.50000000000E+03  0.50000000000E+03  0.00000000000E+00 0.  1.
         11   -1    0    0    0    0 -0.00000000000E+00 -0.00000000000E+00 -0.50000000000E+03  0.50000000000E+03  0.00000000000E+00 0.  1.
         23    2    1    2    0    0  0.31529386133E+02 -0.44685010084E+02 -0.29382467851E+03  0.31271622143E+03  0.92019786612E+02 0.  0.
        -11    1    1    2    0    0  0.77065363477E+02  0.57763268228E+02  0.47008158152E+03  0.47984618232E+03  0.00000000000E+00 0.  1.
         11    1    1    2    0    0 -0.10859474961E+03 -0.13078258144E+02 -0.17625690301E+03  0.20743759625E+03  0.00000000000E+00 0.  1.
        -15    1    3    3    0    0  0.26031318216E+02  0.26474004871E+01 -0.15769146948E+02  0.30601666325E+02  0.17770000000E+01 0. -1.
         15    1    3    3    0    0  0.54980679168E+01 -0.47332410571E+02 -0.27805553156E+03  0.28211455510E+03  0.17770000000E+01 0.  1.
</event>
<event>
 7    1  0.3970441E-006  0.4828013E+03  0.7546771E-02  0.9439137E-01
        -11   -1    0    0    0    0  0.00000000000E+00  0.00000000000E+00  0.50000000000E+03  0.50000000000E+03  0.00000000000E+00 0.  1.
         11   -1    0    0    0    0 -0.00000000000E+00 -0.00000000000E+00 -0.50000000000E+03  0.50000000000E+03  0.00000000000E+00 0. -1.
         23    2    1    2    0    0  0.96536724343E+02  0.19661204194E+03  0.41658244044E+03  0.47880363604E+03  0.87956568954E+02 0.  0.
        -11    1    1    2    0    0 -0.38330185056E+02  0.10811999150E+02  0.11931432623E+02  0.41574769951E+02  0.00000000000E+00 0.  1.
         11    1    1    2    0    0 -0.58206539287E+02 -0.20742404109E+03 -0.42851387306E+03  0.47962159401E+03  0.00000000000E+00 0. -1.
        -15    1    3    3    0    0  0.16250502364E+02  0.87187425067E+02  0.24146475676E+03  0.25724329419E+03  0.17770000000E+01 0. -1.
         15    1    3    3    0    0  0.80286221979E+02  0.10942461687E+03  0.17511768367E+03  0.22156034185E+03  0.17770000000E+01 0.  1.
</event>
<event>
 7    1  0.3970441E-006  0.3374943E+03  0.7546771E-02  0.9861567E-01
        -11   -1    0    0    0    0  0.00000000000E+00  0.00000000000E+00  0.50000000000E+03  0.50000000000E+03  0.00000000000E+00 0. -1.
         11   -1    0    0    0    0 -0.00000000000E+00 -0.00000000000E+00 -0.50000000000E+03  0.50000000000E+03  0.00000000000E+00 0. -1.
         23    2    1    2    0    0  0.88470213479E+02  0.20147575029E+03 -0.14021354666E+03  0.27633644551E+03  0.91008438192E+02 0.  0.
        -11    1    1    2    0    0 -0.97199917874E+02  0.12969223432E+03  0.31118646253E+03  0.35086309885E+03  0.00000000000E+00 0. -1.
         11    1    1    2    0    0  0.87297043950E+01 -0.33116798461E+03 -0.17097291587E+03  0.37280045564E+03  0.00000000000E+00 0. -1.
        -15    1    3    3    0    0  0.55194583764E+02  0.41380980648E+02 -0.70245933639E+02  0.98470688827E+02  0.17770000000E+01 0.  1.
         15    1    3    3    0    0  0.33275629715E+02  0.16009476964E+03 -0.69967613021E+02  0.17786575668E+03  0.17770000000E+01 0. -1.
</event>
<event>
 7    1  0.3970441E-006  0.4152653E+03  0.7546771E-02  0.9612342E-01
        -11   -1    0    0    0    0  0.00000000000E+00  0.00000000000E+00  0.50000000000E+03  0.50000000000E+03  0.00000000000E+00 0.  1.
         11   -1    0    0    0    0 -0.00000000000E+00 -0.00000000000E+00 -0.50000000000E+03  0.50000000000E+03  0.00000000000E+00 0. -1.
         23    2    1    2    0    0  0.29481513962E+02  0.56055773965E+02 -0.37832482392E+03  0.39429015241E+03  0.91233998234E+02 0.  0.
        -11    1    1    2    0    0 -0.10442977679E+02  0.97456871789E+02  0.43122654846E+03  0.44222532010E+03  0.00000000000E+00 0.  1.
         11    1    1    2    0    0 -0.19038536283E+02 -0.15351264575E+03 -0.52901724537E+02  0.16348452749E+03  0.00000000000E+00 0. -1.
        -15    1    3    3    0    0  0.39785767495E+02  0.54318340409E+02 -0.37771462060E+03  0.38367288377E+03  0.17770000000E+01 0. -1.
         15    1    3    3    0    0 -0.10304253534E+02  0.17374335555E+01 -0.61020332228E+00  0.10617268638E+02  0.17770000000E+01 0.  1.
</event>
<event>
 7    1  0.3970441E-006  0.5279221E+03  0.7546771E-02  0.9339412E-01
        -11   -1    0    0    0    0  0.00000000000E+00  0.00000000000E+00  0.50000000000E+03  0.50000000000E+03  0.00000000000E+00 0.  1.
         11   -1    0    0    0    0 -0.00000000000E+00 -0.00000000000E+00 -0.50000000000E+03  0.50000000000E+03  0.00000000000E+00 0. -1.
         23    2    1    2    0    0 -0.24004785994E+02 -0.14095814716E+03 -0.22349827412E+03  0.28059575553E+03  0.91307559872E+02 0.  0.
        -11    1    1    2    0    0 -0.14217237781E+02  0.37814736018E+03  0.28224092727E+03  0.47207785045E+03  0.00000000000E+00 0.  1.
         11    1    1    2    0    0  0.38222023775E+02 -0.23718921303E+03 -0.58742653149E+02  0.24732639401E+03  0.00000000000E+00 0. -1.
        -15    1    3    3    0    0  0.82547227348E+01 -0.81748635575E+02 -0.18617478106E+03  0.20350721535E+03  0.17770000000E+01 0.  1.
         15    1    3    3    0    0 -0.32259508729E+02 -0.59209511582E+02 -0.37323493054E+02  0.77088540185E+02  0.17770000000E+01 0. -1.
</event>
<event>
 7    1  0.3970441E-006  0.4810778E+03  0.7546771E-02  0.9443174E-01
        -11   -1    0    0    0    0  0.00000000000E+00  0.00000000000E+00  0.50000000000E+03  0.50000000000E+03  0.00000000000E+00 0. -1.
         11   -1    0    0    0    0 -0.00000000000E+00 -0.00000000000E+00 -0.50000000000E+03  0.50000000000E+03  0.00000000000E+00 0.  1.
         23    2    1    2    0    0 -0.77508030683E+02 -0.10683972389E+03  0.43789821628E+03  0.46609253088E+03  0.89806336661E+02 0.  0.
        -11    1    1    2    0    0  0.28105727952E+02 -0.90169467515E+01  0.34270227038E+02  0.45229257496E+02  0.00000000000E+00 0. -1.
         11    1    1    2    0    0  0.49402302730E+02  0.11585667064E+03 -0.47216844332E+03  0.48867821162E+03  0.00000000000E+00 0.  1.
        -15    1    3    3    0    0 -0.54693537718E+02 -0.92214681108E+01  0.20811924148E+03  0.21539079587E+03  0.17770000000E+01 0. -1.
         15    1    3    3    0    0 -0.22814492964E+02 -0.97618255779E+02  0.22977897480E+03  0.25070173502E+03  0.17770000000E+01 0.  1.
</event>
<event>
 7    1  0.3970441E-006  0.5287895E+03  0.7546771E-02  0.9337599E-01
        -11   -1    0    0    0    0  0.00000000000E+00  0.00000000000E+00  0.50000000000E+03  0.50000000000E+03  0.00000000000E+00 0. -1.
         11   -1    0    0    0    0 -0.00000000000E+00 -0.00000000000E+00 -0.50000000000E+03  0.50000000000E+03  0.00000000000E+00 0.  1.
         23    2    1    2    0    0  0.24351095813E+02 -0.26255584480E+01  0.26453436448E+03  0.28087845744E+03  0.91183378065E+02 0.  0.
        -11    1    1    2    0    0  0.48687171596E+02  0.17627632744E+03  0.16738013868E+03  0.24791106292E+03  0.00000000000E+00 0. -1.
         11    1    1    2    0    0 -0.73038267409E+02 -0.17365076899E+03 -0.43191450317E+03  0.47121047964E+03  0.00000000000E+00 0.  1.
        -15    1    3    3    0    0  0.21560996341E+02 -0.40595021752E+02  0.78541007283E+02  0.91020217031E+02  0.17770000000E+01 0.  1.
         15    1    3    3    0    0  0.27900994711E+01  0.37969463304E+02  0.18599335720E+03  0.18985824041E+03  0.17770000000E+01 0. -1.
</event>
<event>
 7    1  0.3970441E-006  0.4038937E+03  0.7546771E-02  0.9644966E-01
        -11   -1    0    0    0    0  0.00000000000E+00  0.00000000000E+00  0.50000000000E+03  0.50000000000E+03  0.00000000000E+00 0.  1.
         11   -1    0    0    0    0 -0.00000000000E+00 -0.00000000000E+00 -0.50000000000E+03  0.50000000000E+03  0.00000000000E+00 0. -1.
         23    2    1    2    0    0 -0.13986994032E+02  0.22721813117E+03 -0.28904558069E+03  0.38856783693E+03  0.12495559632E+03 0.  0.
        -11    1    1    2    0    0  0.93461089698E+02 -0.95763674951E+02  0.40009865043E+03  0.42188219541E+03  0.00000000000E+00 0.  1.
         11    1    1    2    0    0 -0.79474095666E+02 -0.13145445621E+03 -0.11105306974E+03  0.18954996766E+03  0.00000000000E+00 0. -1.
        -15    1    3    3    0    0  0.12618622903E+02  0.21479038672E+03 -0.19626182666E+03  0.29123187017E+03  0.17770000000E+01 0.  1.
         15    1    3    3    0    0 -0.26605616935E+02  0.12427744444E+02 -0.92783754029E+02  0.97335966760E+02  0.17770000000E+01 0.  1.
</event>
<event>
 7    1  0.3970441E-006  0.4664184E+03  0.7546771E-02  0.9478254E-01
        -11   -1    0    0    0    0  0.00000000000E+00  0.00000000000E+00  0.50000000000E+03  0.50000000000E+03  0.00000000000E+00 0.  1.
         11   -1    0    0    0    0 -0.00000000000E+00 -0.00000000000E+00 -0.50000000000E+03  0.50000000000E+03  0.00000000000E+00 0. -1.
         23    2    1    2    0    0 -0.89594796363E+02  0.22611627774E+02 -0.41573291687E+03  0.43567399435E+03  0.91866522433E+02 0.  0.
        -11    1    1    2    0    0  0.99582904117E+02 -0.62249443500E+02  0.47668383407E+03  0.49093708932E+03  0.00000000000E+00 0.  1.
         11    1    1    2    0    0 -0.99881077546E+01  0.39637815727E+02 -0.60950917201E+02  0.73388916327E+02  0.00000000000E+00 0. -1.
        -15    1    3    3    0    0 -0.68662386828E+02 -0.28420297268E+02 -0.21468972408E+03  0.22719390841E+03  0.17770000000E+01 0. -1.
         15    1    3    3    0    0 -0.20932409534E+02  0.51031925042E+02 -0.20104319278E+03  0.20848008595E+03  0.17770000000E+01 0.  1.
</event>
<event>
 7    1  0.3970441E-006  0.3973889E+03  0.7546771E-02  0.9664147E-01
        -11   -1    0    0    0    0  0.00000000000E+00  0.00000000000E+00  0.50000000000E+03  0.50000000000E+03  0.00000000000E+00 0.  1.
         11   -1    0    0    0    0 -0.00000000000E+00 -0.00000000000E+00 -0.50000000000E+03  0.50000000000E+03  0.00000000000E+00 0. -1.
         23    2    1    2    0    0 -0.18083484381E+03  0.22518627231E+03  0.17412240742E+03  0.34941969547E+03  0.91462630869E+02 0.  0.
        -11    1    1    2    0    0 -0.17182248055E+02 -0.29486604583E+02  0.18953850379E+03  0.19258643233E+03  0.00000000000E+00 0.  1.
         11    1    1    2    0    0  0.19801709187E+03 -0.19569966773E+03 -0.36366091122E+03  0.45799387219E+03  0.00000000000E+00 0. -1.
        -15    1    3    3    0    0 -0.69983476468E+02  0.52771417568E+02  0.12859656536E+02  0.88606083233E+02  0.17770000000E+01 0.  1.
         15    1    3    3    0    0 -0.11085136734E+03  0.17241485474E+03  0.16126275089E+03  0.26081361224E+03  0.17770000000E+01 0. -1.
</event>
<event>
 7    1  0.3970441E-006  0.5147968E+03  0.7546771E-02  0.9367296E-01
        -11   -1    0    0    0    0  0.00000000000E+00  0.00000000000E+00  0.50000000000E+03  0.50000000000E+03  0.00000000000E+00 0. -1.
         11   -1    0    0    0    0 -0.00000000000E+00 -0.00000000000E+00 -0.50000000000E+03  0.50000000000E+03  0.00000000000E+00 0.  1.
         23    2    1    2    0    0  0.47539976969E+02  0.12457584904E+01 -0.23249834483E+03  0.25580523517E+03  0.95494694443E+02 0.  0.
        -11    1    1    2    0    0 -0.22726865248E+02 -0.79688139538E+02  0.47807469560E+03  0.48520317864E+03  0.00000000000E+00 0. -1.
         11    1    1    2    0    0 -0.24813111721E+02  0.78442381047E+02 -0.24557635078E+03  0.25899158619E+03  0.00000000000E+00 0.  1.
        -15    1    3    3    0    0  0.42350517436E+02  0.45433635211E+02 -0.13314865009E+03  0.14693366628E+03  0.17770000000E+01 0. -1.
         15    1    3    3    0    0  0.51894595325E+01 -0.44187876720E+02 -0.99349694734E+02  0.10887156889E+03  0.17770000000E+01 0.  1.
</event>
<event>
 7    1  0.3970441E-006  0.4097686E+03  0.7546771E-02  0.9627970E-01
        -11   -1    0    0    0    0  0.00000000000E+00  0.00000000000E+00  0.50000000000E+03  0.50000000000E+03  0.00000000000E+00 0.  1.
         11   -1    0    0    0    0 -0.00000000000E+00 -0.00000000000E+00 -0.50000000000E+03  0.50000000000E+03  0.00000000000E+00 0. -1.
         23    2    1    2    0    0  0.47796596296E+02 -0.13293455237E+03 -0.14845395929E+02  0.16824412752E+03  0.90164243644E+02 0.  0.
        -11    1    1    2    0    0  0.54657645156E+02  0.61923662869E+02  0.40956994247E+03  0.41781519357E+03  0.00000000000E+00 0.  1.
         11    1    1    2    0    0 -0.10245424145E+03  0.71010889502E+02 -0.39472454654E+03  0.41394067892E+03  0.00000000000E+00 0. -1.
        -15    1    3    3    0    0  0.45634439014E+02 -0.87040417005E+02 -0.50080357973E+02  0.11031652732E+03  0.17770000000E+01 0. -1.
         15    1    3    3    0    0  0.21621572819E+01 -0.45894135366E+02  0.35234962044E+02  0.57927600195E+02  0.17770000000E+01 0.  1.
</event>
<event>
 7    1  0.3970441E-006  0.5320544E+03  0.7546771E-02  0.9330810E-01
        -11   -1    0    0    0    0  0.00000000000E+00  0.00000000000E+00  0.50000000000E+03  0.50000000000E+03  0.00000000000E+00 0.  1.
         11   -1    0    0    0    0 -0.00000000000E+00 -0.00000000000E+00 -0.50000000000E+03  0.50000000000E+03  0.00000000000E+00 0.  1.
         23    2    1    2    0    0 -0.13547463194E+03 -0.10763866817E+02  0.20170053692E+02  0.16519218107E+03  0.91719075946E+02 0.  0.
        -11    1    1    2    0    0  0.41631345834E+03 -0.13901774205E+03  0.16226599754E+03  0.46794559744E+03  0.00000000000E+00 0.  1.
         11    1    1    2    0    0 -0.28083882640E+03  0.14978160887E+03 -0.18243605124E+03  0.36686222150E+03  0.00000000000E+00 0.  1.
        -15    1    3    3    0    0 -0.59390878447E+02 -0.17834201566E+02  0.53395222510E+02  0.81850734292E+02  0.17770000000E+01 0.  1.
         15    1    3    3    0    0 -0.76083753490E+02  0.70703347490E+01 -0.33225168818E+02  0.83341446775E+02  0.17770000000E+01 0. -1.
</event>
<event>
 7    1  0.3970441E-006  0.4236629E+03  0.7546771E-02  0.9588957E-01
        -11   -1    0    0    0    0  0.00000000000E+00  0.00000000000E+00  0.50000000000E+03  0.50000000000E+03  0.00000000000E+00 0.  1.
         11   -1    0    0    0    0 -0.00000000000E+00 -0.00000000000E+00 -0.50000000000E+03  0.50000000000E+03  0.00000000000E+00 0. -1.
         23    2    1    2    0    0 -0.98263701029E+02 -0.65325985343E+01 -0.37486172002E+03  0.39906680781E+03  0.95050398109E+02 0.  0.
        -11    1    1    2    0    0 -0.15006980335E+02  0.76705266191E+02  0.44399387509E+03  0.45082088287E+03  0.00000000000E+00 0.  1.
         11    1    1    2    0    0  0.11327068136E+03 -0.70172667657E+02 -0.69132155071E+02  0.15011230931E+03  0.00000000000E+00 0. -1.
        -15    1    3    3    0    0  0.49825917289E+01 -0.90733328313E+01 -0.28247909798E+00  0.10506622314E+02  0.17770000000E+01 0.  1.
         15    1    3    3    0    0 -0.10324629276E+03  0.25407342969E+01 -0.37457924092E+03  0.38856018550E+03  0.17770000000E+01 0. -1.
</event>
<event>
 6    1  0.5542171E-006  0.5137244E+03  0.7546771E-02  0.9369613E-01
        -11   -1    0    0    0    0  0.00000000000E+00  0.00000000000E+00  0.50000000000E+03  0.50000000000E+03  0.00000000000E+00 0.  1.
         11   -1    0    0    0    0 -0.00000000000E+00 -0.00000000000E+00 -0.50000000000E+03  0.50000000000E+03  0.00000000000E+00 0. -1.
        -11    1    1    2    0    0  0.13620915238E+02 -0.22998801799E+02  0.15533575641E+03  0.15761875344E+03  0.00000000000E+00 0.  1.
         11    1    1    2    0    0 -0.10136455120E+03  0.80977439927E+02 -0.46864895240E+03  0.48627559943E+03  0.00000000000E+00 0. -1.
        -15    1    1    2    0    0  0.10589175290E+03 -0.76860995274E+02  0.29859658981E+03  0.32601189718E+03  0.17770000000E+01 0.  1.
         15    1    1    2    0    0 -0.18148116936E+02  0.18882357146E+02  0.14716606186E+02  0.30093749955E+02  0.17770000000E+01 0. -1.
</event>
<event>
 7    1  0.3970441E-006  0.4013607E+03  0.7546771E-02  0.9652389E-01
        -11   -1    0    0    0    0  0.00000000000E+00  0.00000000000E+00  0.50000000000E+03  0.50000000000E+03  0.00000000000E+00 0.  1.
         11   -1    0    0    0    0 -0.00000000000E+00 -0.00000000000E+00 -0.50000000000E+03  0.50000000000E+03  0.00000000000E+00 0.  1.
         23    2    1    2    0    0  0.95382880916E+02  0.10460693639E+03 -0.31551421795E+03  0.35736343352E+03  0.90104920939E+02 0.  0.
        -11    1    1    2    0    0  0.40696706451E+02 -0.10604992456E+03  0.44229260526E+03  0.45664598661E+03  0.00000000000E+00 0.  1.
         11    1    1    2    0    0 -0.13607958737E+03  0.14429881758E+01 -0.12677838731E+03  0.18599057987E+03  0.00000000000E+00 0.  1.
        -15    1    3    3    0    0 -0.12682678918E+02  0.13306438887E+02 -0.10772261670E+02  0.21380154603E+02  0.17770000000E+01 0. -1.
         15    1    3    3    0    0  0.10806555983E+03  0.91300497499E+02 -0.30474195628E+03  0.33598327892E+03  0.17770000000E+01 0.  1.
</event>
<event>
 7    1  0.3970441E-006  0.3302959E+03  0.7546771E-02  0.9888237E-01
        -11   -1    0    0    0    0  0.00000000000E+00  0.00000000000E+00  0.50000000000E+03  0.50000000000E+03  0.00000000000E+00 0.  1.
         11   -1    0    0    0    0 -0.00000000000E+00 -0.00000000000E+00 -0.50000000000E+03  0.50000000000E+03  0.00000000000E+00 0. -1.
         23    2    1    2    0    0 -0.24907354063E+03 -0.51429258784E+02 -0.16646814564E+03  0.31714620653E+03  0.90484669988E+02 0.  0.
        -11    1    1    2    0    0  0.16901886941E+03 -0.19562335260E+03  0.29569927092E+03  0.39277720545E+03  0.00000000000E+00 0.  1.
         11    1    1    2    0    0  0.80054671221E+02  0.24705261139E+03 -0.12923112528E+03  0.29007658802E+03  0.00000000000E+00 0. -1.
        -15    1    3    3    0    0 -0.50186337327E+02  0.24787405199E+02 -0.45775092573E+02  0.72329805335E+02  0.17770000000E+01 0.  1.
         15    1    3    3    0    0 -0.19888720330E+03 -0.76216663983E+02 -0.12069305306E+03  0.24481640119E+03  0.17770000000E+01 0. -1.
</event>
<event>
 7    1  0.3970441E-006  0.5340977E+03  0.7546771E-02  0.9326588E-01
        -11   -1    0    0    0    0  0.00000000000E+00  0.00000000000E+00  0.50000000000E+03  0.50000000000E+03  0.00000000000E+00 0. -1.
         11   -1    0    0    0    0 -0.00000000000E+00 -0.00000000000E+00 -0.50000000000E+03  0.50000000000E+03  0.00000000000E+00 0. -1.
         23    2    1    2    0    0 -0.64933177947E+02 -0.24145998990E+02 -0.18135641233E+03  0.21459282881E+03  0.91436245644E+02 0.  0.
        -11    1    1    2    0    0  0.43357838680E+02  0.28275245334E+03  0.36774462252E+03  0.46590230676E+03  0.00000000000E+00 0. -1.
         11    1    1    2    0    0  0.21575339267E+02 -0.25860645435E+03 -0.18638821020E+03  0.31950486444E+03  0.00000000000E+00 0. -1.
        -15    1    3    3    0    0 -0.48611223098E+02 -0.13093096697E+02 -0.18727723536E+03  0.19393401147E+03  0.17770000000E+01 0. -1.
         15    1    3    3    0    0 -0.16321954849E+02 -0.11052902293E+02  0.59208230350E+01  0.20658817333E+02  0.17770000000E+01 0.  1.
</event>
<event>
 7    1  0.3970441E-006  0.5195762E+03  0.7546771E-02  0.9357041E-01
        -11   -1    0    0    0    0  0.00000000000E+00  0.00000000000E+00  0.50000000000E+03  0.50000000000E+03  0.00000000000E+00 0.  1.
         11   -1    0    0    0    0 -0.00000000000E+00 -0.00000000000E+00 -0.50000000000E+03  0.50000000000E+03  0.00000000000E+00 0. -1.
         23    2    1    2    0    0 -0.14379458158E+02 -0.13546347958E+03  0.14184402214E+03  0.21710143668E+03  0.91957512339E+02 0.  0.
        -11    1    1    2    0    0  0.73593632611E+02 -0.85360286669E+02  0.28069304118E+03  0.30247476699E+03  0.00000000000E+00 0.  1.
         11    1    1    2    0    0 -0.59214174452E+02  0.22082376625E+03 -0.42253706332E+03  0.48042379633E+03  0.00000000000E+00 0. -1.
        -15    1    3    3    0    0 -0.51005250427E+02 -0.50502577137E+02  0.63706177109E+02  0.95987919029E+02  0.17770000000E+01 0.  1.
         15    1    3    3    0    0  0.36625792269E+02 -0.84960902440E+02  0.78137845031E+02  0.12111351765E+03  0.17770000000E+01 0. -1.
</event>
<event>
 7    1  0.3970441E-006  0.3255240E+03  0.7546771E-02  0.9906322E-01
        -11   -1    0    0    0    0  0.00000000000E+00  0.00000000000E+00  0.50000000000E+03  0.50000000000E+03  0.00000000000E+00 0.  1.
         11   -1    0    0    0    0 -0.00000000000E+00 -0.00000000000E+00 -0.50000000000E+03  0.50000000000E+03  0.00000000000E+00 0. -1.
         23    2    1    2    0    0  0.22531971055E+03 -0.16106722650E+03  0.19919520240E+02  0.29220635578E+03  0.90973312869E+02 0.  0.
        -11    1    1    2    0    0 -0.20755591133E+03 -0.15924752885E+03  0.19095368581E+03  0.32388661890E+03  0.00000000000E+00 0.  1.
         11    1    1    2    0    0 -0.17763799218E+02  0.32031475536E+03 -0.21087320605E+03  0.38390702532E+03  0.00000000000E+00 0. -1.
        -15    1    3    3    0    0  0.13132424572E+03 -0.61034223155E+02  0.47045948936E+02  0.15227512255E+03  0.17770000000E+01 0. -1.
         15    1    3    3    0    0  0.93995464838E+02 -0.10003300335E+03 -0.27126428696E+02  0.13993123322E+03  0.17770000000E+01 0.  1.
</event>
<event>
 7    1  0.3970441E-006  0.3804220E+03  0.7546771E-02  0.9716084E-01
        -11   -1    0    0    0    0  0.00000000000E+00  0.00000000000E+00  0.50000000000E+03  0.50000000000E+03  0.00000000000E+00 0.  1.
         11   -1    0    0    0    0 -0.00000000000E+00 -0.00000000000E+00 -0.50000000000E+03  0.50000000000E+03  0.00000000000E+00 0. -1.
         23    2    1    2    0    0  0.25397405658E+02 -0.63915639509E+02 -0.35488560885E+03  0.37230147396E+03  0.89074996235E+02 0.  0.
        -11    1    1    2    0    0 -0.21813446090E+03 -0.38540830324E+02  0.34399968824E+03  0.40915012421E+03  0.00000000000E+00 0.  1.
         11    1    1    2    0    0  0.19273705524E+03  0.10245646983E+03  0.10885920610E+02  0.21854840183E+03  0.00000000000E+00 0. -1.
        -15    1    3    3    0    0 -0.20037526358E+02 -0.12409670722E+02 -0.21636338355E+02  0.32043583701E+02  0.17770000000E+01 0.  1.
         15    1    3    3    0    0  0.45434932016E+02 -0.51505968787E+02 -0.33324927049E+03  0.34025789026E+03  0.17770000000E+01 0. -1.
</event>
<event>
 7    1  0.3970441E-006  0.4326760E+03  0.7546771E-02  0.9564494E-01
        -11   -1    0    0    0    0  0.00000000000E+00  0.00000000000E+00  0.50000000000E+03  0.50000000000E+03  0.00000000000E+00 0. -1.
         11   -1    0    0    0    0 -0.00000000000E+00 -0.00000000000E+00 -0.50000000000E+03  0.50000000000E+03  0.00000000000E+00 0.  1.
         23    2    1    2    0    0 -0.28440154845E+02 -0.13131970938E+02 -0.85247615247E+02  0.12989513103E+03  0.92867099077E+02 0.  0.
        -11    1    1    2    0    0 -0.20977469046E+03 -0.14085835868E+03  0.38301697509E+03  0.45885564307E+03  0.00000000000E+00 0. -1.
         11    1    1    2    0    0  0.23821484531E+03  0.15399032962E+03 -0.29776935985E+03  0.41124922590E+03  0.00000000000E+00 0.  1.
        -15    1    3    3    0    0  0.13163480517E+02 -0.43935837349E+02 -0.34901953499E+02  0.57662284987E+02  0.17770000000E+01 0. -1.
         15    1    3    3    0    0 -0.41603635361E+02  0.30803866411E+02 -0.50345661748E+02  0.72232846040E+02  0.17770000000E+01 0.  1.
</event>
<event>
 7    1  0.3970441E-006  0.5149064E+03  0.7546771E-02  0.9367060E-01
        -11   -1    0    0    0    0  0.00000000000E+00  0.00000000000E+00  0.50000000000E+03  0.50000000000E+03  0.00000000000E+00 0.  1.
         11   -1    0    0    0    0 -0.00000000000E+00 -0.00000000000E+00 -0.50000000000E+03  0.50000000000E+03  0.00000000000E+00 0. -1.
         23    2    1    2    0    0 -0.61921677265E+02 -0.13231137269E+01 -0.22063225367E+03  0.24703901061E+03  0.92269370080E+02 0.  0.
        -11    1    1    2    0    0  0.41057680293E+02 -0.67885822561E+02  0.47856199829E+03  0.48509360357E+03  0.00000000000E+00 0.  1.
         11    1    1    2    0    0  0.20863996971E+02  0.69208936288E+02 -0.25792974462E+03  0.26786738583E+03  0.00000000000E+00 0. -1.
        -15    1    3    3    0    0 -0.85066068713E+02 -0.10123868419E+02 -0.15949709409E+03  0.18105581877E+03  0.17770000000E+01 0.  1.
         15    1    3    3    0    0  0.23144391448E+02  0.88007546922E+01 -0.61135159585E+02  0.65983191838E+02  0.17770000000E+01 0. -1.
</event>
<event>
 7    1  0.3970441E-006  0.3978136E+03  0.7546771E-02  0.9662883E-01
        -11   -1    0    0    0    0  0.00000000000E+00  0.00000000000E+00  0.50000000000E+03  0.50000000000E+03  0.00000000000E+00 0. -1.
         11   -1    0    0    0    0 -0.00000000000E+00 -0.00000000000E+00 -0.50000000000E+03  0.50000000000E+03  0.00000000000E+00 0. -1.
         23    2    1    2    0    0 -0.73200919624E+02 -0.10007514145E+03 -0.10818281754E+03  0.18753482423E+03  0.89957655139E+02 0.  0.
        -11    1    1    2    0    0 -0.71271872777E+02 -0.40633698412E+02  0.42722302194E+03  0.43502906544E+03  0.00000000000E+00 0. -1.
         11    1    1    2    0    0  0.14447279240E+03  0.14070883986E+03 -0.31904020441E+03  0.37743611034E+03  0.00000000000E+00 0. -1.
        -15    1    3    3    0    0 -0.91172472182E+01 -0.85263016227E+02 -0.74556363164E+02  0.11364292829E+03  0.17770000000E+01 0.  1.
         15    1    3    3    0    0 -0.64083672406E+02 -0.14812125220E+02 -0.33626454373E+02  0.73891895937E+02  0.17770000000E+01 0. -1.
</event>
<event>
 7    1  0.3970441E-006  0.5209111E+03  0.7546771E-02  0.9354198E-01
        -11   -1    0    0    0    0  0.00000000000E+00  0.00000000000E+00  0.50000000000E+03  0.50000000000E+03  0.00000000000E+00 0. -1.
         11   -1    0    0    0    0 -0.00000000000E+00 -0.00000000000E+00 -0.50000000000E+03  0.50000000000E+03  0.00000000000E+00 0.  1.
         23    2    1    2    0    0  0.15318059351E+03 -0.19049472448E+02  0.18732778910E+03  0.25504476914E+03  0.78287655909E+02 0.  0.
        -11    1    1    2    0    0  0.12797955993E+00 -0.45091057043E+02  0.26201467014E+03  0.26586633328E+03  0.00000000000E+00 0. -1.
         11    1    1    2    0    0 -0.15330857307E+03  0.64140529491E+02 -0.44934245925E+03  0.47908889758E+03  0.00000000000E+00 0.  1.
        -15    1    3    3    0    0  0.48762143852E+02 -0.58402967499E+01  0.12106739820E+03  0.13066112036E+03  0.17770000000E+01 0. -1.
         15    1    3    3    0    0  0.10441844966E+03 -0.13209175698E+02  0.66260390906E+02  0.12438364878E+03  0.17770000000E+01 0.  1.
</event>
<event>
 7    1  0.3970441E-006  0.5302577E+03  0.7546771E-02  0.9334540E-01
        -11   -1    0    0    0    0  0.00000000000E+00  0.00000000000E+00  0.50000000000E+03  0.50000000000E+03  0.00000000000E+00 0.  1.
         11   -1    0    0    0    0 -0.00000000000E+00 -0.00000000000E+00 -0.50000000000E+03  0.50000000000E+03  0.00000000000E+00 0.  1.
         23    2    1    2    0    0  0.38322350836E+02 -0.10348881456E+02  0.35416525910E+03  0.36806277246E+03  0.91986258740E+02 0.  0.
        -11    1    1    2    0    0  0.12170711316E+03  0.66806192957E+02  0.83854099577E+02  0.16219494082E+03  0.00000000000E+00 0.  1.
         11    1    1    2    0    0 -0.16002946399E+03 -0.56457311501E+02 -0.43801935867E+03  0.46974228673E+03  0.00000000000E+00 0.  1.
        -15    1    3    3    0    0  0.66044149882E+02 -0.20718530733E+02  0.21907025375E+03  0.22975208608E+03  0.17770000000E+01 0.  1.
         15    1    3    3    0    0 -0.27721799047E+02  0.10369649277E+02  0.13509500535E+03  0.13831068638E+03  0.17770000000E+01 0. -1.
</event>
<event>
 7    1  0.3970441E-006  0.4293660E+03  0.7546771E-02  0.9573404E-01
        -11   -1    0    0    0    0  0.00000000000E+00  0.00000000000E+00  0.50000000000E+03  0.50000000000E+03  0.00000000000E+00 0.  1.
         11   -1    0    0    0    0 -0.00000000000E+00 -0.00000000000E+00 -0.50000000000E+03  0.50000000000E+03  0.00000000000E+00 0. -1.
         23    2    1    2    0    0  0.34689656473E+02  0.24648524334E+02 -0.90359466419E+02  0.13547911169E+03  0.91535973885E+02 0.  0.
        -11    1    1    2    0    0  0.32536044200E+02  0.28890156549E+03  0.34778952464E+03  0.45329930748E+03  0.00000000000E+00 0.  1.
         11    1    1    2    0    0 -0.67225700673E+02 -0.31355008983E+03 -0.25743005822E+03  0.41122158082E+03  0.00000000000E+00 0. -1.
        -15    1    3    3    0    0  0.22304219551E+02 -0.16491781392E+01  0.14458328316E+02  0.26690803379E+02  0.17770000000E+01 0.  1.
         15    1    3    3    0    0  0.12385436922E+02  0.26297702473E+02 -0.10481779474E+03  0.10878830831E+03  0.17770000000E+01 0. -1.
</event>
<event>
 6    1  0.3970441E-006  0.5246245E+03  0.7546771E-02  0.9346336E-01
        -11   -1    0    0    0    0  0.00000000000E+00  0.00000000000E+00  0.50000000000E+03  0.50000000000E+03  0.00000000000E+00 0. -1.
         11   -1    0    0    0    0 -0.00000000000E+00 -0.00000000000E+00 -0.50000000000E+03  0.50000000000E+03  0.00000000000E+00 0. -1.
        -11    1    1    2    0    0  0.10527292552E+03  0.40682360279E+02  0.46178399222E+03  0.47537553445E+03  0.00000000000E+00 0. -1.
         11    1    1    2    0    0 -0.61887280594E+02 -0.20153574274E+02 -0.19668056008E+03  0.20717008657E+03  0.00000000000E+00 0. -1.
        -15    1    1    2    0    0 -0.10089933697E+03 -0.19775881945E+02 -0.10345913111E+03  0.14587224290E+03  0.17770000000E+01 0.  1.
         15    1    1    2    0    0  0.57513692048E+02 -0.75290405966E+00 -0.16164430102E+03  0.17158213607E+03  0.17770000000E+01 0. -1.
</event>
<event>
 7    1  0.3970441E-006  0.4185470E+03  0.7546771E-02  0.9603134E-01
        -11   -1    0    0    0    0  0.00000000000E+00  0.00000000000E+00  0.50000000000E+03  0.50000000000E+03  0.00000000000E+00 0.  1.
         11   -1    0    0    0    0 -0.00000000000E+00 -0.00000000000E+00 -0.50000000000E+03  0.50000000000E+03  0.00000000000E+00 0.  1.
         23    2    1    2    0    0 -0.16793293167E+03  0.38190440622E+02 -0.40431154189E+03  0.44883959488E+03  0.91264339874E+02 0.  0.
        -11    1    1    2    0    0  0.20422818764E+02 -0.90306422275E+02  0.38208585412E+03  0.39314366502E+03  0.00000000000E+00 0.  1.
         11    1    1    2    0    0  0.14751011291E+03  0.52115981653E+02  0.22225687773E+02  0.15801674010E+03  0.00000000000E+00 0.  1.
        -15    1    3    3    0    0 -0.12487745806E+03  0.52408322807E+02 -0.36311239688E+03  0.38754971594E+03  0.17770000000E+01 0.  1.
         15    1    3    3    0    0 -0.43055473610E+02 -0.14217882185E+02 -0.41199145012E+02  0.61289878938E+02  0.17770000000E+01 0. -1.
</event>
<event>
 7    1  0.3970441E-006  0.5323358E+03  0.7546771E-02  0.9330228E-01
        -11   -1    0    0    0    0  0.00000000000E+00  0.00000000000E+00  0.50000000000E+03  0.50000000000E+03  0.00000000000E+00 0.  1.
         11   -1    0    0    0    0 -0.00000000000E+00 -0.00000000000E+00 -0.50000000000E+03  0.50000000000E+03  0.00000000000E+00 0. -1.
         23    2    1    2    0    0  0.95979750367E+02  0.39634764889E+02 -0.19232982438E+03  0.23682192889E+03  0.91163795384E+02 0.  0.
        -11    1    1    2    0    0 -0.51293046789E+02  0.83297986746E+02  0.45731861396E+03  0.46766424486E+03  0.00000000000E+00 0.  1.
         11    1    1    2    0    0 -0.44686703578E+02 -0.12293275163E+03 -0.26498878959E+03  0.29551382625E+03  0.00000000000E+00 0. -1.
        -15    1    3    3    0    0  0.31257264553E+01 -0.20354846569E+02 -0.64913000013E+02  0.68124483443E+02  0.17770000000E+01 0.  1.
         15    1    3    3    0    0  0.92854023912E+02  0.59989611458E+02 -0.12741682436E+03  0.16869744544E+03  0.17770000000E+01 0. -1.
</event>
<event>
 7    1  0.3970441E-006  0.4650952E+03  0.7546771E-02  0.9481488E-01
        -11   -1    0    0    0    0  0.00000000000E+00  0.00000000000E+00  0.50000000000E+03  0.50000000000E+03  0.00000000000E+00 0.  1.
         11   -1    0    0    0    0 -0.00000000000E+00 -0.00000000000E+00 -0.50000000000E+03  0.50000000000E+03  0.00000000000E+00 0. -1.
         23    2    1    2    0    0  0.84553958296E+02 -0.12373885884E+02 -0.41570969460E+03  0.43396184857E+03  0.90586151892E+02 0.  0.
        -11    1    1    2    0    0 -0.70821560061E+02  0.43275724200E+02  0.48334573003E+03  0.49041979611E+03  0.00000000000E+00 0.  1.
         11    1    1    2    0    0 -0.13732398235E+02 -0.30901838316E+02 -0.67636035431E+02  0.75618355321E+02  0.00000000000E+00 0. -1.
        -15    1    3    3    0    0  0.64815459432E+02 -0.45829225223E+02 -0.20792090374E+03  0.22256599382E+03  0.17770000000E+01 0. -1.
         15    1    3    3    0    0  0.19738498865E+02  0.33455339339E+02 -0.20778879086E+03  0.21139585475E+03  0.17770000000E+01 0.  1.
</event>
<event>
 7    1  0.3970441E-006  0.5157831E+03  0.7546771E-02  0.9365170E-01
        -11   -1    0    0    0    0  0.00000000000E+00  0.00000000000E+00  0.50000000000E+03  0.50000000000E+03  0.00000000000E+00 0. -1.
         11   -1    0    0    0    0 -0.00000000000E+00 -0.00000000000E+00 -0.50000000000E+03  0.50000000000E+03  0.00000000000E+00 0.  1.
         23    2    1    2    0    0 -0.95221945768E+02 -0.10976502904E+03  0.24000743512E+03  0.29184920890E+03  0.80354285928E+02 0.  0.
        -11    1    1    2    0    0 -0.12167705298E+03  0.30231551211E+02  0.18554547740E+03  0.22393386544E+03  0.00000000000E+00 0. -1.
         11    1    1    2    0    0  0.21689899874E+03  0.79533477825E+02 -0.42555291251E+03  0.48421692566E+03  0.00000000000E+00 0.  1.
        -15    1    3    3    0    0 -0.62885501552E+02 -0.18960406960E+02  0.67299795657E+02  0.94055853417E+02  0.17770000000E+01 0.  1.
         15    1    3    3    0    0 -0.32336444216E+02 -0.90804622076E+02  0.17270763946E+03  0.19779335548E+03  0.17770000000E+01 0. -1.
</event>
<event>
 7    1  0.3970441E-006  0.5220039E+03  0.7546771E-02  0.9351877E-01
        -11   -1    0    0    0    0  0.00000000000E+00  0.00000000000E+00  0.50000000000E+03  0.50000000000E+03  0.00000000000E+00 0.  1.
         11   -1    0    0    0    0 -0.00000000000E+00 -0.00000000000E+00 -0.50000000000E+03  0.50000000000E+03  0.00000000000E+00 0. -1.
         23    2    1    2    0    0 -0.57019851111E+02 -0.22684307073E+02 -0.32036149953E+03  0.33817321007E+03  0.89240060629E+02 0.  0.
        -11    1    1    2    0    0  0.42084672671E+02 -0.85199780999E+02  0.46845503899E+03  0.47799607311E+03  0.00000000000E+00 0.  1.
         11    1    1    2    0    0  0.14935178440E+02  0.10788408807E+03 -0.14809353946E+03  0.18383071681E+03  0.00000000000E+00 0. -1.
        -15    1    3    3    0    0 -0.61889392793E+02  0.16404828857E+02 -0.24355219096E+03  0.25183376025E+03  0.17770000000E+01 0.  1.
         15    1    3    3    0    0  0.48695416821E+01 -0.39089135930E+02 -0.76809308570E+02  0.86339449824E+02  0.17770000000E+01 0. -1.
</event>
<event>
 7    1  0.4854580E-006  0.5129457E+03  0.7546771E-02  0.9371300E-01
        -11   -1    0    0    0    0  0.00000000000E+00  0.00000000000E+00  0.50000000000E+03  0.50000000000E+03  0.00000000000E+00 0.  1.
         11   -1    0    0    0    0 -0.00000000000E+00 -0.00000000000E+00 -0.50000000000E+03  0.50000000000E+03  0.00000000000E+00 0. -1.
         23    2    1    2    0    0 -0.45305281888E+02  0.98455306970E+01  0.23640097996E+03  0.25808186369E+03  0.92581434398E+02 0.  0.
        -11    1    1    2    0    0  0.27394493914E+02  0.68290764150E+02  0.24401119721E+03  0.25486378937E+03  0.00000000000E+00 0.  1.
         11    1    1    2    0    0  0.17910787974E+02 -0.78136294847E+02 -0.48041217718E+03  0.48705434695E+03  0.00000000000E+00 0. -1.
        -15    1    3    3    0    0 -0.70727851820E+02  0.72339550845E+01  0.12540332353E+03  0.14416625961E+03  0.17770000000E+01 0. -1.
         15    1    3    3    0    0  0.25422569932E+02  0.26115756125E+01  0.11099765644E+03  0.11391560408E+03  0.17770000000E+01 0.  1.
</event>
<event>
 7    1  0.3970441E-006  0.5194158E+03  0.7546771E-02  0.9357383E-01
        -11   -1    0    0    0    0  0.00000000000E+00  0.00000000000E+00  0.50000000000E+03  0.50000000000E+03  0.00000000000E+00 0. -1.
         11   -1    0    0    0    0 -0.00000000000E+00 -0.00000000000E+00 -0.50000000000E+03  0.50000000000E+03  0.00000000000E+00 0. -1.
         23    2    1    2    0    0  0.17765837190E+02 -0.10098752672E+03 -0.45943449278E+03  0.48058415930E+03  0.96783136380E+02 0.  0.
        -11    1    1    2    0    0 -0.65227146486E+02  0.67758928352E+01  0.38441782354E+03  0.38997122511E+03  0.00000000000E+00 0. -1.
         11    1    1    2    0    0  0.47461309296E+02  0.94211633888E+02  0.75016669245E+02  0.12944461559E+03  0.00000000000E+00 0. -1.
        -15    1    3    3    0    0 -0.14573180524E+02 -0.84467964825E+02 -0.41196215145E+03  0.42078876723E+03  0.17770000000E+01 0. -1.
         15    1    3    3    0    0  0.32339017714E+02 -0.16519561898E+02 -0.47472341332E+02  0.59795392068E+02  0.17770000000E+01 0.  1.
</event>
<event>
 6    1  0.4234771E-006  0.5221648E+03  0.7546771E-02  0.9351536E-01
        -11   -1    0    0    0    0  0.00000000000E+00  0.00000000000E+00  0.50000000000E+03  0.50000000000E+03  0.00000000000E+00 0.  1.
         11   -1    0    0    0    0 -0.00000000000E+00 -0.00000000000E+00 -0.50000000000E+03  0.50000000000E+03  0.00000000000E+00 0.  1.
        -11    1    1    2    0    0  0.11119714166E+02 -0.46728717339E+02  0.17739963462E+03  0.18378751707E+03  0.00000000000E+00 0.  1.
         11    1    1    2    0    0 -0.77862919566E+02 -0.18318214188E+02 -0.47109268415E+03  0.47783523130E+03  0.00000000000E+00 0.  1.
        -15    1    1    2    0    0 -0.98867809803E+01 -0.26065558888E+02  0.14609100836E+03  0.14873769613E+03  0.17770000000E+01 0. -1.
         15    1    1    2    0    0  0.76629986380E+02  0.91112490414E+02  0.14760204117E+03  0.18963955550E+03  0.17770000000E+01 0.  1.
</event>
<event>
 7    1  0.3970441E-006  0.3978665E+03  0.7546771E-02  0.9662726E-01
        -11   -1    0    0    0    0  0.00000000000E+00  0.00000000000E+00  0.50000000000E+03  0.50000000000E+03  0.00000000000E+00 0.  1.
         11   -1    0    0    0    0 -0.00000000000E+00 -0.00000000000E+00 -0.50000000000E+03  0.50000000000E+03  0.00000000000E+00 0. -1.
         23    2    1    2    0    0 -0.84674696765E+02  0.94987222862E+02 -0.10447218854E+03  0.18741294364E+03  0.89536565067E+02 0.  0.
        -11    1    1    2    0    0 -0.17955000524E+02  0.20555564390E+03  0.35329542432E+03  0.40913709393E+03  0.00000000000E+00 0.  1.
         11    1    1    2    0    0  0.10262969729E+03 -0.30054286677E+03 -0.24882323577E+03  0.40344996244E+03  0.00000000000E+00 0. -1.
        -15    1    3    3    0    0 -0.80726392600E+02  0.24748548737E+02 -0.66197703981E+02  0.10730580072E+03  0.17770000000E+01 0. -1.
         15    1    3    3    0    0 -0.39483041648E+01  0.70238674125E+02 -0.38274484561E+02  0.80107142915E+02  0.17770000000E+01 0.  1.
</event>
<event>
 7    1  0.3970441E-006  0.4044884E+03  0.7546771E-02  0.9643231E-01
        -11   -1    0    0    0    0  0.00000000000E+00  0.00000000000E+00  0.50000000000E+03  0.50000000000E+03  0.00000000000E+00 0.  1.
         11   -1    0    0    0    0 -0.00000000000E+00 -0.00000000000E+00 -0.50000000000E+03  0.50000000000E+03  0.00000000000E+00 0. -1.
         23    2    1    2    0    0  0.13204598625E+03 -0.60897351297E+02 -0.39080457678E+03  0.42664222142E+03  0.90281437677E+02 0.  0.
        -11    1    1    2    0    0  0.37437610525E+02  0.12129640399E+03  0.37127497151E+03  0.39237672812E+03  0.00000000000E+00 0.  1.
         11    1    1    2    0    0 -0.16948359677E+03 -0.60399052695E+02  0.19529605270E+02  0.18098105045E+03  0.00000000000E+00 0. -1.
        -15    1    3    3    0    0  0.46396347454E+02 -0.13406767161E+01 -0.42193112218E+02  0.62752170630E+02  0.17770000000E+01 0.  1.
         15    1    3    3    0    0  0.85649638793E+02 -0.59556674581E+02 -0.34861146456E+03  0.36389005079E+03  0.17770000000E+01 0. -1.
</event>
<event>
 7    1  0.3970441E-006  0.5123428E+03  0.7546771E-02  0.9372608E-01
        -11   -1    0    0    0    0  0.00000000000E+00  0.00000000000E+00  0.50000000000E+03  0.50000000000E+03  0.00000000000E+00 0. -1.
         11   -1    0    0    0    0 -0.00000000000E+00 -0.00000000000E+00 -0.50000000000E+03  0.50000000000E+03  0.00000000000E+00 0. -1.
         23    2    1    2    0    0 -0.15981155080E+03  0.56771436946E+02  0.34615414361E+03  0.39371570582E+03  0.80166314933E+02 0.  0.
        -11    1    1    2    0    0  0.20240250010E+02  0.29956180811E+02  0.11298385323E+03  0.11862711149E+03  0.00000000000E+00 0. -1.
         11    1    1    2    0    0  0.13957130079E+03 -0.86727617756E+02 -0.45913799684E+03  0.48765718269E+03  0.00000000000E+00 0. -1.
        -15    1    3    3    0    0 -0.63695164265E+02 -0.15400274394E+02  0.96940265979E+02  0.11702484907E+03  0.17770000000E+01 0.  1.
         15    1    3    3    0    0 -0.96116386533E+02  0.72171711340E+02  0.24921387763E+03  0.27669085675E+03  0.17770000000E+01 0. -1.
</event>
<event>
 7    1  0.3970441E-006  0.5177441E+03  0.7546771E-02  0.9360958E-01
        -11   -1    0    0    0    0  0.00000000000E+00  0.00000000000E+00  0.50000000000E+03  0.50000000000E+03  0.00000000000E+00 0.  1.
         11   -1    0    0    0    0 -0.00000000000E+00 -0.00000000000E+00 -0.50000000000E+03  0.50000000000E+03  0.00000000000E+00 0. -1.
         23    2    1    2    0    0  0.11142906515E+01  0.95752899545E+02 -0.22661313586E+03  0.26327850196E+03  0.93766714967E+02 0.  0.
        -11    1    1    2    0    0  0.44690670862E+02 -0.67852754873E+02  0.47536247881E+03  0.48225588505E+03  0.00000000000E+00 0.  1.
         11    1    1    2    0    0 -0.45804961513E+02 -0.27900144671E+02 -0.24874934295E+03  0.25446561298E+03  0.00000000000E+00 0. -1.
        -15    1    3    3    0    0 -0.28035168245E+02 -0.46885711776E+00 -0.23464478819E+02  0.36605054033E+02  0.17770000000E+01 0.  1.
         15    1    3    3    0    0  0.29149458896E+02  0.96221756663E+02 -0.20314865704E+03  0.22667344793E+03  0.17770000000E+01 0. -1.
</event>
<event>
 6    1  0.3970441E-006  0.4714666E+03  0.7546771E-02  0.9466021E-01
        -11   -1    0    0    0    0  0.00000000000E+00  0.00000000000E+00  0.50000000000E+03  0.50000000000E+03  0.00000000000E+00 0. -1.
         11   -1    0    0    0    0 -0.00000000000E+00 -0.00000000000E+00 -0.50000000000E+03  0.50000000000E+03  0.00000000000E+00 0. -1.
        -11    1    1    2    0    0 -0.58073956180E+01 -0.30854014771E+02  0.93531770527E+02  0.98660469132E+02  0.00000000000E+00 0. -1.
         11    1    1    2    0    0  0.36954526363E+03 -0.32878065749E+02 -0.25377599610E+03  0.44949630174E+03  0.00000000000E+00 0. -1.
        -15    1    1    2    0    0 -0.38167238917E+03  0.42365957152E+02  0.11903076391E+03  0.40204498190E+03  0.17770000000E+01 0. -1.
         15    1    1    2    0    0  0.17934521159E+02  0.21366123368E+02  0.41213461660E+02  0.49798247238E+02  0.17770000000E+01 0.  1.
</event>
<event>
 7    1  0.3970441E-006  0.5124487E+03  0.7546771E-02  0.9372378E-01
        -11   -1    0    0    0    0  0.00000000000E+00  0.00000000000E+00  0.50000000000E+03  0.50000000000E+03  0.00000000000E+00 0. -1.
         11   -1    0    0    0    0 -0.00000000000E+00 -0.00000000000E+00 -0.50000000000E+03  0.50000000000E+03  0.00000000000E+00 0.  1.
         23    2    1    2    0    0 -0.19696077868E+02  0.82055389914E+02 -0.28104118926E+03  0.30734022331E+03  0.91393874569E+02 0.  0.
        -11    1    1    2    0    0  0.38232117212E+02 -0.21558587930E+03  0.43562290387E+03  0.48755131065E+03  0.00000000000E+00 0. -1.
         11    1    1    2    0    0 -0.18536039345E+02  0.13353048938E+03 -0.15458171461E+03  0.20510846604E+03  0.00000000000E+00 0.  1.
        -15    1    3    3    0    0  0.25062689011E+02  0.64184427956E+02 -0.11160379887E+03  0.13117295767E+03  0.17770000000E+01 0. -1.
         15    1    3    3    0    0 -0.44758766879E+02  0.17870961958E+02 -0.16943739038E+03  0.17616726564E+03  0.17770000000E+01 0.  1.
</event>
<event>
 7    1  0.3970441E-006  0.5212378E+03  0.7546771E-02  0.9353503E-01
        -11   -1    0    0    0    0  0.00000000000E+00  0.00000000000E+00  0.50000000000E+03  0.50000000000E+03  0.00000000000E+00 0. -1.
         11   -1    0    0    0    0 -0.00000000000E+00 -0.00000000000E+00 -0.50000000000E+03  0.50000000000E+03  0.00000000000E+00 0. -1.
         23    2    1    2    0    0  0.18656684208E+03 -0.13578045351E+03  0.31516766810E+03  0.40088864400E+03  0.90208246569E+02 0.  0.
        -11    1    1    2    0    0 -0.21852481583E+02  0.13897955287E+02  0.11752974842E+03  0.12034918311E+03  0.00000000000E+00 0. -1.
         11    1    1    2    0    0 -0.16471436050E+03  0.12188249822E+03 -0.43269741652E+03  0.47876217289E+03  0.00000000000E+00 0. -1.
        -15    1    3    3    0    0  0.79951945712E+00 -0.36683287332E+02  0.38502365406E+02  0.53215530362E+02  0.17770000000E+01 0.  1.
         15    1    3    3    0    0  0.18576732263E+03 -0.99097166177E+02  0.27666530270E+03  0.34767311364E+03  0.17770000000E+01 0. -1.
</event>
<event>
 7    1  0.3970441E-006  0.4816497E+03  0.7546771E-02  0.9441833E-01
        -11   -1    0    0    0    0  0.00000000000E+00  0.00000000000E+00  0.50000000000E+03  0.50000000000E+03  0.00000000000E+00 0.  1.
         11   -1    0    0    0    0 -0.00000000000E+00 -0.00000000000E+00 -0.50000000000E+03  0.50000000000E+03  0.00000000000E+00 0. -1.
         23    2    1    2    0    0 -0.84610238804E+02  0.21226732062E+03 -0.41648336932E+03  0.48394421369E+03  0.92343365377E+02 0.  0.
        -11    1    1    2    0    0  0.78290176970E+02 -0.17105526436E+03  0.43230378659E+03  0.47146136552E+03  0.00000000000E+00 0.  1.
         11    1    1    2    0    0  0.63200618339E+01 -0.41212056264E+02 -0.15820417268E+02  0.44594420790E+02  0.00000000000E+00 0. -1.
        -15    1    3    3    0    0 -0.30590631009E+02  0.17006776219E+03 -0.25018778667E+03  0.30406564549E+03  0.17770000000E+01 0. -1.
         15    1    3    3    0    0 -0.54019607795E+02  0.42199558433E+02 -0.16629558266E+03  0.17987856820E+03  0.17770000000E+01 0.  1.
</event>
<event>
 7    1  0.3970441E-006  0.3409053E+03  0.7546771E-02  0.9849178E-01
        -11   -1    0    0    0    0  0.00000000000E+00  0.00000000000E+00  0.50000000000E+03  0.50000000000E+03  0.00000000000E+00 0.  1.
         11   -1    0    0    0    0 -0.00000000000E+00 -0.00000000000E+00 -0.50000000000E+03  0.50000000000E+03  0.00000000000E+00 0. -1.
         23    2    1    2    0    0 -0.15954711531E+03 -0.11495811870E+03 -0.16516818778E+03  0.27142821918E+03  0.87875462187E+02 0.  0.
        -11    1    1    2    0    0  0.10210780861E+02  0.10545059098E+03  0.41994413143E+03  0.43310179024E+03  0.00000000000E+00 0.  1.
         11    1    1    2    0    0  0.14933633445E+03  0.95075277135E+01 -0.25477594365E+03  0.29546999058E+03  0.00000000000E+00 0. -1.
        -15    1    3    3    0    0  0.81146180153E+01 -0.21048522916E+02 -0.11599019840E+02  0.25427983262E+02  0.17770000000E+01 0.  1.
         15    1    3    3    0    0 -0.16766173332E+03 -0.93909595781E+02 -0.15356916794E+03  0.24600023592E+03  0.17770000000E+01 0. -1.
</event>
<event>
 7    1  0.3970441E-006  0.5230249E+03  0.7546771E-02  0.9349714E-01
        -11   -1    0    0    0    0  0.00000000000E+00  0.00000000000E+00  0.50000000000E+03  0.50000000000E+03  0.00000000000E+00 0. -1.
         11   -1    0    0    0    0 -0.00000000000E+00 -0.00000000000E+00 -0.50000000000E+03  0.50000000000E+03  0.00000000000E+00 0.  1.
         23    2    1    2    0    0 -0.11418914613E+03 -0.90100552848E+02 -0.33231941826E+03  0.37601872113E+03  0.98977836782E+02 0.  0.
        -11    1    1    2    0    0  0.13386837432E+03  0.15641319532E+02  0.45753671165E+03  0.47697508848E+03  0.00000000000E+00 0. -1.
         11    1    1    2    0    0 -0.19679228197E+02  0.74459233315E+02 -0.12521729339E+03  0.14700619039E+03  0.00000000000E+00 0.  1.
        -15    1    3    3    0    0 -0.32275167060E+02 -0.40759491022E+02 -0.32559176239E+02  0.61370026915E+02  0.17770000000E+01 0. -1.
         15    1    3    3    0    0 -0.81913979066E+02 -0.49341061826E+02 -0.29976024202E+03  0.31464869422E+03  0.17770000000E+01 0.  1.
</event>
<event>
 7    1  0.3970441E-006  0.5149163E+03  0.7546771E-02  0.9367038E-01
        -11   -1    0    0    0    0  0.00000000000E+00  0.00000000000E+00  0.50000000000E+03  0.50000000000E+03  0.00000000000E+00 0. -1.
         11   -1    0    0    0    0 -0.00000000000E+00 -0.00000000000E+00 -0.50000000000E+03  0.50000000000E+03  0.00000000000E+00 0. -1.
         23    2    1    2    0    0  0.36052836054E+02 -0.11581406800E+03 -0.37784241077E+03  0.40605388752E+03  0.86035846356E+02 0.  0.
        -11    1    1    2    0    0  0.10779218595E+02  0.99220761273E+02  0.47470543276E+03  0.48508370299E+03  0.00000000000E+00 0. -1.
         11    1    1    2    0    0 -0.46832054649E+02  0.16593306727E+02 -0.96863021989E+02  0.10886240949E+03  0.00000000000E+00 0. -1.
        -15    1    3    3    0    0  0.62215394751E+02 -0.62728296675E+02 -0.25022314991E+03  0.26536837985E+03  0.17770000000E+01 0. -1.
         15    1    3    3    0    0 -0.26162558697E+02 -0.53085771325E+02 -0.12761926086E+03  0.14068550766E+03  0.17770000000E+01 0.  1.
</event>
<event>
 7    1  0.3970441E-006  0.5212689E+03  0.7546771E-02  0.9353437E-01
        -11   -1    0    0    0    0  0.00000000000E+00  0.00000000000E+00  0.50000000000E+03  0.50000000000E+03  0.00000000000E+00 0. -1.
         11   -1    0    0    0    0 -0.00000000000E+00 -0.00000000000E+00 -0.50000000000E+03  0.50000000000E+03  0.00000000000E+00 0. -1.
         23    2    1    2    0    0  0.68601503150E+02  0.20171871294E+02 -0.26970629645E+03  0.29427377478E+03  0.93501323799E+02 0.  0.
        -11    1    1    2    0    0 -0.10415966520E+03  0.10587647508E+03  0.45510918806E+03  0.47873106948E+03  0.00000000000E+00 0. -1.
         11    1    1    2    0    0  0.35558162049E+02 -0.12604834637E+03 -0.18540289161E+03  0.22699515574E+03  0.00000000000E+00 0. -1.
        -15    1    3    3    0    0  0.40875119893E+02 -0.21882108477E+02 -0.47413973404E+02  0.66338862672E+02  0.17770000000E+01 0.  1.
         15    1    3    3    0    0  0.27726383257E+02  0.42053979771E+02 -0.22229232305E+03  0.22793491211E+03  0.17770000000E+01 0. -1.
</event>
<event>
 7    1  0.3970441E-006  0.3816657E+03  0.7546771E-02  0.9712180E-01
        -11   -1    0    0    0    0  0.00000000000E+00  0.00000000000E+00  0.50000000000E+03  0.50000000000E+03  0.00000000000E+00 0. -1.
         11   -1    0    0    0    0 -0.00000000000E+00 -0.00000000000E+00 -0.50000000000E+03  0.50000000000E+03  0.00000000000E+00 0. -1.
         23    2    1    2    0    0  0.18216511474E+02 -0.94957502145E+02 -0.16289580440E+03  0.21351498241E+03  0.98513126625E+02 0.  0.
        -11    1    1    2    0    0 -0.26200746607E+02 -0.94830674381E+02  0.43981037587E+03  0.45068004465E+03  0.00000000000E+00 0. -1.
         11    1    1    2    0    0  0.79842351330E+01  0.18978817653E+03 -0.27691457147E+03  0.33580497294E+03  0.00000000000E+00 0. -1.
        -15    1    3    3    0    0 -0.12563984560E+01 -0.10822899904E+03 -0.10425314473E+03  0.15028962267E+03  0.17770000000E+01 0.  1.
         15    1    3    3    0    0  0.19472909931E+02  0.13271496890E+02 -0.58642659673E+02  0.63225359733E+02  0.17770000000E+01 0. -1.
</event>
<event>
 7    1  0.3970441E-006  0.4421799E+03  0.7546771E-02  0.9539378E-01
        -11   -1    0    0    0    0  0.00000000000E+00  0.00000000000E+00  0.50000000000E+03  0.50000000000E+03  0.00000000000E+00 0.  1.
         11   -1    0    0    0    0 -0.00000000000E+00 -0.00000000000E+00 -0.50000000000E+03  0.50000000000E+03  0.00000000000E+00 0. -1.
         23    2    1    2    0    0  0.95194128247E+02  0.21127600611E+02 -0.39958712132E+03  0.42106140836E+03  0.90080766713E+02 0.  0.
        -11    1    1    2    0    0 -0.11707337677E+02 -0.82409126135E+02  0.45426433001E+03  0.46182724837E+03  0.00000000000E+00 0.  1.
         11    1    1    2    0    0 -0.83486790570E+02  0.61281525525E+02 -0.54677208690E+02  0.11711134326E+03  0.00000000000E+00 0. -1.
        -15    1    3    3    0    0  0.37418381241E+02  0.41746629323E+02 -0.94744709418E+02  0.11010283378E+03  0.17770000000E+01 0.  1.
         15    1    3    3    0    0  0.57775747007E+02 -0.20619028712E+02 -0.30484241190E+03  0.31095857458E+03  0.17770000000E+01 0. -1.
</event>
<event>
 7    1  0.3970441E-006  0.5074129E+03  0.7546771E-02  0.9383374E-01
        -11   -1    0    0    0    0  0.00000000000E+00  0.00000000000E+00  0.50000000000E+03  0.50000000000E+03  0.00000000000E+00 0. -1.
         11   -1    0    0    0    0 -0.00000000000E+00 -0.00000000000E+00 -0.50000000000E+03  0.50000000000E+03  0.00000000000E+00 0.  1.
         23    2    1    2    0    0 -0.41145096074E+02  0.14912317506E+02  0.34282267286E+03  0.35752855585E+03  0.91564114564E+02 0.  0.
        -11    1    1    2    0    0 -0.51940431212E+02  0.96620887493E+01  0.14026454819E+03  0.14988431483E+03  0.00000000000E+00 0. -1.
         11    1    1    2    0    0  0.93085527286E+02 -0.24574406256E+02 -0.48308722105E+03  0.49258712932E+03  0.00000000000E+00 0.  1.
        -15    1    3    3    0    0  0.84199988392E+01  0.39167362560E+02  0.86730740794E+02  0.95552905754E+02  0.17770000000E+01 0.  1.
         15    1    3    3    0    0 -0.49565094913E+02 -0.24255045053E+02  0.25609193207E+03  0.26197565009E+03  0.17770000000E+01 0. -1.
</event>
<event>
 7    1  0.3970441E-006  0.3525523E+03  0.7546771E-02  0.9808018E-01
        -11   -1    0    0    0    0  0.00000000000E+00  0.00000000000E+00  0.50000000000E+03  0.50000000000E+03  0.00000000000E+00 0.  1.
         11   -1    0    0    0    0 -0.00000000000E+00 -0.00000000000E+00 -0.50000000000E+03  0.50000000000E+03  0.00000000000E+00 0. -1.
         23    2    1    2    0    0  0.12551585990E+02 -0.14273314464E+03 -0.23034230832E+03  0.28667087676E+03  0.92694766255E+02 0.  0.
        -11    1    1    2    0    0 -0.82000999125E+02  0.14240559848E+02  0.44553903958E+03  0.45324606252E+03  0.00000000000E+00 0.  1.
         11    1    1    2    0    0  0.69449413135E+02  0.12849258479E+03 -0.21519673126E+03  0.26008306072E+03  0.00000000000E+00 0. -1.
        -15    1    3    3    0    0 -0.15344633682E+02 -0.14077804398E+03 -0.20300234111E+03  0.24752176404E+03  0.17770000000E+01 0.  1.
         15    1    3    3    0    0  0.27896219672E+02 -0.19551006597E+01 -0.27339967208E+02  0.39149112717E+02  0.17770000000E+01 0. -1.
</event>
<event>
 7    1  0.3970441E-006  0.3728469E+03  0.7546771E-02  0.9740217E-01
        -11   -1    0    0    0    0  0.00000000000E+00  0.00000000000E+00  0.50000000000E+03  0.50000000000E+03  0.00000000000E+00 0.  1.
         11   -1    0    0    0    0 -0.00000000000E+00 -0.00000000000E+00 -0.50000000000E+03  0.50000000000E+03  0.00000000000E+00 0. -1.
         23    2    1    2    0    0 -0.72868441929E+01 -0.19224914927E+03 -0.77016725793E+02  0.22604665590E+03  0.90292198436E+02 0.  0.
        -11    1    1    2    0    0 -0.25249986383E+03  0.91323819296E+02  0.31041362955E+03  0.41043007031E+03  0.00000000000E+00 0.  1.
         11    1    1    2    0    0  0.25978670802E+03  0.10092532998E+03 -0.23339690376E+03  0.36352327378E+03  0.00000000000E+00 0. -1.
        -15    1    3    3    0    0 -0.31596010609E+02 -0.24561093066E+02 -0.30438898619E+02  0.50311424718E+02  0.17770000000E+01 0. -1.
         15    1    3    3    0    0  0.24309166416E+02 -0.16768805621E+03 -0.46577827173E+02  0.17573523119E+03  0.17770000000E+01 0.  1.
</event>
<event>
 7    1  0.3970441E-006  0.5237546E+03  0.7546771E-02  0.9348172E-01
        -11   -1    0    0    0    0  0.00000000000E+00  0.00000000000E+00  0.50000000000E+03  0.50000000000E+03  0.00000000000E+00 0. -1.
         11   -1    0    0    0    0 -0.00000000000E+00 -0.00000000000E+00 -0.50000000000E+03  0.50000000000E+03  0.00000000000E+00 0.  1.
         23    2    1    2    0    0 -0.39596287019E+02 -0.45089954256E+02 -0.16515195468E+03  0.19922821350E+03  0.93892188173E+02 0.  0.
        -11    1    1    2    0    0 -0.14924413325E+02  0.27207077833E+03  0.39059499418E+03  0.47624541574E+03  0.00000000000E+00 0. -1.
         11    1    1    2    0    0  0.54520700344E+02 -0.22698082407E+03 -0.22544303950E+03  0.32452637077E+03  0.00000000000E+00 0.  1.
        -15    1    3    3    0    0  0.15029208841E+00 -0.41795713056E+02 -0.15939748474E+02  0.44767594620E+02  0.17770000000E+01 0. -1.
         15    1    3    3    0    0 -0.39746579107E+02 -0.32942411999E+01 -0.14921220620E+03  0.15446061888E+03  0.17770000000E+01 0.  1.
</event>
<event>
 7    1  0.3970441E-006  0.5104169E+03  0.7546771E-02  0.9376798E-01
        -11   -1    0    0    0    0  0.00000000000E+00  0.00000000000E+00  0.50000000000E+03  0.50000000000E+03  0.00000000000E+00 0. -1.
         11   -1    0    0    0    0 -0.00000000000E+00 -0.00000000000E+00 -0.50000000000E+03  0.50000000000E+03  0.00000000000E+00 0. -1.
         23    2    1    2    0    0 -0.11673805254E+03 -0.24651057395E+02  0.41615783157E+03  0.43733985304E+03  0.61994828313E+02 0.  0.
        -11    1    1    2    0    0  0.23815440399E+02 -0.32132600777E+02  0.61160284364E+02  0.73077079974E+02  0.00000000000E+00 0. -1.
         11    1    1    2    0    0  0.92922612146E+02  0.56783658171E+02 -0.47731811593E+03  0.48958306699E+03  0.00000000000E+00 0. -1.
        -15    1    3    3    0    0 -0.28116523255E+02 -0.34992433678E+02  0.15326554570E+03  0.15971378939E+03  0.17770000000E+01 0.  1.
         15    1    3    3    0    0 -0.88621529290E+02  0.10341376284E+02  0.26289228587E+03  0.27762606365E+03  0.17770000000E+01 0. -1.
</event>
<event>
 7    1  0.3970441E-006  0.4608666E+03  0.7546771E-02  0.9491900E-01
        -11   -1    0    0    0    0  0.00000000000E+00  0.00000000000E+00  0.50000000000E+03  0.50000000000E+03  0.00000000000E+00 0.  1.
         11   -1    0    0    0    0 -0.00000000000E+00 -0.00000000000E+00 -0.50000000000E+03  0.50000000000E+03  0.00000000000E+00 0.  1.
         23    2    1    2    0    0  0.19248797997E+02 -0.10834892953E+03 -0.40986821298E+03  0.43703208131E+03  0.10437950627E+03 0.  0.
        -11    1    1    2    0    0 -0.77094672412E+02  0.16413543464E+03  0.44096661543E+03  0.47679721616E+03  0.00000000000E+00 0.  1.
         11    1    1    2    0    0  0.57845874415E+02 -0.55786505109E+02 -0.31098402450E+02  0.86170702527E+02  0.00000000000E+00 0.  1.
        -15    1    3    3    0    0  0.57246210175E+02 -0.35394926787E+02 -0.14920525117E+03  0.16369268196E+03  0.17770000000E+01 0. -1.
         15    1    3    3    0    0 -0.37997412178E+02 -0.72954002746E+02 -0.26066296181E+03  0.27333939935E+03  0.17770000000E+01 0.  1.
</event>
<event>
 7    1  0.3970441E-006  0.3259869E+03  0.7546771E-02  0.9904553E-01
        -11   -1    0    0    0    0  0.00000000000E+00  0.00000000000E+00  0.50000000000E+03  0.50000000000E+03  0.00000000000E+00 0. -1.
         11   -1    0    0    0    0 -0.00000000000E+00 -0.00000000000E+00 -0.50000000000E+03  0.50000000000E+03  0.00000000000E+00 0. -1.
         23    2    1    2    0    0  0.14249736301E+03 -0.74045707763E+02 -0.36087378311E+03  0.40404557084E+03  0.85056867275E+02 0.  0.
        -11    1    1    2    0    0  0.11314187945E+03 -0.45264085911E+02  0.27543789454E+03  0.30119089646E+03  0.00000000000E+00 0. -1.
         11    1    1    2    0    0 -0.25563924247E+03  0.11930979367E+03  0.85435888572E+02  0.29476353270E+03  0.00000000000E+00 0. -1.
        -15    1    3    3    0    0  0.23876218648E+02 -0.56822063386E+02 -0.13129268248E+03  0.14505084249E+03  0.17770000000E+01 0. -1.
         15    1    3    3    0    0  0.11862114437E+03 -0.17223644378E+02 -0.22958110063E+03  0.25899472835E+03  0.17770000000E+01 0.  1.
</event>
<event>
 7    1  0.3970441E-006  0.5111004E+03  0.7546771E-02  0.9375309E-01
        -11   -1    0    0    0    0  0.00000000000E+00  0.00000000000E+00  0.50000000000E+03  0.50000000000E+03  0.00000000000E+00 0.  1.
         11   -1    0    0    0    0 -0.00000000000E+00 -0.00000000000E+00 -0.50000000000E+03  0.50000000000E+03  0.00000000000E+00 0. -1.
         23    2    1    2    0    0  0.60309352878E+02  0.13520652075E+03  0.30768267123E+03  0.35346135084E+03  0.91368917401E+02 0.  0.
        -11    1    1    2    0    0  0.83739423253E+02  0.24940962747E+02  0.13120865856E+03  0.15763900124E+03  0.00000000000E+00 0.  1.
         11    1    1    2    0    0 -0.14404877613E+03 -0.16014748350E+03 -0.43889132979E+03  0.48889964792E+03  0.00000000000E+00 0. -1.
        -15    1    3    3    0    0  0.12727272372E+02  0.23796212502E+02  0.16079139889E+03  0.16304991529E+03  0.17770000000E+01 0.  1.
         15    1    3    3    0    0  0.47582080507E+02  0.11141030825E+03  0.14689127234E+03  0.19041143555E+03  0.17770000000E+01 0. -1.
</event>
<event>
 7    1  0.3970441E-006  0.5189446E+03  0.7546771E-02  0.9358390E-01
        -11   -1    0    0    0    0  0.00000000000E+00  0.00000000000E+00  0.50000000000E+03  0.50000000000E+03  0.00000000000E+00 0.  1.
         11   -1    0    0    0    0 -0.00000000000E+00 -0.00000000000E+00 -0.50000000000E+03  0.50000000000E+03  0.00000000000E+00 0. -1.
         23    2    1    2    0    0 -0.24728131351E+02 -0.89073385261E+02 -0.23534942591E+03  0.26906377600E+03  0.91980513364E+02 0.  0.
        -11    1    1    2    0    0 -0.73730531328E+02  0.99876956793E+02  0.46476087816E+03  0.48105537271E+03  0.00000000000E+00 0.  1.
         11    1    1    2    0    0  0.98458662680E+02 -0.10803571532E+02 -0.22941145225E+03  0.24988085129E+03  0.00000000000E+00 0. -1.
        -15    1    3    3    0    0  0.60693519043E+01  0.16442040151E+02 -0.16412906157E+02  0.24077353143E+02  0.17770000000E+01 0.  1.
         15    1    3    3    0    0 -0.30797483256E+02 -0.10551542541E+03 -0.21893651975E+03  0.24498642286E+03  0.17770000000E+01 0. -1.
</event>
<event>
 7    1  0.3970441E-006  0.3809644E+03  0.7546771E-02  0.9714380E-01
        -11   -1    0    0    0    0  0.00000000000E+00  0.00000000000E+00  0.50000000000E+03  0.50000000000E+03  0.00000000000E+00 0.  1.
         11   -1    0    0    0    0 -0.00000000000E+00 -0.00000000000E+00 -0.50000000000E+03  0.50000000000E+03  0.00000000000E+00 0.  1.
         23    2    1    2    0    0 -0.98024376109E+02 -0.35658887896E+02  0.16213258663E+03  0.21405935314E+03  0.93027396087E+02 0.  0.
        -11    1    1    2    0    0 -0.31170470660E+03 -0.11303923352E+03 -0.45072566223E+02  0.33461803397E+03  0.00000000000E+00 0.  1.
         11    1    1    2    0    0  0.40972908271E+03  0.14869812141E+03 -0.11706002041E+03  0.45132261289E+03  0.00000000000E+00 0.  1.
        -15    1    3    3    0    0 -0.10581685124E+03 -0.48036066751E+02  0.11051019862E+03  0.16037559491E+03  0.17770000000E+01 0.  1.
         15    1    3    3    0    0  0.77924751283E+01  0.12377178856E+02  0.51622388010E+02  0.53683758232E+02  0.17770000000E+01 0. -1.
</event>
<event>
 7    1  0.3970441E-006  0.5263710E+03  0.7546771E-02  0.9342662E-01
        -11   -1    0    0    0    0  0.00000000000E+00  0.00000000000E+00  0.50000000000E+03  0.50000000000E+03  0.00000000000E+00 0.  1.
         11   -1    0    0    0    0 -0.00000000000E+00 -0.00000000000E+00 -0.50000000000E+03  0.50000000000E+03  0.00000000000E+00 0. -1.
         23    2    1    2    0    0 -0.41667471727E+02  0.44586119788E+02 -0.15449126399E+03  0.18889628365E+03  0.89945289194E+02 0.  0.
        -11    1    1    2    0    0 -0.10392988140E+03 -0.55423532716E+02  0.45874963415E+03  0.47362898461E+03  0.00000000000E+00 0.  1.
         11    1    1    2    0    0  0.14559735313E+03  0.10837412928E+02 -0.30425837016E+03  0.33747473175E+03  0.00000000000E+00 0. -1.
        -15    1    3    3    0    0  0.16445455913E+02 -0.13771007190E+02 -0.12921043047E+02  0.25103879015E+02  0.17770000000E+01 0.  1.
         15    1    3    3    0    0 -0.58112927640E+02  0.58357126978E+02 -0.14157022094E+03  0.16379240463E+03  0.17770000000E+01 0. -1.
</event>
<event>
 7    1  0.3970441E-006  0.4579237E+03  0.7546771E-02  0.9499216E-01
        -11   -1    0    0    0    0  0.00000000000E+00  0.00000000000E+00  0.50000000000E+03  0.50000000000E+03  0.00000000000E+00 0. -1.
         11   -1    0    0    0    0 -0.00000000000E+00 -0.00000000000E+00 -0.50000000000E+03  0.50000000000E+03  0.00000000000E+00 0.  1.
         23    2    1    2    0    0 -0.90873198764E+01  0.14177097001E+02 -0.44999349559E+03  0.45930931232E+03  0.90483859621E+02 0.  0.
        -11    1    1    2    0    0  0.96919190511E+02 -0.40397537235E+01  0.44131575321E+03  0.45185090807E+03  0.00000000000E+00 0. -1.
         11    1    1    2    0    0 -0.87831870634E+02 -0.10137343277E+02  0.86777423810E+01  0.88839779607E+02  0.00000000000E+00 0.  1.
        -15    1    3    3    0    0  0.39936106931E+02 -0.25950669907E+01 -0.18394051389E+03  0.18825221749E+03  0.17770000000E+01 0. -1.
         15    1    3    3    0    0 -0.49023426808E+02  0.16772163991E+02 -0.26605298170E+03  0.27105709483E+03  0.17770000000E+01 0.  1.
</event>
<event>
 7    1  0.3970441E-006  0.5216048E+03  0.7546771E-02  0.9352724E-01
        -11   -1    0    0    0    0  0.00000000000E+00  0.00000000000E+00  0.50000000000E+03  0.50000000000E+03  0.00000000000E+00 0.  1.
         11   -1    0    0    0    0 -0.00000000000E+00 -0.00000000000E+00 -0.50000000000E+03  0.50000000000E+03  0.00000000000E+00 0. -1.
         23    2    1    2    0    0  0.10742676327E+03 -0.84882755863E+02 -0.34294203500E+03  0.38021605189E+03  0.90605822298E+02 0.  0.
        -11    1    1    2    0    0 -0.39029221633E+02  0.12311675192E+03  0.46063106627E+03  0.47839522778E+03  0.00000000000E+00 0.  1.
         11    1    1    2    0    0 -0.68397541633E+02 -0.38233996053E+02 -0.11768903127E+03  0.14138872033E+03  0.00000000000E+00 0. -1.
        -15    1    3    3    0    0  0.22594141462E+02 -0.66547436264E+02 -0.10006674121E+03  0.12229295534E+03  0.17770000000E+01 0.  1.
         15    1    3    3    0    0  0.84832621804E+02 -0.18335319599E+02 -0.24287529380E+03  0.25792309655E+03  0.17770000000E+01 0. -1.
</event>
<event>
 7    1  0.3970441E-006  0.5312171E+03  0.7546771E-02  0.9332547E-01
        -11   -1    0    0    0    0  0.00000000000E+00  0.00000000000E+00  0.50000000000E+03  0.50000000000E+03  0.00000000000E+00 0. -1.
         11   -1    0    0    0    0 -0.00000000000E+00 -0.00000000000E+00 -0.50000000000E+03  0.50000000000E+03  0.00000000000E+00 0.  1.
         23    2    1    2    0    0  0.10131852588E+03 -0.88200369672E+02 -0.22078715245E+03  0.27416143583E+03  0.91502881437E+02 0.  0.
        -11    1    1    2    0    0 -0.11695082381E+03 -0.19803602927E+02  0.45352813591E+03  0.46878294331E+03  0.00000000000E+00 0. -1.
         11    1    1    2    0    0  0.15632297927E+02  0.10800397260E+03 -0.23274098345E+03  0.25705562086E+03  0.00000000000E+00 0.  1.
        -15    1    3    3    0    0  0.46530262549E+02 -0.82508157848E+02 -0.18669238255E+03  0.20935583316E+03  0.17770000000E+01 0.  1.
         15    1    3    3    0    0  0.54788263332E+02 -0.56922118247E+01 -0.34094769899E+02  0.64805602674E+02  0.17770000000E+01 0. -1.
</event>
<event>
 7    1  0.3970441E-006  0.5193448E+03  0.7546771E-02  0.9357535E-01
        -11   -1    0    0    0    0  0.00000000000E+00  0.00000000000E+00  0.50000000000E+03  0.50000000000E+03  0.00000000000E+00 0. -1.
         11   -1    0    0    0    0 -0.00000000000E+00 -0.00000000000E+00 -0.50000000000E+03  0.50000000000E+03  0.00000000000E+00 0.  1.
         23    2    1    2    0    0 -0.22386344519E+02 -0.40685613979E+02  0.25888560920E+03  0.27744022203E+03  0.88288450775E+02 0.  0.
        -11    1    1    2    0    0 -0.14380831801E+03 -0.88468784296E+02  0.17323466523E+03  0.24190454184E+03  0.00000000000E+00 0. -1.
         11    1    1    2    0    0  0.16619466253E+03  0.12915439827E+03 -0.43212027443E+03  0.48065523614E+03  0.00000000000E+00 0.  1.
        -15    1    3    3    0    0  0.25350498057E+02  0.11535985635E+02  0.56095132582E+02  0.62654196545E+02  0.17770000000E+01 0.  1.
         15    1    3    3    0    0 -0.47736842575E+02 -0.52221599613E+02  0.20279047662E+03  0.21478602548E+03  0.17770000000E+01 0. -1.
</event>
<event>
 7    1  0.3970441E-006  0.4739142E+03  0.7546771E-02  0.9460148E-01
        -11   -1    0    0    0    0  0.00000000000E+00  0.00000000000E+00  0.50000000000E+03  0.50000000000E+03  0.00000000000E+00 0.  1.
         11   -1    0    0    0    0 -0.00000000000E+00 -0.00000000000E+00 -0.50000000000E+03  0.50000000000E+03  0.00000000000E+00 0. -1.
         23    2    1    2    0    0  0.76924932603E+02 -0.30211431692E+02 -0.46347069373E+03  0.47944403924E+03  0.90726660692E+02 0.  0.
        -11    1    1    2    0    0 -0.37484234568E+02  0.73187506055E+02  0.45409048062E+03  0.46147550691E+03  0.00000000000E+00 0.  1.
         11    1    1    2    0    0 -0.39440698035E+02 -0.42976074363E+02  0.93802131086E+01  0.59080453850E+02  0.00000000000E+00 0. -1.
        -15    1    3    3    0    0  0.20736197318E+02 -0.49273210627E+02 -0.31565008814E+03  0.32014992587E+03  0.17770000000E+01 0.  1.
         15    1    3    3    0    0  0.56188735285E+02  0.19061778936E+02 -0.14782060559E+03  0.15929411338E+03  0.17770000000E+01 0. -1.
</event>
<event>
 7    1  0.3970441E-006  0.4171676E+03  0.7546771E-02  0.9606993E-01
        -11   -1    0    0    0    0  0.00000000000E+00  0.00000000000E+00  0.50000000000E+03  0.50000000000E+03  0.00000000000E+00 0.  1.
         11   -1    0    0    0    0 -0.00000000000E+00 -0.00000000000E+00 -0.50000000000E+03  0.50000000000E+03  0.00000000000E+00 0. -1.
         23    2    1    2    0    0  0.11684430388E+03  0.50676480266E+02 -0.13321218871E+02  0.15589484501E+03  0.88910352763E+02 0.  0.
        -11    1    1    2    0    0  0.27381372321E+03 -0.10075756645E+03  0.25033058291E+03  0.38443652656E+03  0.00000000000E+00 0.  1.
         11    1    1    2    0    0 -0.39065802709E+03  0.50081086180E+02 -0.23700936403E+03  0.45966862843E+03  0.00000000000E+00 0. -1.
        -15    1    3    3    0    0  0.12242508012E+03  0.37057258243E+02  0.99425493770E+01  0.12830881750E+03  0.17770000000E+01 0. -1.
         15    1    3    3    0    0 -0.55807762409E+01  0.13619222022E+02 -0.23263768248E+02  0.27586027515E+02  0.17770000000E+01 0.  1.
</event>
<event>
 7    1  0.3970441E-006  0.5311113E+03  0.7546771E-02  0.9332766E-01
        -11   -1    0    0    0    0  0.00000000000E+00  0.00000000000E+00  0.50000000000E+03  0.50000000000E+03  0.00000000000E+00 0.  1.
         11   -1    0    0    0    0 -0.00000000000E+00 -0.00000000000E+00 -0.50000000000E+03  0.50000000000E+03  0.00000000000E+00 0.  1.
         23    2    1    2    0    0 -0.97782723487E+02  0.31716212471E+00 -0.19574709617E+03  0.23714223177E+03  0.91421829041E+02 0.  0.
        -11    1    1    2    0    0  0.10549080802E+03 -0.20132241946E+03  0.41011896465E+03  0.46888867796E+03  0.00000000000E+00 0.  1.
         11    1    1    2    0    0 -0.77080845283E+01  0.20100525733E+03 -0.21437186847E+03  0.29396909027E+03  0.00000000000E+00 0.  1.
        -15    1    3    3    0    0 -0.75490200435E+02  0.20860589091E+02 -0.19095462413E+03  0.20639951730E+03  0.17770000000E+01 0.  1.
         15    1    3    3    0    0 -0.22292523052E+02 -0.20543426966E+02 -0.47924720463E+01  0.30742714468E+02  0.17770000000E+01 0. -1.
</event>
<event>
 7    1  0.3970441E-006  0.5070208E+03  0.7546771E-02  0.9384236E-01
        -11   -1    0    0    0    0  0.00000000000E+00  0.00000000000E+00  0.50000000000E+03  0.50000000000E+03  0.00000000000E+00 0. -1.
         11   -1    0    0    0    0 -0.00000000000E+00 -0.00000000000E+00 -0.50000000000E+03  0.50000000000E+03  0.00000000000E+00 0.  1.
         23    2    1    2    0    0  0.12863382501E+03 -0.21878251393E+02  0.33217762369E+03  0.36805732521E+03  0.89993900549E+02 0.  0.
        -11    1    1    2    0    0  0.26094890017E+02  0.13559232605E+02  0.13581626873E+03  0.13896350214E+03  0.00000000000E+00 0. -1.
         11    1    1    2    0    0 -0.15472871503E+03  0.83190187881E+01 -0.46799389242E+03  0.49297917266E+03  0.00000000000E+00 0.  1.
        -15    1    3    3    0    0  0.91015901615E+02 -0.54871352808E+02  0.25242492440E+03  0.27389096351E+03  0.17770000000E+01 0.  1.
         15    1    3    3    0    0  0.37617923399E+02  0.32993101415E+02  0.79752699288E+02  0.94166361693E+02  0.17770000000E+01 0. -1.
</event>
<event>
 7    1  0.3970441E-006  0.3855677E+03  0.7546771E-02  0.9700032E-01
        -11   -1    0    0    0    0  0.00000000000E+00  0.00000000000E+00  0.50000000000E+03  0.50000000000E+03  0.00000000000E+00 0. -1.
         11   -1    0    0    0    0 -0.00000000000E+00 -0.00000000000E+00 -0.50000000000E+03  0.50000000000E+03  0.00000000000E+00 0.  1.
         23    2    1    2    0    0  0.10637451409E+03 -0.46380204755E+02 -0.29615224868E+03  0.32990799238E+03  0.87558371361E+02 0.  0.
        -11    1    1    2    0    0 -0.11489320986E+03 -0.11592919275E+03  0.42974859422E+03  0.45969977337E+03  0.00000000000E+00 0. -1.
         11    1    1    2    0    0  0.85186957704E+01  0.16230939750E+03 -0.13359634554E+03  0.21039223426E+03  0.00000000000E+00 0.  1.
        -15    1    3    3    0    0 -0.37592241393E+01  0.16569503849E+02 -0.52431156771E+02  0.55144030985E+02  0.17770000000E+01 0.  1.
         15    1    3    3    0    0  0.11013373823E+03 -0.62949708604E+02 -0.24372109191E+03  0.27476396139E+03  0.17770000000E+01 0. -1.
</event>
<event>
 7    1  0.3970441E-006  0.5153327E+03  0.7546771E-02  0.9366140E-01
        -11   -1    0    0    0    0  0.00000000000E+00  0.00000000000E+00  0.50000000000E+03  0.50000000000E+03  0.00000000000E+00 0.  1.
         11   -1    0    0    0    0 -0.00000000000E+00 -0.00000000000E+00 -0.50000000000E+03  0.50000000000E+03  0.00000000000E+00 0.  1.
         23    2    1    2    0    0  0.16287558467E-01 -0.17029790965E+02 -0.16148258384E+03  0.18578543999E+03  0.90275083953E+02 0.  0.
        -11    1    1    2    0    0  0.10774078591E+03  0.96902879725E+02  0.46249771271E+03  0.48466728723E+03  0.00000000000E+00 0.  1.
         11    1    1    2    0    0 -0.10775707347E+03 -0.79873088760E+02 -0.30101512887E+03  0.32954727279E+03  0.00000000000E+00 0.  1.
        -15    1    3    3    0    0  0.20380049232E+02 -0.40776897683E+02 -0.14137940055E+03  0.14855771411E+03  0.17770000000E+01 0. -1.
         15    1    3    3    0    0 -0.20363761674E+02  0.23747106718E+02 -0.20103183284E+02  0.37227725879E+02  0.17770000000E+01 0.  1.
</event>
<event>
 7    1  0.3970441E-006  0.3118792E+03  0.7546771E-02  0.9959929E-01
        -11   -1    0    0    0    0  0.00000000000E+00  0.00000000000E+00  0.50000000000E+03  0.50000000000E+03  0.00000000000E+00 0.  1.
         11   -1    0    0    0    0 -0.00000000000E+00 -0.00000000000E+00 -0.50000000000E+03  0.50000000000E+03  0.00000000000E+00 0. -1.
         23    2    1    2    0    0 -0.12216942264E+03 -0.24780884499E+03 -0.20306625709E+03  0.35504711676E+03  0.92130119239E+02 0.  0.
        -11    1    1    2    0    0  0.11686126382E+03 -0.73480358677E+02  0.28208146475E+03  0.31404756145E+03  0.00000000000E+00 0.  1.
         11    1    1    2    0    0  0.53081588151E+01  0.32128920367E+03 -0.79015207666E+02  0.33090532179E+03  0.00000000000E+00 0. -1.
        -15    1    3    3    0    0 -0.13613823285E+03 -0.22224893058E+03 -0.19247267770E+03  0.32400168977E+03  0.17770000000E+01 0.  1.
         15    1    3    3    0    0  0.13968810215E+02 -0.25559914415E+02 -0.10593579389E+02  0.31045426990E+02  0.17770000000E+01 0. -1.
</event>
<event>
 7    1  0.3970441E-006  0.4900773E+03  0.7546771E-02  0.9422290E-01
        -11   -1    0    0    0    0  0.00000000000E+00  0.00000000000E+00  0.50000000000E+03  0.50000000000E+03  0.00000000000E+00 0.  1.
         11   -1    0    0    0    0 -0.00000000000E+00 -0.00000000000E+00 -0.50000000000E+03  0.50000000000E+03  0.00000000000E+00 0. -1.
         23    2    1    2    0    0 -0.31448225941E+02  0.90652262371E+02  0.45955116888E+03  0.47822255622E+03  0.91119223406E+02 0.  0.
        -11    1    1    2    0    0  0.12429803892E+02  0.65853750261E+01  0.24196049083E+02  0.27987782696E+02  0.00000000000E+00 0.  1.
         11    1    1    2    0    0  0.19018422050E+02 -0.97237637397E+02 -0.48374721796E+03  0.49378966108E+03  0.00000000000E+00 0. -1.
        -15    1    3    3    0    0 -0.56003779260E+02  0.48025500455E+02  0.35597372433E+03  0.36354273769E+03  0.17770000000E+01 0.  1.
         15    1    3    3    0    0  0.24555553318E+02  0.42626761915E+02  0.10357744455E+03  0.11467981853E+03  0.17770000000E+01 0. -1.
</event>
<event>
 7    1  0.3970441E-006  0.3734115E+03  0.7546771E-02  0.9738397E-01
        -11   -1    0    0    0    0  0.00000000000E+00  0.00000000000E+00  0.50000000000E+03  0.50000000000E+03  0.00000000000E+00 0. -1.
         11   -1    0    0    0    0 -0.00000000000E+00 -0.00000000000E+00 -0.50000000000E+03  0.50000000000E+03  0.00000000000E+00 0.  1.
         23    2    1    2    0    0  0.14421938525E+02 -0.16454738534E+03  0.11734098539E+03  0.22618009285E+03  0.10052210312E+03 0.  0.
        -11    1    1    2    0    0  0.98868069140E+02  0.38892427482E+02  0.30279778919E+03  0.32089564838E+03  0.00000000000E+00 0. -1.
         11    1    1    2    0    0 -0.11329000767E+03  0.12565495786E+03 -0.42013877458E+03  0.45292425877E+03  0.00000000000E+00 0.  1.
        -15    1    3    3    0    0 -0.16307209652E+02 -0.42423319551E+02  0.84597744175E+02  0.96049982701E+02  0.17770000000E+01 0. -1.
         15    1    3    3    0    0  0.30729148177E+02 -0.12212406579E+03  0.32743241217E+02  0.13013011015E+03  0.17770000000E+01 0.  1.
</event>
<event>
 7    1  0.3970441E-006  0.4650352E+03  0.7546771E-02  0.9481635E-01
        -11   -1    0    0    0    0  0.00000000000E+00  0.00000000000E+00  0.50000000000E+03  0.50000000000E+03  0.00000000000E+00 0. -1.
         11   -1    0    0    0    0 -0.00000000000E+00 -0.00000000000E+00 -0.50000000000E+03  0.50000000000E+03  0.00000000000E+00 0. -1.
         23    2    1    2    0    0  0.37111147610E+02 -0.23239306099E+02 -0.42720684301E+03  0.43905876008E+03  0.91376175558E+02 0.  0.
        -11    1    1    2    0    0 -0.79295834894E+02  0.65478586456E+02  0.47403990038E+03  0.48506607990E+03  0.00000000000E+00 0. -1.
         11    1    1    2    0    0  0.42184687284E+02 -0.42239280357E+02 -0.46833057370E+02  0.75875160026E+02  0.00000000000E+00 0. -1.
        -15    1    3    3    0    0  0.30128782970E+02  0.30002031401E+02 -0.12324957443E+03  0.13038972650E+03  0.17770000000E+01 0. -1.
         15    1    3    3    0    0  0.69823646402E+01 -0.53241337500E+02 -0.30395726858E+03  0.30866903357E+03  0.17770000000E+01 0.  1.
</event>
<event>
 7    1  0.3970441E-006  0.5130552E+03  0.7546771E-02  0.9371062E-01
        -11   -1    0    0    0    0  0.00000000000E+00  0.00000000000E+00  0.50000000000E+03  0.50000000000E+03  0.00000000000E+00 0. -1.
         11   -1    0    0    0    0 -0.00000000000E+00 -0.00000000000E+00 -0.50000000000E+03  0.50000000000E+03  0.00000000000E+00 0.  1.
         23    2    1    2    0    0 -0.49051013506E+02 -0.54817789947E+02 -0.30183168996E+03  0.32392262308E+03  0.91719707013E+02 0.  0.
        -11    1    1    2    0    0  0.14402984431E+03  0.13198061046E+03  0.44604007325E+03  0.48694478592E+03  0.00000000000E+00 0. -1.
         11    1    1    2    0    0 -0.94978830800E+02 -0.77162820511E+02 -0.14420838329E+03  0.18913259100E+03  0.00000000000E+00 0.  1.
        -15    1    3    3    0    0 -0.44480715412E+02  0.71043237010E+01 -0.65149321240E+02  0.79224978674E+02  0.17770000000E+01 0.  1.
         15    1    3    3    0    0 -0.45702980939E+01 -0.61922113648E+02 -0.23668236872E+03  0.24469764440E+03  0.17770000000E+01 0. -1.
</event>
<event>
 7    1  0.3970441E-006  0.5190613E+03  0.7546771E-02  0.9358141E-01
        -11   -1    0    0    0    0  0.00000000000E+00  0.00000000000E+00  0.50000000000E+03  0.50000000000E+03  0.00000000000E+00 0.  1.
         11   -1    0    0    0    0 -0.00000000000E+00 -0.00000000000E+00 -0.50000000000E+03  0.50000000000E+03  0.00000000000E+00 0.  1.
         23    2    1    2    0    0 -0.25868905719E+02 -0.13414077835E+03  0.20088268584E+03  0.25967069900E+03  0.91717336157E+02 0.  0.
        -11    1    1    2    0    0 -0.52452090296E+02 -0.84752946001E+00  0.25403055155E+03  0.25939055728E+03  0.00000000000E+00 0.  1.
         11    1    1    2    0    0  0.78320996015E+02  0.13498830781E+03 -0.45491323739E+03  0.48093874372E+03  0.00000000000E+00 0.  1.
        -15    1    3    3    0    0 -0.17020395651E+02 -0.10396251844E+03  0.73534863680E+02  0.12848514706E+03  0.17770000000E+01 0. -1.
         15    1    3    3    0    0 -0.88485100680E+01 -0.30178259905E+02  0.12734782216E+03  0.13118555194E+03  0.17770000000E+01 0.  1.
</event>
<event>
 7    1  0.3970441E-006  0.5102677E+03  0.7546771E-02  0.9377124E-01
        -11   -1    0    0    0    0  0.00000000000E+00  0.00000000000E+00  0.50000000000E+03  0.50000000000E+03  0.00000000000E+00 0.  1.
         11   -1    0    0    0    0 -0.00000000000E+00 -0.00000000000E+00 -0.50000000000E+03  0.50000000000E+03  0.00000000000E+00 0. -1.
         23    2    1    2    0    0 -0.13042598094E+02 -0.51946981263E+01 -0.29973243111E+03  0.31314189867E+03  0.89561287327E+02 0.  0.
        -11    1    1    2    0    0  0.54142649980E+02  0.68257947732E+02  0.48192025302E+03  0.48973227814E+03  0.00000000000E+00 0.  1.
         11    1    1    2    0    0 -0.41100051887E+02 -0.63063249606E+02 -0.18218782191E+03  0.19712582319E+03  0.00000000000E+00 0. -1.
        -15    1    3    3    0    0 -0.14347141068E+02  0.41353149927E+02 -0.15682070874E+03  0.16282449411E+03  0.17770000000E+01 0. -1.
         15    1    3    3    0    0  0.13045429746E+01 -0.46547848054E+02 -0.14291172238E+03  0.15031740456E+03  0.17770000000E+01 0.  1.
</event>
<event>
 7    1  0.3970441E-006  0.3411755E+03  0.7546771E-02  0.9848203E-01
        -11   -1    0    0    0    0  0.00000000000E+00  0.00000000000E+00  0.50000000000E+03  0.50000000000E+03  0.00000000000E+00 0. -1.
         11   -1    0    0    0    0 -0.00000000000E+00 -0.00000000000E+00 -0.50000000000E+03  0.50000000000E+03  0.00000000000E+00 0.  1.
         23    2    1    2    0    0  0.14621818990E+03 -0.11729485486E+03 -0.17500566110E+03  0.27105026410E+03  0.87769141617E+02 0.  0.
        -11    1    1    2    0    0 -0.29618597522E+02  0.11998447036E+03  0.43060992598E+03  0.44799379772E+03  0.00000000000E+00 0. -1.
         11    1    1    2    0    0 -0.11659959238E+03 -0.26896154994E+01 -0.25560426488E+03  0.28095593818E+03  0.00000000000E+00 0.  1.
        -15    1    3    3    0    0  0.14360465482E+03 -0.94189981536E+02 -0.17822354782E+03  0.24750927303E+03  0.17770000000E+01 0. -1.
         15    1    3    3    0    0  0.26135350787E+01 -0.23104873320E+02  0.32178867242E+01  0.23540991073E+02  0.17770000000E+01 0.  1.
</event>
<event>
 7    1  0.3970441E-006  0.5271781E+03  0.7546771E-02  0.9340969E-01
        -11   -1    0    0    0    0  0.00000000000E+00  0.00000000000E+00  0.50000000000E+03  0.50000000000E+03  0.00000000000E+00 0.  1.
         11   -1    0    0    0    0 -0.00000000000E+00 -0.00000000000E+00 -0.50000000000E+03  0.50000000000E+03  0.00000000000E+00 0. -1.
         23    2    1    2    0    0 -0.40303235439E+02 -0.84342304293E+00 -0.17220034702E+03  0.19911579964E+03  0.91482675976E+02 0.  0.
        -11    1    1    2    0    0 -0.10837575341E+03 -0.80120217715E+02  0.45320630509E+03  0.47282185671E+03  0.00000000000E+00 0.  1.
         11    1    1    2    0    0  0.14867898884E+03  0.80963640757E+02 -0.28100595807E+03  0.32806234365E+03  0.00000000000E+00 0. -1.
        -15    1    3    3    0    0 -0.33439974654E+02  0.43536763302E+02 -0.90214217213E+02  0.10561933715E+03  0.17770000000E+01 0.  1.
         15    1    3    3    0    0 -0.68632607849E+01 -0.44380186345E+02 -0.81986129804E+02  0.93496462488E+02  0.17770000000E+01 0. -1.
</event>
<event>
 7    1  0.3970441E-006  0.3471689E+03  0.7546771E-02  0.9826827E-01
        -11   -1    0    0    0    0  0.00000000000E+00  0.00000000000E+00  0.50000000000E+03  0.50000000000E+03  0.00000000000E+00 0. -1.
         11   -1    0    0    0    0 -0.00000000000E+00 -0.00000000000E+00 -0.50000000000E+03  0.50000000000E+03  0.00000000000E+00 0. -1.
         23    2    1    2    0    0 -0.48656175349E+02 -0.12117833548E+02 -0.24199535518E+03  0.26299187984E+03  0.89937265037E+02 0.  0.
        -11    1    1    2    0    0 -0.14408502566E+03 -0.76466730734E+02  0.42602297747E+03  0.45618333251E+03  0.00000000000E+00 0. -1.
         11    1    1    2    0    0  0.19274120101E+03  0.88584564282E+02 -0.18402762229E+03  0.28082478765E+03  0.00000000000E+00 0. -1.
        -15    1    3    3    0    0 -0.27444013672E+02 -0.49406883152E+02 -0.10280706771E+03  0.11733143181E+03  0.17770000000E+01 0. -1.
         15    1    3    3    0    0 -0.21212161677E+02  0.37289049604E+02 -0.13918828747E+03  0.14566044803E+03  0.17770000000E+01 0.  1.
</event>
<event>
 7    1  0.3970441E-006  0.5252328E+03  0.7546771E-02  0.9345054E-01
        -11   -1    0    0    0    0  0.00000000000E+00  0.00000000000E+00  0.50000000000E+03  0.50000000000E+03  0.00000000000E+00 0. -1.
         11   -1    0    0    0    0 -0.00000000000E+00 -0.00000000000E+00 -0.50000000000E+03  0.50000000000E+03  0.00000000000E+00 0.  1.
         23    2    1    2    0    0 -0.10269646951E+03  0.11553293815E+03 -0.27440358690E+03  0.32778149666E+03  0.90823765604E+02 0.  0.
        -11    1    1    2    0    0  0.13766191966E+03 -0.38350587547E+02  0.45274969502E+03  0.47476716192E+03  0.00000000000E+00 0. -1.
         11    1    1    2    0    0 -0.34965450150E+02 -0.77182350603E+02 -0.17834610812E+03  0.19745134143E+03  0.00000000000E+00 0.  1.
        -15    1    3    3    0    0 -0.11608686338E+03  0.11244045528E+03 -0.26690261905E+03  0.31202432857E+03  0.17770000000E+01 0.  1.
         15    1    3    3    0    0  0.13390393876E+02  0.30924828722E+01 -0.75009678528E+01  0.15757168089E+02  0.17770000000E+01 0. -1.
</event>
<event>
 7    1  0.3970441E-006  0.5211306E+03  0.7546771E-02  0.9353731E-01
        -11   -1    0    0    0    0  0.00000000000E+00  0.00000000000E+00  0.50000000000E+03  0.50000000000E+03  0.00000000000E+00 0. -1.
         11   -1    0    0    0    0 -0.00000000000E+00 -0.00000000000E+00 -0.50000000000E+03  0.50000000000E+03  0.00000000000E+00 0. -1.
         23    2    1    2    0    0 -0.20428464477E+03 -0.59831644699E+01  0.19315352426E+03  0.29419842876E+03  0.86466277834E+02 0.  0.
        -11    1    1    2    0    0 -0.19833940591E+03  0.98837852777E+02  0.48895574440E+02  0.22693218872E+03  0.00000000000E+00 0. -1.
         11    1    1    2    0    0  0.40262405069E+03 -0.92854688307E+02 -0.24204909870E+03  0.47886938252E+03  0.00000000000E+00 0. -1.
        -15    1    3    3    0    0 -0.55798778404E+02  0.35687524787E+02  0.73784685646E+02  0.99168748412E+02  0.17770000000E+01 0.  1.
         15    1    3    3    0    0 -0.14848586637E+03 -0.41670689257E+02  0.11936883861E+03  0.19502968035E+03  0.17770000000E+01 0. -1.
</event>
<event>
 7    1  0.3970441E-006  0.3811627E+03  0.7546771E-02  0.9713757E-01
        -11   -1    0    0    0    0  0.00000000000E+00  0.00000000000E+00  0.50000000000E+03  0.50000000000E+03  0.00000000000E+00 0. -1.
         11   -1    0    0    0    0 -0.00000000000E+00 -0.00000000000E+00 -0.50000000000E+03  0.50000000000E+03  0.00000000000E+00 0. -1.
         23    2    1    2    0    0 -0.49648206613E+02 -0.77698639349E+02 -0.31302479032E+03  0.33350280695E+03  0.68830079988E+02 0.  0.
        -11    1    1    2    0    0  0.21706201348E+03 -0.27091389119E+02  0.39589706821E+03  0.45231001501E+03  0.00000000000E+00 0. -1.
         11    1    1    2    0    0 -0.16741380687E+03  0.10479002847E+03 -0.82872277889E+02  0.21418717805E+03  0.00000000000E+00 0. -1.
        -15    1    3    3    0    0 -0.55533490491E+02 -0.36795943223E+02 -0.24489414447E+03  0.25379954635E+03  0.17770000000E+01 0. -1.
         15    1    3    3    0    0  0.58852838778E+01 -0.40902696127E+02 -0.68130645845E+02  0.79703260592E+02  0.17770000000E+01 0.  1.
</event>
<event>
 7    1  0.3970441E-006  0.3499010E+03  0.7546771E-02  0.9817236E-01
        -11   -1    0    0    0    0  0.00000000000E+00  0.00000000000E+00  0.50000000000E+03  0.50000000000E+03  0.00000000000E+00 0.  1.
         11   -1    0    0    0    0 -0.00000000000E+00 -0.00000000000E+00 -0.50000000000E+03  0.50000000000E+03  0.00000000000E+00 0. -1.
         23    2    1    2    0    0 -0.94563960615E+02 -0.21084856392E+03 -0.73934890840E+02  0.25933234285E+03  0.91582948234E+02 0.  0.
        -11    1    1    2    0    0  0.34545668811E+03  0.17520075987E+03  0.22271484955E+03  0.44680816223E+03  0.00000000000E+00 0.  1.
         11    1    1    2    0    0 -0.25089272750E+03  0.35647804050E+02 -0.14877995871E+03  0.29385949493E+03  0.00000000000E+00 0. -1.
        -15    1    3    3    0    0 -0.63428740225E+02 -0.13963388955E+03 -0.92889863611E+02  0.17931121740E+03  0.17770000000E+01 0.  1.
         15    1    3    3    0    0 -0.31135220389E+02 -0.71214674376E+02  0.18954972771E+02  0.80021125441E+02  0.17770000000E+01 0. -1.
</event>
