<event>
 6    1  0.9304962E-005  0.3616221E+03  0.7546771E-02  0.9777129E-01
        -11   -1    0    0    0    0  0.00000000000E+00  0.00000000000E+00  0.50000000000E+03  0.50000000000E+03  0.00000000000E+00 0. -1.
         11   -1    0    0    0    0 -0.00000000000E+00 -0.00000000000E+00 -0.50000000000E+03  0.50000000000E+03  0.00000000000E+00 0. -1.
        -11    1    1    2    0    0 -0.76389510532E+02  0.13844644539E+02  0.31649126822E+03  0.32587383197E+03  0.00000000000E+00 0. -1.
         11    1    1    2    0    0 -0.77847609970E+02  0.14610390677E+02 -0.41290655169E+03  0.42043493470E+03  0.00000000000E+00 0. -1.
        -15    1    1    2    0    0  0.42652271450E+02  0.72197371563E+02  0.26671549795E+02  0.88012533300E+02  0.17770000000E+01 0.  1.
         15    1    1    2    0    0  0.11158484905E+03 -0.10065240678E+03  0.69743733672E+02  0.16567870003E+03  0.17770000000E+01 0. -1.
</event>
<event>
 6    1  0.9304962E-005  0.5243694E+03  0.7546771E-02  0.9346874E-01
        -11   -1    0    0    0    0  0.00000000000E+00  0.00000000000E+00  0.50000000000E+03  0.50000000000E+03  0.00000000000E+00 0. -1.
         11   -1    0    0    0    0 -0.00000000000E+00 -0.00000000000E+00 -0.50000000000E+03  0.50000000000E+03  0.00000000000E+00 0.  1.
        -11    1    1    2    0    0  0.36834545462E+02 -0.12065325801E+02  0.47404862793E+03  0.47563058929E+03  0.00000000000E+00 0. -1.
         11    1    1    2    0    0 -0.50868321563E+00 -0.30434708896E+02 -0.42636025895E+03  0.42744543590E+03  0.00000000000E+00 0.  1.
        -15    1    1    2    0    0 -0.23033855147E+02  0.57808065623E+02 -0.26850993366E+02  0.67797230827E+02  0.17770000000E+01 0. -1.
         15    1    1    2    0    0 -0.13292007099E+02 -0.15308030927E+02 -0.20837375614E+02  0.29126743983E+02  0.17770000000E+01 0.  1.
</event>
<event>
 6    1  0.9304962E-005  0.5095901E+03  0.7546771E-02  0.9378603E-01
        -11   -1    0    0    0    0  0.00000000000E+00  0.00000000000E+00  0.50000000000E+03  0.50000000000E+03  0.00000000000E+00 0. -1.
         11   -1    0    0    0    0 -0.00000000000E+00 -0.00000000000E+00 -0.50000000000E+03  0.50000000000E+03  0.00000000000E+00 0.  1.
        -11    1    1    2    0    0  0.75921050725E+01 -0.13073935626E+02  0.37290014134E+03  0.37320648877E+03  0.00000000000E+00 0. -1.
         11    1    1    2    0    0 -0.34696527108E+02 -0.26153026246E+02 -0.48848137838E+03  0.49040991711E+03  0.00000000000E+00 0.  1.
        -15    1    1    2    0    0  0.35892845756E+02  0.40681781340E+02  0.63600235239E+02  0.83614899157E+02  0.17770000000E+01 0.  1.
         15    1    1    2    0    0 -0.87884237202E+01 -0.14548194687E+01  0.51981001800E+02  0.52768694965E+02  0.17770000000E+01 0. -1.
</event>
<event>
 6    1  0.9304962E-005  0.2781662E+03  0.7546771E-02  0.1010609E+00
        -11   -1    0    0    0    0  0.00000000000E+00  0.00000000000E+00  0.50000000000E+03  0.50000000000E+03  0.00000000000E+00 0.  1.
         11   -1    0    0    0    0 -0.00000000000E+00 -0.00000000000E+00 -0.50000000000E+03  0.50000000000E+03  0.00000000000E+00 0. -1.
        -11    1    1    2    0    0  0.19959685036E+01  0.28540761982E+01  0.18643871018E+03  0.18647123718E+03  0.00000000000E+00 0.  1.
         11    1    1    2    0    0 -0.17913596266E+03 -0.88447328312E+02  0.42041568485E+02  0.20415708776E+03  0.00000000000E+00 0. -1.
        -15    1    1    2    0    0  0.33187758440E+03  0.16566480175E+03 -0.77767720401E+02  0.37899674620E+03  0.17770000000E+01 0.  1.
         15    1    1    2    0    0 -0.15473759025E+03 -0.80071549641E+02 -0.15071255826E+03  0.23037492885E+03  0.17770000000E+01 0. -1.
</event>
<event>
 6    1  0.9304962E-005  0.5005396E+03  0.7546771E-02  0.9398603E-01
        -11   -1    0    0    0    0  0.00000000000E+00  0.00000000000E+00  0.50000000000E+03  0.50000000000E+03  0.00000000000E+00 0.  1.
         11   -1    0    0    0    0 -0.00000000000E+00 -0.00000000000E+00 -0.50000000000E+03  0.50000000000E+03  0.00000000000E+00 0. -1.
        -11    1    1    2    0    0 -0.42425448512E+01 -0.10084595851E+01  0.22832316517E+03  0.22836480449E+03  0.00000000000E+00 0.  1.
         11    1    1    2    0    0  0.79214218409E-01 -0.15419229259E+02 -0.49922237020E+03  0.49946044270E+03  0.00000000000E+00 0. -1.
        -15    1    1    2    0    0  0.96584718345E+01  0.15648182567E+02  0.24136944394E+03  0.24207543844E+03  0.17770000000E+01 0.  1.
         15    1    1    2    0    0 -0.54951412017E+01  0.77950627734E+00  0.29529761092E+02  0.30099314378E+02  0.17770000000E+01 0. -1.
</event>
<event>
 6    1  0.9304962E-005  0.3572271E+03  0.7546771E-02  0.9791974E-01
        -11   -1    0    0    0    0  0.00000000000E+00  0.00000000000E+00  0.50000000000E+03  0.50000000000E+03  0.00000000000E+00 0.  1.
         11   -1    0    0    0    0 -0.00000000000E+00 -0.00000000000E+00 -0.50000000000E+03  0.50000000000E+03  0.00000000000E+00 0. -1.
        -11    1    1    2    0    0 -0.21687438679E+01 -0.27014920694E+02  0.32362127675E+03  0.32475412261E+03  0.00000000000E+00 0.  1.
         11    1    1    2    0    0  0.15603092970E+02  0.19179104057E+02 -0.10287496675E+03  0.10580431620E+03  0.00000000000E+00 0. -1.
        -15    1    1    2    0    0  0.51571890238E+00  0.23231214785E+02  0.17329195714E+03  0.17485198153E+03  0.17770000000E+01 0.  1.
         15    1    1    2    0    0 -0.13950068005E+02 -0.15395398148E+02 -0.39403826713E+03  0.39458957966E+03  0.17770000000E+01 0. -1.
</event>
<event>
 6    1  0.9304962E-005  0.5085109E+03  0.7546771E-02  0.9380965E-01
        -11   -1    0    0    0    0  0.00000000000E+00  0.00000000000E+00  0.50000000000E+03  0.50000000000E+03  0.00000000000E+00 0.  1.
         11   -1    0    0    0    0 -0.00000000000E+00 -0.00000000000E+00 -0.50000000000E+03  0.50000000000E+03  0.00000000000E+00 0. -1.
        -11    1    1    2    0    0  0.53566466606E+01  0.56840620541E+01  0.49142702138E+03  0.49148908387E+03  0.00000000000E+00 0.  1.
         11    1    1    2    0    0 -0.54771959195E+02 -0.10676392410E+02 -0.31667486109E+03  0.32155391541E+03  0.00000000000E+00 0. -1.
        -15    1    1    2    0    0 -0.54469913713E+01  0.95081669224E+01 -0.36027641589E+02  0.37699119893E+02  0.17770000000E+01 0.  1.
         15    1    1    2    0    0  0.54862303906E+02 -0.45158365661E+01 -0.13872451870E+03  0.14925788082E+03  0.17770000000E+01 0. -1.
</event>
<event>
 6    1  0.9304962E-005  0.4058272E+03  0.7546771E-02  0.9639338E-01
        -11   -1    0    0    0    0  0.00000000000E+00  0.00000000000E+00  0.50000000000E+03  0.50000000000E+03  0.00000000000E+00 0. -1.
         11   -1    0    0    0    0 -0.00000000000E+00 -0.00000000000E+00 -0.50000000000E+03  0.50000000000E+03  0.00000000000E+00 0. -1.
        -11    1    1    2    0    0 -0.34168492167E+01  0.43823845893E+02  0.22302109146E+03  0.22731170574E+03  0.00000000000E+00 0. -1.
         11    1    1    2    0    0  0.34507814571E+02  0.19751289223E+03 -0.35783506813E+03  0.41018053080E+03  0.00000000000E+00 0. -1.
        -15    1    1    2    0    0 -0.11865221897E+03 -0.19641092649E+03  0.13049232338E+03  0.26398296404E+03  0.17770000000E+01 0. -1.
         15    1    1    2    0    0  0.87561253613E+02 -0.44925811633E+02  0.43216532912E+01  0.98524799423E+02  0.17770000000E+01 0.  1.
</event>
<event>
 6    1  0.9304962E-005  0.5700945E+03  0.7546771E-02  0.9255328E-01
        -11   -1    0    0    0    0  0.00000000000E+00  0.00000000000E+00  0.50000000000E+03  0.50000000000E+03  0.00000000000E+00 0. -1.
         11   -1    0    0    0    0 -0.00000000000E+00 -0.00000000000E+00 -0.50000000000E+03  0.50000000000E+03  0.00000000000E+00 0.  1.
        -11    1    1    2    0    0 -0.63078719437E+01  0.22405846394E+01  0.41459068864E+03  0.41464472573E+03  0.00000000000E+00 0. -1.
         11    1    1    2    0    0  0.47291711415E+01 -0.11981832671E+02 -0.42971243298E+03  0.42990545987E+03  0.00000000000E+00 0.  1.
        -15    1    1    2    0    0  0.57750544475E+02  0.15822688614E+02 -0.43484805216E+02  0.74024110098E+02  0.17770000000E+01 0. -1.
         15    1    1    2    0    0 -0.56171843672E+02 -0.60814405823E+01  0.58606549555E+02  0.81425704301E+02  0.17770000000E+01 0.  1.
</event>
<event>
 6    1  0.9304962E-005  0.5372086E+03  0.7546771E-02  0.9320197E-01
        -11   -1    0    0    0    0  0.00000000000E+00  0.00000000000E+00  0.50000000000E+03  0.50000000000E+03  0.00000000000E+00 0.  1.
         11   -1    0    0    0    0 -0.00000000000E+00 -0.00000000000E+00 -0.50000000000E+03  0.50000000000E+03  0.00000000000E+00 0.  1.
        -11    1    1    2    0    0 -0.22240666686E+01  0.32297370959E+01  0.15146914497E+03  0.15151989821E+03  0.00000000000E+00 0.  1.
         11    1    1    2    0    0  0.17787906045E+02  0.64385202388E+02 -0.45794543077E+03  0.46279140166E+03  0.00000000000E+00 0.  1.
        -15    1    1    2    0    0 -0.14835494228E+02 -0.62049075176E+02 -0.13850095314E+02  0.65308211493E+02  0.17770000000E+01 0. -1.
         15    1    1    2    0    0 -0.72834514793E+00 -0.55658643078E+01  0.32032638111E+03  0.32038048864E+03  0.17770000000E+01 0.  1.
</event>
<event>
 6    1  0.9304962E-005  0.5309552E+03  0.7546771E-02  0.9333090E-01
        -11   -1    0    0    0    0  0.00000000000E+00  0.00000000000E+00  0.50000000000E+03  0.50000000000E+03  0.00000000000E+00 0.  1.
         11   -1    0    0    0    0 -0.00000000000E+00 -0.00000000000E+00 -0.50000000000E+03  0.50000000000E+03  0.00000000000E+00 0. -1.
        -11    1    1    2    0    0  0.44513811583E+02 -0.38066125293E+02  0.46537348913E+03  0.46904476727E+03  0.00000000000E+00 0.  1.
         11    1    1    2    0    0 -0.20335703982E+02 -0.30399447109E+02 -0.31375590877E+03  0.31588041650E+03  0.00000000000E+00 0. -1.
        -15    1    1    2    0    0 -0.18446111937E+02  0.62457976411E+02 -0.19621950449E+01  0.65178721998E+02  0.17770000000E+01 0.  1.
         15    1    1    2    0    0 -0.57319956640E+01  0.60075959907E+01 -0.14965538531E+03  0.14989609423E+03  0.17770000000E+01 0. -1.
</event>
<event>
 6    1  0.9304962E-005  0.5173825E+03  0.7546771E-02  0.9361734E-01
        -11   -1    0    0    0    0  0.00000000000E+00  0.00000000000E+00  0.50000000000E+03  0.50000000000E+03  0.00000000000E+00 0. -1.
         11   -1    0    0    0    0 -0.00000000000E+00 -0.00000000000E+00 -0.50000000000E+03  0.50000000000E+03  0.00000000000E+00 0.  1.
        -11    1    1    2    0    0  0.16061512514E+02 -0.42839471457E+01  0.43910286372E+03  0.43941739760E+03  0.00000000000E+00 0. -1.
         11    1    1    2    0    0  0.13597915584E+02 -0.29694360861E+02 -0.48151114182E+03  0.48261748629E+03  0.00000000000E+00 0.  1.
        -15    1    1    2    0    0 -0.27473805790E+02  0.16594938257E+02  0.10855732651E+00  0.32146096094E+02  0.17770000000E+01 0.  1.
         15    1    1    2    0    0 -0.21856223083E+01  0.17383369749E+02  0.42299720776E+02  0.45819020019E+02  0.17770000000E+01 0. -1.
</event>
<event>
 6    1  0.9304962E-005  0.5130060E+03  0.7546771E-02  0.9371169E-01
        -11   -1    0    0    0    0  0.00000000000E+00  0.00000000000E+00  0.50000000000E+03  0.50000000000E+03  0.00000000000E+00 0.  1.
         11   -1    0    0    0    0 -0.00000000000E+00 -0.00000000000E+00 -0.50000000000E+03  0.50000000000E+03  0.00000000000E+00 0.  1.
        -11    1    1    2    0    0 -0.90545818377E+01  0.63593508825E+01  0.36999810722E+03  0.37016351271E+03  0.00000000000E+00 0.  1.
         11    1    1    2    0    0 -0.94132666050E+01  0.55818341276E+02 -0.48369289619E+03  0.48699395750E+03  0.00000000000E+00 0.  1.
        -15    1    1    2    0    0 -0.20519846528E+02 -0.20174213850E+02  0.32516209040E+02  0.43457158045E+02  0.17770000000E+01 0. -1.
         15    1    1    2    0    0  0.38987694970E+02 -0.42003478308E+02  0.81178579936E+02  0.99385371753E+02  0.17770000000E+01 0.  1.
</event>
<event>
 6    1  0.9304962E-005  0.5435815E+03  0.7546771E-02  0.9307248E-01
        -11   -1    0    0    0    0  0.00000000000E+00  0.00000000000E+00  0.50000000000E+03  0.50000000000E+03  0.00000000000E+00 0.  1.
         11   -1    0    0    0    0 -0.00000000000E+00 -0.00000000000E+00 -0.50000000000E+03  0.50000000000E+03  0.00000000000E+00 0. -1.
        -11    1    1    2    0    0  0.46436618781E+02  0.57147218471E+02  0.32106449897E+03  0.32940032885E+03  0.00000000000E+00 0.  1.
         11    1    1    2    0    0  0.56278991218E+02 -0.91670895120E+02 -0.44356173475E+03  0.45641854738E+03  0.00000000000E+00 0. -1.
        -15    1    1    2    0    0 -0.36359890909E+01 -0.38627765135E+02  0.70487620697E+02  0.80479730718E+02  0.17770000000E+01 0.  1.
         15    1    1    2    0    0 -0.99079620908E+02  0.73151441784E+02  0.52009615078E+02  0.13370139305E+03  0.17770000000E+01 0. -1.
</event>
<event>
 6    1  0.9304962E-005  0.3344050E+03  0.7546771E-02  0.9872925E-01
        -11   -1    0    0    0    0  0.00000000000E+00  0.00000000000E+00  0.50000000000E+03  0.50000000000E+03  0.00000000000E+00 0.  1.
         11   -1    0    0    0    0 -0.00000000000E+00 -0.00000000000E+00 -0.50000000000E+03  0.50000000000E+03  0.00000000000E+00 0. -1.
        -11    1    1    2    0    0  0.14358082481E+02  0.19339221261E+02  0.23403108754E+03  0.23526731593E+03  0.00000000000E+00 0.  1.
         11    1    1    2    0    0  0.50404001574E+01 -0.50928221327E+02 -0.46482672509E+02  0.69135578430E+02  0.00000000000E+00 0. -1.
        -15    1    1    2    0    0 -0.17971759096E+02 -0.34077447675E+02  0.25009375468E+03  0.25304999590E+03  0.17770000000E+01 0.  1.
         15    1    1    2    0    0 -0.14267235431E+01  0.65666447742E+02 -0.43764216971E+03  0.44254710974E+03  0.17770000000E+01 0. -1.
</event>
<event>
 6    1  0.9304962E-005  0.5454314E+03  0.7546771E-02  0.9303525E-01
        -11   -1    0    0    0    0  0.00000000000E+00  0.00000000000E+00  0.50000000000E+03  0.50000000000E+03  0.00000000000E+00 0. -1.
         11   -1    0    0    0    0 -0.00000000000E+00 -0.00000000000E+00 -0.50000000000E+03  0.50000000000E+03  0.00000000000E+00 0.  1.
        -11    1    1    2    0    0 -0.32184484041E+02  0.63551444544E+00  0.45342736396E+03  0.45456860789E+03  0.00000000000E+00 0. -1.
         11    1    1    2    0    0  0.42060287538E+02 -0.28395096200E+02 -0.23724675614E+03  0.24261362817E+03  0.00000000000E+00 0.  1.
        -15    1    1    2    0    0 -0.32740918654E+01  0.57444284102E+02  0.22791020776E+02  0.61912468942E+02  0.17770000000E+01 0. -1.
         15    1    1    2    0    0 -0.66017116308E+01 -0.29684702347E+02 -0.23897162860E+03  0.24090529500E+03  0.17770000000E+01 0.  1.
</event>
<event>
 6    1  0.9304962E-005  0.4625620E+03  0.7546771E-02  0.9487711E-01
        -11   -1    0    0    0    0  0.00000000000E+00  0.00000000000E+00  0.50000000000E+03  0.50000000000E+03  0.00000000000E+00 0. -1.
         11   -1    0    0    0    0 -0.00000000000E+00 -0.00000000000E+00 -0.50000000000E+03  0.50000000000E+03  0.00000000000E+00 0.  1.
        -11    1    1    2    0    0 -0.62846920177E+01 -0.12219056520E+01  0.47063661543E+03  0.47068016125E+03  0.00000000000E+00 0. -1.
         11    1    1    2    0    0 -0.17969613482E+02 -0.59291287703E-01 -0.12941387112E+02  0.22144751625E+02  0.00000000000E+00 0.  1.
        -15    1    1    2    0    0  0.22274834774E+02 -0.46091269604E+02 -0.44083154814E+01  0.51411714349E+02  0.17770000000E+01 0. -1.
         15    1    1    2    0    0  0.19794707257E+01  0.47372466544E+02 -0.45328691284E+03  0.45576337278E+03  0.17770000000E+01 0.  1.
</event>
<event>
 6    1  0.9304962E-005  0.5114986E+03  0.7546771E-02  0.9374442E-01
        -11   -1    0    0    0    0  0.00000000000E+00  0.00000000000E+00  0.50000000000E+03  0.50000000000E+03  0.00000000000E+00 0.  1.
         11   -1    0    0    0    0 -0.00000000000E+00 -0.00000000000E+00 -0.50000000000E+03  0.50000000000E+03  0.00000000000E+00 0.  1.
        -11    1    1    2    0    0  0.16659180356E+02 -0.43356844510E+01  0.31087416960E+03  0.31135040674E+03  0.00000000000E+00 0.  1.
         11    1    1    2    0    0  0.31813024473E+02  0.38666769327E+02 -0.48592839077E+03  0.48850137004E+03  0.00000000000E+00 0.  1.
        -15    1    1    2    0    0 -0.40850958777E+01 -0.97364807100E+01  0.13513535758E+03  0.13555887895E+03  0.17770000000E+01 0.  1.
         15    1    1    2    0    0 -0.44387108951E+02 -0.24594604166E+02  0.39918863583E+02  0.64589344275E+02  0.17770000000E+01 0. -1.
</event>
<event>
 6    1  0.9304962E-005  0.4045741E+03  0.7546771E-02  0.9642981E-01
        -11   -1    0    0    0    0  0.00000000000E+00  0.00000000000E+00  0.50000000000E+03  0.50000000000E+03  0.00000000000E+00 0.  1.
         11   -1    0    0    0    0 -0.00000000000E+00 -0.00000000000E+00 -0.50000000000E+03  0.50000000000E+03  0.00000000000E+00 0. -1.
        -11    1    1    2    0    0  0.19356051411E-02 -0.48135237695E+01  0.44453135529E+02  0.44712987746E+02  0.00000000000E+00 0.  1.
         11    1    1    2    0    0 -0.89344775300E+02 -0.17747145004E+03 -0.35735527696E+03  0.40887821955E+03  0.00000000000E+00 0. -1.
        -15    1    1    2    0    0  0.36272050752E+02  0.10376463994E+03 -0.83993816409E+02  0.13835057315E+03  0.17770000000E+01 0. -1.
         15    1    1    2    0    0  0.53070788942E+02  0.78520333868E+02  0.39689595784E+03  0.40805821956E+03  0.17770000000E+01 0.  1.
</event>
<event>
 6    1  0.9304962E-005  0.5103885E+03  0.7546771E-02  0.9376860E-01
        -11   -1    0    0    0    0  0.00000000000E+00  0.00000000000E+00  0.50000000000E+03  0.50000000000E+03  0.00000000000E+00 0. -1.
         11   -1    0    0    0    0 -0.00000000000E+00 -0.00000000000E+00 -0.50000000000E+03  0.50000000000E+03  0.00000000000E+00 0. -1.
        -11    1    1    2    0    0  0.10943827310E+01 -0.20383229959E+01  0.13246392665E+03  0.13248412848E+03  0.00000000000E+00 0. -1.
         11    1    1    2    0    0  0.14132654824E+02  0.45076063980E+02 -0.48732720085E+03  0.48961146245E+03  0.00000000000E+00 0. -1.
        -15    1    1    2    0    0 -0.14662771939E+02 -0.48705285503E+02  0.44860171770E+02  0.67843897715E+02  0.17770000000E+01 0.  1.
         15    1    1    2    0    0 -0.56426561577E+00  0.56675445195E+01  0.31000310243E+03  0.31006051135E+03  0.17770000000E+01 0. -1.
</event>
<event>
 6    1  0.9304962E-005  0.5314883E+03  0.7546771E-02  0.9331984E-01
        -11   -1    0    0    0    0  0.00000000000E+00  0.00000000000E+00  0.50000000000E+03  0.50000000000E+03  0.00000000000E+00 0. -1.
         11   -1    0    0    0    0 -0.00000000000E+00 -0.00000000000E+00 -0.50000000000E+03  0.50000000000E+03  0.00000000000E+00 0. -1.
        -11    1    1    2    0    0 -0.46553733660E+01 -0.22124266626E+00  0.19982825897E+03  0.19988260188E+03  0.00000000000E+00 0. -1.
         11    1    1    2    0    0  0.43865764670E+02 -0.68825759645E+02 -0.46134801853E+03  0.46851166976E+03  0.00000000000E+00 0. -1.
        -15    1    1    2    0    0 -0.46142369520E+02  0.86503517713E+02  0.34719328174E+02  0.10402195114E+03  0.17770000000E+01 0. -1.
         15    1    1    2    0    0  0.69319782161E+01 -0.17456515401E+02  0.22680043138E+03  0.22758377722E+03  0.17770000000E+01 0.  1.
</event>
<event>
 6    1  0.9304962E-005  0.5036434E+03  0.7546771E-02  0.9391694E-01
        -11   -1    0    0    0    0  0.00000000000E+00  0.00000000000E+00  0.50000000000E+03  0.50000000000E+03  0.00000000000E+00 0.  1.
         11   -1    0    0    0    0 -0.00000000000E+00 -0.00000000000E+00 -0.50000000000E+03  0.50000000000E+03  0.00000000000E+00 0.  1.
        -11    1    1    2    0    0  0.19289904155E+02  0.95381150107E+01  0.49588993843E+03  0.49635663296E+03  0.00000000000E+00 0.  1.
         11    1    1    2    0    0  0.50918695595E+01 -0.32690738395E+02 -0.33859541239E+03  0.34020797287E+03  0.00000000000E+00 0.  1.
        -15    1    1    2    0    0 -0.40053233824E+01 -0.49970137001E+01 -0.54666529437E+02  0.55069046941E+02  0.17770000000E+01 0. -1.
         15    1    1    2    0    0 -0.20376450332E+02  0.28149637084E+02 -0.10262799661E+03  0.10836634724E+03  0.17770000000E+01 0.  1.
</event>
<event>
 6    1  0.9304962E-005  0.3170612E+03  0.7546771E-02  0.9939229E-01
        -11   -1    0    0    0    0  0.00000000000E+00  0.00000000000E+00  0.50000000000E+03  0.50000000000E+03  0.00000000000E+00 0.  1.
         11   -1    0    0    0    0 -0.00000000000E+00 -0.00000000000E+00 -0.50000000000E+03  0.50000000000E+03  0.00000000000E+00 0.  1.
        -11    1    1    2    0    0  0.96596521403E+01  0.23261566149E+02  0.34256367554E+03  0.34348840029E+03  0.00000000000E+00 0.  1.
         11    1    1    2    0    0  0.81446196644E+01  0.31798330519E+02 -0.20692575159E+03  0.20951309106E+03  0.00000000000E+00 0.  1.
        -15    1    1    2    0    0 -0.32094850388E+02 -0.49354225645E+02 -0.28794432587E+03  0.29390646733E+03  0.17770000000E+01 0.  1.
         15    1    1    2    0    0  0.14290578584E+02 -0.57056710227E+01  0.15230640192E+03  0.15309204132E+03  0.17770000000E+01 0. -1.
</event>
<event>
 6    1  0.9304962E-005  0.5090159E+03  0.7546771E-02  0.9379859E-01
        -11   -1    0    0    0    0  0.00000000000E+00  0.00000000000E+00  0.50000000000E+03  0.50000000000E+03  0.00000000000E+00 0.  1.
         11   -1    0    0    0    0 -0.00000000000E+00 -0.00000000000E+00 -0.50000000000E+03  0.50000000000E+03  0.00000000000E+00 0. -1.
        -11    1    1    2    0    0  0.14309290364E+02  0.60101184625E+01  0.49073870019E+03  0.49098406204E+03  0.00000000000E+00 0.  1.
         11    1    1    2    0    0 -0.12077345197E+02 -0.18234949542E+02 -0.18773022666E+03  0.18900003612E+03  0.00000000000E+00 0. -1.
        -15    1    1    2    0    0 -0.33868103903E+01 -0.11910919482E+02  0.31498494244E+01  0.12900378596E+02  0.17770000000E+01 0.  1.
         15    1    1    2    0    0  0.11548652233E+01  0.24135750561E+02 -0.30615832296E+03  0.30711552324E+03  0.17770000000E+01 0. -1.
</event>
<event>
 6    1  0.9304962E-005  0.5352340E+03  0.7546771E-02  0.9324248E-01
        -11   -1    0    0    0    0  0.00000000000E+00  0.00000000000E+00  0.50000000000E+03  0.50000000000E+03  0.00000000000E+00 0.  1.
         11   -1    0    0    0    0 -0.00000000000E+00 -0.00000000000E+00 -0.50000000000E+03  0.50000000000E+03  0.00000000000E+00 0.  1.
        -11    1    1    2    0    0  0.64396303140E+02  0.74877833713E+01  0.21838431890E+03  0.22780399799E+03  0.00000000000E+00 0.  1.
         11    1    1    2    0    0  0.30322884046E+02 -0.48842413510E+02 -0.46119672028E+03  0.46476604163E+03  0.00000000000E+00 0.  1.
        -15    1    1    2    0    0 -0.11032092883E+03  0.31599185908E+01  0.24215771835E+03  0.26612818474E+03  0.17770000000E+01 0.  1.
         15    1    1    2    0    0  0.15601741645E+02  0.38194711548E+02  0.65468303107E+00  0.41301775645E+02  0.17770000000E+01 0. -1.
</event>
<event>
 6    1  0.9304962E-005  0.5042555E+03  0.7546771E-02  0.9390338E-01
        -11   -1    0    0    0    0  0.00000000000E+00  0.00000000000E+00  0.50000000000E+03  0.50000000000E+03  0.00000000000E+00 0. -1.
         11   -1    0    0    0    0 -0.00000000000E+00 -0.00000000000E+00 -0.50000000000E+03  0.50000000000E+03  0.00000000000E+00 0. -1.
        -11    1    1    2    0    0  0.23303715974E+01 -0.69607117702E+01  0.49569015789E+03  0.49574450553E+03  0.00000000000E+00 0. -1.
         11    1    1    2    0    0  0.94375773152E+01 -0.17820587546E+02 -0.42549518186E+03  0.42597275851E+03  0.00000000000E+00 0. -1.
        -15    1    1    2    0    0 -0.10985596323E+02  0.27007127403E+02 -0.50272507917E+02  0.58142506296E+02  0.17770000000E+01 0. -1.
         15    1    1    2    0    0 -0.78235258977E+00 -0.22258280874E+01 -0.19922468106E+02  0.20140229658E+02  0.17770000000E+01 0.  1.
</event>
<event>
 6    1  0.9304962E-005  0.4925511E+03  0.7546771E-02  0.9416633E-01
        -11   -1    0    0    0    0  0.00000000000E+00  0.00000000000E+00  0.50000000000E+03  0.50000000000E+03  0.00000000000E+00 0. -1.
         11   -1    0    0    0    0 -0.00000000000E+00 -0.00000000000E+00 -0.50000000000E+03  0.50000000000E+03  0.00000000000E+00 0.  1.
        -11    1    1    2    0    0  0.14584520019E+02  0.59460497778E+00  0.49403661671E+03  0.49425220327E+03  0.00000000000E+00 0. -1.
         11    1    1    2    0    0 -0.64742672178E+01  0.13552593801E+02 -0.10332959718E+02  0.18230715599E+02  0.00000000000E+00 0.  1.
        -15    1    1    2    0    0  0.25255093296E+02 -0.30351762790E+01 -0.18662530967E+03  0.18835922056E+03  0.17770000000E+01 0. -1.
         15    1    1    2    0    0 -0.33365346098E+02 -0.11112022500E+02 -0.29707834733E+03  0.29915786058E+03  0.17770000000E+01 0.  1.
</event>
<event>
 6    1  0.9304962E-005  0.5073557E+03  0.7546771E-02  0.9383500E-01
        -11   -1    0    0    0    0  0.00000000000E+00  0.00000000000E+00  0.50000000000E+03  0.50000000000E+03  0.00000000000E+00 0. -1.
         11   -1    0    0    0    0 -0.00000000000E+00 -0.00000000000E+00 -0.50000000000E+03  0.50000000000E+03  0.00000000000E+00 0.  1.
        -11    1    1    2    0    0  0.60965357711E+01  0.10247966400E+02  0.34086226939E+03  0.34107077749E+03  0.00000000000E+00 0. -1.
         11    1    1    2    0    0 -0.48316946530E+02 -0.38798690258E+02 -0.48873156326E+03  0.49264430030E+03  0.00000000000E+00 0.  1.
        -15    1    1    2    0    0  0.48474163226E+02  0.31503155635E+02  0.83819764180E+02  0.10183861700E+03  0.17770000000E+01 0. -1.
         15    1    1    2    0    0 -0.62537524668E+01 -0.29524317770E+01  0.64049529692E+02  0.64446305217E+02  0.17770000000E+01 0.  1.
</event>
<event>
 6    1  0.9304962E-005  0.3690949E+03  0.7546771E-02  0.9752399E-01
        -11   -1    0    0    0    0  0.00000000000E+00  0.00000000000E+00  0.50000000000E+03  0.50000000000E+03  0.00000000000E+00 0. -1.
         11   -1    0    0    0    0 -0.00000000000E+00 -0.00000000000E+00 -0.50000000000E+03  0.50000000000E+03  0.00000000000E+00 0.  1.
        -11    1    1    2    0    0 -0.23620680357E+02 -0.22742284627E+02  0.28850263806E+03  0.29035998385E+03  0.00000000000E+00 0. -1.
         11    1    1    2    0    0  0.21596784302E+02  0.73234240091E+02  0.41771076008E+02  0.87031590844E+02  0.00000000000E+00 0.  1.
        -15    1    1    2    0    0  0.32092054704E+02  0.12500743173E+02  0.14152740311E+03  0.14566856941E+03  0.17770000000E+01 0. -1.
         15    1    1    2    0    0 -0.30068158648E+02 -0.62992698638E+02 -0.47180111718E+03  0.47693985590E+03  0.17770000000E+01 0.  1.
</event>
<event>
 6    1  0.9304962E-005  0.4056331E+03  0.7546771E-02  0.9639902E-01
        -11   -1    0    0    0    0  0.00000000000E+00  0.00000000000E+00  0.50000000000E+03  0.50000000000E+03  0.00000000000E+00 0.  1.
         11   -1    0    0    0    0 -0.00000000000E+00 -0.00000000000E+00 -0.50000000000E+03  0.50000000000E+03  0.00000000000E+00 0.  1.
        -11    1    1    2    0    0  0.70194024188E+02  0.53101855986E+02  0.29859063654E+03  0.31129307151E+03  0.00000000000E+00 0.  1.
         11    1    1    2    0    0 -0.17553971186E+03  0.55858627853E+02 -0.24737314155E+03  0.30842802711E+03  0.00000000000E+00 0.  1.
        -15    1    1    2    0    0  0.22502467825E+03 -0.11630248596E+03 -0.10107326409E+02  0.25351072924E+03  0.17770000000E+01 0. -1.
         15    1    1    2    0    0 -0.11967899058E+03  0.73420021205E+01 -0.41110168579E+02  0.12676817215E+03  0.17770000000E+01 0.  1.
</event>
<event>
 6    1  0.9304962E-005  0.5124037E+03  0.7546771E-02  0.9372475E-01
        -11   -1    0    0    0    0  0.00000000000E+00  0.00000000000E+00  0.50000000000E+03  0.50000000000E+03  0.00000000000E+00 0.  1.
         11   -1    0    0    0    0 -0.00000000000E+00 -0.00000000000E+00 -0.50000000000E+03  0.50000000000E+03  0.00000000000E+00 0.  1.
        -11    1    1    2    0    0  0.16630332661E+01  0.85616284051E+01  0.48751827508E+03  0.48759628352E+03  0.00000000000E+00 0.  1.
         11    1    1    2    0    0 -0.17969492884E+02 -0.10646403080E+02 -0.44374152326E+03  0.44423280838E+03  0.00000000000E+00 0.  1.
        -15    1    1    2    0    0 -0.12397855483E+02 -0.73978885207E+00  0.32631447712E+01  0.12963793848E+02  0.17770000000E+01 0.  1.
         15    1    1    2    0    0  0.28704315101E+02  0.28245635265E+01 -0.47039896591E+02  0.55207114259E+02  0.17770000000E+01 0. -1.
</event>
<event>
 6    1  0.9304962E-005  0.5349744E+03  0.7546771E-02  0.9324782E-01
        -11   -1    0    0    0    0  0.00000000000E+00  0.00000000000E+00  0.50000000000E+03  0.50000000000E+03  0.00000000000E+00 0. -1.
         11   -1    0    0    0    0 -0.00000000000E+00 -0.00000000000E+00 -0.50000000000E+03  0.50000000000E+03  0.00000000000E+00 0.  1.
        -11    1    1    2    0    0  0.92438843397E+00 -0.76758949048E+01  0.34104991352E+03  0.34113753439E+03  0.00000000000E+00 0. -1.
         11    1    1    2    0    0 -0.59126797091E+02 -0.96850415844E+02 -0.45096880278E+03  0.46502563614E+03  0.00000000000E+00 0.  1.
        -15    1    1    2    0    0  0.11506326334E+02  0.59651678016E+01  0.79538598039E+02  0.80607227217E+02  0.17770000000E+01 0. -1.
         15    1    1    2    0    0  0.46696082323E+02  0.98561142947E+02  0.30380291216E+02  0.11322960225E+03  0.17770000000E+01 0.  1.
</event>
<event>
 6    1  0.9304962E-005  0.3943283E+03  0.7546771E-02  0.9673309E-01
        -11   -1    0    0    0    0  0.00000000000E+00  0.00000000000E+00  0.50000000000E+03  0.50000000000E+03  0.00000000000E+00 0. -1.
         11   -1    0    0    0    0 -0.00000000000E+00 -0.00000000000E+00 -0.50000000000E+03  0.50000000000E+03  0.00000000000E+00 0. -1.
        -11    1    1    2    0    0 -0.11771234162E+02 -0.35461321964E+02  0.37802275502E+03  0.37986480571E+03  0.00000000000E+00 0. -1.
         11    1    1    2    0    0 -0.57790250305E+02 -0.75410881764E+02 -0.40930927846E+03  0.42019114645E+03  0.00000000000E+00 0. -1.
        -15    1    1    2    0    0  0.52389444490E+01 -0.15105625145E+02  0.54292310954E+02  0.56625428985E+02  0.17770000000E+01 0.  1.
         15    1    1    2    0    0  0.64322540018E+02  0.12597782887E+03 -0.23005787511E+02  0.14331861885E+03  0.17770000000E+01 0. -1.
</event>
<event>
 6    1  0.9304962E-005  0.3527671E+03  0.7546771E-02  0.9807275E-01
        -11   -1    0    0    0    0  0.00000000000E+00  0.00000000000E+00  0.50000000000E+03  0.50000000000E+03  0.00000000000E+00 0.  1.
         11   -1    0    0    0    0 -0.00000000000E+00 -0.00000000000E+00 -0.50000000000E+03  0.50000000000E+03  0.00000000000E+00 0.  1.
        -11    1    1    2    0    0 -0.25762431536E+02  0.95409962179E+01  0.40407768530E+03  0.40501050510E+03  0.00000000000E+00 0.  1.
         11    1    1    2    0    0  0.16901335719E+03 -0.23632448742E+02 -0.27781395823E+03  0.32604386657E+03  0.00000000000E+00 0.  1.
        -15    1    1    2    0    0  0.32759779849E+02 -0.35206623596E+02 -0.24862548617E+01  0.48187640667E+02  0.17770000000E+01 0. -1.
         15    1    1    2    0    0 -0.17601070550E+03  0.49298076120E+02 -0.12377747221E+03  0.22075798766E+03  0.17770000000E+01 0.  1.
</event>
<event>
 6    1  0.9304962E-005  0.4712353E+03  0.7546771E-02  0.9466578E-01
        -11   -1    0    0    0    0  0.00000000000E+00  0.00000000000E+00  0.50000000000E+03  0.50000000000E+03  0.00000000000E+00 0. -1.
         11   -1    0    0    0    0 -0.00000000000E+00 -0.00000000000E+00 -0.50000000000E+03  0.50000000000E+03  0.00000000000E+00 0. -1.
        -11    1    1    2    0    0 -0.14797269868E+02 -0.23798719403E+01  0.47330963006E+03  0.47354686029E+03  0.00000000000E+00 0. -1.
         11    1    1    2    0    0 -0.73115511407E+01 -0.33021892828E+02 -0.46864011304E+03  0.46985897856E+03  0.00000000000E+00 0. -1.
        -15    1    1    2    0    0  0.28009541582E+02  0.10584117824E+02  0.23199162057E+01  0.30084841864E+02  0.17770000000E+01 0.  1.
         15    1    1    2    0    0 -0.59007205739E+01  0.24817646944E+02 -0.69894332297E+01  0.26509319286E+02  0.17770000000E+01 0. -1.
</event>
<event>
 6    1  0.1044288E-004  0.3813477E+03  0.7546771E-02  0.9713177E-01
        -11   -1    0    0    0    0  0.00000000000E+00  0.00000000000E+00  0.50000000000E+03  0.50000000000E+03  0.00000000000E+00 0.  1.
         11   -1    0    0    0    0 -0.00000000000E+00 -0.00000000000E+00 -0.50000000000E+03  0.50000000000E+03  0.00000000000E+00 0.  1.
        -11    1    1    2    0    0  0.10654960839E+02  0.32811632480E+01  0.38724803434E+03  0.38740848509E+03  0.00000000000E+00 0.  1.
         11    1    1    2    0    0 -0.18564482834E+02 -0.27502647877E+02 -0.11992327972E+03  0.12442921153E+03  0.00000000000E+00 0.  1.
        -15    1    1    2    0    0 -0.23350162309E+02 -0.13828168988E+02  0.10710514289E+03  0.11050392617E+03  0.17770000000E+01 0.  1.
         15    1    1    2    0    0  0.31259684304E+02  0.38049653618E+02 -0.37442989750E+03  0.37765837721E+03  0.17770000000E+01 0. -1.
</event>
<event>
 6    1  0.9304962E-005  0.3349094E+03  0.7546771E-02  0.9871061E-01
        -11   -1    0    0    0    0  0.00000000000E+00  0.00000000000E+00  0.50000000000E+03  0.50000000000E+03  0.00000000000E+00 0.  1.
         11   -1    0    0    0    0 -0.00000000000E+00 -0.00000000000E+00 -0.50000000000E+03  0.50000000000E+03  0.00000000000E+00 0.  1.
        -11    1    1    2    0    0 -0.53384760603E+00  0.46394182823E+01  0.32823879233E+03  0.32827201219E+03  0.00000000000E+00 0.  1.
         11    1    1    2    0    0 -0.77766057195E+02  0.68466298516E+01 -0.33735216346E+03  0.34626711969E+03  0.00000000000E+00 0.  1.
        -15    1    1    2    0    0 -0.11660317732E+02  0.23283562588E+01  0.15393561399E+03  0.15440438866E+03  0.17770000000E+01 0. -1.
         15    1    1    2    0    0  0.89960222533E+02 -0.13814404393E+02 -0.14482224287E+03  0.17105647946E+03  0.17770000000E+01 0.  1.
</event>
<event>
 6    1  0.9304962E-005  0.5251279E+03  0.7546771E-02  0.9345275E-01
        -11   -1    0    0    0    0  0.00000000000E+00  0.00000000000E+00  0.50000000000E+03  0.50000000000E+03  0.00000000000E+00 0.  1.
         11   -1    0    0    0    0 -0.00000000000E+00 -0.00000000000E+00 -0.50000000000E+03  0.50000000000E+03  0.00000000000E+00 0.  1.
        -11    1    1    2    0    0  0.16203470775E+02 -0.26476800100E+02  0.47385645336E+03  0.47487210046E+03  0.00000000000E+00 0.  1.
         11    1    1    2    0    0 -0.32329257241E+02 -0.22579628194E+02 -0.31482163596E+03  0.31728170913E+03  0.00000000000E+00 0.  1.
        -15    1    1    2    0    0 -0.30113399439E+02 -0.60911349778E+01  0.26205060466E+01  0.30885976300E+02  0.17770000000E+01 0. -1.
         15    1    1    2    0    0  0.46239185904E+02  0.55147563272E+02 -0.16165532345E+03  0.17696021411E+03  0.17770000000E+01 0.  1.
</event>
<event>
 6    1  0.9304962E-005  0.5999506E+03  0.7546771E-02  0.9200327E-01
        -11   -1    0    0    0    0  0.00000000000E+00  0.00000000000E+00  0.50000000000E+03  0.50000000000E+03  0.00000000000E+00 0. -1.
         11   -1    0    0    0    0 -0.00000000000E+00 -0.00000000000E+00 -0.50000000000E+03  0.50000000000E+03  0.00000000000E+00 0.  1.
        -11    1    1    2    0    0 -0.64174672969E+01 -0.10809208814E+01  0.32784022986E+03  0.32790481636E+03  0.00000000000E+00 0. -1.
         11    1    1    2    0    0  0.97349206312E+02  0.38498170626E+01 -0.38800498658E+03  0.40004944528E+03  0.00000000000E+00 0.  1.
        -15    1    1    2    0    0 -0.91526152921E+02  0.97961432717E+02 -0.29377040919E+02  0.13725759444E+03  0.17770000000E+01 0. -1.
         15    1    1    2    0    0  0.59441390545E+00 -0.10073032890E+03  0.89541797638E+02  0.13478814392E+03  0.17770000000E+01 0.  1.
</event>
<event>
 6    1  0.9304962E-005  0.5097744E+03  0.7546771E-02  0.9378200E-01
        -11   -1    0    0    0    0  0.00000000000E+00  0.00000000000E+00  0.50000000000E+03  0.50000000000E+03  0.00000000000E+00 0. -1.
         11   -1    0    0    0    0 -0.00000000000E+00 -0.00000000000E+00 -0.50000000000E+03  0.50000000000E+03  0.00000000000E+00 0. -1.
        -11    1    1    2    0    0 -0.12712150889E+02  0.14471907323E+02  0.42185220682E+03  0.42229174664E+03  0.00000000000E+00 0. -1.
         11    1    1    2    0    0  0.34319639747E+02 -0.22933334817E+02 -0.48848473561E+03  0.49022557302E+03  0.00000000000E+00 0. -1.
        -15    1    1    2    0    0 -0.55563126548E+01  0.60245845311E+01  0.70254978559E+02  0.70753713474E+02  0.17770000000E+01 0. -1.
         15    1    1    2    0    0 -0.16051176203E+02  0.24368429628E+01 -0.36224497666E+01  0.16728966867E+02  0.17770000000E+01 0.  1.
</event>
<event>
 6    1  0.9304962E-005  0.4953975E+03  0.7546771E-02  0.9410167E-01
        -11   -1    0    0    0    0  0.00000000000E+00  0.00000000000E+00  0.50000000000E+03  0.50000000000E+03  0.00000000000E+00 0.  1.
         11   -1    0    0    0    0 -0.00000000000E+00 -0.00000000000E+00 -0.50000000000E+03  0.50000000000E+03  0.00000000000E+00 0. -1.
        -11    1    1    2    0    0  0.96323743882E+00 -0.60448162101E+00  0.14877018804E+02  0.14920419327E+02  0.00000000000E+00 0.  1.
         11    1    1    2    0    0  0.46510322231E+02  0.65255899151E+02 -0.49040984843E+03  0.49691383749E+03  0.00000000000E+00 0. -1.
        -15    1    1    2    0    0 -0.52578340126E+02 -0.77741818307E+02  0.37161458284E+03  0.38328687438E+03  0.17770000000E+01 0.  1.
         15    1    1    2    0    0  0.51047804564E+01  0.13090400777E+02  0.10391824679E+03  0.10487886880E+03  0.17770000000E+01 0. -1.
</event>
