<event>
 6    1  0.1018456E-004  0.3650000E+03  0.7546771E-02  0.9765871E-01
        -11   -1    0    0    0    0  0.00000000000E+00  0.00000000000E+00  0.18250000000E+03  0.18250000000E+03  0.00000000000E+00 0. -1.
         11   -1    0    0    0    0 -0.00000000000E+00 -0.00000000000E+00 -0.18250000000E+03  0.18250000000E+03  0.00000000000E+00 0. -1.
        -11    1    1    2    0    0 -0.19240205866E+00 -0.21231583563E+01  0.12874364588E+03  0.12876129533E+03  0.00000000000E+00 0. -1.
         11    1    1    2    0    0  0.53311174509E+00  0.63291677673E+01  0.16271486358E+02  0.17467221905E+02  0.00000000000E+00 0. -1.
        -15    1    1    2    0    0  0.27745017192E+01 -0.63879974175E+00  0.36766562435E+02  0.36919422628E+02  0.17770000000E+01 0.  1.
         15    1    1    2    0    0 -0.31152114056E+01 -0.35672096692E+01 -0.18178169468E+03  0.18185206014E+03  0.17770000000E+01 0. -1.
</event>
<event>
 6    1  0.1018456E-004  0.1199844E+03  0.7546771E-02  0.1133147E+00
        -11   -1    0    0    0    0  0.00000000000E+00  0.00000000000E+00  0.18250000000E+03  0.18250000000E+03  0.00000000000E+00 0. -1.
         11   -1    0    0    0    0 -0.00000000000E+00 -0.00000000000E+00 -0.18250000000E+03  0.18250000000E+03  0.00000000000E+00 0.  1.
        -11    1    1    2    0    0  0.46752407413E+01 -0.10552530619E+01  0.13706936604E+03  0.13715313537E+03  0.00000000000E+00 0. -1.
         11    1    1    2    0    0  0.70714072449E+02 -0.16715908611E-01 -0.94427464347E+02  0.11797044691E+03  0.00000000000E+00 0.  1.
        -15    1    1    2    0    0 -0.18931434267E+01 -0.13807651724E+01  0.15710637574E+02  0.15983502948E+02  0.17770000000E+01 0. -1.
         15    1    1    2    0    0 -0.73496169763E+02  0.24527341429E+01 -0.58352539272E+02  0.93892914766E+02  0.17770000000E+01 0.  1.
</event>
<event>
 6    1  0.1018456E-004  0.2013045E+03  0.7546771E-02  0.1054400E+00
        -11   -1    0    0    0    0  0.00000000000E+00  0.00000000000E+00  0.18250000000E+03  0.18250000000E+03  0.00000000000E+00 0.  1.
         11   -1    0    0    0    0 -0.00000000000E+00 -0.00000000000E+00 -0.18250000000E+03  0.18250000000E+03  0.00000000000E+00 0.  1.
        -11    1    1    2    0    0  0.20913946038E+02  0.17891719558E+02  0.16136513473E+03  0.16369549008E+03  0.00000000000E+00 0.  1.
         11    1    1    2    0    0 -0.31440218196E+01 -0.36948253104E+02 -0.88559626649E+02  0.96009716971E+02  0.00000000000E+00 0.  1.
        -15    1    1    2    0    0 -0.95278375269E+01  0.94507162070E+01  0.12865560909E+02  0.18675548487E+02  0.17770000000E+01 0. -1.
         15    1    1    2    0    0 -0.82420866919E+01  0.96058173388E+01 -0.85671068990E+02  0.86619244459E+02  0.17770000000E+01 0.  1.
</event>
<event>
 6    1  0.1018456E-004  0.1457021E+03  0.7546771E-02  0.1102223E+00
        -11   -1    0    0    0    0  0.00000000000E+00  0.00000000000E+00  0.18250000000E+03  0.18250000000E+03  0.00000000000E+00 0.  1.
         11   -1    0    0    0    0 -0.00000000000E+00 -0.00000000000E+00 -0.18250000000E+03  0.18250000000E+03  0.00000000000E+00 0.  1.
        -11    1    1    2    0    0 -0.38144848717E+01  0.29927193959E+00  0.14625386116E+03  0.14630390208E+03  0.00000000000E+00 0.  1.
         11    1    1    2    0    0 -0.18515925091E+02  0.39370389240E+02 -0.14215427262E+03  0.14866305612E+03  0.00000000000E+00 0.  1.
        -15    1    1    2    0    0 -0.59031735348E+01 -0.25345099805E+02 -0.21553981609E+02  0.33837159959E+02  0.17770000000E+01 0. -1.
         15    1    1    2    0    0  0.28233583498E+02 -0.14324561375E+02  0.17454393072E+02  0.36195881841E+02  0.17770000000E+01 0.  1.
</event>
<event>
 6    1  0.1018456E-004  0.1540268E+03  0.7546771E-02  0.1093690E+00
        -11   -1    0    0    0    0  0.00000000000E+00  0.00000000000E+00  0.18250000000E+03  0.18250000000E+03  0.00000000000E+00 0. -1.
         11   -1    0    0    0    0 -0.00000000000E+00 -0.00000000000E+00 -0.18250000000E+03  0.18250000000E+03  0.00000000000E+00 0. -1.
        -11    1    1    2    0    0 -0.73606423984E+00 -0.18949484675E+01  0.25755346878E+02  0.25835450703E+02  0.00000000000E+00 0. -1.
         11    1    1    2    0    0 -0.20644285249E+02  0.28698894461E+02 -0.16330520041E+03  0.16708800536E+03  0.00000000000E+00 0. -1.
        -15    1    1    2    0    0 -0.65577261794E+01 -0.27797510220E+02 -0.29905934122E+01  0.28771630560E+02  0.17770000000E+01 0.  1.
         15    1    1    2    0    0  0.27938075668E+02  0.99356422677E+00  0.14054044694E+03  0.14330491337E+03  0.17770000000E+01 0. -1.
</event>
<event>
 6    1  0.1018456E-004  0.1528390E+03  0.7546771E-02  0.1094871E+00
        -11   -1    0    0    0    0  0.00000000000E+00  0.00000000000E+00  0.18250000000E+03  0.18250000000E+03  0.00000000000E+00 0. -1.
         11   -1    0    0    0    0 -0.00000000000E+00 -0.00000000000E+00 -0.18250000000E+03  0.18250000000E+03  0.00000000000E+00 0.  1.
        -11    1    1    2    0    0  0.54713280722E+01 -0.16140479475E+02  0.15108128634E+03  0.15203948694E+03  0.00000000000E+00 0. -1.
         11    1    1    2    0    0  0.26383073283E+02 -0.52713195900E+01 -0.15371327758E+03  0.15605007232E+03  0.00000000000E+00 0.  1.
        -15    1    1    2    0    0 -0.66417011741E+01 -0.78238435193E+01  0.13229154372E+02  0.16837249665E+02  0.17770000000E+01 0. -1.
         15    1    1    2    0    0 -0.25212700181E+02  0.29235642585E+02 -0.10597163130E+02  0.40073191078E+02  0.17770000000E+01 0.  1.
</event>
<event>
 6    1  0.1123765E-004  0.1247375E+03  0.7546771E-02  0.1126819E+00
        -11   -1    0    0    0    0  0.00000000000E+00  0.00000000000E+00  0.18250000000E+03  0.18250000000E+03  0.00000000000E+00 0.  1.
         11   -1    0    0    0    0 -0.00000000000E+00 -0.00000000000E+00 -0.18250000000E+03  0.18250000000E+03  0.00000000000E+00 0. -1.
        -11    1    1    2    0    0 -0.55605318168E-01 -0.60146216248E+00  0.25844030112E+02  0.25851087813E+02  0.00000000000E+00 0.  1.
         11    1    1    2    0    0  0.52445417989E+01 -0.74629356149E+02 -0.11491288661E+03  0.13712044898E+03  0.00000000000E+00 0. -1.
        -15    1    1    2    0    0 -0.75910350080E+01  0.30392538301E+01  0.12223892002E+03  0.12252498591E+03  0.17770000000E+01 0.  1.
         15    1    1    2    0    0  0.24020985273E+01  0.72191564481E+02 -0.33170063519E+02  0.79503477298E+02  0.17770000000E+01 0. -1.
</event>
<event>
 6    1  0.1018456E-004  0.2032997E+03  0.7546771E-02  0.1053007E+00
        -11   -1    0    0    0    0  0.00000000000E+00  0.00000000000E+00  0.18250000000E+03  0.18250000000E+03  0.00000000000E+00 0. -1.
         11   -1    0    0    0    0 -0.00000000000E+00 -0.00000000000E+00 -0.18250000000E+03  0.18250000000E+03  0.00000000000E+00 0.  1.
        -11    1    1    2    0    0 -0.14814515589E+00  0.27543451169E+01  0.13270357806E+03  0.13273224173E+03  0.00000000000E+00 0. -1.
         11    1    1    2    0    0  0.28416693175E+02  0.24426164598E+02 -0.15729857596E+03  0.16170030293E+03  0.00000000000E+00 0.  1.
        -15    1    1    2    0    0  0.25598426267E+01 -0.23722352652E+01  0.30296556413E+02  0.30548639150E+02  0.17770000000E+01 0.  1.
         15    1    1    2    0    0 -0.30828390646E+02 -0.24808274450E+02 -0.57015585140E+01  0.40018816193E+02  0.17770000000E+01 0.  1.
</event>
<event>
 6    1  0.1018456E-004  0.1920406E+03  0.7546771E-02  0.1061104E+00
        -11   -1    0    0    0    0  0.00000000000E+00  0.00000000000E+00  0.18250000000E+03  0.18250000000E+03  0.00000000000E+00 0. -1.
         11   -1    0    0    0    0 -0.00000000000E+00 -0.00000000000E+00 -0.18250000000E+03  0.18250000000E+03  0.00000000000E+00 0.  1.
        -11    1    1    2    0    0 -0.33928915769E+01  0.77614788473E+00  0.17292436063E+03  0.17295938430E+03  0.00000000000E+00 0. -1.
         11    1    1    2    0    0 -0.22247410876E+02  0.79127686956E+01 -0.11155156630E+03  0.11402329211E+03  0.00000000000E+00 0.  1.
        -15    1    1    2    0    0 -0.37705752802E+01  0.11334983753E+02 -0.11110193406E+02  0.16410156036E+02  0.17770000000E+01 0. -1.
         15    1    1    2    0    0  0.29410877733E+02 -0.20023900333E+02 -0.50262600923E+02  0.61607167555E+02  0.17770000000E+01 0.  1.
</event>
<event>
 6    1  0.1018456E-004  0.1804227E+03  0.7546771E-02  0.1070120E+00
        -11   -1    0    0    0    0  0.00000000000E+00  0.00000000000E+00  0.18250000000E+03  0.18250000000E+03  0.00000000000E+00 0.  1.
         11   -1    0    0    0    0 -0.00000000000E+00 -0.00000000000E+00 -0.18250000000E+03  0.18250000000E+03  0.00000000000E+00 0. -1.
        -11    1    1    2    0    0 -0.25932584779E+02 -0.19535879934E+01  0.17907507458E+03  0.18095357912E+03  0.00000000000E+00 0.  1.
         11    1    1    2    0    0  0.27959128952E+01 -0.25660176093E+01 -0.48327310197E+01  0.61446614551E+01  0.00000000000E+00 0. -1.
        -15    1    1    2    0    0  0.17648959629E+02  0.11965606511E+02 -0.15508611476E+03  0.15655517314E+03  0.17770000000E+01 0. -1.
         15    1    1    2    0    0  0.54877122548E+01 -0.74460009083E+01 -0.19156228802E+02  0.21346586290E+02  0.17770000000E+01 0.  1.
</event>
<event>
 6    1  0.1018456E-004  0.2183223E+03  0.7546771E-02  0.1043051E+00
        -11   -1    0    0    0    0  0.00000000000E+00  0.00000000000E+00  0.18250000000E+03  0.18250000000E+03  0.00000000000E+00 0.  1.
         11   -1    0    0    0    0 -0.00000000000E+00 -0.00000000000E+00 -0.18250000000E+03  0.18250000000E+03  0.00000000000E+00 0. -1.
        -11    1    1    2    0    0 -0.11100753672E+02 -0.84008459107E+00  0.14625467464E+03  0.14667774994E+03  0.00000000000E+00 0.  1.
         11    1    1    2    0    0  0.28968980514E+02  0.12005855016E+02 -0.57109103054E+02  0.65152068565E+02  0.00000000000E+00 0. -1.
        -15    1    1    2    0    0 -0.23811157373E+02 -0.58928771837E+01 -0.11936552409E+03  0.12187281603E+03  0.17770000000E+01 0.  1.
         15    1    1    2    0    0  0.59429305310E+01 -0.52728932413E+01  0.30219952507E+02  0.31297365464E+02  0.17770000000E+01 0. -1.
</event>
<event>
 6    1  0.1018456E-004  0.1859080E+03  0.7546771E-02  0.1065774E+00
        -11   -1    0    0    0    0  0.00000000000E+00  0.00000000000E+00  0.18250000000E+03  0.18250000000E+03  0.00000000000E+00 0. -1.
         11   -1    0    0    0    0 -0.00000000000E+00 -0.00000000000E+00 -0.18250000000E+03  0.18250000000E+03  0.00000000000E+00 0.  1.
        -11    1    1    2    0    0 -0.46248424746E-01  0.11623138707E+01  0.56180626823E+02  0.56192668051E+02  0.00000000000E+00 0. -1.
         11    1    1    2    0    0  0.64404193736E+01  0.10115198928E+02 -0.17869004543E+03  0.17909195567E+03  0.00000000000E+00 0.  1.
        -15    1    1    2    0    0  0.10619110762E+02  0.99857871870E+01  0.32580435716E+02  0.35736871430E+02  0.17770000000E+01 0.  1.
         15    1    1    2    0    0 -0.17013281711E+02 -0.21263299985E+02  0.89928982890E+02  0.93978504848E+02  0.17770000000E+01 0. -1.
</event>
<event>
 6    1  0.1018456E-004  0.1422522E+03  0.7546771E-02  0.1105945E+00
        -11   -1    0    0    0    0  0.00000000000E+00  0.00000000000E+00  0.18250000000E+03  0.18250000000E+03  0.00000000000E+00 0. -1.
         11   -1    0    0    0    0 -0.00000000000E+00 -0.00000000000E+00 -0.18250000000E+03  0.18250000000E+03  0.00000000000E+00 0.  1.
        -11    1    1    2    0    0  0.66991957104E+01 -0.48337007083E+01  0.15254990544E+03  0.15277341895E+03  0.00000000000E+00 0. -1.
         11    1    1    2    0    0 -0.30152615205E+02 -0.17362206761E+02 -0.12987416168E+03  0.13445417174E+03  0.00000000000E+00 0.  1.
        -15    1    1    2    0    0  0.34947452618E+02 -0.64349868469E+01 -0.29390111128E+02  0.46148346247E+02  0.17770000000E+01 0. -1.
         15    1    1    2    0    0 -0.11494033123E+02  0.28630894316E+02  0.67143673585E+01  0.31624063066E+02  0.17770000000E+01 0.  1.
</event>
<event>
 6    1  0.1018456E-004  0.3650000E+03  0.7546771E-02  0.9765871E-01
        -11   -1    0    0    0    0  0.00000000000E+00  0.00000000000E+00  0.18250000000E+03  0.18250000000E+03  0.00000000000E+00 0.  1.
         11   -1    0    0    0    0 -0.00000000000E+00 -0.00000000000E+00 -0.18250000000E+03  0.18250000000E+03  0.00000000000E+00 0. -1.
        -11    1    1    2    0    0  0.10595666024E+01 -0.58464696697E+01  0.10932340381E+03  0.10948475012E+03  0.00000000000E+00 0.  1.
         11    1    1    2    0    0  0.20829845851E+01  0.41175215474E+01  0.23712660950E+02  0.24157464640E+02  0.00000000000E+00 0. -1.
        -15    1    1    2    0    0  0.24800769188E+02  0.66679047331E+02  0.99293799606E+01  0.71853488577E+02  0.17770000000E+01 0.  1.
         15    1    1    2    0    0 -0.27943320375E+02 -0.64950099209E+02 -0.14296544472E+03  0.15950429666E+03  0.17770000000E+01 0. -1.
</event>
<event>
 6    1  0.1018456E-004  0.1851370E+03  0.7546771E-02  0.1066375E+00
        -11   -1    0    0    0    0  0.00000000000E+00  0.00000000000E+00  0.18250000000E+03  0.18250000000E+03  0.00000000000E+00 0. -1.
         11   -1    0    0    0    0 -0.00000000000E+00 -0.00000000000E+00 -0.18250000000E+03  0.18250000000E+03  0.00000000000E+00 0. -1.
        -11    1    1    2    0    0 -0.37943667941E+01 -0.38089885100E+01  0.17978257946E+03  0.17986295197E+03  0.00000000000E+00 0. -1.
         11    1    1    2    0    0  0.55130899473E+01  0.11041491193E+02 -0.13778993381E+03  0.13834151418E+03  0.00000000000E+00 0. -1.
        -15    1    1    2    0    0 -0.20480777438E+01 -0.83376434032E+01 -0.43384029327E+02  0.44261073752E+02  0.17770000000E+01 0.  1.
         15    1    1    2    0    0  0.32935459067E+00  0.11051407197E+01  0.13913836699E+01  0.25344600951E+01  0.17770000000E+01 0. -1.
</event>
<event>
 6    1  0.1018456E-004  0.2028668E+03  0.7546771E-02  0.1053308E+00
        -11   -1    0    0    0    0  0.00000000000E+00  0.00000000000E+00  0.18250000000E+03  0.18250000000E+03  0.00000000000E+00 0.  1.
         11   -1    0    0    0    0 -0.00000000000E+00 -0.00000000000E+00 -0.18250000000E+03  0.18250000000E+03  0.00000000000E+00 0. -1.
        -11    1    1    2    0    0 -0.24720099398E+01  0.26312648111E+01  0.16209295966E+03  0.16213316120E+03  0.00000000000E+00 0.  1.
         11    1    1    2    0    0 -0.31001106618E+02  0.24753684360E+02 -0.91737315335E+02  0.99947728968E+02  0.00000000000E+00 0. -1.
        -15    1    1    2    0    0  0.26225459417E+02 -0.34184505972E+02 -0.78753992173E+02  0.89786993392E+02  0.17770000000E+01 0. -1.
         15    1    1    2    0    0  0.72476571409E+01  0.67995568006E+01  0.83983478451E+01  0.13132116442E+02  0.17770000000E+01 0.  1.
</event>
<event>
 6    1  0.1018456E-004  0.1157199E+03  0.7546771E-02  0.1139106E+00
        -11   -1    0    0    0    0  0.00000000000E+00  0.00000000000E+00  0.18250000000E+03  0.18250000000E+03  0.00000000000E+00 0.  1.
         11   -1    0    0    0    0 -0.00000000000E+00 -0.00000000000E+00 -0.18250000000E+03  0.18250000000E+03  0.00000000000E+00 0. -1.
        -11    1    1    2    0    0 -0.61070794835E+02 -0.32191475232E+01  0.10774806046E+03  0.12389370213E+03  0.00000000000E+00 0.  1.
         11    1    1    2    0    0  0.46874405415E+02 -0.17136036066E+02 -0.17170105442E+02  0.52779410151E+02  0.00000000000E+00 0. -1.
        -15    1    1    2    0    0  0.38235077623E+02  0.42179687465E+02  0.29345616601E+02  0.64073162387E+02  0.17770000000E+01 0.  1.
         15    1    1    2    0    0 -0.24038688203E+02 -0.21824503876E+02 -0.11992357162E+03  0.12425372534E+03  0.17770000000E+01 0. -1.
</event>
<event>
 6    1  0.1018456E-004  0.1549900E+03  0.7546771E-02  0.1092741E+00
        -11   -1    0    0    0    0  0.00000000000E+00  0.00000000000E+00  0.18250000000E+03  0.18250000000E+03  0.00000000000E+00 0. -1.
         11   -1    0    0    0    0 -0.00000000000E+00 -0.00000000000E+00 -0.18250000000E+03  0.18250000000E+03  0.00000000000E+00 0. -1.
        -11    1    1    2    0    0 -0.32403217338E+01 -0.15214873883E+02  0.14856246099E+03  0.14937468624E+03  0.00000000000E+00 0. -1.
         11    1    1    2    0    0  0.41464408165E+02 -0.98811537797E+01 -0.67092345161E+02  0.79487842616E+02  0.00000000000E+00 0. -1.
        -15    1    1    2    0    0 -0.55366468716E+02  0.50155320644E+02 -0.40147500421E+02  0.84829131589E+02  0.17770000000E+01 0.  1.
         15    1    1    2    0    0  0.17142382286E+02 -0.25059292981E+02 -0.41322615409E+02  0.51308339560E+02  0.17770000000E+01 0. -1.
</event>
<event>
 6    1  0.1018456E-004  0.1636134E+03  0.7546771E-02  0.1084569E+00
        -11   -1    0    0    0    0  0.00000000000E+00  0.00000000000E+00  0.18250000000E+03  0.18250000000E+03  0.00000000000E+00 0.  1.
         11   -1    0    0    0    0 -0.00000000000E+00 -0.00000000000E+00 -0.18250000000E+03  0.18250000000E+03  0.00000000000E+00 0. -1.
        -11    1    1    2    0    0  0.16066724849E+01  0.67532216226E+01  0.17210222829E+03  0.17224216784E+03  0.00000000000E+00 0.  1.
         11    1    1    2    0    0  0.88109415024E+01  0.10371151299E+02 -0.90933998342E+01  0.16367143611E+02  0.00000000000E+00 0. -1.
        -15    1    1    2    0    0 -0.18723864351E+02 -0.27943910858E+01 -0.82318910203E+01  0.20719881190E+02  0.17770000000E+01 0.  1.
         15    1    1    2    0    0  0.83062503636E+01 -0.14329981836E+02 -0.15477693743E+03  0.15567080736E+03  0.17770000000E+01 0. -1.
</event>
<event>
 6    1  0.1018456E-004  0.1554012E+03  0.7546771E-02  0.1092338E+00
        -11   -1    0    0    0    0  0.00000000000E+00  0.00000000000E+00  0.18250000000E+03  0.18250000000E+03  0.00000000000E+00 0.  1.
         11   -1    0    0    0    0 -0.00000000000E+00 -0.00000000000E+00 -0.18250000000E+03  0.18250000000E+03  0.00000000000E+00 0. -1.
        -11    1    1    2    0    0 -0.47765695298E+01  0.24203512082E+01  0.15241133385E+03  0.15250537172E+03  0.00000000000E+00 0.  1.
         11    1    1    2    0    0  0.24358991111E+02  0.76791038833E+01 -0.15704833282E+03  0.15911162097E+03  0.00000000000E+00 0. -1.
        -15    1    1    2    0    0 -0.25018449860E+02  0.51052894661E+01 -0.13579843006E+02  0.28975104470E+02  0.17770000000E+01 0.  1.
         15    1    1    2    0    0  0.54360282794E+01 -0.15204744558E+02  0.18216841979E+02  0.24407902843E+02  0.17770000000E+01 0. -1.
</event>
<event>
 6    1  0.1018456E-004  0.1340081E+03  0.7546771E-02  0.1115331E+00
        -11   -1    0    0    0    0  0.00000000000E+00  0.00000000000E+00  0.18250000000E+03  0.18250000000E+03  0.00000000000E+00 0.  1.
         11   -1    0    0    0    0 -0.00000000000E+00 -0.00000000000E+00 -0.18250000000E+03  0.18250000000E+03  0.00000000000E+00 0.  1.
        -11    1    1    2    0    0 -0.22731895583E+01 -0.16893731506E+01  0.13821220722E+03  0.13824122250E+03  0.00000000000E+00 0.  1.
         11    1    1    2    0    0 -0.12415977965E+02 -0.46471062928E+02 -0.19571725733E+02  0.51930421207E+02  0.00000000000E+00 0.  1.
        -15    1    1    2    0    0 -0.40754713009E+01  0.42925731191E+02  0.10336768547E+02  0.44376056355E+02  0.17770000000E+01 0. -1.
         15    1    1    2    0    0  0.18764638825E+02  0.52347048879E+01 -0.12897725003E+03  0.13045229994E+03  0.17770000000E+01 0.  1.
</event>
