<event>
 7    1  0.6725282E-009  0.7565169E+03  0.7546771E-02  0.8958629E-01
        -11   -1    0    0    0    0  0.00000000000E+00  0.00000000000E+00  0.50000000000E+03  0.50000000000E+03  0.00000000000E+00 0.  1.
         11   -1    0    0    0    0 -0.00000000000E+00 -0.00000000000E+00 -0.50000000000E+03  0.50000000000E+03  0.00000000000E+00 0.  1.
         23    2    1    2    0    0  0.12507969018E+03  0.17302055346E+03  0.23072017122E+02  0.24348314528E+03  0.11476359722E+03 0.  0.
        -11    1    3    3    0    0  0.95538008334E+02  0.10366091247E+03  0.67156595118E+02  0.15615090162E+03  0.00000000000E+00 0.  1.
         11    1    3    3    0    0  0.29541681845E+02  0.69359640989E+02 -0.44084577995E+02  0.87332243652E+02  0.00000000000E+00 0.  1.
        -15    1    1    2    0    0  0.17553339523E+03 -0.34118734384E+03  0.89746552598E+02  0.39405377535E+03  0.17770000000E+01 0.  1.
         15    1    1    2    0    0 -0.30061308541E+03  0.16816679038E+03 -0.11281856972E+03  0.36246307937E+03  0.17770000000E+01 0. -1.
</event>
<event>
 7    1  0.6725282E-009  0.8007090E+03  0.7546771E-02  0.8901408E-01
        -11   -1    0    0    0    0  0.00000000000E+00  0.00000000000E+00  0.50000000000E+03  0.50000000000E+03  0.00000000000E+00 0.  1.
         11   -1    0    0    0    0 -0.00000000000E+00 -0.00000000000E+00 -0.50000000000E+03  0.50000000000E+03  0.00000000000E+00 0. -1.
         23    2    1    2    0    0 -0.15763260636E+03 -0.26252043863E+02 -0.55673340405E+02  0.19929097491E+03  0.10526235535E+03 0.  0.
        -11    1    3    3    0    0 -0.11924104912E+03  0.24365504244E+02 -0.12209358964E+02  0.12231587812E+03  0.00000000000E+00 0.  1.
         11    1    3    3    0    0 -0.38391557237E+02 -0.50617548106E+02 -0.43463981441E+02  0.76975096792E+02  0.00000000000E+00 0. -1.
        -15    1    1    2    0    0  0.19645708719E+03 -0.49053728094E+02  0.39880387484E+03  0.44726875999E+03  0.17770000000E+01 0.  1.
         15    1    1    2    0    0 -0.38824480825E+02  0.75305771957E+02 -0.34313053444E+03  0.35344026510E+03  0.17770000000E+01 0. -1.
</event>
<event>
 7    1  0.6725282E-009  0.8325059E+03  0.7546771E-02  0.8862585E-01
        -11   -1    0    0    0    0  0.00000000000E+00  0.00000000000E+00  0.50000000000E+03  0.50000000000E+03  0.00000000000E+00 0. -1.
         11   -1    0    0    0    0 -0.00000000000E+00 -0.00000000000E+00 -0.50000000000E+03  0.50000000000E+03  0.00000000000E+00 0.  1.
         23    2    1    2    0    0  0.26030135044E+02 -0.11399134406E+03  0.17223035057E+02  0.16749408068E+03  0.11868462274E+03 0.  0.
        -11    1    3    3    0    0 -0.31171604602E+02 -0.10359833135E+03  0.65512088042E+01  0.10838450779E+03  0.00000000000E+00 0. -1.
         11    1    3    3    0    0  0.57201739645E+02 -0.10393012707E+02  0.10671826253E+02  0.59109572889E+02  0.00000000000E+00 0.  1.
        -15    1    1    2    0    0 -0.74898548565E+02 -0.17746081281E+03 -0.34254701191E+03  0.39299331515E+03  0.17770000000E+01 0.  1.
         15    1    1    2    0    0  0.48868413521E+02  0.29145215687E+03  0.32532397685E+03  0.43951260417E+03  0.17770000000E+01 0. -1.
</event>
<event>
 7    1  0.6725282E-009  0.1000000E+04  0.7546771E-02  0.8684367E-01
        -11   -1    0    0    0    0  0.00000000000E+00  0.00000000000E+00  0.50000000000E+03  0.50000000000E+03  0.00000000000E+00 0.  1.
         11   -1    0    0    0    0 -0.00000000000E+00 -0.00000000000E+00 -0.50000000000E+03  0.50000000000E+03  0.00000000000E+00 0. -1.
         23    2    1    2    0    0 -0.11003726390E+02  0.10623993788E+03 -0.38864815081E+03  0.40705756218E+03  0.56925103430E+02 0.  0.
        -11    1    3    3    0    0 -0.34259876445E+02  0.67684404162E+02 -0.23419867706E+03  0.24617867096E+03  0.00000000000E+00 0. -1.
         11    1    3    3    0    0  0.23256150055E+02  0.38555533719E+02 -0.15444947376E+03  0.16087889122E+03  0.00000000000E+00 0.  1.
        -15    1    1    2    0    0 -0.91106383156E+02 -0.37961953114E+02  0.44640905350E+03  0.45719326735E+03  0.17770000000E+01 0.  1.
         15    1    1    2    0    0  0.10211010955E+03 -0.68277984767E+02 -0.57760902688E+02  0.13574917047E+03  0.17770000000E+01 0. -1.
</event>
<event>
 6    1  0.6725282E-009  0.3292036E+03  0.7546771E-02  0.9892347E-01
        -11   -1    0    0    0    0  0.00000000000E+00  0.00000000000E+00  0.50000000000E+03  0.50000000000E+03  0.00000000000E+00 0.  1.
         11   -1    0    0    0    0 -0.00000000000E+00 -0.00000000000E+00 -0.50000000000E+03  0.50000000000E+03  0.00000000000E+00 0. -1.
        -11    1    1    2    0    0  0.12491086636E+03  0.80350005390E+02  0.78150493183E+02  0.16782832742E+03  0.00000000000E+00 0.  1.
         11    1    1    2    0    0 -0.54256967385E+02  0.12410883147E+03 -0.14292579839E+02  0.13620241700E+03  0.00000000000E+00 0. -1.
        -15    1    1    2    0    0  0.11693531659E+03  0.20467058399E+03 -0.69792420642E+02  0.24584152604E+03  0.17770000000E+01 0.  1.
         15    1    1    2    0    0 -0.18758921556E+03 -0.40912942085E+03  0.59345072987E+01  0.45012772954E+03  0.17770000000E+01 0. -1.
</event>
<event>
 7    1  0.6725282E-009  0.1000000E+04  0.7546771E-02  0.8684367E-01
        -11   -1    0    0    0    0  0.00000000000E+00  0.00000000000E+00  0.50000000000E+03  0.50000000000E+03  0.00000000000E+00 0.  1.
         11   -1    0    0    0    0 -0.00000000000E+00 -0.00000000000E+00 -0.50000000000E+03  0.50000000000E+03  0.00000000000E+00 0. -1.
         23    2    1    2    0    0 -0.74371339185E+02  0.31387676267E+02  0.33303831486E+02  0.11396682923E+03  0.73232579219E+02 0.  0.
        -11    1    3    3    0    0  0.14204894556E+02  0.36401470632E+01  0.11459291206E+02  0.18610348060E+02  0.00000000000E+00 0. -1.
         11    1    3    3    0    0 -0.88576233741E+02  0.27747529204E+02  0.21844540280E+02  0.95356481168E+02  0.00000000000E+00 0.  1.
        -15    1    1    2    0    0  0.14302342102E+03 -0.42663465368E+03 -0.13940079530E+03  0.47107172081E+03  0.17770000000E+01 0. -1.
         15    1    1    2    0    0 -0.68652081835E+02  0.39524697742E+03  0.10609696381E+03  0.41496144997E+03  0.17770000000E+01 0.  1.
</event>
<event>
 6    1  0.6725282E-009  0.4495656E+03  0.7546771E-02  0.9520319E-01
        -11   -1    0    0    0    0  0.00000000000E+00  0.00000000000E+00  0.50000000000E+03  0.50000000000E+03  0.00000000000E+00 0.  1.
         11   -1    0    0    0    0 -0.00000000000E+00 -0.00000000000E+00 -0.50000000000E+03  0.50000000000E+03  0.00000000000E+00 0. -1.
        -11    1    1    2    0    0 -0.17862968569E+03  0.74696349023E+02  0.23566054898E+03  0.30499836641E+03  0.00000000000E+00 0.  1.
         11    1    1    2    0    0 -0.18015313943E+03  0.16613318769E+02 -0.28833237033E+02  0.18320074117E+03  0.00000000000E+00 0. -1.
        -15    1    1    2    0    0 -0.18269535975E+02  0.53771509508E+02 -0.58167791924E+02  0.81312981287E+02  0.17770000000E+01 0.  1.
         15    1    1    2    0    0  0.37705236110E+03 -0.14508117730E+03 -0.14865952002E+03  0.43048791114E+03  0.17770000000E+01 0. -1.
</event>
<event>
 7    1  0.6725282E-009  0.8347848E+03  0.7546771E-02  0.8859873E-01
        -11   -1    0    0    0    0  0.00000000000E+00  0.00000000000E+00  0.50000000000E+03  0.50000000000E+03  0.00000000000E+00 0. -1.
         11   -1    0    0    0    0 -0.00000000000E+00 -0.00000000000E+00 -0.50000000000E+03  0.50000000000E+03  0.00000000000E+00 0.  1.
         23    2    1    2    0    0 -0.42507222997E+02 -0.13315309379E+03  0.41411686015E+02  0.16521516001E+03  0.77746453067E+02 0.  0.
        -11    1    3    3    0    0 -0.23409501564E+02 -0.68444075551E+02 -0.18850380652E+02  0.74752478837E+02  0.00000000000E+00 0.  1.
         11    1    3    3    0    0 -0.19097721433E+02 -0.64709018242E+02  0.60262066667E+02  0.90462681172E+02  0.00000000000E+00 0. -1.
        -15    1    1    2    0    0 -0.15033108698E+03  0.27111575977E+02  0.35215576000E+03  0.38386366108E+03  0.17770000000E+01 0. -1.
         15    1    1    2    0    0  0.19283830998E+03  0.10604151782E+03 -0.39356744602E+03  0.45092117891E+03  0.17770000000E+01 0.  1.
</event>
<event>
 7    1  0.6725282E-009  0.8835775E+03  0.7546771E-02  0.8803892E-01
        -11   -1    0    0    0    0  0.00000000000E+00  0.00000000000E+00  0.50000000000E+03  0.50000000000E+03  0.00000000000E+00 0.  1.
         11   -1    0    0    0    0 -0.00000000000E+00 -0.00000000000E+00 -0.50000000000E+03  0.50000000000E+03  0.00000000000E+00 0. -1.
         23    2    1    2    0    0 -0.51271736884E+02 -0.18853872002E+02 -0.67566369669E+02  0.11642248725E+03  0.77490139589E+02 0.  0.
        -11    1    3    3    0    0  0.10583793987E+02  0.82180931704E+01  0.75822067925E+01  0.15396220652E+02  0.00000000000E+00 0.  1.
         11    1    3    3    0    0 -0.61855530871E+02 -0.27071965172E+02 -0.75148576462E+02  0.10102626659E+03  0.00000000000E+00 0. -1.
        -15    1    1    2    0    0 -0.10470730526E+02 -0.17893504158E+03  0.43012670592E+03  0.46598232389E+03  0.17770000000E+01 0.  1.
         15    1    1    2    0    0  0.61742467410E+02  0.19778891358E+03 -0.36256033625E+03  0.41759518887E+03  0.17770000000E+01 0. -1.
</event>
<event>
 6    1  0.6725282E-009  0.8216909E+03  0.7546771E-02  0.8875583E-01
        -11   -1    0    0    0    0  0.00000000000E+00  0.00000000000E+00  0.50000000000E+03  0.50000000000E+03  0.00000000000E+00 0.  1.
         11   -1    0    0    0    0 -0.00000000000E+00 -0.00000000000E+00 -0.50000000000E+03  0.50000000000E+03  0.00000000000E+00 0. -1.
        -11    1    1    2    0    0  0.41827767703E+02  0.51872092665E+02 -0.15295371278E+02  0.68368300630E+02  0.00000000000E+00 0.  1.
         11    1    1    2    0    0 -0.10006810991E+02 -0.17618523262E+02  0.10847410617E+03  0.11035026206E+03  0.00000000000E+00 0. -1.
        -15    1    1    2    0    0  0.22399508059E+03  0.86516343479E+02  0.26973311486E+03  0.36113430299E+03  0.17770000000E+01 0.  1.
         15    1    1    2    0    0 -0.25581603730E+03 -0.12076991288E+03 -0.36291184975E+03  0.46014713431E+03  0.17770000000E+01 0. -1.
</event>
<event>
 7    1  0.6725282E-009  0.7858810E+03  0.7546771E-02  0.8920166E-01
        -11   -1    0    0    0    0  0.00000000000E+00  0.00000000000E+00  0.50000000000E+03  0.50000000000E+03  0.00000000000E+00 0. -1.
         11   -1    0    0    0    0 -0.00000000000E+00 -0.00000000000E+00 -0.50000000000E+03  0.50000000000E+03  0.00000000000E+00 0.  1.
         23    2    1    2    0    0  0.16682921066E+03 -0.69219523315E+02  0.94678486844E+02  0.21411895983E+03  0.65265497404E+02 0.  0.
        -11    1    3    3    0    0  0.26225934440E+02 -0.34247490933E+02  0.41278505927E+02  0.59704315791E+02  0.00000000000E+00 0.  1.
         11    1    3    3    0    0  0.14060327622E+03 -0.34972032382E+02  0.53399980916E+02  0.15441464404E+03  0.00000000000E+00 0. -1.
        -15    1    1    2    0    0  0.28968337681E+03  0.95240748581E+02 -0.12051723807E+03  0.32789452784E+03  0.17770000000E+01 0. -1.
         15    1    1    2    0    0 -0.45651258746E+03 -0.26021225266E+02  0.25838751226E+02  0.45798651233E+03  0.17770000000E+01 0.  1.
</event>
<event>
 7    1  0.6725282E-009  0.6005504E+03  0.7546771E-02  0.9199257E-01
        -11   -1    0    0    0    0  0.00000000000E+00  0.00000000000E+00  0.50000000000E+03  0.50000000000E+03  0.00000000000E+00 0. -1.
         11   -1    0    0    0    0 -0.00000000000E+00 -0.00000000000E+00 -0.50000000000E+03  0.50000000000E+03  0.00000000000E+00 0. -1.
         23    2    1    2    0    0 -0.13169316010E+03 -0.17166980418E+02  0.36877720895E+03  0.39944955300E+03  0.76977411749E+02 0.  0.
        -11    1    3    3    0    0 -0.32226415988E+02  0.28538756130E+02  0.12555588584E+03  0.13273011323E+03  0.00000000000E+00 0. -1.
         11    1    3    3    0    0 -0.99466744115E+02 -0.45705736547E+02  0.24322132310E+03  0.26671943977E+03  0.00000000000E+00 0. -1.
        -15    1    1    2    0    0  0.88159644810E+02 -0.18903969605E+03 -0.43687565940E+02  0.21311942850E+03  0.17770000000E+01 0.  1.
         15    1    1    2    0    0  0.43533515293E+02  0.20620667647E+03 -0.32508964301E+03  0.38743101850E+03  0.17770000000E+01 0. -1.
</event>
<event>
 7    1  0.6725282E-009  0.6024976E+03  0.7546771E-02  0.9195792E-01
        -11   -1    0    0    0    0  0.00000000000E+00  0.00000000000E+00  0.50000000000E+03  0.50000000000E+03  0.00000000000E+00 0.  1.
         11   -1    0    0    0    0 -0.00000000000E+00 -0.00000000000E+00 -0.50000000000E+03  0.50000000000E+03  0.00000000000E+00 0.  1.
         23    2    1    2    0    0 -0.19778374145E+03  0.29510900576E+03  0.13067447717E+03  0.39750241752E+03  0.12134504228E+03 0.  0.
        -11    1    3    3    0    0 -0.17792825185E+03  0.29765751965E+03  0.10007074569E+03  0.36093297986E+03  0.00000000000E+00 0.  1.
         11    1    3    3    0    0 -0.19855489599E+02 -0.25485138832E+01  0.30603731479E+02  0.36569437659E+02  0.00000000000E+00 0.  1.
        -15    1    1    2    0    0  0.16340159566E+03 -0.11667146314E+03  0.16200101967E+03  0.25799186010E+03  0.17770000000E+01 0. -1.
         15    1    1    2    0    0  0.34382145791E+02 -0.17843754263E+03 -0.29267549684E+03  0.34450572238E+03  0.17770000000E+01 0.  1.
</event>
<event>
 6    1  0.6725282E-009  0.6907037E+03  0.7546771E-02  0.9051941E-01
        -11   -1    0    0    0    0  0.00000000000E+00  0.00000000000E+00  0.50000000000E+03  0.50000000000E+03  0.00000000000E+00 0. -1.
         11   -1    0    0    0    0 -0.00000000000E+00 -0.00000000000E+00 -0.50000000000E+03  0.50000000000E+03  0.00000000000E+00 0. -1.
        -11    1    1    2    0    0 -0.17054269569E+03  0.74575428793E+02 -0.19307403452E+03  0.26818629428E+03  0.00000000000E+00 0. -1.
         11    1    1    2    0    0  0.27457226371E+02  0.25083838546E+02 -0.14745112009E+02  0.40006456533E+02  0.00000000000E+00 0. -1.
        -15    1    1    2    0    0 -0.11261795112E+03  0.14092317893E+03  0.28027366978E+03  0.33331461560E+03  0.17770000000E+01 0.  1.
         15    1    1    2    0    0  0.25570342043E+03 -0.24058244627E+03 -0.72454523247E+02  0.35849263359E+03  0.17770000000E+01 0. -1.
</event>
<event>
 6    1  0.6725282E-009  0.7477198E+03  0.7546771E-02  0.8970512E-01
        -11   -1    0    0    0    0  0.00000000000E+00  0.00000000000E+00  0.50000000000E+03  0.50000000000E+03  0.00000000000E+00 0.  1.
         11   -1    0    0    0    0 -0.00000000000E+00 -0.00000000000E+00 -0.50000000000E+03  0.50000000000E+03  0.00000000000E+00 0. -1.
        -11    1    1    2    0    0  0.59231140575E+02 -0.18089906948E+03 -0.97317455198E+01  0.19059776553E+03  0.00000000000E+00 0.  1.
         11    1    1    2    0    0  0.48695038589E+02  0.10047278818E+01  0.29690491256E+02  0.57041577226E+02  0.00000000000E+00 0. -1.
        -15    1    1    2    0    0 -0.92371966638E+00  0.44821710503E+03  0.61001053854E+02  0.45235352635E+03  0.17770000000E+01 0.  1.
         15    1    1    2    0    0 -0.10700245950E+03 -0.26832276343E+03 -0.80959799590E+02  0.30000713090E+03  0.17770000000E+01 0. -1.
</event>
<event>
 6    1  0.6725282E-009  0.2739748E+03  0.7546771E-02  0.1012582E+00
        -11   -1    0    0    0    0  0.00000000000E+00  0.00000000000E+00  0.50000000000E+03  0.50000000000E+03  0.00000000000E+00 0.  1.
         11   -1    0    0    0    0 -0.00000000000E+00 -0.00000000000E+00 -0.50000000000E+03  0.50000000000E+03  0.00000000000E+00 0.  1.
        -11    1    1    2    0    0 -0.13565337955E+03 -0.69188176005E+02  0.11664698811E+03  0.19182117432E+03  0.00000000000E+00 0.  1.
         11    1    1    2    0    0  0.55582713858E+02 -0.17970552567E+03  0.84464895098E+01  0.18829460221E+03  0.00000000000E+00 0.  1.
        -15    1    1    2    0    0  0.10097924692E+03  0.10466786615E+03  0.20943444478E+03  0.25498649945E+03  0.17770000000E+01 0. -1.
         15    1    1    2    0    0 -0.20908581227E+02  0.14422583553E+03 -0.33452792240E+03  0.36489772402E+03  0.17770000000E+01 0.  1.
</event>
<event>
 7    1  0.6725282E-009  0.8926796E+03  0.7546771E-02  0.8793868E-01
        -11   -1    0    0    0    0  0.00000000000E+00  0.00000000000E+00  0.50000000000E+03  0.50000000000E+03  0.00000000000E+00 0.  1.
         11   -1    0    0    0    0 -0.00000000000E+00 -0.00000000000E+00 -0.50000000000E+03  0.50000000000E+03  0.00000000000E+00 0. -1.
         23    2    1    2    0    0 -0.42162211557E+02 -0.39527486384E+02  0.65479190497E+02  0.10732039461E+03  0.62370413242E+02 0.  0.
        -11    1    3    3    0    0  0.15565043943E+02 -0.10365418693E+02  0.65206173833E+01  0.19804821349E+02  0.00000000000E+00 0. -1.
         11    1    3    3    0    0 -0.57727255500E+02 -0.29162067691E+02  0.58958573114E+02  0.87515573261E+02  0.00000000000E+00 0.  1.
        -15    1    1    2    0    0  0.18002926489E+03 -0.38669741995E+03  0.51593530679E+02  0.42966321805E+03  0.17770000000E+01 0.  1.
         15    1    1    2    0    0 -0.13786705333E+03  0.42622490633E+03 -0.11707272118E+03  0.46301638734E+03  0.17770000000E+01 0. -1.
</event>
<event>
 6    1  0.6725282E-009  0.4286138E+03  0.7546771E-02  0.9575441E-01
        -11   -1    0    0    0    0  0.00000000000E+00  0.00000000000E+00  0.50000000000E+03  0.50000000000E+03  0.00000000000E+00 0.  1.
         11   -1    0    0    0    0 -0.00000000000E+00 -0.00000000000E+00 -0.50000000000E+03  0.50000000000E+03  0.00000000000E+00 0. -1.
        -11    1    1    2    0    0  0.51953180728E+01 -0.21640338475E+01 -0.76640869298E+01  0.95085540877E+01  0.00000000000E+00 0. -1.
         11    1    1    2    0    0 -0.84086939300E+02  0.19949013041E+02 -0.88992646418E+02  0.12404945626E+03  0.00000000000E+00 0.  1.
        -15    1    1    2    0    0  0.26880973505E+03  0.34347583096E+03 -0.35063829761E+02  0.43756936592E+03  0.17770000000E+01 0.  1.
         15    1    1    2    0    0 -0.18991811382E+03 -0.36126081015E+03  0.13172056311E+03  0.42887262373E+03  0.17770000000E+01 0. -1.
</event>
<event>
 7    1  0.7397989E-009  0.9052024E+03  0.7546771E-02  0.8780280E-01
        -11   -1    0    0    0    0  0.00000000000E+00  0.00000000000E+00  0.50000000000E+03  0.50000000000E+03  0.00000000000E+00 0.  1.
         11   -1    0    0    0    0 -0.00000000000E+00 -0.00000000000E+00 -0.50000000000E+03  0.50000000000E+03  0.00000000000E+00 0. -1.
         23    2    1    2    0    0 -0.15210399239E+02 -0.52557990335E+02  0.29863182822E+01  0.94797577376E+02  0.77356085646E+02 0.  0.
        -11    1    3    3    0    0 -0.16312202877E+01 -0.40285625313E+01 -0.32738487864E+02  0.33025729111E+02  0.00000000000E+00 0. -1.
         11    1    3    3    0    0 -0.13579178951E+02 -0.48529427804E+02  0.35724806146E+02  0.61771848266E+02  0.00000000000E+00 0.  1.
        -15    1    1    2    0    0  0.42565647258E+03 -0.13981078631E+03  0.40327439492E+02  0.44984436056E+03  0.17770000000E+01 0.  1.
         15    1    1    2    0    0 -0.41044607334E+03  0.19236877664E+03 -0.43313757774E+02  0.45535806207E+03  0.17770000000E+01 0. -1.
</event>
<event>
 7    1  0.6725282E-009  0.1000000E+04  0.7546771E-02  0.8684367E-01
        -11   -1    0    0    0    0  0.00000000000E+00  0.00000000000E+00  0.50000000000E+03  0.50000000000E+03  0.00000000000E+00 0. -1.
         11   -1    0    0    0    0 -0.00000000000E+00 -0.00000000000E+00 -0.50000000000E+03  0.50000000000E+03  0.00000000000E+00 0.  1.
         23    2    1    2    0    0 -0.99827053292E+02  0.12619189561E+03  0.16722330657E+03  0.25926936235E+03  0.11561631764E+03 0.  0.
        -11    1    3    3    0    0 -0.10114370047E+03  0.14583683117E+03  0.14213750273E+03  0.22737963662E+03  0.00000000000E+00 0. -1.
         11    1    3    3    0    0  0.13166471732E+01 -0.19644935552E+02  0.25085803833E+02  0.31889725721E+02  0.00000000000E+00 0.  1.
        -15    1    1    2    0    0 -0.17413178899E+03 -0.60982822038E+02  0.20381177790E+03  0.27492395868E+03  0.17770000000E+01 0. -1.
         15    1    1    2    0    0  0.27395884228E+03 -0.65209073575E+02 -0.37103508446E+03  0.46580667897E+03  0.17770000000E+01 0.  1.
</event>
<event>
 7    1  0.6725282E-009  0.1000000E+04  0.7546771E-02  0.8684367E-01
        -11   -1    0    0    0    0  0.00000000000E+00  0.00000000000E+00  0.50000000000E+03  0.50000000000E+03  0.00000000000E+00 0.  1.
         11   -1    0    0    0    0 -0.00000000000E+00 -0.00000000000E+00 -0.50000000000E+03  0.50000000000E+03  0.00000000000E+00 0. -1.
         23    2    1    2    0    0 -0.31158189667E+02 -0.54055529019E+02  0.86506305374E+02  0.15230355194E+03  0.10872073428E+03 0.  0.
        -11    1    3    3    0    0 -0.22536020995E+02 -0.45463689430E+02 -0.12736797095E+02  0.52316778371E+02  0.00000000000E+00 0. -1.
         11    1    3    3    0    0 -0.86221686719E+01 -0.85918395887E+01  0.99243102469E+02  0.99986773564E+02  0.00000000000E+00 0.  1.
        -15    1    1    2    0    0  0.11287511958E+03  0.17865176563E+03 -0.42677330174E+03  0.47623088391E+03  0.17770000000E+01 0. -1.
         15    1    1    2    0    0 -0.81716929916E+02 -0.12459623661E+03  0.34026699636E+03  0.37146556416E+03  0.17770000000E+01 0.  1.
</event>
<event>
 7    1  0.6725282E-009  0.1000000E+04  0.7546771E-02  0.8684367E-01
        -11   -1    0    0    0    0  0.00000000000E+00  0.00000000000E+00  0.50000000000E+03  0.50000000000E+03  0.00000000000E+00 0.  1.
         11   -1    0    0    0    0 -0.00000000000E+00 -0.00000000000E+00 -0.50000000000E+03  0.50000000000E+03  0.00000000000E+00 0. -1.
         23    2    1    2    0    0 -0.75095974317E+01  0.20975726579E+02 -0.12250841809E+03  0.14017976518E+03  0.64386946694E+02 0.  0.
        -11    1    3    3    0    0 -0.17534806669E+02 -0.98673322293E+01 -0.96591598118E+02  0.98664940669E+02  0.00000000000E+00 0. -1.
         11    1    3    3    0    0  0.10025209237E+02  0.30843058808E+02 -0.25916819971E+02  0.41514824512E+02  0.00000000000E+00 0.  1.
        -15    1    1    2    0    0  0.81902189511E+02 -0.38193370989E+03  0.25690614458E+03  0.46753101742E+03  0.17770000000E+01 0.  1.
         15    1    1    2    0    0 -0.74392592079E+02  0.36095798331E+03 -0.13439772649E+03  0.39228921740E+03  0.17770000000E+01 0. -1.
</event>
<event>
 6    1  0.6725282E-009  0.3076394E+03  0.7546771E-02  0.9977189E-01
        -11   -1    0    0    0    0  0.00000000000E+00  0.00000000000E+00  0.50000000000E+03  0.50000000000E+03  0.00000000000E+00 0.  1.
         11   -1    0    0    0    0 -0.00000000000E+00 -0.00000000000E+00 -0.50000000000E+03  0.50000000000E+03  0.00000000000E+00 0. -1.
        -11    1    1    2    0    0 -0.18679022146E+02 -0.55754374581E+02  0.17335757109E+02  0.61302403116E+02  0.00000000000E+00 0.  1.
         11    1    1    2    0    0 -0.18390172762E+03  0.18968901363E+03  0.82458885576E+02  0.27676928139E+03  0.00000000000E+00 0. -1.
        -15    1    1    2    0    0  0.30604199909E+02 -0.35373803783E+03 -0.13657047477E+03  0.38042327580E+03  0.17770000000E+01 0.  1.
         15    1    1    2    0    0  0.17197654985E+03  0.21980339879E+03  0.36775832082E+02  0.28150503969E+03  0.17770000000E+01 0. -1.
</event>
<event>
 7    1  0.6725282E-009  0.6614565E+03  0.7546771E-02  0.9096998E-01
        -11   -1    0    0    0    0  0.00000000000E+00  0.00000000000E+00  0.50000000000E+03  0.50000000000E+03  0.00000000000E+00 0. -1.
         11   -1    0    0    0    0 -0.00000000000E+00 -0.00000000000E+00 -0.50000000000E+03  0.50000000000E+03  0.00000000000E+00 0. -1.
         23    2    1    2    0    0 -0.19039942154E+03  0.11028274064E+03  0.23102355384E+03  0.33854346680E+03  0.11325005024E+03 0.  0.
        -11    1    3    3    0    0 -0.91939907264E+02  0.54336728631E+02  0.19026375162E+03  0.21818735483E+03  0.00000000000E+00 0. -1.
         11    1    3    3    0    0 -0.98459514279E+02  0.55946012012E+02  0.40759802212E+02  0.12035611197E+03  0.00000000000E+00 0. -1.
        -15    1    1    2    0    0  0.44239469531E+01 -0.91610141735E+02 -0.39945077911E+03  0.40984884047E+03  0.17770000000E+01 0. -1.
         15    1    1    2    0    0  0.18597547459E+03 -0.18672598908E+02  0.16842722527E+03  0.25160769273E+03  0.17770000000E+01 0.  1.
</event>
<event>
 6    1  0.6725282E-009  0.5352162E+03  0.7546771E-02  0.9324285E-01
        -11   -1    0    0    0    0  0.00000000000E+00  0.00000000000E+00  0.50000000000E+03  0.50000000000E+03  0.00000000000E+00 0.  1.
         11   -1    0    0    0    0 -0.00000000000E+00 -0.00000000000E+00 -0.50000000000E+03  0.50000000000E+03  0.00000000000E+00 0. -1.
        -11    1    1    2    0    0 -0.20751764746E+03 -0.92363594995E+02  0.15002086415E+03  0.27221474495E+03  0.00000000000E+00 0.  1.
         11    1    1    2    0    0 -0.16153173848E+03 -0.98288065635E+02 -0.36466500257E+02  0.19256908377E+03  0.00000000000E+00 0. -1.
        -15    1    1    2    0    0  0.11942297054E+02 -0.76125195645E+02 -0.11542030573E+02  0.77936128142E+02  0.17770000000E+01 0.  1.
         15    1    1    2    0    0  0.35710708889E+03  0.26677685628E+03 -0.10201233332E+03  0.45728004314E+03  0.17770000000E+01 0. -1.
</event>
<event>
 7    1  0.6725282E-009  0.1000000E+04  0.7546771E-02  0.8684367E-01
        -11   -1    0    0    0    0  0.00000000000E+00  0.00000000000E+00  0.50000000000E+03  0.50000000000E+03  0.00000000000E+00 0.  1.
         11   -1    0    0    0    0 -0.00000000000E+00 -0.00000000000E+00 -0.50000000000E+03  0.50000000000E+03  0.00000000000E+00 0. -1.
         23    2    1    2    0    0 -0.32751768142E+02  0.61197674003E+02  0.36031285926E+03  0.37533137173E+03  0.78933189707E+02 0.  0.
        -11    1    3    3    0    0 -0.24621360754E+02  0.57224606532E+00  0.27382452039E+02  0.36828488302E+02  0.00000000000E+00 0. -1.
         11    1    3    3    0    0 -0.81304073874E+01  0.60625427938E+02  0.33293040722E+03  0.33850288343E+03  0.00000000000E+00 0.  1.
        -15    1    1    2    0    0  0.91253295421E+02  0.14000445213E+03  0.40876047614E+02  0.17205353684E+03  0.17770000000E+01 0.  1.
         15    1    1    2    0    0 -0.58501527279E+02 -0.20120212614E+03 -0.40118890688E+03  0.45261509142E+03  0.17770000000E+01 0. -1.
</event>
<event>
 7    1  0.6725282E-009  0.1000000E+04  0.7546771E-02  0.8684367E-01
        -11   -1    0    0    0    0  0.00000000000E+00  0.00000000000E+00  0.50000000000E+03  0.50000000000E+03  0.00000000000E+00 0. -1.
         11   -1    0    0    0    0 -0.00000000000E+00 -0.00000000000E+00 -0.50000000000E+03  0.50000000000E+03  0.00000000000E+00 0.  1.
         23    2    1    2    0    0 -0.12411311433E+03 -0.11337541109E+03  0.83885529495E+01  0.19896165445E+03  0.10610053313E+03 0.  0.
        -11    1    3    3    0    0 -0.64999412000E+02 -0.77211432500E+01  0.36117361769E+02  0.74759637737E+02  0.00000000000E+00 0. -1.
         11    1    3    3    0    0 -0.59113702335E+02 -0.10565426784E+03 -0.27728808820E+02  0.12420201671E+03  0.00000000000E+00 0.  1.
        -15    1    1    2    0    0 -0.13088597269E+03 -0.25485905944E+03  0.15316887546E+03  0.32488173258E+03  0.17770000000E+01 0. -1.
         15    1    1    2    0    0  0.25499908702E+03  0.36823447053E+03 -0.16155742841E+03  0.47615661297E+03  0.17770000000E+01 0.  1.
</event>
<event>
 6    1  0.6725282E-009  0.7042220E+03  0.7546771E-02  0.9031904E-01
        -11   -1    0    0    0    0  0.00000000000E+00  0.00000000000E+00  0.50000000000E+03  0.50000000000E+03  0.00000000000E+00 0. -1.
         11   -1    0    0    0    0 -0.00000000000E+00 -0.00000000000E+00 -0.50000000000E+03  0.50000000000E+03  0.00000000000E+00 0. -1.
        -11    1    1    2    0    0 -0.15662888779E+03  0.16693712564E+02  0.13418530102E+03  0.20692265110E+03  0.00000000000E+00 0. -1.
         11    1    1    2    0    0 -0.72595495528E+02 -0.50891609414E+02 -0.59332165057E+01  0.88855303374E+02  0.00000000000E+00 0. -1.
        -15    1    1    2    0    0 -0.31759221349E+02  0.23008740713E+03  0.14905187397E+03  0.27598637996E+03  0.17770000000E+01 0.  1.
         15    1    1    2    0    0  0.26098360467E+03 -0.19588951028E+03 -0.27730395848E+03  0.42823566556E+03  0.17770000000E+01 0. -1.
</event>
<event>
 7    1  0.6725282E-009  0.1000000E+04  0.7546771E-02  0.8684367E-01
        -11   -1    0    0    0    0  0.00000000000E+00  0.00000000000E+00  0.50000000000E+03  0.50000000000E+03  0.00000000000E+00 0.  1.
         11   -1    0    0    0    0 -0.00000000000E+00 -0.00000000000E+00 -0.50000000000E+03  0.50000000000E+03  0.00000000000E+00 0. -1.
         23    2    1    2    0    0  0.15642601947E+03  0.25196786787E+03 -0.13204493236E+03  0.34161985432E+03  0.10635485274E+03 0.  0.
        -11    1    3    3    0    0  0.27589499432E+02  0.78540440791E+01  0.11009748617E+02  0.30725901971E+02  0.00000000000E+00 0.  1.
         11    1    3    3    0    0  0.12883652004E+03  0.24411382379E+03 -0.14305468098E+03  0.31089395235E+03  0.00000000000E+00 0. -1.
        -15    1    1    2    0    0 -0.43075591016E+02 -0.23316665965E+03  0.34369056617E+03  0.41755066845E+03  0.17770000000E+01 0.  1.
         15    1    1    2    0    0 -0.11335042846E+03 -0.18801208216E+02 -0.21164563381E+03  0.24082947723E+03  0.17770000000E+01 0. -1.
</event>
<event>
 6    1  0.6725282E-009  0.1000000E+04  0.7546771E-02  0.8684367E-01
        -11   -1    0    0    0    0  0.00000000000E+00  0.00000000000E+00  0.50000000000E+03  0.50000000000E+03  0.00000000000E+00 0. -1.
         11   -1    0    0    0    0 -0.00000000000E+00 -0.00000000000E+00 -0.50000000000E+03  0.50000000000E+03  0.00000000000E+00 0.  1.
        -11    1    1    2    0    0  0.36518577786E+02  0.16445902664E+03  0.29125596921E+02  0.17096396803E+03  0.00000000000E+00 0. -1.
         11    1    1    2    0    0 -0.10945815865E+03  0.15629599759E+03  0.72523665590E+02  0.20413037360E+03  0.00000000000E+00 0.  1.
        -15    1    1    2    0    0  0.31951160324E+02  0.12525572876E+03 -0.12034242972E+03  0.17662200416E+03  0.17770000000E+01 0. -1.
         15    1    1    2    0    0  0.40988420541E+02 -0.44601075299E+03  0.18693167204E+02  0.44828365421E+03  0.17770000000E+01 0.  1.
</event>
<event>
 7    1  0.6725282E-009  0.1000000E+04  0.7546771E-02  0.8684367E-01
        -11   -1    0    0    0    0  0.00000000000E+00  0.00000000000E+00  0.50000000000E+03  0.50000000000E+03  0.00000000000E+00 0. -1.
         11   -1    0    0    0    0 -0.00000000000E+00 -0.00000000000E+00 -0.50000000000E+03  0.50000000000E+03  0.00000000000E+00 0.  1.
         23    2    1    2    0    0  0.41291651276E+03 -0.12814811119E+02  0.76951542985E+01  0.42046650734E+03  0.77901235572E+02 0.  0.
        -11    1    3    3    0    0  0.39951406583E+03 -0.17120031738E+02 -0.72354806943E+01  0.39994616696E+03  0.00000000000E+00 0.  1.
         11    1    3    3    0    0  0.13402446931E+02  0.43052206186E+01  0.14930634993E+02  0.20520340387E+02  0.00000000000E+00 0. -1.
        -15    1    1    2    0    0  0.55824774613E+02 -0.73178634214E+02 -0.43109993698E+02  0.10165208926E+03  0.17770000000E+01 0.  1.
         15    1    1    2    0    0 -0.46874128737E+03  0.85993445333E+02  0.35414839400E+02  0.47788140339E+03  0.17770000000E+01 0. -1.
</event>
<event>
 7    1  0.6725282E-009  0.6230338E+03  0.7546771E-02  0.9160074E-01
        -11   -1    0    0    0    0  0.00000000000E+00  0.00000000000E+00  0.50000000000E+03  0.50000000000E+03  0.00000000000E+00 0.  1.
         11   -1    0    0    0    0 -0.00000000000E+00 -0.00000000000E+00 -0.50000000000E+03  0.50000000000E+03  0.00000000000E+00 0.  1.
         23    2    1    2    0    0 -0.14137532116E+03 -0.33364947718E+03 -0.39511402055E+01  0.37696616439E+03  0.10382158989E+03 0.  0.
        -11    1    3    3    0    0 -0.14457647296E+03 -0.26343882318E+03 -0.30029897424E+02  0.30200027290E+03  0.00000000000E+00 0.  1.
         11    1    3    3    0    0  0.32011518053E+01 -0.70210653998E+02  0.26078757219E+02  0.74965891482E+02  0.00000000000E+00 0.  1.
        -15    1    1    2    0    0  0.21351172187E+03  0.17747412096E+03  0.21470434573E+03  0.35097782379E+03  0.17770000000E+01 0.  1.
         15    1    1    2    0    0 -0.72136400714E+02  0.15617535623E+03 -0.21075320553E+03  0.27205601182E+03  0.17770000000E+01 0. -1.
</event>
<event>
 7    1  0.6725282E-009  0.9208448E+03  0.7546771E-02  0.8763628E-01
        -11   -1    0    0    0    0  0.00000000000E+00  0.00000000000E+00  0.50000000000E+03  0.50000000000E+03  0.00000000000E+00 0.  1.
         11   -1    0    0    0    0 -0.00000000000E+00 -0.00000000000E+00 -0.50000000000E+03  0.50000000000E+03  0.00000000000E+00 0. -1.
         23    2    1    2    0    0 -0.26542750083E+01  0.22457996365E+02 -0.44700899324E+02  0.79155225661E+02  0.61285990018E+02 0.  0.
        -11    1    3    3    0    0 -0.30425468242E+02  0.54392251634E+01 -0.12457695225E+02  0.33323992234E+02  0.00000000000E+00 0. -1.
         11    1    3    3    0    0  0.27771193234E+02  0.17018771202E+02 -0.32243204099E+02  0.45831233427E+02  0.00000000000E+00 0.  1.
        -15    1    1    2    0    0 -0.32622307075E+03 -0.26508129280E+03 -0.17676665841E+03  0.45600350102E+03  0.17770000000E+01 0. -1.
         15    1    1    2    0    0  0.32887734576E+03  0.24262329643E+03  0.22146755773E+03  0.46484127332E+03  0.17770000000E+01 0.  1.
</event>
<event>
 7    1  0.7432332E-009  0.8598110E+03  0.7546771E-02  0.8830673E-01
        -11   -1    0    0    0    0  0.00000000000E+00  0.00000000000E+00  0.50000000000E+03  0.50000000000E+03  0.00000000000E+00 0.  1.
         11   -1    0    0    0    0 -0.00000000000E+00 -0.00000000000E+00 -0.50000000000E+03  0.50000000000E+03  0.00000000000E+00 0. -1.
         23    2    1    2    0    0 -0.17063926975E+02 -0.10028053036E+02 -0.11679028991E+03  0.14018900548E+03  0.74974969087E+02 0.  0.
        -11    1    3    3    0    0 -0.31043427270E+02  0.24911438338E+02 -0.63726591490E+02  0.75135561485E+02  0.00000000000E+00 0.  1.
         11    1    3    3    0    0  0.13979500295E+02 -0.34939491375E+02 -0.53063698422E+02  0.65053444000E+02  0.00000000000E+00 0. -1.
        -15    1    1    2    0    0 -0.23470806460E+03  0.28882208927E+03  0.26404722536E+03  0.45632244059E+03  0.17770000000E+01 0.  1.
         15    1    1    2    0    0  0.25177199157E+03 -0.27879403623E+03 -0.14725693545E+03  0.40348855392E+03  0.17770000000E+01 0. -1.
</event>
<event>
 7    1  0.6725282E-009  0.8041827E+03  0.7546771E-02  0.8897075E-01
        -11   -1    0    0    0    0  0.00000000000E+00  0.00000000000E+00  0.50000000000E+03  0.50000000000E+03  0.00000000000E+00 0. -1.
         11   -1    0    0    0    0 -0.00000000000E+00 -0.00000000000E+00 -0.50000000000E+03  0.50000000000E+03  0.00000000000E+00 0.  1.
         23    2    1    2    0    0  0.67959282791E+02 -0.12537687675E+03 -0.11282036558E+03  0.19581730011E+03  0.72650910475E+02 0.  0.
        -11    1    3    3    0    0  0.70506774242E+02 -0.13140357373E+03 -0.94950294614E+02  0.17678705510E+03  0.00000000000E+00 0. -1.
         11    1    3    3    0    0 -0.25474914507E+01  0.60266969758E+01 -0.17870070964E+02  0.19030245016E+02  0.00000000000E+00 0.  1.
        -15    1    1    2    0    0  0.10017421799E+03 -0.25754824947E+02  0.41448663552E+03  0.42720078852E+03  0.17770000000E+01 0. -1.
         15    1    1    2    0    0 -0.16813350079E+03  0.15113170170E+03 -0.30166626994E+03  0.37698191136E+03  0.17770000000E+01 0.  1.
</event>
<event>
 6    1  0.6725282E-009  0.2699367E+03  0.7546771E-02  0.1014518E+00
        -11   -1    0    0    0    0  0.00000000000E+00  0.00000000000E+00  0.50000000000E+03  0.50000000000E+03  0.00000000000E+00 0. -1.
         11   -1    0    0    0    0 -0.00000000000E+00 -0.00000000000E+00 -0.50000000000E+03  0.50000000000E+03  0.00000000000E+00 0. -1.
        -11    1    1    2    0    0 -0.14512854348E+03  0.89447108000E+02  0.12041205498E+03  0.20871545761E+03  0.00000000000E+00 0. -1.
         11    1    1    2    0    0 -0.45115992757E+02  0.15514618658E+03 -0.45006810420E+02  0.16772419324E+03  0.00000000000E+00 0. -1.
        -15    1    1    2    0    0  0.13021936112E+03 -0.15011592902E+03 -0.30735520105E+03  0.36600854020E+03  0.17770000000E+01 0. -1.
         15    1    1    2    0    0  0.60025175115E+02 -0.94477365564E+02  0.23194995649E+03  0.25755180896E+03  0.17770000000E+01 0.  1.
</event>
<event>
 7    1  0.6725282E-009  0.7800696E+03  0.7546771E-02  0.8927636E-01
        -11   -1    0    0    0    0  0.00000000000E+00  0.00000000000E+00  0.50000000000E+03  0.50000000000E+03  0.00000000000E+00 0.  1.
         11   -1    0    0    0    0 -0.00000000000E+00 -0.00000000000E+00 -0.50000000000E+03  0.50000000000E+03  0.00000000000E+00 0. -1.
         23    2    1    2    0    0  0.79770150440E+02 -0.29505438192E+02  0.17388941522E+03  0.21993041974E+03  0.10439354872E+03 0.  0.
        -11    1    3    3    0    0  0.10488860704E+03 -0.24659102287E+02  0.12728698168E+03  0.16676830310E+03  0.00000000000E+00 0.  1.
         11    1    3    3    0    0 -0.25118456598E+02 -0.48463359045E+01  0.46602433539E+02  0.53162116637E+02  0.00000000000E+00 0. -1.
        -15    1    1    2    0    0 -0.20461127572E+03 -0.30486653299E+03  0.31078613333E+02  0.36848122750E+03  0.17770000000E+01 0.  1.
         15    1    1    2    0    0  0.12484112528E+03  0.33437197118E+03 -0.20496802856E+03  0.41158835276E+03  0.17770000000E+01 0. -1.
</event>
<event>
 7    1  0.6725282E-009  0.8722086E+03  0.7546771E-02  0.8816591E-01
        -11   -1    0    0    0    0  0.00000000000E+00  0.00000000000E+00  0.50000000000E+03  0.50000000000E+03  0.00000000000E+00 0.  1.
         11   -1    0    0    0    0 -0.00000000000E+00 -0.00000000000E+00 -0.50000000000E+03  0.50000000000E+03  0.00000000000E+00 0. -1.
         23    2    1    2    0    0 -0.69408337319E+02 -0.13751730869E+02 -0.72256145901E+02  0.12779141021E+03  0.78122125623E+02 0.  0.
        -11    1    3    3    0    0 -0.29317523028E+02  0.32229116110E+02 -0.22308090030E+02  0.48947767697E+02  0.00000000000E+00 0.  1.
         11    1    3    3    0    0 -0.40090814291E+02 -0.45980846979E+02 -0.49948055871E+02  0.78843642513E+02  0.00000000000E+00 0. -1.
        -15    1    1    2    0    0 -0.36309100246E+03  0.15176269791E+03  0.13025108853E+03  0.41453045285E+03  0.17770000000E+01 0.  1.
         15    1    1    2    0    0  0.43249933978E+03 -0.13801096704E+03 -0.57994942633E+02  0.45767813694E+03  0.17770000000E+01 0. -1.
</event>
<event>
 7    1  0.6725282E-009  0.8795143E+03  0.7546771E-02  0.8808407E-01
        -11   -1    0    0    0    0  0.00000000000E+00  0.00000000000E+00  0.50000000000E+03  0.50000000000E+03  0.00000000000E+00 0. -1.
         11   -1    0    0    0    0 -0.00000000000E+00 -0.00000000000E+00 -0.50000000000E+03  0.50000000000E+03  0.00000000000E+00 0.  1.
         23    2    1    2    0    0  0.89484095287E+00  0.29621737474E+02  0.10478520979E+01  0.12048574900E+03  0.11677957719E+03 0.  0.
        -11    1    3    3    0    0  0.22769409521E+02 -0.38778769429E+02  0.14850968613E+02  0.47358106350E+02  0.00000000000E+00 0. -1.
         11    1    3    3    0    0 -0.21874568568E+02  0.68400506903E+02 -0.13803116515E+02  0.73127642654E+02  0.00000000000E+00 0.  1.
        -15    1    1    2    0    0 -0.39848265805E+03  0.16791387074E+03  0.36577518351E+02  0.43396378804E+03  0.17770000000E+01 0. -1.
         15    1    1    2    0    0  0.39758781709E+03 -0.19753560821E+03 -0.37625370449E+02  0.44555046296E+03  0.17770000000E+01 0.  1.
</event>
<event>
 7    1  0.6725282E-009  0.7491421E+03  0.7546771E-02  0.8968579E-01
        -11   -1    0    0    0    0  0.00000000000E+00  0.00000000000E+00  0.50000000000E+03  0.50000000000E+03  0.00000000000E+00 0. -1.
         11   -1    0    0    0    0 -0.00000000000E+00 -0.00000000000E+00 -0.50000000000E+03  0.50000000000E+03  0.00000000000E+00 0.  1.
         23    2    1    2    0    0  0.17594804971E+03 -0.23478888120E+02  0.16016690577E+03  0.25085787965E+03  0.75942502545E+02 0.  0.
        -11    1    3    3    0    0  0.12025174981E+03 -0.42118596569E+02  0.76439849743E+02  0.14858502663E+03  0.00000000000E+00 0.  1.
         11    1    3    3    0    0  0.55696299900E+02  0.18639708449E+02  0.83727056028E+02  0.10227285302E+03  0.00000000000E+00 0. -1.
        -15    1    1    2    0    0  0.12380544763E+03 -0.26022999395E+03 -0.17316165951E+03  0.33620760947E+03  0.17770000000E+01 0.  1.
         15    1    1    2    0    0 -0.29975349733E+03  0.28370888207E+03  0.12994753741E+02  0.41293451089E+03  0.17770000000E+01 0. -1.
</event>
<event>
 7    1  0.6725282E-009  0.1000000E+04  0.7546771E-02  0.8684367E-01
        -11   -1    0    0    0    0  0.00000000000E+00  0.00000000000E+00  0.50000000000E+03  0.50000000000E+03  0.00000000000E+00 0. -1.
         11   -1    0    0    0    0 -0.00000000000E+00 -0.00000000000E+00 -0.50000000000E+03  0.50000000000E+03  0.00000000000E+00 0.  1.
         23    2    1    2    0    0 -0.52865484883E+02  0.63805008741E+02  0.85050385740E+02  0.13488429181E+03  0.63987228655E+02 0.  0.
        -11    1    3    3    0    0 -0.34924502813E+02  0.75494735258E+02  0.65259304000E+02  0.10572583746E+03  0.00000000000E+00 0. -1.
         11    1    3    3    0    0 -0.17940982070E+02 -0.11689726517E+02  0.19791081740E+02  0.29158454351E+02  0.00000000000E+00 0.  1.
        -15    1    1    2    0    0 -0.92071581605E+02 -0.32373200770E+03 -0.33617903442E+03  0.47570903908E+03  0.17770000000E+01 0.  1.
         15    1    1    2    0    0  0.14493706649E+03  0.25992699896E+03  0.25112864868E+03  0.38940666911E+03  0.17770000000E+01 0. -1.
</event>
<event>
 6    1  0.6725282E-009  0.7359128E+03  0.7546771E-02  0.8986732E-01
        -11   -1    0    0    0    0  0.00000000000E+00  0.00000000000E+00  0.50000000000E+03  0.50000000000E+03  0.00000000000E+00 0. -1.
         11   -1    0    0    0    0 -0.00000000000E+00 -0.00000000000E+00 -0.50000000000E+03  0.50000000000E+03  0.00000000000E+00 0.  1.
        -11    1    1    2    0    0  0.70961605564E+02 -0.16393200267E+02  0.62990707121E+02  0.96291825524E+02  0.00000000000E+00 0. -1.
         11    1    1    2    0    0 -0.30598128616E+02 -0.11024784506E+03  0.10435013174E+03  0.15485406940E+03  0.00000000000E+00 0.  1.
        -15    1    1    2    0    0 -0.25606787390E+03  0.27148389907E+02  0.18981886805E+03  0.31990959897E+03  0.17770000000E+01 0. -1.
         15    1    1    2    0    0  0.21570439696E+03  0.99492655420E+02 -0.35715970691E+03  0.42894450610E+03  0.17770000000E+01 0.  1.
</event>
<event>
 7    1  0.6725282E-009  0.8220290E+03  0.7546771E-02  0.8875173E-01
        -11   -1    0    0    0    0  0.00000000000E+00  0.00000000000E+00  0.50000000000E+03  0.50000000000E+03  0.00000000000E+00 0.  1.
         11   -1    0    0    0    0 -0.00000000000E+00 -0.00000000000E+00 -0.50000000000E+03  0.50000000000E+03  0.00000000000E+00 0. -1.
         23    2    1    2    0    0 -0.60961653226E+02 -0.64282835921E+02  0.10451488930E+03  0.17797096329E+03  0.11358563083E+03 0.  0.
        -11    1    3    3    0    0  0.23899755105E+02  0.14642514558E+02  0.17413555078E+02  0.32997476072E+02  0.00000000000E+00 0.  1.
         11    1    3    3    0    0 -0.84861408331E+02 -0.78925350479E+02  0.87101334221E+02  0.14497348721E+03  0.00000000000E+00 0. -1.
        -15    1    1    2    0    0 -0.13681777664E+03  0.22823993833E+03  0.26265610920E+03  0.37390368129E+03  0.17770000000E+01 0.  1.
         15    1    1    2    0    0  0.19777942987E+03 -0.16395710241E+03 -0.36717099850E+03  0.44812535542E+03  0.17770000000E+01 0. -1.
</event>
<event>
 7    1  0.6725282E-009  0.1000000E+04  0.7546771E-02  0.8684367E-01
        -11   -1    0    0    0    0  0.00000000000E+00  0.00000000000E+00  0.50000000000E+03  0.50000000000E+03  0.00000000000E+00 0.  1.
         11   -1    0    0    0    0 -0.00000000000E+00 -0.00000000000E+00 -0.50000000000E+03  0.50000000000E+03  0.00000000000E+00 0. -1.
         23    2    1    2    0    0  0.56305424254E+02  0.40136623381E+02  0.32309976316E+03  0.34740525239E+03  0.10731124406E+03 0.  0.
        -11    1    3    3    0    0  0.20179797848E+02 -0.30069669627E+02  0.42141405155E+02  0.55563542914E+02  0.00000000000E+00 0.  1.
         11    1    3    3    0    0  0.36125626405E+02  0.70206293009E+02  0.28095835800E+03  0.29184170948E+03  0.00000000000E+00 0. -1.
        -15    1    1    2    0    0 -0.21006708492E+03  0.98347811256E+01  0.74710766984E+02  0.22318100170E+03  0.17770000000E+01 0.  1.
         15    1    1    2    0    0  0.15376166066E+03 -0.49971404507E+02 -0.39781053014E+03  0.42941374591E+03  0.17770000000E+01 0. -1.
</event>
<event>
 6    1  0.6725282E-009  0.9188006E+03  0.7546771E-02  0.8765785E-01
        -11   -1    0    0    0    0  0.00000000000E+00  0.00000000000E+00  0.50000000000E+03  0.50000000000E+03  0.00000000000E+00 0.  1.
         11   -1    0    0    0    0 -0.00000000000E+00 -0.00000000000E+00 -0.50000000000E+03  0.50000000000E+03  0.00000000000E+00 0. -1.
        -11    1    1    2    0    0 -0.55385416197E-01 -0.67680815709E+02 -0.26715874385E+02  0.72762860216E+02  0.00000000000E+00 0.  1.
         11    1    1    2    0    0 -0.18140752303E+01  0.59855105972E+01  0.64371210978E+01  0.89751732060E+01  0.00000000000E+00 0. -1.
        -15    1    1    2    0    0  0.18056338214E+03  0.32535056514E+03 -0.29140082825E+03  0.47262429650E+03  0.17770000000E+01 0. -1.
         15    1    1    2    0    0 -0.17869392150E+03 -0.26365526003E+03  0.31167958154E+03  0.44563767008E+03  0.17770000000E+01 0.  1.
</event>
<event>
 7    1  0.6725282E-009  0.1000000E+04  0.7546771E-02  0.8684367E-01
        -11   -1    0    0    0    0  0.00000000000E+00  0.00000000000E+00  0.50000000000E+03  0.50000000000E+03  0.00000000000E+00 0. -1.
         11   -1    0    0    0    0 -0.00000000000E+00 -0.00000000000E+00 -0.50000000000E+03  0.50000000000E+03  0.00000000000E+00 0.  1.
         23    2    1    2    0    0 -0.66980133625E+02 -0.65348017328E+02  0.14209997879E+03  0.18520021752E+03  0.73143796243E+02 0.  0.
        -11    1    3    3    0    0 -0.38677550006E+02 -0.75895227328E+02  0.12245871379E+03  0.14917162930E+03  0.00000000000E+00 0.  1.
         11    1    3    3    0    0 -0.28302583619E+02  0.10547210000E+02  0.19641265001E+02  0.36028588220E+02  0.00000000000E+00 0. -1.
        -15    1    1    2    0    0  0.23170901547E+02 -0.14429190765E+03  0.29434689618E+03  0.32863398837E+03  0.17770000000E+01 0. -1.
         15    1    1    2    0    0  0.43809232078E+02  0.20963992498E+03 -0.43644687497E+03  0.48616579411E+03  0.17770000000E+01 0.  1.
</event>
<event>
 7    1  0.6725282E-009  0.1000000E+04  0.7546771E-02  0.8684367E-01
        -11   -1    0    0    0    0  0.00000000000E+00  0.00000000000E+00  0.50000000000E+03  0.50000000000E+03  0.00000000000E+00 0.  1.
         11   -1    0    0    0    0 -0.00000000000E+00 -0.00000000000E+00 -0.50000000000E+03  0.50000000000E+03  0.00000000000E+00 0. -1.
         23    2    1    2    0    0  0.49913862055E+02  0.39591469507E+02  0.35475446144E+02  0.13715527593E+03  0.11616447113E+03 0.  0.
        -11    1    3    3    0    0  0.77780913995E+00 -0.39141908232E+02  0.16188046422E+02  0.42364452246E+02  0.00000000000E+00 0.  1.
         11    1    3    3    0    0  0.49136052915E+02  0.78733377739E+02  0.19287399722E+02  0.94790823682E+02  0.00000000000E+00 0. -1.
        -15    1    1    2    0    0  0.81721121809E+02 -0.47039653364E+02  0.39838198971E+03  0.40939276764E+03  0.17770000000E+01 0.  1.
         15    1    1    2    0    0 -0.13163498386E+03  0.74481838570E+01 -0.43385743585E+03  0.45345195644E+03  0.17770000000E+01 0. -1.
</event>
<event>
 7    1  0.6725282E-009  0.6801002E+03  0.7546771E-02  0.9068000E-01
        -11   -1    0    0    0    0  0.00000000000E+00  0.00000000000E+00  0.50000000000E+03  0.50000000000E+03  0.00000000000E+00 0. -1.
         11   -1    0    0    0    0 -0.00000000000E+00 -0.00000000000E+00 -0.50000000000E+03  0.50000000000E+03  0.00000000000E+00 0.  1.
         23    2    1    2    0    0  0.22693854655E+03 -0.10505286259E+03 -0.17046429659E+03  0.31989980424E+03  0.10363686839E+03 0.  0.
        -11    1    3    3    0    0  0.14781474876E+03 -0.11945147553E+03 -0.11371094639E+03  0.22146790803E+03  0.00000000000E+00 0. -1.
         11    1    3    3    0    0  0.79123797793E+02  0.14398612949E+02 -0.56753350200E+02  0.98431896208E+02  0.00000000000E+00 0.  1.
        -15    1    1    2    0    0 -0.13217555253E+03 -0.25030228099E+03  0.23468961394E+02  0.28403443178E+03  0.17770000000E+01 0. -1.
         15    1    1    2    0    0 -0.94762994028E+02  0.35535514358E+03  0.14699533519E+03  0.39606576399E+03  0.17770000000E+01 0.  1.
</event>
<event>
 7    1  0.6725282E-009  0.1000000E+04  0.7546771E-02  0.8684367E-01
        -11   -1    0    0    0    0  0.00000000000E+00  0.00000000000E+00  0.50000000000E+03  0.50000000000E+03  0.00000000000E+00 0.  1.
         11   -1    0    0    0    0 -0.00000000000E+00 -0.00000000000E+00 -0.50000000000E+03  0.50000000000E+03  0.00000000000E+00 0. -1.
         23    2    1    2    0    0  0.15271395633E+02  0.65397263245E+02 -0.13755951298E+03  0.17111100453E+03  0.76461354263E+02 0.  0.
        -11    1    3    3    0    0  0.38413321656E+02  0.33951570319E+02 -0.36960239631E+02  0.63200883865E+02  0.00000000000E+00 0.  1.
         11    1    3    3    0    0 -0.23141926023E+02  0.31445692926E+02 -0.10059927335E+03  0.10791012067E+03  0.00000000000E+00 0. -1.
        -15    1    1    2    0    0  0.88475145353E+02 -0.33445637405E+03  0.33326943126E+03  0.48037546672E+03  0.17770000000E+01 0.  1.
         15    1    1    2    0    0 -0.10374654099E+03  0.26905911081E+03 -0.19570991828E+03  0.34851352874E+03  0.17770000000E+01 0. -1.
</event>
<event>
 7    1  0.6725282E-009  0.7047548E+03  0.7546771E-02  0.9031124E-01
        -11   -1    0    0    0    0  0.00000000000E+00  0.00000000000E+00  0.50000000000E+03  0.50000000000E+03  0.00000000000E+00 0. -1.
         11   -1    0    0    0    0 -0.00000000000E+00 -0.00000000000E+00 -0.50000000000E+03  0.50000000000E+03  0.00000000000E+00 0.  1.
         23    2    1    2    0    0 -0.59381056520E+02 -0.26673013937E+03  0.81552227355E+02  0.29524524038E+03  0.76471622558E+02 0.  0.
        -11    1    3    3    0    0  0.10072498796E+02 -0.25582551147E+01  0.86749007218E+00  0.10428443808E+02  0.00000000000E+00 0. -1.
         11    1    3    3    0    0 -0.69453555316E+02 -0.26417188426E+03  0.80684737283E+02  0.28481679657E+03  0.00000000000E+00 0.  1.
        -15    1    1    2    0    0  0.11316803350E+03  0.40725241859E+03  0.13262150915E+03  0.44300469374E+03  0.17770000000E+01 0. -1.
         15    1    1    2    0    0 -0.53786976978E+02 -0.14052227922E+03 -0.21417373651E+03  0.26175006588E+03  0.17770000000E+01 0.  1.
</event>
<event>
 7    1  0.6725282E-009  0.1000000E+04  0.7546771E-02  0.8684367E-01
        -11   -1    0    0    0    0  0.00000000000E+00  0.00000000000E+00  0.50000000000E+03  0.50000000000E+03  0.00000000000E+00 0.  1.
         11   -1    0    0    0    0 -0.00000000000E+00 -0.00000000000E+00 -0.50000000000E+03  0.50000000000E+03  0.00000000000E+00 0. -1.
         23    2    1    2    0    0 -0.17451797052E+03  0.10377750487E+03  0.29472087601E+02  0.23105347916E+03  0.10625824077E+03 0.  0.
        -11    1    3    3    0    0 -0.15012468265E+03  0.95542145337E+02  0.63008203192E+02  0.18877435087E+03  0.00000000000E+00 0.  1.
         11    1    3    3    0    0 -0.24393287868E+02  0.82353595360E+01 -0.33536115591E+02  0.42279128286E+02  0.00000000000E+00 0. -1.
        -15    1    1    2    0    0  0.38625644889E+03 -0.23177085519E+03  0.13688136166E+03  0.47079872401E+03  0.17770000000E+01 0.  1.
         15    1    1    2    0    0 -0.21173847837E+03  0.12799335032E+03 -0.16635344926E+03  0.29814779684E+03  0.17770000000E+01 0. -1.
</event>
<event>
 7    1  0.6725282E-009  0.6791385E+03  0.7546771E-02  0.9069472E-01
        -11   -1    0    0    0    0  0.00000000000E+00  0.00000000000E+00  0.50000000000E+03  0.50000000000E+03  0.00000000000E+00 0. -1.
         11   -1    0    0    0    0 -0.00000000000E+00 -0.00000000000E+00 -0.50000000000E+03  0.50000000000E+03  0.00000000000E+00 0. -1.
         23    2    1    2    0    0  0.27502777373E+02  0.25833038443E+02 -0.31010871567E+03  0.32086152498E+03  0.73218536159E+02 0.  0.
        -11    1    3    3    0    0 -0.24355566802E+02 -0.11947485290E+00 -0.88252578556E+02  0.91551764212E+02  0.00000000000E+00 0. -1.
         11    1    3    3    0    0  0.51858344175E+02  0.25952513296E+02 -0.22185613711E+03  0.22930976076E+03  0.00000000000E+00 0. -1.
        -15    1    1    2    0    0  0.13834123837E+03 -0.27101765605E+03  0.19569226029E+03  0.36178375667E+03  0.17770000000E+01 0. -1.
         15    1    1    2    0    0 -0.16584401574E+03  0.24518461761E+03  0.11441645538E+03  0.31735471835E+03  0.17770000000E+01 0.  1.
</event>
<event>
 7    1  0.7186043E-009  0.8105072E+03  0.7546771E-02  0.8889246E-01
        -11   -1    0    0    0    0  0.00000000000E+00  0.00000000000E+00  0.50000000000E+03  0.50000000000E+03  0.00000000000E+00 0. -1.
         11   -1    0    0    0    0 -0.00000000000E+00 -0.00000000000E+00 -0.50000000000E+03  0.50000000000E+03  0.00000000000E+00 0.  1.
         23    2    1    2    0    0 -0.24319401021E+02  0.12037248465E+03  0.94409576410E+02  0.18949277841E+03  0.10914841559E+03 0.  0.
        -11    1    3    3    0    0  0.43196353238E+02  0.42671988330E+02  0.43226908922E+02  0.74534483134E+02  0.00000000000E+00 0. -1.
         11    1    3    3    0    0 -0.67515754259E+02  0.77700496317E+02  0.51182667488E+02  0.11495829527E+03  0.00000000000E+00 0.  1.
        -15    1    1    2    0    0 -0.16278238668E+03 -0.40475084806E+03  0.53150960768E+02  0.43948781186E+03  0.17770000000E+01 0. -1.
         15    1    1    2    0    0  0.18710178770E+03  0.28437836341E+03 -0.14756053718E+03  0.37101940973E+03  0.17770000000E+01 0.  1.
</event>
<event>
 6    1  0.6725282E-009  0.2815616E+03  0.7546771E-02  0.1009038E+00
        -11   -1    0    0    0    0  0.00000000000E+00  0.00000000000E+00  0.50000000000E+03  0.50000000000E+03  0.00000000000E+00 0.  1.
         11   -1    0    0    0    0 -0.00000000000E+00 -0.00000000000E+00 -0.50000000000E+03  0.50000000000E+03  0.00000000000E+00 0. -1.
        -11    1    1    2    0    0 -0.48626890751E+02 -0.83851959857E+02  0.18401057516E+03  0.20797984866E+03  0.00000000000E+00 0.  1.
         11    1    1    2    0    0 -0.12821881024E+03  0.76095825531E+02  0.49675365084E+02  0.15715686386E+03  0.00000000000E+00 0. -1.
        -15    1    1    2    0    0  0.31800475433E+03  0.88069436113E+02  0.23358972474E+02  0.33080515214E+03  0.17770000000E+01 0.  1.
         15    1    1    2    0    0 -0.14115905334E+03 -0.80313301787E+02 -0.25704491272E+03  0.30405813534E+03  0.17770000000E+01 0. -1.
</event>
<event>
 7    1  0.6725282E-009  0.1000000E+04  0.7546771E-02  0.8684367E-01
        -11   -1    0    0    0    0  0.00000000000E+00  0.00000000000E+00  0.50000000000E+03  0.50000000000E+03  0.00000000000E+00 0. -1.
         11   -1    0    0    0    0 -0.00000000000E+00 -0.00000000000E+00 -0.50000000000E+03  0.50000000000E+03  0.00000000000E+00 0.  1.
         23    2    1    2    0    0  0.22240260465E+02  0.32057083966E+02 -0.16341274045E+03  0.19866404067E+03  0.10602542854E+03 0.  0.
        -11    1    3    3    0    0  0.29639410813E+02 -0.17406265190E+02 -0.13866643255E+03  0.14286305421E+03  0.00000000000E+00 0. -1.
         11    1    3    3    0    0 -0.73991503479E+01  0.49463349156E+02 -0.24746307898E+02  0.55800986462E+02  0.00000000000E+00 0.  1.
        -15    1    1    2    0    0  0.29537105828E+03  0.17193723998E+02 -0.16752069601E+03  0.34000886390E+03  0.17770000000E+01 0. -1.
         15    1    1    2    0    0 -0.31761131874E+03 -0.49250807964E+02  0.33093343646E+03  0.46132709543E+03  0.17770000000E+01 0.  1.
</event>
<event>
 7    1  0.6725282E-009  0.1000000E+04  0.7546771E-02  0.8684367E-01
        -11   -1    0    0    0    0  0.00000000000E+00  0.00000000000E+00  0.50000000000E+03  0.50000000000E+03  0.00000000000E+00 0.  1.
         11   -1    0    0    0    0 -0.00000000000E+00 -0.00000000000E+00 -0.50000000000E+03  0.50000000000E+03  0.00000000000E+00 0. -1.
         23    2    1    2    0    0  0.42860212059E+01 -0.33200287068E+02  0.28712848217E+03  0.29750959441E+03  0.70346033650E+02 0.  0.
        -11    1    3    3    0    0 -0.28648222385E+02 -0.20777646048E+02  0.20681810338E+03  0.20982411469E+03  0.00000000000E+00 0.  1.
         11    1    3    3    0    0  0.32934243591E+02 -0.12422641019E+02  0.80310378793E+02  0.87685479714E+02  0.00000000000E+00 0. -1.
        -15    1    1    2    0    0 -0.21473784456E+03 -0.10016003584E+03  0.87483106285E+02  0.25258825444E+03  0.17770000000E+01 0.  1.
         15    1    1    2    0    0  0.21045182335E+03  0.13336032291E+03 -0.37461158846E+03  0.44990215116E+03  0.17770000000E+01 0. -1.
</event>
<event>
 6    1  0.6725282E-009  0.7579304E+03  0.7546771E-02  0.8956736E-01
        -11   -1    0    0    0    0  0.00000000000E+00  0.00000000000E+00  0.50000000000E+03  0.50000000000E+03  0.00000000000E+00 0.  1.
         11   -1    0    0    0    0 -0.00000000000E+00 -0.00000000000E+00 -0.50000000000E+03  0.50000000000E+03  0.00000000000E+00 0. -1.
        -11    1    1    2    0    0  0.60059477710E+01 -0.50695343394E+02  0.43880302596E+02  0.67316938480E+02  0.00000000000E+00 0.  1.
         11    1    1    2    0    0  0.12249067997E+03  0.12084528473E+03  0.36641703591E+02  0.17592658685E+03  0.00000000000E+00 0. -1.
        -15    1    1    2    0    0 -0.40127847189E+03 -0.42948339663E+02  0.11546155493E+03  0.41976600657E+03  0.17770000000E+01 0.  1.
         15    1    1    2    0    0  0.27278184415E+03 -0.27201601669E+02 -0.19598356111E+03  0.33699046810E+03  0.17770000000E+01 0. -1.
</event>
<event>
 6    1  0.6725282E-009  0.9494909E+03  0.7546771E-02  0.8734012E-01
        -11   -1    0    0    0    0  0.00000000000E+00  0.00000000000E+00  0.50000000000E+03  0.50000000000E+03  0.00000000000E+00 0.  1.
         11   -1    0    0    0    0 -0.00000000000E+00 -0.00000000000E+00 -0.50000000000E+03  0.50000000000E+03  0.00000000000E+00 0. -1.
        -11    1    1    2    0    0 -0.64015224552E+01  0.14955430162E+01 -0.18746259673E+02  0.19865507555E+02  0.00000000000E+00 0.  1.
         11    1    1    2    0    0 -0.65748791894E+01 -0.26503445129E+02  0.14033661281E+02  0.30701877614E+02  0.00000000000E+00 0. -1.
        -15    1    1    2    0    0 -0.39684166817E+03  0.17665842106E+03  0.19084186351E+03  0.47446315128E+03  0.17770000000E+01 0.  1.
         15    1    1    2    0    0  0.40981806982E+03 -0.15165051894E+03 -0.18612926512E+03  0.47496946355E+03  0.17770000000E+01 0. -1.
</event>
<event>
 7    1  0.6725282E-009  0.8120241E+03  0.7546771E-02  0.8887379E-01
        -11   -1    0    0    0    0  0.00000000000E+00  0.00000000000E+00  0.50000000000E+03  0.50000000000E+03  0.00000000000E+00 0.  1.
         11   -1    0    0    0    0 -0.00000000000E+00 -0.00000000000E+00 -0.50000000000E+03  0.50000000000E+03  0.00000000000E+00 0. -1.
         23    2    1    2    0    0  0.10726410607E+03  0.10536302700E+03 -0.10298906465E+02  0.18797592446E+03  0.11234733995E+03 0.  0.
        -11    1    3    3    0    0  0.67078770865E+02  0.94202381265E+02  0.40244373040E+02  0.12244696688E+03  0.00000000000E+00 0.  1.
         11    1    3    3    0    0  0.40185335203E+02  0.11160645738E+02 -0.50543279505E+02  0.65528957582E+02  0.00000000000E+00 0. -1.
        -15    1    1    2    0    0 -0.78643069302E+02 -0.29460643313E+03  0.32375826042E+03  0.44474740214E+03  0.17770000000E+01 0.  1.
         15    1    1    2    0    0 -0.28621036766E+02  0.18924340613E+03 -0.31345935396E+03  0.36727667340E+03  0.17770000000E+01 0. -1.
</event>
<event>
 6    1  0.6725282E-009  0.4548194E+03  0.7546771E-02  0.9506998E-01
        -11   -1    0    0    0    0  0.00000000000E+00  0.00000000000E+00  0.50000000000E+03  0.50000000000E+03  0.00000000000E+00 0. -1.
         11   -1    0    0    0    0 -0.00000000000E+00 -0.00000000000E+00 -0.50000000000E+03  0.50000000000E+03  0.00000000000E+00 0.  1.
        -11    1    1    2    0    0  0.38326640040E+01 -0.34464723897E+03  0.26185969432E+03  0.43285899338E+03  0.00000000000E+00 0. -1.
         11    1    1    2    0    0 -0.17152937183E+02  0.63324308125E+01  0.37971705768E+02  0.42144671940E+02  0.00000000000E+00 0.  1.
        -15    1    1    2    0    0 -0.36351113426E+02 -0.25170334459E+02  0.93415692078E+01  0.45225787206E+02  0.17770000000E+01 0. -1.
         15    1    1    2    0    0  0.49671386605E+02  0.36348514261E+03 -0.30917296930E+03  0.47977054747E+03  0.17770000000E+01 0.  1.
</event>
<event>
 7    1  0.6725282E-009  0.7190247E+03  0.7546771E-02  0.9010499E-01
        -11   -1    0    0    0    0  0.00000000000E+00  0.00000000000E+00  0.50000000000E+03  0.50000000000E+03  0.00000000000E+00 0. -1.
         11   -1    0    0    0    0 -0.00000000000E+00 -0.00000000000E+00 -0.50000000000E+03  0.50000000000E+03  0.00000000000E+00 0.  1.
         23    2    1    2    0    0 -0.27740429137E+02  0.22078248451E+03 -0.13127359121E+03  0.28097526046E+03  0.11045317725E+03 0.  0.
        -11    1    3    3    0    0 -0.49658746456E+02  0.17918186305E+03 -0.59600732593E+02  0.19525465032E+03  0.00000000000E+00 0. -1.
         11    1    3    3    0    0  0.21918317319E+02  0.41600621456E+02 -0.71672858616E+02  0.85720610135E+02  0.00000000000E+00 0.  1.
        -15    1    1    2    0    0 -0.10209695524E+03 -0.69958106771E+02  0.38047583108E+03  0.40010366249E+03  0.17770000000E+01 0. -1.
         15    1    1    2    0    0  0.12983738437E+03 -0.15082437774E+03 -0.24920223987E+03  0.31892107705E+03  0.17770000000E+01 0.  1.
</event>
<event>
 7    1  0.6760991E-009  0.1000000E+04  0.7546771E-02  0.8684367E-01
        -11   -1    0    0    0    0  0.00000000000E+00  0.00000000000E+00  0.50000000000E+03  0.50000000000E+03  0.00000000000E+00 0.  1.
         11   -1    0    0    0    0 -0.00000000000E+00 -0.00000000000E+00 -0.50000000000E+03  0.50000000000E+03  0.00000000000E+00 0. -1.
         23    2    1    2    0    0 -0.86644410305E+02  0.45203732856E+02  0.70933595860E+02  0.15925133113E+03  0.10382090418E+03 0.  0.
        -11    1    3    3    0    0 -0.10786913531E+03  0.39157894301E+02  0.74609475240E+02  0.13687828474E+03  0.00000000000E+00 0.  1.
         11    1    3    3    0    0  0.21224725006E+02  0.60458385546E+01 -0.36758793802E+01  0.22373046387E+02  0.00000000000E+00 0. -1.
        -15    1    1    2    0    0 -0.23781485656E+03  0.28615681417E+03 -0.34268732729E+01  0.37209747310E+03  0.17770000000E+01 0.  1.
         15    1    1    2    0    0  0.32445926687E+03 -0.33136054702E+03 -0.67506722587E+02  0.46865119577E+03  0.17770000000E+01 0. -1.
</event>
<event>
 6    1  0.6725282E-009  0.7498228E+03  0.7546771E-02  0.8967656E-01
        -11   -1    0    0    0    0  0.00000000000E+00  0.00000000000E+00  0.50000000000E+03  0.50000000000E+03  0.00000000000E+00 0.  1.
         11   -1    0    0    0    0 -0.00000000000E+00 -0.00000000000E+00 -0.50000000000E+03  0.50000000000E+03  0.00000000000E+00 0. -1.
        -11    1    1    2    0    0 -0.56149448320E+01  0.65351335375E+02 -0.14934569549E+02  0.67270840699E+02  0.00000000000E+00 0.  1.
         11    1    1    2    0    0  0.35199848191E+02  0.45477254277E+02  0.17031270425E+03  0.17975991544E+03  0.00000000000E+00 0. -1.
        -15    1    1    2    0    0  0.79007988903E+02 -0.24175635811E+03  0.22290424945E+03  0.33819796148E+03  0.17770000000E+01 0.  1.
         15    1    1    2    0    0 -0.10859289226E+03  0.13092776846E+03 -0.37828238415E+03  0.41477128238E+03  0.17770000000E+01 0. -1.
</event>
<event>
 6    1  0.6725282E-009  0.3602829E+03  0.7546771E-02  0.9781628E-01
        -11   -1    0    0    0    0  0.00000000000E+00  0.00000000000E+00  0.50000000000E+03  0.50000000000E+03  0.00000000000E+00 0.  1.
         11   -1    0    0    0    0 -0.00000000000E+00 -0.00000000000E+00 -0.50000000000E+03  0.50000000000E+03  0.00000000000E+00 0. -1.
        -11    1    1    2    0    0  0.13010174184E+03 -0.13533504589E+03  0.92249007367E+02  0.20916958966E+03  0.00000000000E+00 0.  1.
         11    1    1    2    0    0  0.22280477642E+02  0.35257301536E+02 -0.10992718914E+02  0.43131622560E+02  0.00000000000E+00 0. -1.
        -15    1    1    2    0    0  0.16723195752E+03  0.18755251924E+03 -0.26795618606E+03  0.36735017417E+03  0.17770000000E+01 0.  1.
         15    1    1    2    0    0 -0.31961417700E+03 -0.87474774880E+02  0.18669989760E+03  0.38034861361E+03  0.17770000000E+01 0. -1.
</event>
<event>
 7    1  0.6725282E-009  0.1000000E+04  0.7546771E-02  0.8684367E-01
        -11   -1    0    0    0    0  0.00000000000E+00  0.00000000000E+00  0.50000000000E+03  0.50000000000E+03  0.00000000000E+00 0.  1.
         11   -1    0    0    0    0 -0.00000000000E+00 -0.00000000000E+00 -0.50000000000E+03  0.50000000000E+03  0.00000000000E+00 0. -1.
         23    2    1    2    0    0 -0.34627860526E+02 -0.78408901337E+02  0.45323489738E+02  0.12209980201E+03  0.74209826809E+02 0.  0.
        -11    1    3    3    0    0 -0.52517121066E+02 -0.73883245711E+02  0.23740397594E+02  0.93703727139E+02  0.00000000000E+00 0.  1.
         11    1    3    3    0    0  0.17889260539E+02 -0.45256556259E+01  0.21583092145E+02  0.28396074870E+02  0.00000000000E+00 0. -1.
        -15    1    1    2    0    0 -0.47804337744E+02  0.41139254272E+03 -0.24477693368E+03  0.48109041136E+03  0.17770000000E+01 0. -1.
         15    1    1    2    0    0  0.82432198270E+02 -0.33298364138E+03  0.19945344394E+03  0.39680978663E+03  0.17770000000E+01 0.  1.
</event>
<event>
 7    1  0.6725282E-009  0.1000000E+04  0.7546771E-02  0.8684367E-01
        -11   -1    0    0    0    0  0.00000000000E+00  0.00000000000E+00  0.50000000000E+03  0.50000000000E+03  0.00000000000E+00 0.  1.
         11   -1    0    0    0    0 -0.00000000000E+00 -0.00000000000E+00 -0.50000000000E+03  0.50000000000E+03  0.00000000000E+00 0. -1.
         23    2    1    2    0    0 -0.13850766776E+03  0.77767126884E+02 -0.77362126086E+02  0.20711937429E+03  0.10808069486E+03 0.  0.
        -11    1    3    3    0    0  0.54156432992E+01  0.31664533904E+02  0.85991299876E+01  0.33255329441E+02  0.00000000000E+00 0.  1.
         11    1    3    3    0    0 -0.14392331105E+03  0.46102592981E+02 -0.85961256073E+02  0.17386404485E+03  0.00000000000E+00 0. -1.
        -15    1    1    2    0    0  0.24395050142E+03 -0.18909115036E+03  0.35823981938E+03  0.47287021074E+03  0.17770000000E+01 0.  1.
         15    1    1    2    0    0 -0.10544283366E+03  0.11132402348E+03 -0.28087769329E+03  0.32001041497E+03  0.17770000000E+01 0. -1.
</event>
