<event>
 7    1  0.6076911E-009  0.3650000E+03  0.7546771E-02  0.9765871E-01
        -11   -1    0    0    0    0  0.00000000000E+00  0.00000000000E+00  0.18250000000E+03  0.18250000000E+03  0.00000000000E+00 0. -1.
         11   -1    0    0    0    0 -0.00000000000E+00 -0.00000000000E+00 -0.18250000000E+03  0.18250000000E+03  0.00000000000E+00 0.  1.
         23    2    1    2    0    0  0.17935003298E+02 -0.12643465020E+02  0.75004852370E+01  0.62190862437E+02  0.57705498359E+02 0.  0.
        -11    1    3    3    0    0  0.17200573728E+02  0.21447166192E+02  0.12262757535E+01  0.27519891469E+02  0.00000000000E+00 0.  1.
         11    1    3    3    0    0  0.73442956993E+00 -0.34090631212E+02  0.62742094834E+01  0.34670970968E+02  0.00000000000E+00 0. -1.
        -15    1    1    2    0    0  0.13187413902E+03  0.56365865802E+02  0.18413147641E+02  0.14460325413E+03  0.17770000000E+01 0.  1.
         15    1    1    2    0    0 -0.14980914232E+03 -0.43722400783E+02 -0.25913632878E+02  0.15820588343E+03  0.17770000000E+01 0. -1.
</event>
<event>
 7    1  0.6076911E-009  0.1974725E+03  0.7546771E-02  0.1057124E+00
        -11   -1    0    0    0    0  0.00000000000E+00  0.00000000000E+00  0.18250000000E+03  0.18250000000E+03  0.00000000000E+00 0.  1.
         11   -1    0    0    0    0 -0.00000000000E+00 -0.00000000000E+00 -0.18250000000E+03  0.18250000000E+03  0.00000000000E+00 0. -1.
         23    2    1    2    0    0 -0.13034301529E+03 -0.16816820061E+02 -0.97000589430E+01  0.16752748402E+03  0.10343722583E+03 0.  0.
        -11    1    3    3    0    0 -0.74527832293E+01  0.21188442231E+02  0.25680925258E+02  0.34117502607E+02  0.00000000000E+00 0.  1.
         11    1    3    3    0    0 -0.12289023206E+03 -0.38005262292E+02 -0.35380984201E+02  0.13340998141E+03  0.00000000000E+00 0. -1.
        -15    1    1    2    0    0  0.95407167773E+02 -0.23612183231E+02  0.67109613402E+02  0.11902487471E+03  0.17770000000E+01 0.  1.
         15    1    1    2    0    0  0.34935847517E+02  0.40429003291E+02 -0.57409554459E+02  0.78447641271E+02  0.17770000000E+01 0. -1.
</event>
<event>
 7    1  0.6076911E-009  0.3650000E+03  0.7546771E-02  0.9765871E-01
        -11   -1    0    0    0    0  0.00000000000E+00  0.00000000000E+00  0.18250000000E+03  0.18250000000E+03  0.00000000000E+00 0.  1.
         11   -1    0    0    0    0 -0.00000000000E+00 -0.00000000000E+00 -0.18250000000E+03  0.18250000000E+03  0.00000000000E+00 0. -1.
         23    2    1    2    0    0 -0.73002272896E+02 -0.10508228861E+03  0.63616159540E+00  0.14410758210E+03  0.66294579629E+02 0.  0.
        -11    1    3    3    0    0 -0.45986766828E+02 -0.10389236972E+03 -0.12022816997E+02  0.11424953102E+03  0.00000000000E+00 0.  1.
         11    1    3    3    0    0 -0.27015506067E+02 -0.11899188896E+01  0.12658978593E+02  0.29858051076E+02  0.00000000000E+00 0. -1.
        -15    1    1    2    0    0 -0.36129981165E+02  0.14034164140E+02  0.55797898769E+02  0.67962464186E+02  0.17770000000E+01 0.  1.
         15    1    1    2    0    0  0.10913225406E+03  0.91048124471E+02 -0.56434060365E+02  0.15292995372E+03  0.17770000000E+01 0. -1.
</event>
<event>
 6    1  0.6076911E-009  0.1066685E+03  0.7546771E-02  0.1152756E+00
        -11   -1    0    0    0    0  0.00000000000E+00  0.00000000000E+00  0.18250000000E+03  0.18250000000E+03  0.00000000000E+00 0.  1.
         11   -1    0    0    0    0 -0.00000000000E+00 -0.00000000000E+00 -0.18250000000E+03  0.18250000000E+03  0.00000000000E+00 0. -1.
        -11    1    1    2    0    0  0.54842838952E+01 -0.26168919575E+01  0.16245196053E+01  0.62900363519E+01  0.00000000000E+00 0.  1.
         11    1    1    2    0    0 -0.10300705720E+02 -0.97394143029E+02 -0.62620051624E+02  0.11624540636E+03  0.00000000000E+00 0. -1.
        -15    1    1    2    0    0 -0.83729728050E+02  0.32482214572E+02  0.90229567644E+02  0.12731965374E+03  0.17770000000E+01 0.  1.
         15    1    1    2    0    0  0.88546149875E+02  0.67528820415E+02 -0.29234035626E+02  0.11514490354E+03  0.17770000000E+01 0. -1.
</event>
<event>
 7    1  0.6076911E-009  0.3650000E+03  0.7546771E-02  0.9765871E-01
        -11   -1    0    0    0    0  0.00000000000E+00  0.00000000000E+00  0.18250000000E+03  0.18250000000E+03  0.00000000000E+00 0. -1.
         11   -1    0    0    0    0 -0.00000000000E+00 -0.00000000000E+00 -0.18250000000E+03  0.18250000000E+03  0.00000000000E+00 0.  1.
         23    2    1    2    0    0  0.89385421478E+02  0.55707754345E+02  0.42503008213E+02  0.13490628704E+03  0.72801738369E+02 0.  0.
        -11    1    3    3    0    0  0.49351460249E+02  0.35574424390E+02 -0.14359761788E+02  0.62508471890E+02  0.00000000000E+00 0.  1.
         11    1    3    3    0    0  0.40033961228E+02  0.20133329955E+02  0.56862770001E+02  0.72397815153E+02  0.00000000000E+00 0. -1.
        -15    1    1    2    0    0 -0.15288741470E+03 -0.22923614536E+02 -0.31072139715E+02  0.15769809534E+03  0.17770000000E+01 0.  1.
         15    1    1    2    0    0  0.63501993226E+02 -0.32784139810E+02 -0.11430868498E+02  0.72395617618E+02  0.17770000000E+01 0. -1.
</event>
<event>
 7    1  0.6625265E-009  0.3650000E+03  0.7546771E-02  0.9765871E-01
        -11   -1    0    0    0    0  0.00000000000E+00  0.00000000000E+00  0.18250000000E+03  0.18250000000E+03  0.00000000000E+00 0. -1.
         11   -1    0    0    0    0 -0.00000000000E+00 -0.00000000000E+00 -0.18250000000E+03  0.18250000000E+03  0.00000000000E+00 0. -1.
         23    2    1    2    0    0 -0.10221042627E+03 -0.15744181007E+02 -0.37468427571E+02  0.15137138265E+03  0.10399308605E+03 0.  0.
        -11    1    3    3    0    0 -0.31507890668E+02 -0.26932878054E+02  0.31429517067E+02  0.52018666243E+02  0.00000000000E+00 0. -1.
         11    1    3    3    0    0 -0.70702535607E+02  0.11188697047E+02 -0.68897944638E+02  0.99352716411E+02  0.00000000000E+00 0. -1.
        -15    1    1    2    0    0  0.96849006982E+02  0.22639540660E+02  0.10550770882E+03  0.14500797669E+03  0.17770000000E+01 0.  1.
         15    1    1    2    0    0  0.53614192933E+01 -0.68953596528E+01 -0.68039281251E+02  0.68620640654E+02  0.17770000000E+01 0. -1.
</event>
<event>
 7    1  0.6076911E-009  0.2674425E+03  0.7546771E-02  0.1015733E+00
        -11   -1    0    0    0    0  0.00000000000E+00  0.00000000000E+00  0.18250000000E+03  0.18250000000E+03  0.00000000000E+00 0. -1.
         11   -1    0    0    0    0 -0.00000000000E+00 -0.00000000000E+00 -0.18250000000E+03  0.18250000000E+03  0.00000000000E+00 0.  1.
         23    2    1    2    0    0 -0.40301596285E+01  0.63402158774E+02  0.65832051638E+01  0.97557463829E+02  0.73743096183E+02 0.  0.
        -11    1    3    3    0    0 -0.80075627548E+01  0.74496128735E+02 -0.11671533319E+02  0.75828879379E+02  0.00000000000E+00 0.  1.
         11    1    3    3    0    0  0.39774031263E+01 -0.11093969961E+02  0.18254738483E+02  0.21728584450E+02  0.00000000000E+00 0. -1.
        -15    1    1    2    0    0  0.20490526783E+02  0.39172557361E+02 -0.11139396426E+03  0.11985876664E+03  0.17770000000E+01 0.  1.
         15    1    1    2    0    0 -0.16460367155E+02 -0.10257471614E+03  0.10481075910E+03  0.14758376953E+03  0.17770000000E+01 0. -1.
</event>
<event>
 7    1  0.6076911E-009  0.2227930E+03  0.7546771E-02  0.1040255E+00
        -11   -1    0    0    0    0  0.00000000000E+00  0.00000000000E+00  0.18250000000E+03  0.18250000000E+03  0.00000000000E+00 0.  1.
         11   -1    0    0    0    0 -0.00000000000E+00 -0.00000000000E+00 -0.18250000000E+03  0.18250000000E+03  0.00000000000E+00 0. -1.
         23    2    1    2    0    0  0.85096786227E+02  0.22458605630E+02 -0.79402620106E+02  0.14220697647E+03  0.78563325310E+02 0.  0.
        -11    1    3    3    0    0  0.88035718759E+02 -0.39153106061E+01 -0.74119333320E+02  0.11514900350E+03  0.00000000000E+00 0.  1.
         11    1    3    3    0    0 -0.29389325323E+01  0.26373916236E+02 -0.52832867858E+01  0.27057972972E+02  0.00000000000E+00 0. -1.
        -15    1    1    2    0    0  0.14399698355E+01  0.28195564206E+01  0.12270854741E+03  0.12276224479E+03  0.17770000000E+01 0.  1.
         15    1    1    2    0    0 -0.86536756062E+02 -0.25278162051E+02 -0.43305927299E+02  0.10003077874E+03  0.17770000000E+01 0. -1.
</event>
<event>
 7    1  0.6076911E-009  0.2245971E+03  0.7546771E-02  0.1039147E+00
        -11   -1    0    0    0    0  0.00000000000E+00  0.00000000000E+00  0.18250000000E+03  0.18250000000E+03  0.00000000000E+00 0.  1.
         11   -1    0    0    0    0 -0.00000000000E+00 -0.00000000000E+00 -0.18250000000E+03  0.18250000000E+03  0.00000000000E+00 0. -1.
         23    2    1    2    0    0 -0.73615459048E+02 -0.52683597147E+01 -0.90317846515E+02  0.14040289255E+03  0.78157964479E+02 0.  0.
        -11    1    3    3    0    0 -0.88735565863E+02  0.33337841298E+01 -0.82937770221E+02  0.12150633109E+03  0.00000000000E+00 0.  1.
         11    1    3    3    0    0  0.15120106815E+02 -0.86021438445E+01 -0.73800762939E+01  0.18896561457E+02  0.00000000000E+00 0. -1.
        -15    1    1    2    0    0  0.63980994384E+01  0.93351442944E+02  0.29154300034E+02  0.98023254974E+02  0.17770000000E+01 0. -1.
         15    1    1    2    0    0  0.67217359610E+02 -0.88083083230E+02  0.61163546482E+02  0.12657385248E+03  0.17770000000E+01 0.  1.
</event>
<event>
 7    1  0.6076911E-009  0.3650000E+03  0.7546771E-02  0.9765871E-01
        -11   -1    0    0    0    0  0.00000000000E+00  0.00000000000E+00  0.18250000000E+03  0.18250000000E+03  0.00000000000E+00 0.  1.
         11   -1    0    0    0    0 -0.00000000000E+00 -0.00000000000E+00 -0.18250000000E+03  0.18250000000E+03  0.00000000000E+00 0. -1.
         23    2    1    2    0    0 -0.41688056879E+02  0.18170192289E+02  0.84808905086E+02  0.12313872468E+03  0.76828023272E+02 0.  0.
        -11    1    3    3    0    0 -0.46294467771E+02  0.41440257201E+02  0.44704435788E+02  0.76543838695E+02  0.00000000000E+00 0.  1.
         11    1    3    3    0    0  0.46064108920E+01 -0.23270064912E+02  0.40104469298E+02  0.46594885985E+02  0.00000000000E+00 0. -1.
        -15    1    1    2    0    0  0.52524433195E+02  0.36706954327E+02  0.59263112605E+02  0.87301150182E+02  0.17770000000E+01 0.  1.
         15    1    1    2    0    0 -0.10836376316E+02 -0.54877146616E+02 -0.14407201769E+03  0.15456012514E+03  0.17770000000E+01 0. -1.
</event>
<event>
 7    1  0.6076911E-009  0.2415042E+03  0.7546771E-02  0.1029281E+00
        -11   -1    0    0    0    0  0.00000000000E+00  0.00000000000E+00  0.18250000000E+03  0.18250000000E+03  0.00000000000E+00 0. -1.
         11   -1    0    0    0    0 -0.00000000000E+00 -0.00000000000E+00 -0.18250000000E+03  0.18250000000E+03  0.00000000000E+00 0. -1.
         23    2    1    2    0    0 -0.17280125688E+02  0.10176459148E+03  0.16906087165E+02  0.12349579300E+03  0.65656380357E+02 0.  0.
        -11    1    3    3    0    0 -0.23170440587E+02  0.10234625620E+03 -0.68193925113E+00  0.10493850826E+03  0.00000000000E+00 0. -1.
         11    1    3    3    0    0  0.58903148988E+01 -0.58166472031E+00  0.17588026417E+02  0.18557284734E+02  0.00000000000E+00 0. -1.
        -15    1    1    2    0    0 -0.85954793100E+02 -0.89735658649E+01 -0.48525621232E+02  0.99129435518E+02  0.17770000000E+01 0.  1.
         15    1    1    2    0    0  0.10323491879E+03 -0.92791025616E+02  0.31619534067E+02  0.14237477149E+03  0.17770000000E+01 0. -1.
</event>
<event>
 7    1  0.6076911E-009  0.2634673E+03  0.7546771E-02  0.1017699E+00
        -11   -1    0    0    0    0  0.00000000000E+00  0.00000000000E+00  0.18250000000E+03  0.18250000000E+03  0.00000000000E+00 0. -1.
         11   -1    0    0    0    0 -0.00000000000E+00 -0.00000000000E+00 -0.18250000000E+03  0.18250000000E+03  0.00000000000E+00 0.  1.
         23    2    1    2    0    0  0.30938954845E+02  0.60451375373E+02  0.17638267471E+02  0.10153266177E+03  0.73390634379E+02 0.  0.
        -11    1    3    3    0    0  0.47579710735E+02  0.37392912483E+02  0.33296704820E+02  0.69070466406E+02  0.00000000000E+00 0. -1.
         11    1    3    3    0    0 -0.16640755890E+02  0.23058462891E+02 -0.15658437349E+02  0.32462195361E+02  0.00000000000E+00 0.  1.
        -15    1    1    2    0    0  0.41775375176E+02 -0.97448218139E+02  0.82454084572E+02  0.13432487104E+03  0.17770000000E+01 0. -1.
         15    1    1    2    0    0 -0.72714330021E+02  0.36996842765E+02 -0.10009235204E+03  0.12914246719E+03  0.17770000000E+01 0.  1.
</event>
<event>
 7    1  0.6076911E-009  0.3650000E+03  0.7546771E-02  0.9765871E-01
        -11   -1    0    0    0    0  0.00000000000E+00  0.00000000000E+00  0.18250000000E+03  0.18250000000E+03  0.00000000000E+00 0. -1.
         11   -1    0    0    0    0 -0.00000000000E+00 -0.00000000000E+00 -0.18250000000E+03  0.18250000000E+03  0.00000000000E+00 0.  1.
         23    2    1    2    0    0 -0.13327879974E+01 -0.10265299407E+02  0.99419697283E+02  0.12670001180E+03  0.77855404995E+02 0.  0.
        -11    1    3    3    0    0 -0.28566942925E+02  0.44108618333E+01  0.89745804985E+02  0.94285923884E+02  0.00000000000E+00 0. -1.
         11    1    3    3    0    0  0.27234154928E+02 -0.14676161240E+02  0.96738922984E+01  0.32414087918E+02  0.00000000000E+00 0.  1.
        -15    1    1    2    0    0 -0.10808263600E+02  0.57005964512E+02  0.52876256413E+02  0.78521046690E+02  0.17770000000E+01 0. -1.
         15    1    1    2    0    0  0.12141051597E+02 -0.46740665106E+02 -0.15229595370E+03  0.15977894151E+03  0.17770000000E+01 0.  1.
</event>
<event>
 7    1  0.6076911E-009  0.2184220E+03  0.7546771E-02  0.1042988E+00
        -11   -1    0    0    0    0  0.00000000000E+00  0.00000000000E+00  0.18250000000E+03  0.18250000000E+03  0.00000000000E+00 0.  1.
         11   -1    0    0    0    0 -0.00000000000E+00 -0.00000000000E+00 -0.18250000000E+03  0.18250000000E+03  0.00000000000E+00 0.  1.
         23    2    1    2    0    0  0.37362303924E+02  0.91346530073E+02 -0.77653145495E+02  0.14657801700E+03  0.75597445403E+02 0.  0.
        -11    1    3    3    0    0  0.36907953962E+02  0.88972125239E+02 -0.91300732612E+02  0.13271797132E+03  0.00000000000E+00 0.  1.
         11    1    3    3    0    0  0.45434996257E+00  0.23744048344E+01  0.13647587117E+02  0.13860045683E+02  0.00000000000E+00 0.  1.
        -15    1    1    2    0    0  0.51805433155E+02 -0.34288842887E+02  0.92572508086E+02  0.11150046921E+03  0.17770000000E+01 0.  1.
         15    1    1    2    0    0 -0.89167737079E+02 -0.57057687186E+02 -0.14919362591E+02  0.10692151379E+03  0.17770000000E+01 0. -1.
</event>
<event>
 7    1  0.6076911E-009  0.2433860E+03  0.7546771E-02  0.1028238E+00
        -11   -1    0    0    0    0  0.00000000000E+00  0.00000000000E+00  0.18250000000E+03  0.18250000000E+03  0.00000000000E+00 0. -1.
         11   -1    0    0    0    0 -0.00000000000E+00 -0.00000000000E+00 -0.18250000000E+03  0.18250000000E+03  0.00000000000E+00 0.  1.
         23    2    1    2    0    0 -0.24366320335E+02 -0.30163399709E+02 -0.49784315368E+02  0.12161395009E+03  0.10396117810E+03 0.  0.
        -11    1    3    3    0    0 -0.60885641721E+02 -0.23494699255E+02 -0.53387090359E+02  0.84316331027E+02  0.00000000000E+00 0. -1.
         11    1    3    3    0    0  0.36519321385E+02 -0.66687004543E+01  0.36027749912E+01  0.37297619064E+02  0.00000000000E+00 0.  1.
        -15    1    1    2    0    0  0.46925430692E+02 -0.97689260796E+02  0.21518602721E+02  0.11050518410E+03  0.17770000000E+01 0. -1.
         15    1    1    2    0    0 -0.22559110357E+02  0.12785266051E+03  0.28265712647E+02  0.13288086581E+03  0.17770000000E+01 0.  1.
</event>
<event>
 6    1  0.6076911E-009  0.3650000E+03  0.7546771E-02  0.9765871E-01
        -11   -1    0    0    0    0  0.00000000000E+00  0.00000000000E+00  0.18250000000E+03  0.18250000000E+03  0.00000000000E+00 0. -1.
         11   -1    0    0    0    0 -0.00000000000E+00 -0.00000000000E+00 -0.18250000000E+03  0.18250000000E+03  0.00000000000E+00 0. -1.
        -11    1    1    2    0    0  0.34429313695E+02 -0.38374509003E+02 -0.67070559489E+02  0.84595747723E+02  0.00000000000E+00 0. -1.
         11    1    1    2    0    0 -0.71264334262E+01 -0.21868340514E+02 -0.59097089808E+02  0.63415111716E+02  0.00000000000E+00 0. -1.
        -15    1    1    2    0    0 -0.94051191830E+01  0.11652265088E+03  0.91697418672E+02  0.14858519023E+03  0.17770000000E+01 0. -1.
         15    1    1    2    0    0 -0.17897761086E+02 -0.56279801361E+02  0.34470230625E+02  0.68403950335E+02  0.17770000000E+01 0.  1.
</event>
<event>
 7    1  0.6076911E-009  0.3650000E+03  0.7546771E-02  0.9765871E-01
        -11   -1    0    0    0    0  0.00000000000E+00  0.00000000000E+00  0.18250000000E+03  0.18250000000E+03  0.00000000000E+00 0.  1.
         11   -1    0    0    0    0 -0.00000000000E+00 -0.00000000000E+00 -0.18250000000E+03  0.18250000000E+03  0.00000000000E+00 0.  1.
         23    2    1    2    0    0 -0.10176381563E+02  0.87013609345E+02  0.49333498920E+02  0.12725551995E+03  0.78007988617E+02 0.  0.
        -11    1    3    3    0    0  0.24251238795E+02  0.86846002393E+00  0.13778352561E+02  0.27905551513E+02  0.00000000000E+00 0.  1.
         11    1    3    3    0    0 -0.34427620358E+02  0.86145149321E+02  0.35555146359E+02  0.99349968433E+02  0.00000000000E+00 0.  1.
        -15    1    1    2    0    0  0.41840394318E+02 -0.10746802244E+03 -0.11444751023E+03  0.16248502937E+03  0.17770000000E+01 0.  1.
         15    1    1    2    0    0 -0.31664012756E+02  0.20454413098E+02  0.65114011308E+02  0.75259450680E+02  0.17770000000E+01 0. -1.
</event>
<event>
 7    1  0.6076911E-009  0.2598452E+03  0.7546771E-02  0.1019523E+00
        -11   -1    0    0    0    0  0.00000000000E+00  0.00000000000E+00  0.18250000000E+03  0.18250000000E+03  0.00000000000E+00 0. -1.
         11   -1    0    0    0    0 -0.00000000000E+00 -0.00000000000E+00 -0.18250000000E+03  0.18250000000E+03  0.00000000000E+00 0. -1.
         23    2    1    2    0    0  0.60348260798E+02  0.19120934367E+02 -0.34386468502E+02  0.10515476813E+03  0.76600087023E+02 0.  0.
        -11    1    3    3    0    0 -0.16337812795E+02 -0.17970449084E+01  0.39511976716E+01  0.16904598794E+02  0.00000000000E+00 0. -1.
         11    1    3    3    0    0  0.76686073593E+02  0.20917979276E+02 -0.38337666174E+02  0.88250169336E+02  0.00000000000E+00 0. -1.
        -15    1    1    2    0    0 -0.13803761433E+03  0.39031936122E+02 -0.25625094680E+02  0.14573152786E+03  0.17770000000E+01 0.  1.
         15    1    1    2    0    0  0.77689353529E+02 -0.58152870489E+02  0.60011563183E+02  0.11411370401E+03  0.17770000000E+01 0. -1.
</event>
<event>
 7    1  0.6076911E-009  0.2188219E+03  0.7546771E-02  0.1042735E+00
        -11   -1    0    0    0    0  0.00000000000E+00  0.00000000000E+00  0.18250000000E+03  0.18250000000E+03  0.00000000000E+00 0.  1.
         11   -1    0    0    0    0 -0.00000000000E+00 -0.00000000000E+00 -0.18250000000E+03  0.18250000000E+03  0.00000000000E+00 0. -1.
         23    2    1    2    0    0  0.81126558766E+02 -0.38689667463E+02  0.50817397606E+02  0.14617814709E+03  0.10347576471E+03 0.  0.
        -11    1    3    3    0    0 -0.46627984911E+01  0.18976252964E+02 -0.14116293982E+02  0.24106215425E+02  0.00000000000E+00 0.  1.
         11    1    3    3    0    0  0.85789357257E+02 -0.57665920428E+02  0.64933691588E+02  0.12207193167E+03  0.00000000000E+00 0. -1.
        -15    1    1    2    0    0  0.16415231505E+02  0.97489194337E+02 -0.26078965033E+02  0.10225885284E+03  0.17770000000E+01 0.  1.
         15    1    1    2    0    0 -0.97541790272E+02 -0.58799526874E+02 -0.24738432574E+02  0.11656300007E+03  0.17770000000E+01 0. -1.
</event>
<event>
 6    1  0.6076911E-009  0.1051667E+03  0.7546771E-02  0.1155167E+00
        -11   -1    0    0    0    0  0.00000000000E+00  0.00000000000E+00  0.18250000000E+03  0.18250000000E+03  0.00000000000E+00 0. -1.
         11   -1    0    0    0    0 -0.00000000000E+00 -0.00000000000E+00 -0.18250000000E+03  0.18250000000E+03  0.00000000000E+00 0. -1.
        -11    1    1    2    0    0  0.16276347566E+02 -0.50940416304E+02 -0.15353532710E+02  0.55637904975E+02  0.00000000000E+00 0. -1.
         11    1    1    2    0    0 -0.43777154672E+02  0.10868508236E+03 -0.26238046674E+02  0.12007215119E+03  0.00000000000E+00 0. -1.
        -15    1    1    2    0    0 -0.45364179250E+01 -0.50314449442E+02  0.10572820180E+03  0.11719101201E+03  0.17770000000E+01 0. -1.
         15    1    1    2    0    0  0.32037225030E+02 -0.74302166153E+01 -0.64136622415E+02  0.72098931826E+02  0.17770000000E+01 0.  1.
</event>
<event>
 7    1  0.6076911E-009  0.2822327E+03  0.7546771E-02  0.1008730E+00
        -11   -1    0    0    0    0  0.00000000000E+00  0.00000000000E+00  0.18250000000E+03  0.18250000000E+03  0.00000000000E+00 0.  1.
         11   -1    0    0    0    0 -0.00000000000E+00 -0.00000000000E+00 -0.18250000000E+03  0.18250000000E+03  0.00000000000E+00 0. -1.
         23    2    1    2    0    0  0.31899380881E+02  0.14228044498E+02  0.10798631184E+00  0.82767311858E+02  0.75036048006E+02 0.  0.
        -11    1    3    3    0    0 -0.23201970046E+02  0.11524906587E+02  0.78248812203E+01  0.27062587681E+02  0.00000000000E+00 0.  1.
         11    1    3    3    0    0  0.55101350928E+02  0.27031379109E+01 -0.77168949085E+01  0.55704724177E+02  0.00000000000E+00 0. -1.
        -15    1    1    2    0    0 -0.17221383701E+02 -0.13690954346E+03 -0.52989362315E+02  0.14782364288E+03  0.17770000000E+01 0. -1.
         15    1    1    2    0    0 -0.14677997181E+02  0.12268149897E+03  0.52881376003E+02  0.13440904526E+03  0.17770000000E+01 0.  1.
</event>
<event>
 6    1  0.6076911E-009  0.2134014E+03  0.7546771E-02  0.1046214E+00
        -11   -1    0    0    0    0  0.00000000000E+00  0.00000000000E+00  0.18250000000E+03  0.18250000000E+03  0.00000000000E+00 0.  1.
         11   -1    0    0    0    0 -0.00000000000E+00 -0.00000000000E+00 -0.18250000000E+03  0.18250000000E+03  0.00000000000E+00 0. -1.
        -11    1    1    2    0    0  0.91609279723E+01 -0.38141287978E+02 -0.44014644917E+02  0.58957352528E+02  0.00000000000E+00 0.  1.
         11    1    1    2    0    0 -0.35235347560E+02  0.90699256469E+02  0.30846499172E+02  0.10207541992E+03  0.00000000000E+00 0. -1.
        -15    1    1    2    0    0 -0.67703780032E+02 -0.44534876663E+02 -0.45588278278E+02  0.92997881242E+02  0.17770000000E+01 0. -1.
         15    1    1    2    0    0  0.93778199620E+02 -0.80230918270E+01  0.58756424023E+02  0.11096934631E+03  0.17770000000E+01 0.  1.
</event>
<event>
 7    1  0.6076911E-009  0.1854425E+03  0.7546771E-02  0.1066136E+00
        -11   -1    0    0    0    0  0.00000000000E+00  0.00000000000E+00  0.18250000000E+03  0.18250000000E+03  0.00000000000E+00 0.  1.
         11   -1    0    0    0    0 -0.00000000000E+00 -0.00000000000E+00 -0.18250000000E+03  0.18250000000E+03  0.00000000000E+00 0.  1.
         23    2    1    2    0    0 -0.52944942262E+02  0.76752535943E+02  0.11350178831E+03  0.18544254097E+03  0.11319081839E+03 0.  0.
        -11    1    3    3    0    0 -0.78851717879E+02  0.17446497689E+02  0.51270861082E+02  0.95659159991E+02  0.00000000000E+00 0.  1.
         11    1    3    3    0    0  0.25906775617E+02  0.59306038255E+02  0.62230927230E+02  0.89783380980E+02  0.00000000000E+00 0.  1.
        -15    1    1    2    0    0  0.23735173355E+02 -0.21132619990E+01  0.14916176507E+02  0.28168677304E+02  0.17770000000E+01 0. -1.
         15    1    1    2    0    0  0.29209768907E+02 -0.74639273945E+02 -0.12841796482E+03  0.15138878172E+03  0.17770000000E+01 0.  1.
</event>
<event>
 7    1  0.1001684E-008  0.3650000E+03  0.7546771E-02  0.9765871E-01
        -11   -1    0    0    0    0  0.00000000000E+00  0.00000000000E+00  0.18250000000E+03  0.18250000000E+03  0.00000000000E+00 0.  1.
         11   -1    0    0    0    0 -0.00000000000E+00 -0.00000000000E+00 -0.18250000000E+03  0.18250000000E+03  0.00000000000E+00 0. -1.
         23    2    1    2    0    0 -0.32984389587E+02 -0.82106424679E+02  0.11458360630E+02  0.11765066301E+03  0.76687349342E+02 0.  0.
        -11    1    3    3    0    0 -0.53665983132E+01 -0.28351247462E+02 -0.32093887777E+02  0.43157980059E+02  0.00000000000E+00 0. -1.
         11    1    3    3    0    0 -0.27617791273E+02 -0.53755177217E+02  0.43552248407E+02  0.74492682954E+02  0.00000000000E+00 0.  1.
        -15    1    1    2    0    0 -0.48114916689E+02 -0.63927251043E+02 -0.32413945902E+01  0.80096210908E+02  0.17770000000E+01 0.  1.
         15    1    1    2    0    0  0.81099306276E+02  0.14603367572E+03 -0.82169660398E+01  0.16725312608E+03  0.17770000000E+01 0. -1.
</event>
<event>
 6    1  0.6076911E-009  0.3650000E+03  0.7546771E-02  0.9765871E-01
        -11   -1    0    0    0    0  0.00000000000E+00  0.00000000000E+00  0.18250000000E+03  0.18250000000E+03  0.00000000000E+00 0.  1.
         11   -1    0    0    0    0 -0.00000000000E+00 -0.00000000000E+00 -0.18250000000E+03  0.18250000000E+03  0.00000000000E+00 0.  1.
        -11    1    1    2    0    0  0.72273627052E+02  0.43281667116E+01 -0.44119946968E+02  0.84786672979E+02  0.00000000000E+00 0.  1.
         11    1    1    2    0    0  0.42045652845E+02  0.48104353886E+02 -0.33188308966E+02  0.71995344558E+02  0.00000000000E+00 0.  1.
        -15    1    1    2    0    0 -0.11281964390E+03 -0.77579486242E+02  0.10364229747E+03  0.17173157045E+03  0.17770000000E+01 0.  1.
         15    1    1    2    0    0 -0.14996360014E+01  0.25146965644E+02 -0.26334041535E+02  0.36486412016E+02  0.17770000000E+01 0. -1.
</event>
<event>
 7    1  0.6076911E-009  0.2427484E+03  0.7546771E-02  0.1028590E+00
        -11   -1    0    0    0    0  0.00000000000E+00  0.00000000000E+00  0.18250000000E+03  0.18250000000E+03  0.00000000000E+00 0.  1.
         11   -1    0    0    0    0 -0.00000000000E+00 -0.00000000000E+00 -0.18250000000E+03  0.18250000000E+03  0.00000000000E+00 0. -1.
         23    2    1    2    0    0  0.38739123807E+02  0.28271644497E+02  0.14357570520E+01  0.12225156414E+03  0.11244277629E+03 0.  0.
        -11    1    3    3    0    0  0.54560704097E+02 -0.68447600660E+01  0.39806506268E+02  0.67884306826E+02  0.00000000000E+00 0.  1.
         11    1    3    3    0    0 -0.15821580290E+02  0.35116404563E+02 -0.38370749216E+02  0.54367257313E+02  0.00000000000E+00 0. -1.
        -15    1    1    2    0    0 -0.94282443893E+02 -0.20532492050E+02  0.92275620974E+02  0.13352419410E+03  0.17770000000E+01 0.  1.
         15    1    1    2    0    0  0.55543320085E+02 -0.77391524472E+01 -0.93711378026E+02  0.10922424176E+03  0.17770000000E+01 0. -1.
</event>
<event>
 7    1  0.6076911E-009  0.3650000E+03  0.7546771E-02  0.9765871E-01
        -11   -1    0    0    0    0  0.00000000000E+00  0.00000000000E+00  0.18250000000E+03  0.18250000000E+03  0.00000000000E+00 0.  1.
         11   -1    0    0    0    0 -0.00000000000E+00 -0.00000000000E+00 -0.18250000000E+03  0.18250000000E+03  0.00000000000E+00 0. -1.
         23    2    1    2    0    0 -0.95987325713E+02 -0.11135750025E+03  0.39156642652E+00  0.16059819570E+03  0.64634105386E+02 0.  0.
        -11    1    3    3    0    0 -0.42922197962E+02 -0.49723117051E+02  0.32341736774E+02  0.73216742517E+02  0.00000000000E+00 0.  1.
         11    1    3    3    0    0 -0.53065127751E+02 -0.61634383199E+02 -0.31950170348E+02  0.87381453186E+02  0.00000000000E+00 0. -1.
        -15    1    1    2    0    0  0.73658669037E+02  0.12078388689E+03  0.48695248707E+02  0.14962864643E+03  0.17770000000E+01 0.  1.
         15    1    1    2    0    0  0.22328656677E+02 -0.94263866389E+01 -0.49086815133E+02  0.54773157869E+02  0.17770000000E+01 0. -1.
</event>
<event>
 6    1  0.6076911E-009  0.3060669E+03  0.7546771E-02  0.9983668E-01
        -11   -1    0    0    0    0  0.00000000000E+00  0.00000000000E+00  0.18250000000E+03  0.18250000000E+03  0.00000000000E+00 0. -1.
         11   -1    0    0    0    0 -0.00000000000E+00 -0.00000000000E+00 -0.18250000000E+03  0.18250000000E+03  0.00000000000E+00 0.  1.
        -11    1    1    2    0    0 -0.68521142842E+01  0.69661408177E+01 -0.24248645149E+02  0.26143362057E+02  0.00000000000E+00 0.  1.
         11    1    1    2    0    0 -0.33780753547E+01  0.14558010114E+02  0.29936702257E+02  0.33459724948E+02  0.00000000000E+00 0. -1.
        -15    1    1    2    0    0 -0.10828285986E+03 -0.32737016155E+00  0.98333061351E+02  0.14627998357E+03  0.17770000000E+01 0. -1.
         15    1    1    2    0    0  0.11851304949E+03 -0.21196780770E+02 -0.10402111846E+03  0.15911692943E+03  0.17770000000E+01 0.  1.
</event>
<event>
 7    1  0.6076911E-009  0.3650000E+03  0.7546771E-02  0.9765871E-01
        -11   -1    0    0    0    0  0.00000000000E+00  0.00000000000E+00  0.18250000000E+03  0.18250000000E+03  0.00000000000E+00 0.  1.
         11   -1    0    0    0    0 -0.00000000000E+00 -0.00000000000E+00 -0.18250000000E+03  0.18250000000E+03  0.00000000000E+00 0.  1.
         23    2    1    2    0    0 -0.69456701913E+02  0.21063118628E+02 -0.90435456508E+02  0.13796423656E+03  0.74750721535E+02 0.  0.
        -11    1    3    3    0    0  0.71347104176E+01  0.25435685964E+02 -0.32191057276E+02  0.41643035213E+02  0.00000000000E+00 0.  1.
         11    1    3    3    0    0 -0.76591412331E+02 -0.43725673365E+01 -0.58244399232E+02  0.96321201352E+02  0.00000000000E+00 0.  1.
        -15    1    1    2    0    0  0.96747316286E+02 -0.33609283510E+02  0.13732579698E+03  0.17132180069E+03  0.17770000000E+01 0.  1.
         15    1    1    2    0    0 -0.27290614373E+02  0.12546164882E+02 -0.46890340473E+02  0.55713962745E+02  0.17770000000E+01 0. -1.
</event>
<event>
 7    1  0.6076911E-009  0.3650000E+03  0.7546771E-02  0.9765871E-01
        -11   -1    0    0    0    0  0.00000000000E+00  0.00000000000E+00  0.18250000000E+03  0.18250000000E+03  0.00000000000E+00 0.  1.
         11   -1    0    0    0    0 -0.00000000000E+00 -0.00000000000E+00 -0.18250000000E+03  0.18250000000E+03  0.00000000000E+00 0. -1.
         23    2    1    2    0    0  0.12702765135E+01 -0.18395818606E+02 -0.52123185478E+02  0.96391702876E+02  0.78958939800E+02 0.  0.
        -11    1    3    3    0    0 -0.31568583845E+02 -0.32272818763E+02 -0.25075387696E+02  0.51641895637E+02  0.00000000000E+00 0.  1.
         11    1    3    3    0    0  0.32838860359E+02  0.13877000157E+02 -0.27047797782E+02  0.44749807239E+02  0.00000000000E+00 0. -1.
        -15    1    1    2    0    0 -0.70124914040E+02  0.34646923021E+02  0.13720354167E+03  0.15794265548E+03  0.17770000000E+01 0.  1.
         15    1    1    2    0    0  0.68854637527E+02 -0.16251104415E+02 -0.85080356187E+02  0.11066564165E+03  0.17770000000E+01 0. -1.
</event>
<event>
 7    1  0.6076911E-009  0.2851294E+03  0.7546771E-02  0.1007413E+00
        -11   -1    0    0    0    0  0.00000000000E+00  0.00000000000E+00  0.18250000000E+03  0.18250000000E+03  0.00000000000E+00 0. -1.
         11   -1    0    0    0    0 -0.00000000000E+00 -0.00000000000E+00 -0.18250000000E+03  0.18250000000E+03  0.00000000000E+00 0.  1.
         23    2    1    2    0    0 -0.43110423977E+02 -0.10238262496E+02  0.21864382834E+02  0.79870632739E+02  0.62752976526E+02 0.  0.
        -11    1    3    3    0    0 -0.47514787281E+02  0.16026691853E+02  0.15550376914E+02  0.52500705560E+02  0.00000000000E+00 0. -1.
         11    1    3    3    0    0  0.44043633034E+01 -0.26264954349E+02  0.63140059196E+01  0.27369927179E+02  0.00000000000E+00 0.  1.
        -15    1    1    2    0    0  0.28994689422E+01 -0.34590333941E+02  0.12322271984E+03  0.12803083432E+03  0.17770000000E+01 0. -1.
         15    1    1    2    0    0  0.40210955035E+02  0.44828596437E+02 -0.14508710267E+03  0.15709853295E+03  0.17770000000E+01 0.  1.
</event>
<event>
 7    1  0.6076911E-009  0.2615319E+03  0.7546771E-02  0.1018670E+00
        -11   -1    0    0    0    0  0.00000000000E+00  0.00000000000E+00  0.18250000000E+03  0.18250000000E+03  0.00000000000E+00 0. -1.
         11   -1    0    0    0    0 -0.00000000000E+00 -0.00000000000E+00 -0.18250000000E+03  0.18250000000E+03  0.00000000000E+00 0.  1.
         23    2    1    2    0    0  0.69415228823E+02  0.21932702335E+02 -0.15259377138E+02  0.10346805437E+03  0.71925463223E+02 0.  0.
        -11    1    3    3    0    0 -0.59370983483E+01 -0.11183372003E+02 -0.16932259176E+02  0.21142808398E+02  0.00000000000E+00 0.  1.
         11    1    3    3    0    0  0.75352327172E+02  0.33116074337E+02  0.16728820386E+01  0.82325245970E+02  0.00000000000E+00 0. -1.
        -15    1    1    2    0    0 -0.26407681280E+02  0.78126237255E+02  0.95537440266E+02  0.12622057994E+03  0.17770000000E+01 0. -1.
         15    1    1    2    0    0 -0.43007547543E+02 -0.10005893959E+03 -0.80278063128E+02  0.13531136569E+03  0.17770000000E+01 0.  1.
</event>
<event>
 7    1  0.6076911E-009  0.1899230E+03  0.7546771E-02  0.1062695E+00
        -11   -1    0    0    0    0  0.00000000000E+00  0.00000000000E+00  0.18250000000E+03  0.18250000000E+03  0.00000000000E+00 0.  1.
         11   -1    0    0    0    0 -0.00000000000E+00 -0.00000000000E+00 -0.18250000000E+03  0.18250000000E+03  0.00000000000E+00 0. -1.
         23    2    1    2    0    0 -0.39202726183E+02  0.13230892901E+03  0.74221749249E+02  0.18992299876E+03  0.10732833252E+03 0.  0.
        -11    1    3    3    0    0 -0.28340715118E+02  0.69330964159E+02  0.96577540361E+02  0.12221783841E+03  0.00000000000E+00 0.  1.
         11    1    3    3    0    0 -0.10862011064E+02  0.62977964849E+02 -0.22355791112E+02  0.67705160343E+02  0.00000000000E+00 0. -1.
        -15    1    1    2    0    0  0.59675437071E+02 -0.11982572988E+03 -0.57014911263E+02  0.14551020984E+03  0.17770000000E+01 0. -1.
         15    1    1    2    0    0 -0.20472710888E+02 -0.12483199125E+02 -0.17206837986E+02  0.29566791405E+02  0.17770000000E+01 0.  1.
</event>
<event>
 7    1  0.6076911E-009  0.2324081E+03  0.7546771E-02  0.1034476E+00
        -11   -1    0    0    0    0  0.00000000000E+00  0.00000000000E+00  0.18250000000E+03  0.18250000000E+03  0.00000000000E+00 0. -1.
         11   -1    0    0    0    0 -0.00000000000E+00 -0.00000000000E+00 -0.18250000000E+03  0.18250000000E+03  0.00000000000E+00 0.  1.
         23    2    1    2    0    0  0.72982349481E+02 -0.71099096184E+01  0.20754683177E+01  0.13259186929E+03  0.11045054134E+03 0.  0.
        -11    1    3    3    0    0 -0.14568993602E+02 -0.30994868632E+02  0.20604727938E+02  0.39968641077E+02  0.00000000000E+00 0. -1.
         11    1    3    3    0    0  0.87551343084E+02  0.23884959014E+02 -0.18529259621E+02  0.92623228215E+02  0.00000000000E+00 0.  1.
        -15    1    1    2    0    0  0.53805942135E+01 -0.45250814247E+02  0.89838382978E+02  0.10075058198E+03  0.17770000000E+01 0. -1.
         15    1    1    2    0    0 -0.78362943695E+02  0.52360723865E+02 -0.91913851296E+02  0.13165754873E+03  0.17770000000E+01 0.  1.
</event>
<event>
 7    1  0.6076911E-009  0.2286804E+03  0.7546771E-02  0.1036680E+00
        -11   -1    0    0    0    0  0.00000000000E+00  0.00000000000E+00  0.18250000000E+03  0.18250000000E+03  0.00000000000E+00 0. -1.
         11   -1    0    0    0    0 -0.00000000000E+00 -0.00000000000E+00 -0.18250000000E+03  0.18250000000E+03  0.00000000000E+00 0.  1.
         23    2    1    2    0    0  0.10857567773E+03  0.88047413143E+00 -0.35032421362E+02  0.13631961267E+03  0.74607728988E+02 0.  0.
        -11    1    3    3    0    0 -0.10647911013E+02  0.60608670420E+01 -0.13809479770E+01  0.12329604030E+02  0.00000000000E+00 0.  1.
         11    1    3    3    0    0  0.11922358874E+03 -0.51803929105E+01 -0.33651473385E+02  0.12399000864E+03  0.00000000000E+00 0. -1.
        -15    1    1    2    0    0 -0.88330429328E+02 -0.94578603745E+02  0.11340870111E+02  0.12991978331E+03  0.17770000000E+01 0. -1.
         15    1    1    2    0    0 -0.20245248398E+02  0.93698129613E+02  0.23691551251E+02  0.98760604015E+02  0.17770000000E+01 0.  1.
</event>
<event>
 7    1  0.6076911E-009  0.3650000E+03  0.7546771E-02  0.9765871E-01
        -11   -1    0    0    0    0  0.00000000000E+00  0.00000000000E+00  0.18250000000E+03  0.18250000000E+03  0.00000000000E+00 0.  1.
         11   -1    0    0    0    0 -0.00000000000E+00 -0.00000000000E+00 -0.18250000000E+03  0.18250000000E+03  0.00000000000E+00 0. -1.
         23    2    1    2    0    0 -0.42156509131E+02 -0.89210790670E+02 -0.55035797272E+02  0.13117158940E+03  0.66643157564E+02 0.  0.
        -11    1    3    3    0    0  0.10302892457E+01  0.36977656535E+01 -0.23732375393E+02  0.24040811313E+02  0.00000000000E+00 0.  1.
         11    1    3    3    0    0 -0.43186798377E+02 -0.92908556324E+02 -0.31303421878E+02  0.10713077809E+03  0.00000000000E+00 0. -1.
        -15    1    1    2    0    0  0.72767872585E+02 -0.52227833685E+01 -0.50641310616E+02  0.88826464618E+02  0.17770000000E+01 0. -1.
         15    1    1    2    0    0 -0.30611363454E+02  0.94433574039E+02  0.10567710789E+03  0.14500194598E+03  0.17770000000E+01 0.  1.
</event>
<event>
 7    1  0.6076911E-009  0.2686797E+03  0.7546771E-02  0.1015129E+00
        -11   -1    0    0    0    0  0.00000000000E+00  0.00000000000E+00  0.18250000000E+03  0.18250000000E+03  0.00000000000E+00 0.  1.
         11   -1    0    0    0    0 -0.00000000000E+00 -0.00000000000E+00 -0.18250000000E+03  0.18250000000E+03  0.00000000000E+00 0. -1.
         23    2    1    2    0    0  0.45288271140E+02  0.23076015426E+02  0.27217352761E+02  0.96320313100E+02  0.77157555907E+02 0.  0.
        -11    1    3    3    0    0  0.87260463983E+01 -0.27576872825E+02  0.15306537275E+02  0.32724881725E+02  0.00000000000E+00 0.  1.
         11    1    3    3    0    0  0.36562224742E+02  0.50652888251E+02  0.11910815486E+02  0.63595431375E+02  0.00000000000E+00 0. -1.
        -15    1    1    2    0    0 -0.65494265514E+02 -0.86135184283E+02  0.85512277181E+02  0.13792851795E+03  0.17770000000E+01 0.  1.
         15    1    1    2    0    0  0.20205994374E+02  0.63059168857E+02 -0.11272962994E+03  0.13075116895E+03  0.17770000000E+01 0. -1.
</event>
<event>
 7    1  0.6076911E-009  0.2484726E+03  0.7546771E-02  0.1025467E+00
        -11   -1    0    0    0    0  0.00000000000E+00  0.00000000000E+00  0.18250000000E+03  0.18250000000E+03  0.00000000000E+00 0. -1.
         11   -1    0    0    0    0 -0.00000000000E+00 -0.00000000000E+00 -0.18250000000E+03  0.18250000000E+03  0.00000000000E+00 0.  1.
         23    2    1    2    0    0 -0.12371920258E+02  0.53593975272E+01 -0.91959929403E+02  0.11652742292E+03  0.70286727937E+02 0.  0.
        -11    1    3    3    0    0  0.31610795487E+01  0.61160626237E+00 -0.98836778517E+02  0.98889207064E+02  0.00000000000E+00 0.  1.
         11    1    3    3    0    0 -0.15532999807E+02  0.47477912648E+01  0.68768491139E+01  0.17638215857E+02  0.00000000000E+00 0. -1.
        -15    1    1    2    0    0  0.37729576161E+02  0.10774463338E+03  0.55505034452E+02  0.12695035848E+03  0.17770000000E+01 0. -1.
         15    1    1    2    0    0 -0.25357655903E+02 -0.11310403090E+03  0.36454894951E+02  0.12152221860E+03  0.17770000000E+01 0.  1.
</event>
<event>
 7    1  0.6076911E-009  0.3650000E+03  0.7546771E-02  0.9765871E-01
        -11   -1    0    0    0    0  0.00000000000E+00  0.00000000000E+00  0.18250000000E+03  0.18250000000E+03  0.00000000000E+00 0. -1.
         11   -1    0    0    0    0 -0.00000000000E+00 -0.00000000000E+00 -0.18250000000E+03  0.18250000000E+03  0.00000000000E+00 0.  1.
         23    2    1    2    0    0 -0.79805831335E+02  0.26911564108E+02 -0.51224025826E+02  0.11394574174E+03  0.57153549676E+02 0.  0.
        -11    1    3    3    0    0 -0.27522145633E+02 -0.17583093577E+02 -0.11483608334E+02  0.34619458984E+02  0.00000000000E+00 0.  1.
         11    1    3    3    0    0 -0.52283685703E+02  0.44494657685E+02 -0.39740417492E+02  0.79326282754E+02  0.00000000000E+00 0. -1.
        -15    1    1    2    0    0  0.10678296369E+03  0.46012519334E+01  0.12617590375E+03  0.16537015834E+03  0.17770000000E+01 0. -1.
         15    1    1    2    0    0 -0.26977132358E+02 -0.31512816041E+02 -0.74951877925E+02  0.85684099917E+02  0.17770000000E+01 0.  1.
</event>
<event>
 7    1  0.6076911E-009  0.3650000E+03  0.7546771E-02  0.9765871E-01
        -11   -1    0    0    0    0  0.00000000000E+00  0.00000000000E+00  0.18250000000E+03  0.18250000000E+03  0.00000000000E+00 0. -1.
         11   -1    0    0    0    0 -0.00000000000E+00 -0.00000000000E+00 -0.18250000000E+03  0.18250000000E+03  0.00000000000E+00 0.  1.
         23    2    1    2    0    0 -0.15039365454E+02  0.84028372512E+02 -0.55117673782E+02  0.12529071820E+03  0.73299769460E+02 0.  0.
        -11    1    3    3    0    0  0.25872552321E+01  0.40794990029E+02  0.12834829764E+02  0.42844579076E+02  0.00000000000E+00 0. -1.
         11    1    3    3    0    0 -0.17626620687E+02  0.43233382482E+02 -0.67952503547E+02  0.82446139121E+02  0.00000000000E+00 0.  1.
        -15    1    1    2    0    0 -0.65840339771E+00 -0.66127779141E+02  0.13822508753E+03  0.15324049472E+03  0.17770000000E+01 0. -1.
         15    1    1    2    0    0  0.15697768852E+02 -0.17900593371E+02 -0.83107413752E+02  0.86468787083E+02  0.17770000000E+01 0.  1.
</event>
<event>
 7    1  0.6076911E-009  0.2674030E+03  0.7546771E-02  0.1015753E+00
        -11   -1    0    0    0    0  0.00000000000E+00  0.00000000000E+00  0.18250000000E+03  0.18250000000E+03  0.00000000000E+00 0.  1.
         11   -1    0    0    0    0 -0.00000000000E+00 -0.00000000000E+00 -0.18250000000E+03  0.18250000000E+03  0.00000000000E+00 0. -1.
         23    2    1    2    0    0 -0.33964753108E+02 -0.31560898956E+02  0.62715521635E+02  0.97596956282E+02  0.58670558417E+02 0.  0.
        -11    1    3    3    0    0 -0.50143986623E+02 -0.29126548477E+02  0.53047097840E+02  0.78592428452E+02  0.00000000000E+00 0.  1.
         11    1    3    3    0    0  0.16179233515E+02 -0.24343504786E+01  0.96684237947E+01  0.19004527831E+02  0.00000000000E+00 0. -1.
        -15    1    1    2    0    0  0.11519746861E+03  0.10003597032E+03 -0.24798291347E+02  0.15458255113E+03  0.17770000000E+01 0.  1.
         15    1    1    2    0    0 -0.81232715502E+02 -0.68475071362E+02 -0.37917230288E+02  0.11282049259E+03  0.17770000000E+01 0. -1.
</event>
<event>
 7    1  0.6076911E-009  0.3650000E+03  0.7546771E-02  0.9765871E-01
        -11   -1    0    0    0    0  0.00000000000E+00  0.00000000000E+00  0.18250000000E+03  0.18250000000E+03  0.00000000000E+00 0.  1.
         11   -1    0    0    0    0 -0.00000000000E+00 -0.00000000000E+00 -0.18250000000E+03  0.18250000000E+03  0.00000000000E+00 0. -1.
         23    2    1    2    0    0 -0.60588466119E+01  0.84418395212E+02  0.47503244845E+01  0.11521102466E+03  0.78024608607E+02 0.  0.
        -11    1    3    3    0    0  0.33836171710E+02  0.26382929416E+02  0.11618737325E+02  0.44451552702E+02  0.00000000000E+00 0.  1.
         11    1    3    3    0    0 -0.39895018322E+02  0.58035465795E+02 -0.68684128407E+01  0.70759471959E+02  0.00000000000E+00 0. -1.
        -15    1    1    2    0    0  0.25345179563E+02 -0.16087371551E+03 -0.32690062461E+02  0.16611600881E+03  0.17770000000E+01 0.  1.
         15    1    1    2    0    0 -0.19286332951E+02  0.76455320300E+02  0.27939737976E+02  0.83672966531E+02  0.17770000000E+01 0. -1.
</event>
<event>
 7    1  0.6076911E-009  0.2781693E+03  0.7546771E-02  0.1010607E+00
        -11   -1    0    0    0    0  0.00000000000E+00  0.00000000000E+00  0.18250000000E+03  0.18250000000E+03  0.00000000000E+00 0.  1.
         11   -1    0    0    0    0 -0.00000000000E+00 -0.00000000000E+00 -0.18250000000E+03  0.18250000000E+03  0.00000000000E+00 0. -1.
         23    2    1    2    0    0  0.16568895530E+02  0.48874850385E+02 -0.14234008731E+02  0.86830665600E+02  0.68364304902E+02 0.  0.
        -11    1    3    3    0    0  0.30137150746E+02  0.57071035702E+02  0.14161468532E+01  0.64555065201E+02  0.00000000000E+00 0.  1.
         11    1    3    3    0    0 -0.13568255216E+02 -0.81961853167E+01 -0.15650155584E+02  0.22275600399E+02  0.00000000000E+00 0. -1.
        -15    1    1    2    0    0  0.13282093666E+02 -0.31085909085E+02  0.14188183340E+03  0.14586418386E+03  0.17770000000E+01 0.  1.
         15    1    1    2    0    0 -0.29850989196E+02 -0.17788941300E+02 -0.12764782467E+03  0.13230515054E+03  0.17770000000E+01 0. -1.
</event>
<event>
 7    1  0.6076911E-009  0.3650000E+03  0.7546771E-02  0.9765871E-01
        -11   -1    0    0    0    0  0.00000000000E+00  0.00000000000E+00  0.18250000000E+03  0.18250000000E+03  0.00000000000E+00 0.  1.
         11   -1    0    0    0    0 -0.00000000000E+00 -0.00000000000E+00 -0.18250000000E+03  0.18250000000E+03  0.00000000000E+00 0. -1.
         23    2    1    2    0    0  0.68289133210E+02 -0.99326999590E+01 -0.95075556549E+02  0.13750625464E+03  0.71460089341E+02 0.  0.
        -11    1    3    3    0    0  0.65006901618E+02 -0.24259064887E+02 -0.10025394118E+03  0.12192314058E+03  0.00000000000E+00 0. -1.
         11    1    3    3    0    0  0.32822315917E+01  0.14326364928E+02  0.51783846331E+01  0.15583114056E+02  0.00000000000E+00 0.  1.
        -15    1    1    2    0    0 -0.13390609565E+03 -0.12484306861E+02  0.80062549881E+02  0.15652434313E+03  0.17770000000E+01 0.  1.
         15    1    1    2    0    0  0.65616962440E+02  0.22417006820E+02  0.15013006668E+02  0.70969402230E+02  0.17770000000E+01 0. -1.
</event>
<event>
 7    1  0.6076911E-009  0.2285033E+03  0.7546771E-02  0.1036786E+00
        -11   -1    0    0    0    0  0.00000000000E+00  0.00000000000E+00  0.18250000000E+03  0.18250000000E+03  0.00000000000E+00 0. -1.
         11   -1    0    0    0    0 -0.00000000000E+00 -0.00000000000E+00 -0.18250000000E+03  0.18250000000E+03  0.00000000000E+00 0.  1.
         23    2    1    2    0    0 -0.56579802326E+02  0.40808567229E+02 -0.43868070117E+02  0.13649666555E+03  0.10881322962E+03 0.  0.
        -11    1    3    3    0    0 -0.52135034465E+02  0.67919152021E+02 -0.10561428275E+01  0.85628199021E+02  0.00000000000E+00 0. -1.
         11    1    3    3    0    0 -0.44447678618E+01 -0.27110584792E+02 -0.42811927289E+02  0.50868466532E+02  0.00000000000E+00 0.  1.
        -15    1    1    2    0    0 -0.26391263111E+02 -0.91951955488E+02  0.79818132175E+02  0.12460237895E+03  0.17770000000E+01 0. -1.
         15    1    1    2    0    0  0.82971065437E+02  0.51143388259E+02 -0.35950062059E+02  0.10390095550E+03  0.17770000000E+01 0.  1.
</event>
<event>
 7    1  0.6076911E-009  0.2951434E+03  0.7546771E-02  0.1002986E+00
        -11   -1    0    0    0    0  0.00000000000E+00  0.00000000000E+00  0.18250000000E+03  0.18250000000E+03  0.00000000000E+00 0. -1.
         11   -1    0    0    0    0 -0.00000000000E+00 -0.00000000000E+00 -0.18250000000E+03  0.18250000000E+03  0.00000000000E+00 0.  1.
         23    2    1    2    0    0  0.11493865374E+02  0.24594513428E+02 -0.76220481330E+01  0.69856605319E+02  0.63912836402E+02 0.  0.
        -11    1    3    3    0    0 -0.25473411902E+02  0.89588045750E+01 -0.11865770022E+02  0.29494938405E+02  0.00000000000E+00 0. -1.
         11    1    3    3    0    0  0.36967277276E+02  0.15635708853E+02  0.42437218893E+01  0.40361666913E+02  0.00000000000E+00 0.  1.
        -15    1    1    2    0    0  0.24428162803E+02 -0.23669258520E+02  0.14715566807E+03  0.15104607678E+03  0.17770000000E+01 0. -1.
         15    1    1    2    0    0 -0.35922028177E+02 -0.92525490870E+00 -0.13953361994E+03  0.14409731790E+03  0.17770000000E+01 0.  1.
</event>
<event>
 7    1  0.6076911E-009  0.3650000E+03  0.7546771E-02  0.9765871E-01
        -11   -1    0    0    0    0  0.00000000000E+00  0.00000000000E+00  0.18250000000E+03  0.18250000000E+03  0.00000000000E+00 0.  1.
         11   -1    0    0    0    0 -0.00000000000E+00 -0.00000000000E+00 -0.18250000000E+03  0.18250000000E+03  0.00000000000E+00 0. -1.
         23    2    1    2    0    0 -0.95359869940E+02 -0.67858693196E+01  0.20322782561E+02  0.11394706571E+03  0.58577858238E+02 0.  0.
        -11    1    3    3    0    0 -0.19776581414E+02 -0.25768898911E+02  0.15157268828E+02  0.35845391919E+02  0.00000000000E+00 0.  1.
         11    1    3    3    0    0 -0.75583288526E+02  0.18983029592E+02  0.51655137329E+01  0.78101673792E+02  0.00000000000E+00 0. -1.
        -15    1    1    2    0    0 -0.37806478875E+02 -0.34720344258E+02  0.68546158306E+02  0.85653754721E+02  0.17770000000E+01 0.  1.
         15    1    1    2    0    0  0.13316634881E+03  0.41506213577E+02 -0.88868940867E+02  0.16539917957E+03  0.17770000000E+01 0. -1.
</event>
<event>
 7    1  0.6076911E-009  0.2013815E+03  0.7546771E-02  0.1054346E+00
        -11   -1    0    0    0    0  0.00000000000E+00  0.00000000000E+00  0.18250000000E+03  0.18250000000E+03  0.00000000000E+00 0.  1.
         11   -1    0    0    0    0 -0.00000000000E+00 -0.00000000000E+00 -0.18250000000E+03  0.18250000000E+03  0.00000000000E+00 0. -1.
         23    2    1    2    0    0 -0.79158873252E+02 -0.11803847059E+03  0.39452916775E+02  0.16361848360E+03  0.70818555346E+02 0.  0.
        -11    1    3    3    0    0 -0.81365496665E+02 -0.62911286364E+02  0.17949947259E+02  0.10440485911E+03  0.00000000000E+00 0. -1.
         11    1    3    3    0    0  0.22066234129E+01 -0.55127184227E+02  0.21502969516E+02  0.59213624493E+02  0.00000000000E+00 0.  1.
        -15    1    1    2    0    0  0.74962082386E+02  0.11829777955E+02  0.21427064657E+02  0.78876702967E+02  0.17770000000E+01 0.  1.
         15    1    1    2    0    0  0.41967908659E+01  0.10620869264E+03 -0.60879981431E+02  0.12250481343E+03  0.17770000000E+01 0. -1.
</event>
<event>
 6    1  0.6076911E-009  0.1242828E+03  0.7546771E-02  0.1127411E+00
        -11   -1    0    0    0    0  0.00000000000E+00  0.00000000000E+00  0.18250000000E+03  0.18250000000E+03  0.00000000000E+00 0.  1.
         11   -1    0    0    0    0 -0.00000000000E+00 -0.00000000000E+00 -0.18250000000E+03  0.18250000000E+03  0.00000000000E+00 0. -1.
        -11    1    1    2    0    0 -0.45127894719E+02  0.11574582463E+02  0.49945754331E+02  0.68301363213E+02  0.00000000000E+00 0.  1.
         11    1    1    2    0    0  0.44462943581E+01 -0.19851531386E+02  0.26446715093E+02  0.33365874350E+02  0.00000000000E+00 0. -1.
        -15    1    1    2    0    0  0.77680235389E+02  0.95606735816E+01  0.74431005666E+02  0.10802202453E+03  0.17770000000E+01 0.  1.
         15    1    1    2    0    0 -0.36998635028E+02 -0.12837246585E+01 -0.15082347509E+03  0.15531073791E+03  0.17770000000E+01 0. -1.
</event>
<event>
 7    1  0.6076911E-009  0.2179388E+03  0.7546771E-02  0.1043294E+00
        -11   -1    0    0    0    0  0.00000000000E+00  0.00000000000E+00  0.18250000000E+03  0.18250000000E+03  0.00000000000E+00 0. -1.
         11   -1    0    0    0    0 -0.00000000000E+00 -0.00000000000E+00 -0.18250000000E+03  0.18250000000E+03  0.00000000000E+00 0.  1.
         23    2    1    2    0    0  0.35950467277E+02  0.13141142762E+02  0.11981851996E+03  0.14706118268E+03  0.76193096770E+02 0.  0.
        -11    1    3    3    0    0  0.45667074277E+02  0.37437104146E+02  0.80690583404E+02  0.99989942944E+02  0.00000000000E+00 0.  1.
         11    1    3    3    0    0 -0.97166069996E+01 -0.24295961385E+02  0.39127936554E+02  0.47071239735E+02  0.00000000000E+00 0. -1.
        -15    1    1    2    0    0 -0.75209451214E+02 -0.76494983839E+02 -0.65602480469E+02  0.12575685777E+03  0.17770000000E+01 0. -1.
         15    1    1    2    0    0  0.39258983937E+02  0.63353841077E+02 -0.54216039490E+02  0.92181959547E+02  0.17770000000E+01 0.  1.
</event>
<event>
 6    1  0.6076911E-009  0.2974366E+03  0.7546771E-02  0.1001998E+00
        -11   -1    0    0    0    0  0.00000000000E+00  0.00000000000E+00  0.18250000000E+03  0.18250000000E+03  0.00000000000E+00 0.  1.
         11   -1    0    0    0    0 -0.00000000000E+00 -0.00000000000E+00 -0.18250000000E+03  0.18250000000E+03  0.00000000000E+00 0. -1.
        -11    1    1    2    0    0 -0.11381217053E+02  0.13498379655E+02  0.15053168260E+02  0.23202073820E+02  0.00000000000E+00 0.  1.
         11    1    1    2    0    0 -0.23155861863E+02 -0.35886032746E+02  0.92994615871E+01  0.43709052503E+02  0.00000000000E+00 0. -1.
        -15    1    1    2    0    0  0.12060283589E+03 -0.92479331693E+02  0.27244674340E+01  0.15201332595E+03  0.17770000000E+01 0.  1.
         15    1    1    2    0    0 -0.86065756974E+02  0.11486698478E+03 -0.27077097281E+02  0.14607554772E+03  0.17770000000E+01 0. -1.
</event>
<event>
 7    1  0.6076911E-009  0.2747526E+03  0.7546771E-02  0.1012213E+00
        -11   -1    0    0    0    0  0.00000000000E+00  0.00000000000E+00  0.18250000000E+03  0.18250000000E+03  0.00000000000E+00 0.  1.
         11   -1    0    0    0    0 -0.00000000000E+00 -0.00000000000E+00 -0.18250000000E+03  0.18250000000E+03  0.00000000000E+00 0. -1.
         23    2    1    2    0    0 -0.29154231072E+02  0.43105252039E+01  0.43658892647E+02  0.90247399710E+02  0.73279904683E+02 0.  0.
        -11    1    3    3    0    0  0.17282375422E+02  0.82452152285E+00 -0.93682938545E+01  0.19675499122E+02  0.00000000000E+00 0. -1.
         11    1    3    3    0    0 -0.46436606494E+02  0.34860036810E+01  0.53027186502E+02  0.70571900588E+02  0.00000000000E+00 0.  1.
        -15    1    1    2    0    0  0.67369741466E+02  0.10661335647E+03  0.38082079971E+02  0.13175163144E+03  0.17770000000E+01 0.  1.
         15    1    1    2    0    0 -0.38215510394E+02 -0.11092388167E+03 -0.81740972618E+02  0.14300096885E+03  0.17770000000E+01 0. -1.
</event>
<event>
 7    1  0.6076911E-009  0.2409514E+03  0.7546771E-02  0.1029590E+00
        -11   -1    0    0    0    0  0.00000000000E+00  0.00000000000E+00  0.18250000000E+03  0.18250000000E+03  0.00000000000E+00 0.  1.
         11   -1    0    0    0    0 -0.00000000000E+00 -0.00000000000E+00 -0.18250000000E+03  0.18250000000E+03  0.00000000000E+00 0. -1.
         23    2    1    2    0    0  0.72412144733E+02 -0.71794286665E+02  0.59078784255E+01  0.12404859052E+03  0.70393263025E+02 0.  0.
        -11    1    3    3    0    0 -0.67079402245E+01 -0.30513143728E+02 -0.11186632271E+02  0.33184170078E+02  0.00000000000E+00 0.  1.
         11    1    3    3    0    0  0.79120084957E+02 -0.41281142937E+02  0.17094510696E+02  0.90864420439E+02  0.00000000000E+00 0. -1.
        -15    1    1    2    0    0  0.20005058095E+00  0.48177275510E+02  0.99626780414E+02  0.11067855709E+03  0.17770000000E+01 0.  1.
         15    1    1    2    0    0 -0.72612195314E+02  0.23617011154E+02 -0.10553465884E+03  0.13027285239E+03  0.17770000000E+01 0. -1.
</event>
<event>
 7    1  0.6076911E-009  0.3650000E+03  0.7546771E-02  0.9765871E-01
        -11   -1    0    0    0    0  0.00000000000E+00  0.00000000000E+00  0.18250000000E+03  0.18250000000E+03  0.00000000000E+00 0.  1.
         11   -1    0    0    0    0 -0.00000000000E+00 -0.00000000000E+00 -0.18250000000E+03  0.18250000000E+03  0.00000000000E+00 0. -1.
         23    2    1    2    0    0  0.33088653679E+02  0.99169765983E+02  0.49829175709E+02  0.13576379418E+03  0.70847438703E+02 0.  0.
        -11    1    3    3    0    0  0.54539840534E+02  0.73979378436E+02  0.44970814108E+02  0.10232261119E+03  0.00000000000E+00 0.  1.
         11    1    3    3    0    0 -0.21451186855E+02  0.25190387547E+02  0.48583616010E+01  0.33441182989E+02  0.00000000000E+00 0. -1.
        -15    1    1    2    0    0  0.42762470222E+01 -0.51174303505E+02  0.74681771592E+02  0.90651091361E+02  0.17770000000E+01 0.  1.
         15    1    1    2    0    0 -0.37364900701E+02 -0.47995462478E+02 -0.12451094730E+03  0.13858511446E+03  0.17770000000E+01 0. -1.
</event>
<event>
 7    1  0.6076911E-009  0.1937963E+03  0.7546771E-02  0.1059802E+00
        -11   -1    0    0    0    0  0.00000000000E+00  0.00000000000E+00  0.18250000000E+03  0.18250000000E+03  0.00000000000E+00 0.  1.
         11   -1    0    0    0    0 -0.00000000000E+00 -0.00000000000E+00 -0.18250000000E+03  0.18250000000E+03  0.00000000000E+00 0. -1.
         23    2    1    2    0    0  0.10142763427E+03 -0.16278149334E+02  0.84480460685E+02  0.17120372347E+03  0.10780177898E+03 0.  0.
        -11    1    3    3    0    0  0.56814314234E+02 -0.41200567913E+02 -0.26077725253E+01  0.70229292861E+02  0.00000000000E+00 0.  1.
         11    1    3    3    0    0  0.44613320038E+02  0.24922418580E+02  0.87088233210E+02  0.10097443061E+03  0.00000000000E+00 0. -1.
        -15    1    1    2    0    0  0.93940935412E+01 -0.22554465124E+02 -0.71570667085E+02  0.75647015846E+02  0.17770000000E+01 0. -1.
         15    1    1    2    0    0 -0.11082172781E+03  0.38832614457E+02 -0.12909793600E+02  0.11814926069E+03  0.17770000000E+01 0.  1.
</event>
<event>
 7    1  0.6076911E-009  0.3650000E+03  0.7546771E-02  0.9765871E-01
        -11   -1    0    0    0    0  0.00000000000E+00  0.00000000000E+00  0.18250000000E+03  0.18250000000E+03  0.00000000000E+00 0.  1.
         11   -1    0    0    0    0 -0.00000000000E+00 -0.00000000000E+00 -0.18250000000E+03  0.18250000000E+03  0.00000000000E+00 0. -1.
         23    2    1    2    0    0  0.16399267251E+02 -0.24383991266E+01 -0.35034476372E+02  0.85383645575E+02  0.76079370663E+02 0.  0.
        -11    1    3    3    0    0 -0.23259585493E+02 -0.22254938872E+02 -0.22620156873E+02  0.39344149737E+02  0.00000000000E+00 0. -1.
         11    1    3    3    0    0  0.39658852744E+02  0.19816539746E+02 -0.12414319499E+02  0.46039495839E+02  0.00000000000E+00 0.  1.
        -15    1    1    2    0    0 -0.95951766053E+01  0.57737518714E+02  0.14497327129E+03  0.15635247231E+03  0.17770000000E+01 0.  1.
         15    1    1    2    0    0 -0.68040906454E+01 -0.55299119587E+02 -0.10993879492E+03  0.12326388211E+03  0.17770000000E+01 0. -1.
</event>
<event>
 7    1  0.6076911E-009  0.3650000E+03  0.7546771E-02  0.9765871E-01
        -11   -1    0    0    0    0  0.00000000000E+00  0.00000000000E+00  0.18250000000E+03  0.18250000000E+03  0.00000000000E+00 0. -1.
         11   -1    0    0    0    0 -0.00000000000E+00 -0.00000000000E+00 -0.18250000000E+03  0.18250000000E+03  0.00000000000E+00 0.  1.
         23    2    1    2    0    0  0.12528789058E+02 -0.46178760087E+01  0.12843394864E+03  0.14644357665E+03  0.69080725572E+02 0.  0.
        -11    1    3    3    0    0  0.40535082688E+02 -0.98136598700E+01  0.81238278155E+02  0.91318446582E+02  0.00000000000E+00 0. -1.
         11    1    3    3    0    0 -0.28006293630E+02  0.51957838613E+01  0.47195670485E+02  0.55125130071E+02  0.00000000000E+00 0.  1.
        -15    1    1    2    0    0 -0.44897878469E+02 -0.13393947432E+02  0.30116875682E+02  0.55726127164E+02  0.17770000000E+01 0. -1.
         15    1    1    2    0    0  0.32369089411E+02  0.18011823441E+02 -0.15855082432E+03  0.16283029618E+03  0.17770000000E+01 0.  1.
</event>
<event>
 7    1  0.6076911E-009  0.2476371E+03  0.7546771E-02  0.1025917E+00
        -11   -1    0    0    0    0  0.00000000000E+00  0.00000000000E+00  0.18250000000E+03  0.18250000000E+03  0.00000000000E+00 0. -1.
         11   -1    0    0    0    0 -0.00000000000E+00 -0.00000000000E+00 -0.18250000000E+03  0.18250000000E+03  0.00000000000E+00 0.  1.
         23    2    1    2    0    0 -0.55226678375E+02 -0.73716688064E+02  0.24847318572E+02  0.11736288792E+03  0.68355849186E+02 0.  0.
        -11    1    3    3    0    0 -0.68670373627E+02 -0.49302491083E+02  0.28594461398E+02  0.89241240823E+02  0.00000000000E+00 0. -1.
         11    1    3    3    0    0  0.13443695251E+02 -0.24414196981E+02 -0.37471428267E+01  0.28121647099E+02  0.00000000000E+00 0.  1.
        -15    1    1    2    0    0 -0.30293409653E+01  0.47851883185E+01  0.96341344458E+02  0.96524024548E+02  0.17770000000E+01 0. -1.
         15    1    1    2    0    0  0.58256019341E+02  0.68931499745E+02 -0.12118866303E+03  0.15111308753E+03  0.17770000000E+01 0.  1.
</event>
<event>
 7    1  0.6076911E-009  0.1905651E+03  0.7546771E-02  0.1062210E+00
        -11   -1    0    0    0    0  0.00000000000E+00  0.00000000000E+00  0.18250000000E+03  0.18250000000E+03  0.00000000000E+00 0.  1.
         11   -1    0    0    0    0 -0.00000000000E+00 -0.00000000000E+00 -0.18250000000E+03  0.18250000000E+03  0.00000000000E+00 0.  1.
         23    2    1    2    0    0  0.67504823488E+01  0.12925639759E+02  0.15571917762E+03  0.17443485259E+03  0.77242568216E+02 0.  0.
        -11    1    3    3    0    0 -0.10999415594E+02  0.40546345011E+02  0.60037549884E+02  0.73276876525E+02  0.00000000000E+00 0.  1.
         11    1    3    3    0    0  0.17749897943E+02 -0.27620705252E+02  0.95681627732E+02  0.10115797606E+03  0.00000000000E+00 0.  1.
        -15    1    1    2    0    0 -0.44939891098E+01 -0.26412008384E+02  0.66094030619E+01  0.27651981174E+02  0.17770000000E+01 0. -1.
         15    1    1    2    0    0 -0.22564932390E+01  0.13486368625E+02 -0.16232858068E+03  0.16291316624E+03  0.17770000000E+01 0.  1.
</event>
<event>
 7    1  0.6076911E-009  0.2065917E+03  0.7546771E-02  0.1050747E+00
        -11   -1    0    0    0    0  0.00000000000E+00  0.00000000000E+00  0.18250000000E+03  0.18250000000E+03  0.00000000000E+00 0. -1.
         11   -1    0    0    0    0 -0.00000000000E+00 -0.00000000000E+00 -0.18250000000E+03  0.18250000000E+03  0.00000000000E+00 0. -1.
         23    2    1    2    0    0  0.11145699251E+02  0.87475360557E+02 -0.79255703656E+02  0.15840834163E+03  0.10505032517E+03 0.  0.
        -11    1    3    3    0    0  0.49100003174E+02  0.71067395465E+02 -0.79001846263E+02  0.11705843294E+03  0.00000000000E+00 0. -1.
         11    1    3    3    0    0 -0.37954303922E+02  0.16407965092E+02 -0.25385739335E+00  0.41349908685E+02  0.00000000000E+00 0. -1.
        -15    1    1    2    0    0 -0.72449834603E+02 -0.85642573667E+02  0.78784535513E+01  0.11246713617E+03  0.17770000000E+01 0. -1.
         15    1    1    2    0    0  0.61304135351E+02 -0.18327868897E+01  0.71377250105E+02  0.94124522206E+02  0.17770000000E+01 0.  1.
</event>
<event>
 7    1  0.6076911E-009  0.3650000E+03  0.7546771E-02  0.9765871E-01
        -11   -1    0    0    0    0  0.00000000000E+00  0.00000000000E+00  0.18250000000E+03  0.18250000000E+03  0.00000000000E+00 0. -1.
         11   -1    0    0    0    0 -0.00000000000E+00 -0.00000000000E+00 -0.18250000000E+03  0.18250000000E+03  0.00000000000E+00 0.  1.
         23    2    1    2    0    0 -0.44321550715E+02  0.31323088897E+02 -0.62635904048E+02  0.13334358526E+03  0.10445917622E+03 0.  0.
        -11    1    3    3    0    0 -0.25539812470E+02  0.95594941312E-01  0.26647234515E+02  0.36910246093E+02  0.00000000000E+00 0. -1.
         11    1    3    3    0    0 -0.18781738245E+02  0.31227493956E+02 -0.89283138563E+02  0.96433339162E+02  0.00000000000E+00 0.  1.
        -15    1    1    2    0    0  0.66973404999E+02 -0.19138799454E+01  0.13476722182E+03  0.15051399177E+03  0.17770000000E+01 0. -1.
         15    1    1    2    0    0 -0.22651854284E+02 -0.29409208952E+02 -0.72131317770E+02  0.81142422973E+02  0.17770000000E+01 0.  1.
</event>
<event>
 6    1  0.6076911E-009  0.3650000E+03  0.7546771E-02  0.9765871E-01
        -11   -1    0    0    0    0  0.00000000000E+00  0.00000000000E+00  0.18250000000E+03  0.18250000000E+03  0.00000000000E+00 0.  1.
         11   -1    0    0    0    0 -0.00000000000E+00 -0.00000000000E+00 -0.18250000000E+03  0.18250000000E+03  0.00000000000E+00 0. -1.
        -11    1    1    2    0    0  0.57807344538E+01 -0.24709407930E+02  0.32067417742E+02  0.40893654908E+02  0.00000000000E+00 0.  1.
         11    1    1    2    0    0 -0.68734554403E+01  0.40102831871E+00  0.13631183507E+02  0.15271358067E+02  0.00000000000E+00 0. -1.
        -15    1    1    2    0    0 -0.92929097096E+02 -0.29226282930E+02  0.91797454502E+02  0.13386531695E+03  0.17770000000E+01 0.  1.
         15    1    1    2    0    0  0.94021818082E+02  0.53534662541E+02 -0.13749605575E+03  0.17496967007E+03  0.17770000000E+01 0. -1.
</event>
<event>
 6    1  0.6076911E-009  0.9988147E+02  0.7546771E-02  0.1164021E+00
        -11   -1    0    0    0    0  0.00000000000E+00  0.00000000000E+00  0.18250000000E+03  0.18250000000E+03  0.00000000000E+00 0.  1.
         11   -1    0    0    0    0 -0.00000000000E+00 -0.00000000000E+00 -0.18250000000E+03  0.18250000000E+03  0.00000000000E+00 0. -1.
        -11    1    1    2    0    0  0.46868165699E+02  0.60884203510E+02  0.41653179977E+02  0.87398504536E+02  0.00000000000E+00 0.  1.
         11    1    1    2    0    0 -0.64809412626E+02 -0.29525354781E+02 -0.15894071313E+02  0.72970048943E+02  0.00000000000E+00 0. -1.
        -15    1    1    2    0    0  0.29954405039E+02 -0.17017377042E+02  0.85290691145E+02  0.92002810977E+02  0.17770000000E+01 0.  1.
         15    1    1    2    0    0 -0.12013158112E+02 -0.14341471687E+02 -0.11104979981E+03  0.11262863554E+03  0.17770000000E+01 0. -1.
</event>
<event>
 7    1  0.6076911E-009  0.3650000E+03  0.7546771E-02  0.9765871E-01
        -11   -1    0    0    0    0  0.00000000000E+00  0.00000000000E+00  0.18250000000E+03  0.18250000000E+03  0.00000000000E+00 0.  1.
         11   -1    0    0    0    0 -0.00000000000E+00 -0.00000000000E+00 -0.18250000000E+03  0.18250000000E+03  0.00000000000E+00 0. -1.
         23    2    1    2    0    0  0.43215051027E+02 -0.23592191510E+02  0.91145847523E+02  0.15704066902E+03  0.11802573479E+03 0.  0.
        -11    1    3    3    0    0 -0.20621864460E+02 -0.52983482289E+02  0.49264255284E+02  0.75229499121E+02  0.00000000000E+00 0.  1.
         11    1    3    3    0    0  0.63836915487E+02  0.29391290779E+02  0.41881592239E+02  0.81811169904E+02  0.00000000000E+00 0. -1.
        -15    1    1    2    0    0  0.41419488463E+01  0.65819500130E+02  0.29008470240E+02  0.72069490162E+02  0.17770000000E+01 0.  1.
         15    1    1    2    0    0 -0.47356999873E+02 -0.42227308620E+02 -0.12015431776E+03  0.13588984081E+03  0.17770000000E+01 0. -1.
</event>
<event>
 7    1  0.6076911E-009  0.3650000E+03  0.7546771E-02  0.9765871E-01
        -11   -1    0    0    0    0  0.00000000000E+00  0.00000000000E+00  0.18250000000E+03  0.18250000000E+03  0.00000000000E+00 0. -1.
         11   -1    0    0    0    0 -0.00000000000E+00 -0.00000000000E+00 -0.18250000000E+03  0.18250000000E+03  0.00000000000E+00 0.  1.
         23    2    1    2    0    0 -0.41251386929E+02 -0.36725212467E+02 -0.90463186632E+02  0.12559769049E+03  0.67385262237E+02 0.  0.
        -11    1    3    3    0    0 -0.56622015029E+02 -0.12186553209E+02 -0.55707726226E+02  0.80361156203E+02  0.00000000000E+00 0.  1.
         11    1    3    3    0    0  0.15370628100E+02 -0.24538659258E+02 -0.34755460406E+02  0.45236534288E+02  0.00000000000E+00 0. -1.
        -15    1    1    2    0    0  0.10583323845E+02  0.12327100423E+03  0.79115410297E+02  0.14686780826E+03  0.17770000000E+01 0. -1.
         15    1    1    2    0    0  0.30668063084E+02 -0.86545791762E+02  0.11347776335E+02  0.92534501251E+02  0.17770000000E+01 0.  1.
</event>
<event>
 7    1  0.6076911E-009  0.2473935E+03  0.7546771E-02  0.1026049E+00
        -11   -1    0    0    0    0  0.00000000000E+00  0.00000000000E+00  0.18250000000E+03  0.18250000000E+03  0.00000000000E+00 0.  1.
         11   -1    0    0    0    0 -0.00000000000E+00 -0.00000000000E+00 -0.18250000000E+03  0.18250000000E+03  0.00000000000E+00 0. -1.
         23    2    1    2    0    0 -0.45882326832E+02  0.16080424246E+02 -0.23018884099E+02  0.11760648277E+03  0.10458320996E+03 0.  0.
        -11    1    3    3    0    0  0.30518474056E+02  0.34923294438E+01  0.11539539540E+02  0.32813634307E+02  0.00000000000E+00 0.  1.
         11    1    3    3    0    0 -0.76400800887E+02  0.12588094802E+02 -0.34558423639E+02  0.84792848468E+02  0.00000000000E+00 0. -1.
        -15    1    1    2    0    0  0.36636180820E+02  0.10990937819E+03 -0.11456215711E+02  0.11643317296E+03  0.17770000000E+01 0.  1.
         15    1    1    2    0    0  0.92461460119E+01 -0.12598980243E+03  0.34475099809E+02  0.13096034426E+03  0.17770000000E+01 0. -1.
</event>
<event>
 6    1  0.6076911E-009  0.1868875E+03  0.7546771E-02  0.1065015E+00
        -11   -1    0    0    0    0  0.00000000000E+00  0.00000000000E+00  0.18250000000E+03  0.18250000000E+03  0.00000000000E+00 0.  1.
         11   -1    0    0    0    0 -0.00000000000E+00 -0.00000000000E+00 -0.18250000000E+03  0.18250000000E+03  0.00000000000E+00 0. -1.
        -11    1    1    2    0    0 -0.33206862639E+02  0.17757999533E+01  0.51188496781E+02  0.61041882298E+02  0.00000000000E+00 0.  1.
         11    1    1    2    0    0 -0.99869029841E+02 -0.30360335621E+02  0.53009120338E+02  0.11707066216E+03  0.00000000000E+00 0. -1.
        -15    1    1    2    0    0  0.16541650783E+01 -0.47754168243E+01  0.88494791613E+01  0.10344654580E+02  0.17770000000E+01 0. -1.
         15    1    1    2    0    0  0.13142172740E+03  0.33359952493E+02 -0.11304709628E+03  0.17654280096E+03  0.17770000000E+01 0.  1.
</event>
<event>
 7    1  0.6076911E-009  0.2072200E+03  0.7546771E-02  0.1050321E+00
        -11   -1    0    0    0    0  0.00000000000E+00  0.00000000000E+00  0.18250000000E+03  0.18250000000E+03  0.00000000000E+00 0.  1.
         11   -1    0    0    0    0 -0.00000000000E+00 -0.00000000000E+00 -0.18250000000E+03  0.18250000000E+03  0.00000000000E+00 0. -1.
         23    2    1    2    0    0  0.44445774577E+02  0.95943326501E+02 -0.72435432183E+01  0.15777995758E+03  0.11688240808E+03 0.  0.
        -11    1    3    3    0    0  0.89151430934E+01 -0.10065154593E+02  0.35594786466E+02  0.38049650943E+02  0.00000000000E+00 0.  1.
         11    1    3    3    0    0  0.35530631484E+02  0.10600848109E+03 -0.42838329684E+02  0.11973030664E+03  0.00000000000E+00 0. -1.
        -15    1    1    2    0    0 -0.74128265068E+02 -0.19838916803E+02  0.70241550537E+02  0.10404621787E+03  0.17770000000E+01 0.  1.
         15    1    1    2    0    0  0.29682490490E+02 -0.76104409698E+02 -0.62998007319E+02  0.10317382455E+03  0.17770000000E+01 0. -1.
</event>
<event>
 7    1  0.6076911E-009  0.1913138E+03  0.7546771E-02  0.1061648E+00
        -11   -1    0    0    0    0  0.00000000000E+00  0.00000000000E+00  0.18250000000E+03  0.18250000000E+03  0.00000000000E+00 0.  1.
         11   -1    0    0    0    0 -0.00000000000E+00 -0.00000000000E+00 -0.18250000000E+03  0.18250000000E+03  0.00000000000E+00 0.  1.
         23    2    1    2    0    0 -0.12751413243E+02  0.81964000707E+02  0.10287711601E+03  0.17368623547E+03  0.11270541887E+03 0.  0.
        -11    1    3    3    0    0 -0.19789299290E+01  0.10990994712E+03  0.82943047089E+02  0.13770861157E+03  0.00000000000E+00 0.  1.
         11    1    3    3    0    0 -0.10772483314E+02 -0.27945946416E+02  0.19934068919E+02  0.35977623900E+02  0.00000000000E+00 0.  1.
        -15    1    1    2    0    0  0.58276155185E+00 -0.38269989966E+02  0.31421234296E+02  0.49551825765E+02  0.17770000000E+01 0. -1.
         15    1    1    2    0    0  0.12168651691E+02 -0.43694010741E+02 -0.13429835030E+03  0.14176193876E+03  0.17770000000E+01 0.  1.
</event>
<event>
 7    1  0.6076911E-009  0.2754545E+03  0.7546771E-02  0.1011881E+00
        -11   -1    0    0    0    0  0.00000000000E+00  0.00000000000E+00  0.18250000000E+03  0.18250000000E+03  0.00000000000E+00 0.  1.
         11   -1    0    0    0    0 -0.00000000000E+00 -0.00000000000E+00 -0.18250000000E+03  0.18250000000E+03  0.00000000000E+00 0. -1.
         23    2    1    2    0    0 -0.28772965733E+02  0.29249511923E+02  0.11391707168E+02  0.89545497151E+02  0.78773139858E+02 0.  0.
        -11    1    3    3    0    0  0.44479872152E+01 -0.21309396105E+02 -0.11793713969E+02  0.24758163134E+02  0.00000000000E+00 0. -1.
         11    1    3    3    0    0 -0.33220952948E+02  0.50558908028E+02  0.23185421136E+02  0.64787334017E+02  0.00000000000E+00 0.  1.
        -15    1    1    2    0    0  0.11093462603E+03  0.43102836936E+02 -0.82567304420E+02  0.14486153144E+03  0.17770000000E+01 0.  1.
         15    1    1    2    0    0 -0.82161660293E+02 -0.72352348859E+02  0.71175597252E+02  0.13059297141E+03  0.17770000000E+01 0. -1.
</event>
<event>
 7    1  0.6076911E-009  0.1888199E+03  0.7546771E-02  0.1063533E+00
        -11   -1    0    0    0    0  0.00000000000E+00  0.00000000000E+00  0.18250000000E+03  0.18250000000E+03  0.00000000000E+00 0.  1.
         11   -1    0    0    0    0 -0.00000000000E+00 -0.00000000000E+00 -0.18250000000E+03  0.18250000000E+03  0.00000000000E+00 0. -1.
         23    2    1    2    0    0  0.46532407912E+02 -0.21222062423E+02 -0.16714182107E+03  0.18881986248E+03  0.71420663645E+02 0.  0.
        -11    1    3    3    0    0 -0.13179624622E+02  0.32376194940E+01 -0.52667543801E+01  0.14557588635E+02  0.00000000000E+00 0.  1.
         11    1    3    3    0    0  0.59712032534E+02 -0.24459681917E+02 -0.16187506669E+03  0.17426227384E+03  0.00000000000E+00 0. -1.
        -15    1    1    2    0    0 -0.27183686369E+02  0.18664760219E+02  0.13065166563E+03  0.13476031144E+03  0.17770000000E+01 0.  1.
         15    1    1    2    0    0 -0.19348721543E+02  0.25573022047E+01  0.36490155439E+02  0.41419826084E+02  0.17770000000E+01 0. -1.
</event>
<event>
 7    1  0.6076911E-009  0.2505189E+03  0.7546771E-02  0.1024372E+00
        -11   -1    0    0    0    0  0.00000000000E+00  0.00000000000E+00  0.18250000000E+03  0.18250000000E+03  0.00000000000E+00 0. -1.
         11   -1    0    0    0    0 -0.00000000000E+00 -0.00000000000E+00 -0.18250000000E+03  0.18250000000E+03  0.00000000000E+00 0.  1.
         23    2    1    2    0    0  0.50692319436E+02  0.71081078805E+01 -0.68447388967E+02  0.11448113755E+03  0.76161994132E+02 0.  0.
        -11    1    3    3    0    0  0.57409430796E+02  0.31656952479E+02 -0.42468321405E+02  0.78112506729E+02  0.00000000000E+00 0.  1.
         11    1    3    3    0    0 -0.67171113602E+01 -0.24548844598E+02 -0.25979067562E+02  0.36368630818E+02  0.00000000000E+00 0. -1.
        -15    1    1    2    0    0 -0.11226718475E+03 -0.78804454931E+02  0.61546862310E+01  0.13731387687E+03  0.17770000000E+01 0. -1.
         15    1    1    2    0    0  0.61574865312E+02  0.71696347051E+02  0.62292702736E+02  0.11320498559E+03  0.17770000000E+01 0.  1.
</event>
<event>
 6    1  0.6076911E-009  0.9784448E+02  0.7546771E-02  0.1167597E+00
        -11   -1    0    0    0    0  0.00000000000E+00  0.00000000000E+00  0.18250000000E+03  0.18250000000E+03  0.00000000000E+00 0. -1.
         11   -1    0    0    0    0 -0.00000000000E+00 -0.00000000000E+00 -0.18250000000E+03  0.18250000000E+03  0.00000000000E+00 0.  1.
        -11    1    1    2    0    0 -0.67652105097E+02  0.15233661636E+02 -0.73848912881E+02  0.10130416430E+03  0.00000000000E+00 0. -1.
         11    1    1    2    0    0 -0.17066317312E+02 -0.47462288615E+02  0.48401568164E+02  0.69904505061E+02  0.00000000000E+00 0.  1.
        -15    1    1    2    0    0  0.55799438727E+02  0.58119806630E+01 -0.70515602847E+02  0.90127490009E+02  0.17770000000E+01 0.  1.
         15    1    1    2    0    0  0.28918983682E+02  0.26416646316E+02  0.95962947564E+02  0.10366384063E+03  0.17770000000E+01 0. -1.
</event>
<event>
 7    1  0.6076911E-009  0.3650000E+03  0.7546771E-02  0.9765871E-01
        -11   -1    0    0    0    0  0.00000000000E+00  0.00000000000E+00  0.18250000000E+03  0.18250000000E+03  0.00000000000E+00 0. -1.
         11   -1    0    0    0    0 -0.00000000000E+00 -0.00000000000E+00 -0.18250000000E+03  0.18250000000E+03  0.00000000000E+00 0.  1.
         23    2    1    2    0    0  0.75939996856E+02  0.24150403241E+02 -0.78383446219E+02  0.15964603754E+03  0.11398582176E+03 0.  0.
        -11    1    3    3    0    0  0.51167500540E+02  0.62212271648E+02 -0.15420071331E+02  0.82013769911E+02  0.00000000000E+00 0. -1.
         11    1    3    3    0    0  0.24772496316E+02 -0.38061868407E+02 -0.62963374888E+02  0.77632267632E+02  0.00000000000E+00 0.  1.
        -15    1    1    2    0    0 -0.81794322501E+02 -0.13412603179E+02 -0.35942736565E+02  0.90361757166E+02  0.17770000000E+01 0.  1.
         15    1    1    2    0    0  0.58543256451E+01 -0.10737800061E+02  0.11432618278E+03  0.11499220529E+03  0.17770000000E+01 0. -1.
</event>
<event>
 7    1  0.6076911E-009  0.2857115E+03  0.7546771E-02  0.1007150E+00
        -11   -1    0    0    0    0  0.00000000000E+00  0.00000000000E+00  0.18250000000E+03  0.18250000000E+03  0.00000000000E+00 0. -1.
         11   -1    0    0    0    0 -0.00000000000E+00 -0.00000000000E+00 -0.18250000000E+03  0.18250000000E+03  0.00000000000E+00 0.  1.
         23    2    1    2    0    0 -0.16133062604E+02 -0.95407926892E+01  0.18375214465E+02  0.79288484252E+02  0.74817864138E+02 0.  0.
        -11    1    3    3    0    0 -0.76689413513E+01  0.22252786788E+02 -0.18450044960E+02  0.29906576874E+02  0.00000000000E+00 0.  1.
         11    1    3    3    0    0 -0.84641212523E+01 -0.31793579477E+02  0.36825259426E+02  0.49381907378E+02  0.00000000000E+00 0. -1.
        -15    1    1    2    0    0  0.13849833291E+02 -0.13316792227E+03  0.25661612227E+02  0.13633484322E+03  0.17770000000E+01 0. -1.
         15    1    1    2    0    0  0.22832293128E+01  0.14270871496E+03 -0.44036826693E+02  0.14937667253E+03  0.17770000000E+01 0.  1.
</event>
<event>
 7    1  0.6076911E-009  0.2446709E+03  0.7546771E-02  0.1027531E+00
        -11   -1    0    0    0    0  0.00000000000E+00  0.00000000000E+00  0.18250000000E+03  0.18250000000E+03  0.00000000000E+00 0.  1.
         11   -1    0    0    0    0 -0.00000000000E+00 -0.00000000000E+00 -0.18250000000E+03  0.18250000000E+03  0.00000000000E+00 0. -1.
         23    2    1    2    0    0 -0.30848854248E+02  0.65001325585E+02 -0.66780176916E+02  0.12032907912E+03  0.69589303174E+02 0.  0.
        -11    1    3    3    0    0 -0.37755133807E+02  0.63185627580E+02 -0.77861542312E+02  0.10714613121E+03  0.00000000000E+00 0. -1.
         11    1    3    3    0    0  0.69062795585E+01  0.18156980050E+01  0.11081365396E+02  0.13182947911E+02  0.00000000000E+00 0.  1.
        -15    1    1    2    0    0 -0.87883292639E+02 -0.69426320979E+02  0.56346987050E+02  0.12538591567E+03  0.17770000000E+01 0.  1.
         15    1    1    2    0    0  0.11873214689E+03  0.44249953936E+01  0.10433189866E+02  0.11928500521E+03  0.17770000000E+01 0. -1.
</event>
<event>
 6    1  0.6076911E-009  0.3650000E+03  0.7546771E-02  0.9765871E-01
        -11   -1    0    0    0    0  0.00000000000E+00  0.00000000000E+00  0.18250000000E+03  0.18250000000E+03  0.00000000000E+00 0. -1.
         11   -1    0    0    0    0 -0.00000000000E+00 -0.00000000000E+00 -0.18250000000E+03  0.18250000000E+03  0.00000000000E+00 0.  1.
        -11    1    1    2    0    0 -0.12446471484E+02 -0.36734608456E+02  0.14744636411E+03  0.15246237700E+03  0.00000000000E+00 0. -1.
         11    1    1    2    0    0  0.24784890379E+01 -0.15309824665E+02  0.75204125718E+01  0.17236305998E+02  0.00000000000E+00 0.  1.
        -15    1    1    2    0    0  0.48928614358E+01  0.21973448094E+02  0.11993790460E+02  0.25569146500E+02  0.17770000000E+01 0. -1.
         15    1    1    2    0    0  0.50751210105E+01  0.30070985027E+02 -0.16696056714E+03  0.16973217050E+03  0.17770000000E+01 0.  1.
</event>
<event>
 7    1  0.6076911E-009  0.1852831E+03  0.7546771E-02  0.1066261E+00
        -11   -1    0    0    0    0  0.00000000000E+00  0.00000000000E+00  0.18250000000E+03  0.18250000000E+03  0.00000000000E+00 0. -1.
         11   -1    0    0    0    0 -0.00000000000E+00 -0.00000000000E+00 -0.18250000000E+03  0.18250000000E+03  0.00000000000E+00 0.  1.
         23    2    1    2    0    0  0.12571121984E+03  0.17494025550E+01  0.10428394090E+03  0.17971686993E+03  0.74944257994E+02 0.  0.
        -11    1    3    3    0    0  0.78112739345E+01 -0.23161288348E+02  0.88317211984E+01  0.25989624425E+02  0.00000000000E+00 0.  1.
         11    1    3    3    0    0  0.11789994590E+03  0.24910690903E+02  0.95452219701E+02  0.15372724551E+03  0.00000000000E+00 0. -1.
        -15    1    1    2    0    0  0.24461926218E+01 -0.53695106965E+01  0.11160718903E+02  0.12748916774E+02  0.17770000000E+01 0. -1.
         15    1    1    2    0    0 -0.12815741246E+03  0.36201081415E+01 -0.11544465980E+03  0.17253421329E+03  0.17770000000E+01 0.  1.
</event>
<event>
 7    1  0.6076911E-009  0.2535860E+03  0.7546771E-02  0.1022753E+00
        -11   -1    0    0    0    0  0.00000000000E+00  0.00000000000E+00  0.18250000000E+03  0.18250000000E+03  0.00000000000E+00 0. -1.
         11   -1    0    0    0    0 -0.00000000000E+00 -0.00000000000E+00 -0.18250000000E+03  0.18250000000E+03  0.00000000000E+00 0.  1.
         23    2    1    2    0    0  0.55650446051E+02  0.49953887474E+02  0.32547637641E+02  0.11141401320E+03  0.75903692933E+02 0.  0.
        -11    1    3    3    0    0  0.53681955551E+00  0.24137996194E+02  0.43333217846E+02  0.49605431199E+02  0.00000000000E+00 0. -1.
         11    1    3    3    0    0  0.55113626496E+02  0.25815891280E+02 -0.10785580206E+02  0.61808581997E+02  0.00000000000E+00 0.  1.
        -15    1    1    2    0    0 -0.88612860269E+02 -0.10525246273E+03  0.52179952051E+02  0.14716054172E+03  0.17770000000E+01 0. -1.
         15    1    1    2    0    0  0.32962414218E+02  0.55298575255E+02 -0.84727589692E+02  0.10642544508E+03  0.17770000000E+01 0.  1.
</event>
<event>
 7    1  0.6076911E-009  0.3650000E+03  0.7546771E-02  0.9765871E-01
        -11   -1    0    0    0    0  0.00000000000E+00  0.00000000000E+00  0.18250000000E+03  0.18250000000E+03  0.00000000000E+00 0.  1.
         11   -1    0    0    0    0 -0.00000000000E+00 -0.00000000000E+00 -0.18250000000E+03  0.18250000000E+03  0.00000000000E+00 0. -1.
         23    2    1    2    0    0 -0.32502776853E+02  0.69158755633E+01 -0.18728359729E+02  0.83663833270E+02  0.74462243461E+02 0.  0.
        -11    1    3    3    0    0  0.89481419228E+01  0.45066139107E+01 -0.36976588579E+02  0.38309880132E+02  0.00000000000E+00 0. -1.
         11    1    3    3    0    0 -0.41450918776E+02  0.24092616525E+01  0.18248228849E+02  0.45353953138E+02  0.00000000000E+00 0.  1.
        -15    1    1    2    0    0  0.95215212964E+02 -0.87561316215E+02  0.89267183830E+02  0.15717731616E+03  0.17770000000E+01 0.  1.
         15    1    1    2    0    0 -0.62712436111E+02  0.80645440652E+02 -0.70538824100E+02  0.12415885057E+03  0.17770000000E+01 0. -1.
</event>
<event>
 7    1  0.6076911E-009  0.3650000E+03  0.7546771E-02  0.9765871E-01
        -11   -1    0    0    0    0  0.00000000000E+00  0.00000000000E+00  0.18250000000E+03  0.18250000000E+03  0.00000000000E+00 0.  1.
         11   -1    0    0    0    0 -0.00000000000E+00 -0.00000000000E+00 -0.18250000000E+03  0.18250000000E+03  0.00000000000E+00 0. -1.
         23    2    1    2    0    0 -0.81153408932E+02 -0.60547378398E+02  0.12258436484E+02  0.12805956381E+03  0.77441086030E+02 0.  0.
        -11    1    3    3    0    0 -0.32035682014E+01 -0.47724003358E+02  0.10864084093E+02  0.49049685717E+02  0.00000000000E+00 0. -1.
         11    1    3    3    0    0 -0.77949840731E+02 -0.12823375040E+02  0.13943523910E+01  0.79009878091E+02  0.00000000000E+00 0.  1.
        -15    1    1    2    0    0 -0.41987977188E+02 -0.17413696805E+02 -0.67220070028E+02  0.81166018803E+02  0.17770000000E+01 0.  1.
         15    1    1    2    0    0  0.12314138612E+03  0.77961075202E+02  0.54961633544E+02  0.15577441739E+03  0.17770000000E+01 0. -1.
</event>
<event>
 7    1  0.6076911E-009  0.2724038E+03  0.7546771E-02  0.1013331E+00
        -11   -1    0    0    0    0  0.00000000000E+00  0.00000000000E+00  0.18250000000E+03  0.18250000000E+03  0.00000000000E+00 0.  1.
         11   -1    0    0    0    0 -0.00000000000E+00 -0.00000000000E+00 -0.18250000000E+03  0.18250000000E+03  0.00000000000E+00 0. -1.
         23    2    1    2    0    0 -0.43219605757E+02 -0.19918913759E+02 -0.46634370687E+02  0.92596206471E+02  0.64300820184E+02 0.  0.
        -11    1    3    3    0    0  0.50153673224E+01 -0.14720787540E+00 -0.39689818000E+02  0.40005714996E+02  0.00000000000E+00 0. -1.
         11    1    3    3    0    0 -0.48234973079E+02 -0.19771705884E+02 -0.69445526875E+01  0.52590491475E+02  0.00000000000E+00 0.  1.
        -15    1    1    2    0    0 -0.68545632880E+02 -0.64343750922E+02  0.85538616192E+02  0.12711661834E+03  0.17770000000E+01 0.  1.
         15    1    1    2    0    0  0.11176523864E+03  0.84262664681E+02 -0.38904245505E+02  0.14528717519E+03  0.17770000000E+01 0. -1.
</event>
<event>
 6    1  0.6076911E-009  0.1034754E+03  0.7546771E-02  0.1157936E+00
        -11   -1    0    0    0    0  0.00000000000E+00  0.00000000000E+00  0.18250000000E+03  0.18250000000E+03  0.00000000000E+00 0.  1.
         11   -1    0    0    0    0 -0.00000000000E+00 -0.00000000000E+00 -0.18250000000E+03  0.18250000000E+03  0.00000000000E+00 0. -1.
        -11    1    1    2    0    0 -0.16635171249E+02 -0.31975449316E+02  0.11039637600E+03  0.11613146910E+03  0.00000000000E+00 0.  1.
         11    1    1    2    0    0 -0.16959372979E+02  0.45896700018E+02 -0.13996951442E+02  0.50892455768E+02  0.00000000000E+00 0. -1.
        -15    1    1    2    0    0  0.10902515622E+02 -0.85090104690E+02 -0.87796667450E+02  0.12276238556E+03  0.17770000000E+01 0.  1.
         15    1    1    2    0    0  0.22692028606E+02  0.71168853989E+02 -0.86027571107E+01  0.75213689573E+02  0.17770000000E+01 0. -1.
</event>
<event>
 7    1  0.6076911E-009  0.3650000E+03  0.7546771E-02  0.9765871E-01
        -11   -1    0    0    0    0  0.00000000000E+00  0.00000000000E+00  0.18250000000E+03  0.18250000000E+03  0.00000000000E+00 0.  1.
         11   -1    0    0    0    0 -0.00000000000E+00 -0.00000000000E+00 -0.18250000000E+03  0.18250000000E+03  0.00000000000E+00 0. -1.
         23    2    1    2    0    0  0.35975968054E+02  0.40295645250E+02  0.16985274912E+02  0.88372526183E+02  0.67846846033E+02 0.  0.
        -11    1    3    3    0    0  0.14251099231E+02 -0.17683557353E+02 -0.38702566895E+01  0.23038683052E+02  0.00000000000E+00 0. -1.
         11    1    3    3    0    0  0.21724868822E+02  0.57979202603E+02  0.20855531602E+02  0.65333843130E+02  0.00000000000E+00 0.  1.
        -15    1    1    2    0    0  0.15706857135E+02  0.11308565840E+03 -0.42821994059E+01  0.11426533357E+03  0.17770000000E+01 0.  1.
         15    1    1    2    0    0 -0.51682825188E+02 -0.15338130365E+03 -0.12703075506E+02  0.16236214024E+03  0.17770000000E+01 0. -1.
</event>
<event>
 7    1  0.6076911E-009  0.3650000E+03  0.7546771E-02  0.9765871E-01
        -11   -1    0    0    0    0  0.00000000000E+00  0.00000000000E+00  0.18250000000E+03  0.18250000000E+03  0.00000000000E+00 0. -1.
         11   -1    0    0    0    0 -0.00000000000E+00 -0.00000000000E+00 -0.18250000000E+03  0.18250000000E+03  0.00000000000E+00 0. -1.
         23    2    1    2    0    0 -0.79872316751E+02  0.47318606656E+02 -0.49746262058E+02  0.14774684144E+03  0.10361371071E+03 0.  0.
        -11    1    3    3    0    0 -0.56761240654E+01 -0.26088131920E+02  0.87549350126E+01  0.28097293438E+02  0.00000000000E+00 0. -1.
         11    1    3    3    0    0 -0.74196192685E+02  0.73406738576E+02 -0.58501197070E+02  0.11964954800E+03  0.00000000000E+00 0. -1.
        -15    1    1    2    0    0  0.13483639565E+03 -0.68401183144E+02  0.24507152594E+02  0.15317745821E+03  0.17770000000E+01 0. -1.
         15    1    1    2    0    0 -0.54964078897E+02  0.21082576488E+02  0.25239109464E+02  0.64075700354E+02  0.17770000000E+01 0.  1.
</event>
<event>
 7    1  0.6076911E-009  0.2356287E+03  0.7546771E-02  0.1032608E+00
        -11   -1    0    0    0    0  0.00000000000E+00  0.00000000000E+00  0.18250000000E+03  0.18250000000E+03  0.00000000000E+00 0.  1.
         11   -1    0    0    0    0 -0.00000000000E+00 -0.00000000000E+00 -0.18250000000E+03  0.18250000000E+03  0.00000000000E+00 0. -1.
         23    2    1    2    0    0 -0.21584079131E+02  0.40627942956E+02  0.47755114505E+02  0.12937133753E+03  0.11108505656E+03 0.  0.
        -11    1    3    3    0    0 -0.26188522328E+02  0.77410939590E+02  0.23358533597E+02  0.84993607770E+02  0.00000000000E+00 0.  1.
         11    1    3    3    0    0  0.46044431973E+01 -0.36782996634E+02  0.24396580908E+02  0.44377729759E+02  0.00000000000E+00 0. -1.
        -15    1    1    2    0    0 -0.86769802823E+02  0.34921657385E+02 -0.44225811683E+02  0.10347753855E+03  0.17770000000E+01 0.  1.
         15    1    1    2    0    0  0.10835388195E+03 -0.75549600342E+02 -0.35293028214E+01  0.13215112392E+03  0.17770000000E+01 0. -1.
</event>
<event>
 7    1  0.6076911E-009  0.1883064E+03  0.7546771E-02  0.1063925E+00
        -11   -1    0    0    0    0  0.00000000000E+00  0.00000000000E+00  0.18250000000E+03  0.18250000000E+03  0.00000000000E+00 0.  1.
         11   -1    0    0    0    0 -0.00000000000E+00 -0.00000000000E+00 -0.18250000000E+03  0.18250000000E+03  0.00000000000E+00 0. -1.
         23    2    1    2    0    0  0.99241244688E+02 -0.80632087721E+02  0.22593797095E+02  0.17669363398E+03  0.11983239296E+03 0.  0.
        -11    1    3    3    0    0  0.93257129647E+02 -0.39303610867E+02  0.62489647576E+02  0.11893957336E+03  0.00000000000E+00 0.  1.
         11    1    3    3    0    0  0.59841150411E+01 -0.41328476854E+02 -0.39895850482E+02  0.57754060615E+02  0.00000000000E+00 0. -1.
        -15    1    1    2    0    0 -0.12794152076E+03  0.78022334200E+02  0.27457180270E+01  0.14989067371E+03  0.17770000000E+01 0.  1.
         15    1    1    2    0    0  0.28700276075E+02  0.26097535204E+01 -0.25339515122E+02  0.38415692312E+02  0.17770000000E+01 0. -1.
</event>
<event>
 7    1  0.6076911E-009  0.3650000E+03  0.7546771E-02  0.9765871E-01
        -11   -1    0    0    0    0  0.00000000000E+00  0.00000000000E+00  0.18250000000E+03  0.18250000000E+03  0.00000000000E+00 0.  1.
         11   -1    0    0    0    0 -0.00000000000E+00 -0.00000000000E+00 -0.18250000000E+03  0.18250000000E+03  0.00000000000E+00 0. -1.
         23    2    1    2    0    0  0.73524679441E+02 -0.74091817744E+02  0.79252964501E+02  0.14814303507E+03  0.69064104378E+02 0.  0.
        -11    1    3    3    0    0  0.43939878183E+02 -0.53367158007E+02  0.87079981391E+02  0.11118313545E+03  0.00000000000E+00 0.  1.
         11    1    3    3    0    0  0.29584801258E+02 -0.20724659738E+02 -0.78270168901E+01  0.36959899623E+02  0.00000000000E+00 0. -1.
        -15    1    1    2    0    0 -0.36194743721E+02 -0.11969765309E+02  0.46374612627E+02  0.60059114046E+02  0.17770000000E+01 0.  1.
         15    1    1    2    0    0 -0.37329935719E+02  0.86061583053E+02 -0.12562757713E+03  0.15679785089E+03  0.17770000000E+01 0. -1.
</event>
<event>
 7    1  0.6076911E-009  0.2471885E+03  0.7546771E-02  0.1026160E+00
        -11   -1    0    0    0    0  0.00000000000E+00  0.00000000000E+00  0.18250000000E+03  0.18250000000E+03  0.00000000000E+00 0. -1.
         11   -1    0    0    0    0 -0.00000000000E+00 -0.00000000000E+00 -0.18250000000E+03  0.18250000000E+03  0.00000000000E+00 0.  1.
         23    2    1    2    0    0  0.14962446424E+02 -0.39945932007E+02 -0.76543631091E+02  0.11781151370E+03  0.78746892089E+02 0.  0.
        -11    1    3    3    0    0  0.14278729847E+02  0.46900810465E+01 -0.71296017160E+02  0.72862892127E+02  0.00000000000E+00 0.  1.
         11    1    3    3    0    0  0.68371657640E+00 -0.44636013053E+02 -0.52476139311E+01  0.44948621576E+02  0.00000000000E+00 0. -1.
        -15    1    1    2    0    0 -0.66474126402E+02 -0.73792091892E+02  0.71175470572E+02  0.12220142244E+03  0.17770000000E+01 0. -1.
         15    1    1    2    0    0  0.51511679978E+02  0.11373802390E+03  0.53681605195E+01  0.12498706385E+03  0.17770000000E+01 0.  1.
</event>
<event>
 7    1  0.6076911E-009  0.1891953E+03  0.7546771E-02  0.1063247E+00
        -11   -1    0    0    0    0  0.00000000000E+00  0.00000000000E+00  0.18250000000E+03  0.18250000000E+03  0.00000000000E+00 0. -1.
         11   -1    0    0    0    0 -0.00000000000E+00 -0.00000000000E+00 -0.18250000000E+03  0.18250000000E+03  0.00000000000E+00 0.  1.
         23    2    1    2    0    0  0.59475501468E+02 -0.39244141600E+02 -0.11406653067E+03  0.17580465933E+03  0.11321955175E+03 0.  0.
        -11    1    3    3    0    0 -0.31573521209E+02 -0.16737225976E+02 -0.13263290858E+02  0.38117408874E+02  0.00000000000E+00 0. -1.
         11    1    3    3    0    0  0.91049022677E+02 -0.22506915624E+02 -0.10080323981E+03  0.13768725046E+03  0.00000000000E+00 0.  1.
        -15    1    1    2    0    0 -0.55477302343E+02  0.86805702003E+02  0.74029656108E+02  0.12687201696E+03  0.17770000000E+01 0. -1.
         15    1    1    2    0    0 -0.39981991250E+01 -0.47561560403E+02  0.40036874563E+02  0.62323323708E+02  0.17770000000E+01 0.  1.
</event>
<event>
 7    1  0.6076911E-009  0.2684545E+03  0.7546771E-02  0.1015239E+00
        -11   -1    0    0    0    0  0.00000000000E+00  0.00000000000E+00  0.18250000000E+03  0.18250000000E+03  0.00000000000E+00 0.  1.
         11   -1    0    0    0    0 -0.00000000000E+00 -0.00000000000E+00 -0.18250000000E+03  0.18250000000E+03  0.00000000000E+00 0. -1.
         23    2    1    2    0    0  0.17425771526E+02 -0.35500518863E+02  0.38986308784E+02  0.96545521857E+02  0.78975699841E+02 0.  0.
        -11    1    3    3    0    0  0.37647586497E+02 -0.55132633275E+01 -0.63226510613E+01  0.38570879663E+02  0.00000000000E+00 0. -1.
         11    1    3    3    0    0 -0.20221814971E+02 -0.29987255535E+02  0.45308959846E+02  0.57974642194E+02  0.00000000000E+00 0.  1.
        -15    1    1    2    0    0  0.24089142882E+02 -0.10768325644E+03 -0.45145127259E+02  0.11923594578E+03  0.17770000000E+01 0.  1.
         15    1    1    2    0    0 -0.41514914408E+02  0.14318377530E+03  0.61588184748E+01  0.14921853236E+03  0.17770000000E+01 0. -1.
</event>
<event>
 7    1  0.6076911E-009  0.2028685E+03  0.7546771E-02  0.1053306E+00
        -11   -1    0    0    0    0  0.00000000000E+00  0.00000000000E+00  0.18250000000E+03  0.18250000000E+03  0.00000000000E+00 0. -1.
         11   -1    0    0    0    0 -0.00000000000E+00 -0.00000000000E+00 -0.18250000000E+03  0.18250000000E+03  0.00000000000E+00 0.  1.
         23    2    1    2    0    0  0.91913604746E+02  0.92816259956E+02 -0.57403599313E+02  0.16213146322E+03  0.76996553834E+02 0.  0.
        -11    1    3    3    0    0  0.30795496814E+02 -0.14285066105E+01  0.83947285866E+01  0.31951130233E+02  0.00000000000E+00 0. -1.
         11    1    3    3    0    0  0.61118107932E+02  0.94244766566E+02 -0.65798327899E+02  0.13018033299E+03  0.00000000000E+00 0.  1.
        -15    1    1    2    0    0  0.13135864460E+02 -0.55330775646E+02  0.70450828075E+02  0.90556736769E+02  0.17770000000E+01 0. -1.
         15    1    1    2    0    0 -0.10504946921E+03 -0.37485484310E+02 -0.13047228763E+02  0.11231180001E+03  0.17770000000E+01 0.  1.
</event>
<event>
 7    1  0.6076911E-009  0.2191598E+03  0.7546771E-02  0.1042522E+00
        -11   -1    0    0    0    0  0.00000000000E+00  0.00000000000E+00  0.18250000000E+03  0.18250000000E+03  0.00000000000E+00 0. -1.
         11   -1    0    0    0    0 -0.00000000000E+00 -0.00000000000E+00 -0.18250000000E+03  0.18250000000E+03  0.00000000000E+00 0.  1.
         23    2    1    2    0    0 -0.87970011676E+02  0.42718332717E+02  0.76441588669E+02  0.14584015056E+03  0.76566664625E+02 0.  0.
        -11    1    3    3    0    0 -0.46285590724E+02 -0.12379439693E+02  0.79737789686E+01  0.48571468856E+02  0.00000000000E+00 0.  1.
         11    1    3    3    0    0 -0.41684420952E+02  0.55097772410E+02  0.68467809701E+02  0.97268681701E+02  0.00000000000E+00 0. -1.
        -15    1    1    2    0    0  0.10796176452E+02  0.54979010658E+02 -0.76258834048E+02  0.94645742314E+02  0.17770000000E+01 0. -1.
         15    1    1    2    0    0  0.77173835224E+02 -0.97697343375E+02 -0.18275462158E+00  0.12451410713E+03  0.17770000000E+01 0.  1.
</event>
<event>
 7    1  0.6076911E-009  0.3650000E+03  0.7546771E-02  0.9765871E-01
        -11   -1    0    0    0    0  0.00000000000E+00  0.00000000000E+00  0.18250000000E+03  0.18250000000E+03  0.00000000000E+00 0.  1.
         11   -1    0    0    0    0 -0.00000000000E+00 -0.00000000000E+00 -0.18250000000E+03  0.18250000000E+03  0.00000000000E+00 0. -1.
         23    2    1    2    0    0 -0.13277518326E+02 -0.17142595913E+02 -0.20772257293E+02  0.78257420372E+02  0.72267392943E+02 0.  0.
        -11    1    3    3    0    0  0.18189778115E+02 -0.34448887089E+02 -0.59570454122E+01  0.39409139037E+02  0.00000000000E+00 0.  1.
         11    1    3    3    0    0 -0.31467296442E+02  0.17306291177E+02 -0.14815211881E+02  0.38848281335E+02  0.00000000000E+00 0. -1.
        -15    1    1    2    0    0  0.70860359411E+01  0.18700874641E+02  0.15301868595E+03  0.15433019989E+03  0.17770000000E+01 0.  1.
         15    1    1    2    0    0  0.61914823852E+01 -0.15582787285E+01 -0.13224642866E+03  0.13241237974E+03  0.17770000000E+01 0. -1.
</event>
<event>
 7    1  0.6076911E-009  0.3650000E+03  0.7546771E-02  0.9765871E-01
        -11   -1    0    0    0    0  0.00000000000E+00  0.00000000000E+00  0.18250000000E+03  0.18250000000E+03  0.00000000000E+00 0.  1.
         11   -1    0    0    0    0 -0.00000000000E+00 -0.00000000000E+00 -0.18250000000E+03  0.18250000000E+03  0.00000000000E+00 0. -1.
         23    2    1    2    0    0  0.37559324543E+02  0.28128952342E+02 -0.76292032189E+02  0.11585295955E+03  0.73481244152E+02 0.  0.
        -11    1    3    3    0    0 -0.10528151838E+01 -0.13931229813E+02  0.63979150210E+01  0.15366225969E+02  0.00000000000E+00 0.  1.
         11    1    3    3    0    0  0.38612139726E+02  0.42060182155E+02 -0.82689947210E+02  0.10048673359E+03  0.00000000000E+00 0. -1.
        -15    1    1    2    0    0 -0.35133302094E+01 -0.27750874135E+02 -0.82294600277E+02  0.86936836083E+02  0.17770000000E+01 0. -1.
         15    1    1    2    0    0 -0.34045994333E+02 -0.37807820748E+00  0.15858663247E+03  0.16221020436E+03  0.17770000000E+01 0.  1.
</event>
<event>
 7    1  0.6076911E-009  0.2012332E+03  0.7546771E-02  0.1054450E+00
        -11   -1    0    0    0    0  0.00000000000E+00  0.00000000000E+00  0.18250000000E+03  0.18250000000E+03  0.00000000000E+00 0.  1.
         11   -1    0    0    0    0 -0.00000000000E+00 -0.00000000000E+00 -0.18250000000E+03  0.18250000000E+03  0.00000000000E+00 0.  1.
         23    2    1    2    0    0 -0.14296064373E+03  0.10374513551E+02 -0.38591177177E+02  0.16376678492E+03  0.69173005555E+02 0.  0.
        -11    1    3    3    0    0 -0.23768390310E+02  0.27130838329E+02  0.35375120551E+01  0.36242692476E+02  0.00000000000E+00 0.  1.
         11    1    3    3    0    0 -0.11919225342E+03 -0.16756324778E+02 -0.42128689232E+02  0.12752409244E+03  0.00000000000E+00 0.  1.
        -15    1    1    2    0    0 -0.12692996996E+02  0.24647179740E+02 -0.16647962452E+02  0.32386849564E+02  0.17770000000E+01 0. -1.
         15    1    1    2    0    0  0.15565364073E+03 -0.35021693291E+02  0.55239139629E+02  0.16884636552E+03  0.17770000000E+01 0.  1.
</event>
<event>
 7    1  0.6076911E-009  0.1889440E+03  0.7546771E-02  0.1063438E+00
        -11   -1    0    0    0    0  0.00000000000E+00  0.00000000000E+00  0.18250000000E+03  0.18250000000E+03  0.00000000000E+00 0.  1.
         11   -1    0    0    0    0 -0.00000000000E+00 -0.00000000000E+00 -0.18250000000E+03  0.18250000000E+03  0.00000000000E+00 0. -1.
         23    2    1    2    0    0  0.94428217969E+02 -0.12744145165E+02  0.11694996073E+03  0.18894399761E+03  0.11376923720E+03 0.  0.
        -11    1    3    3    0    0  0.78326639500E+02 -0.46571419362E+02  0.32831548343E+02  0.96860054323E+02  0.00000000000E+00 0.  1.
         11    1    3    3    0    0  0.16101578469E+02  0.33827274197E+02  0.84118412385E+02  0.92083943285E+02  0.00000000000E+00 0. -1.
        -15    1    1    2    0    0  0.91590658339E+01  0.20578355948E+02 -0.42845421727E+02  0.48438054383E+02  0.17770000000E+01 0.  1.
         15    1    1    2    0    0 -0.10358728380E+03 -0.78342107832E+01 -0.74104539002E+02  0.12761794801E+03  0.17770000000E+01 0. -1.
</event>
<event>
 7    1  0.6076911E-009  0.3650000E+03  0.7546771E-02  0.9765871E-01
        -11   -1    0    0    0    0  0.00000000000E+00  0.00000000000E+00  0.18250000000E+03  0.18250000000E+03  0.00000000000E+00 0. -1.
         11   -1    0    0    0    0 -0.00000000000E+00 -0.00000000000E+00 -0.18250000000E+03  0.18250000000E+03  0.00000000000E+00 0.  1.
         23    2    1    2    0    0 -0.43310713330E+01 -0.82269153287E+02 -0.13284644808E+03  0.16639444896E+03  0.57025977543E+02 0.  0.
        -11    1    3    3    0    0 -0.63406576807E+01 -0.89849496166E+02 -0.12977872497E+03  0.15797358436E+03  0.00000000000E+00 0.  1.
         11    1    3    3    0    0  0.20095863476E+01  0.75803428798E+01 -0.30677231117E+01  0.84208645966E+01  0.00000000000E+00 0. -1.
        -15    1    1    2    0    0  0.12618746828E+02  0.11312662597E+03  0.11563663289E+03  0.16227093045E+03  0.17770000000E+01 0. -1.
         15    1    1    2    0    0 -0.82876754953E+01 -0.30857472682E+02  0.17209815196E+02  0.36334620591E+02  0.17770000000E+01 0.  1.
</event>
<event>
 6    1  0.6076911E-009  0.1254608E+03  0.7546771E-02  0.1125884E+00
        -11   -1    0    0    0    0  0.00000000000E+00  0.00000000000E+00  0.18250000000E+03  0.18250000000E+03  0.00000000000E+00 0. -1.
         11   -1    0    0    0    0 -0.00000000000E+00 -0.00000000000E+00 -0.18250000000E+03  0.18250000000E+03  0.00000000000E+00 0.  1.
        -11    1    1    2    0    0 -0.59809012552E+01 -0.46011986777E+02  0.23713516486E+01  0.46459632108E+02  0.00000000000E+00 0. -1.
         11    1    1    2    0    0 -0.58033110559E+02  0.72566131829E+02 -0.64862882325E+02  0.11331760196E+03  0.00000000000E+00 0.  1.
        -15    1    1    2    0    0  0.63370239064E+02 -0.53160739702E+02  0.11772287399E+03  0.14388774873E+03  0.17770000000E+01 0. -1.
         15    1    1    2    0    0  0.64377274962E+00  0.26606594649E+02 -0.55231343315E+02  0.61335017205E+02  0.17770000000E+01 0.  1.
</event>
