<event>
 6    1  0.6814623E-005  0.1350364E+03  0.7546771E-02  0.1114120E+00
        -11   -1    0    0    0    0  0.00000000000E+00  0.00000000000E+00  0.18250000000E+03  0.18250000000E+03  0.00000000000E+00 0. -1.
         11   -1    0    0    0    0 -0.00000000000E+00 -0.00000000000E+00 -0.18250000000E+03  0.18250000000E+03  0.00000000000E+00 0.  1.
        -11    1    1    2    0    0  0.12399292512E+02 -0.10468968080E+03  0.12620679905E+03  0.16444399608E+03  0.00000000000E+00 0. -1.
         11    1    1    2    0    0  0.32394039758E+02  0.52668781074E+02 -0.97751058668E+02  0.11566608743E+03  0.00000000000E+00 0.  1.
        -15    1    1    2    0    0 -0.47496517114E+01 -0.69420361335E+01 -0.18753596322E+01  0.87991908611E+01  0.17770000000E+01 0.  1.
         15    1    1    2    0    0 -0.40043680559E+02  0.58962935854E+02 -0.26580380746E+02  0.76090725629E+02  0.17770000000E+01 0. -1.
</event>
<event>
 6    1  0.6814623E-005  0.1676537E+03  0.7546771E-02  0.1080928E+00
        -11   -1    0    0    0    0  0.00000000000E+00  0.00000000000E+00  0.18250000000E+03  0.18250000000E+03  0.00000000000E+00 0. -1.
         11   -1    0    0    0    0 -0.00000000000E+00 -0.00000000000E+00 -0.18250000000E+03  0.18250000000E+03  0.00000000000E+00 0.  1.
        -11    1    1    2    0    0 -0.51247564449E+01  0.16091792251E+03  0.50853698496E+02  0.16883998212E+03  0.00000000000E+00 0. -1.
         11    1    1    2    0    0  0.22099286289E+02 -0.16279647294E+03 -0.32218244353E+02  0.16741889179E+03  0.00000000000E+00 0.  1.
        -15    1    1    2    0    0 -0.66184798093E+00 -0.25337740881E+01 -0.82267413292E+01  0.88144798926E+01  0.17770000000E+01 0.  1.
         15    1    1    2    0    0 -0.16312681864E+02  0.44123245253E+01 -0.10408712814E+02  0.19926646199E+02  0.17770000000E+01 0. -1.
</event>
<event>
 6    1  0.6814623E-005  0.1846640E+03  0.7546771E-02  0.1066745E+00
        -11   -1    0    0    0    0  0.00000000000E+00  0.00000000000E+00  0.18250000000E+03  0.18250000000E+03  0.00000000000E+00 0. -1.
         11   -1    0    0    0    0 -0.00000000000E+00 -0.00000000000E+00 -0.18250000000E+03  0.18250000000E+03  0.00000000000E+00 0.  1.
        -11    1    1    2    0    0  0.16628411628E+02 -0.15563234782E+03  0.89572083543E+02  0.18033604718E+03  0.00000000000E+00 0. -1.
         11    1    1    2    0    0 -0.15080944608E+02  0.12867972177E+03 -0.78071913401E+02  0.15126509626E+03  0.00000000000E+00 0.  1.
        -15    1    1    2    0    0  0.51186968240E+01  0.14748275060E+02 -0.74593032188E+00  0.15729806594E+02  0.17770000000E+01 0.  1.
         15    1    1    2    0    0 -0.66661638447E+01  0.12204350992E+02 -0.10754239820E+02  0.17669049964E+02  0.17770000000E+01 0. -1.
</event>
<event>
 6    1  0.6814623E-005  0.1214265E+03  0.7546771E-02  0.1131193E+00
        -11   -1    0    0    0    0  0.00000000000E+00  0.00000000000E+00  0.18250000000E+03  0.18250000000E+03  0.00000000000E+00 0.  1.
         11   -1    0    0    0    0 -0.00000000000E+00 -0.00000000000E+00 -0.18250000000E+03  0.18250000000E+03  0.00000000000E+00 0. -1.
        -11    1    1    2    0    0  0.52980470086E+02 -0.84199880729E+02  0.92545434435E+02  0.13587202641E+03  0.00000000000E+00 0.  1.
         11    1    1    2    0    0  0.18567618277E+02  0.35808369309E+02 -0.17140568744E+02  0.43826873696E+02  0.00000000000E+00 0. -1.
        -15    1    1    2    0    0  0.43553033667E+02  0.14593880074E+02 -0.37973279897E+02  0.59623617740E+02  0.17770000000E+01 0.  1.
         15    1    1    2    0    0 -0.11510112203E+03  0.33797631347E+02 -0.37431585794E+02  0.12567748216E+03  0.17770000000E+01 0. -1.
</event>
<event>
 6    1  0.6814623E-005  0.1844233E+03  0.7546771E-02  0.1066934E+00
        -11   -1    0    0    0    0  0.00000000000E+00  0.00000000000E+00  0.18250000000E+03  0.18250000000E+03  0.00000000000E+00 0. -1.
         11   -1    0    0    0    0 -0.00000000000E+00 -0.00000000000E+00 -0.18250000000E+03  0.18250000000E+03  0.00000000000E+00 0.  1.
        -11    1    1    2    0    0 -0.93244199344E+01 -0.93059723830E+02  0.99766632048E+02  0.13674954434E+03  0.00000000000E+00 0. -1.
         11    1    1    2    0    0  0.73634696340E+01  0.11122808456E+03 -0.14206349922E+03  0.18057670196E+03  0.00000000000E+00 0.  1.
        -15    1    1    2    0    0 -0.12862976682E+01  0.10434587153E+01  0.47334038175E+01  0.53203579280E+01  0.17770000000E+01 0. -1.
         15    1    1    2    0    0  0.32472479686E+01 -0.19211819448E+02  0.37563463351E+02  0.42353395776E+02  0.17770000000E+01 0.  1.
</event>
<event>
 6    1  0.6814623E-005  0.1857231E+03  0.7546771E-02  0.1065918E+00
        -11   -1    0    0    0    0  0.00000000000E+00  0.00000000000E+00  0.18250000000E+03  0.18250000000E+03  0.00000000000E+00 0.  1.
         11   -1    0    0    0    0 -0.00000000000E+00 -0.00000000000E+00 -0.18250000000E+03  0.18250000000E+03  0.00000000000E+00 0.  1.
        -11    1    1    2    0    0 -0.63496061197E+01 -0.69944922876E+02  0.16494729307E+03  0.17927693445E+03  0.00000000000E+00 0.  1.
         11    1    1    2    0    0  0.76602030576E+01  0.57396689000E+02 -0.76061405201E+02  0.95594957922E+02  0.00000000000E+00 0.  1.
        -15    1    1    2    0    0 -0.81386481013E-01  0.96063040705E+01 -0.78775359203E+02  0.79378855170E+02  0.17770000000E+01 0.  1.
         15    1    1    2    0    0 -0.12292104569E+01  0.29419298053E+01 -0.10110528671E+02  0.10749252455E+02  0.17770000000E+01 0.  1.
</event>
<event>
 6    1  0.6814623E-005  0.1932913E+03  0.7546771E-02  0.1060175E+00
        -11   -1    0    0    0    0  0.00000000000E+00  0.00000000000E+00  0.18250000000E+03  0.18250000000E+03  0.00000000000E+00 0. -1.
         11   -1    0    0    0    0 -0.00000000000E+00 -0.00000000000E+00 -0.18250000000E+03  0.18250000000E+03  0.00000000000E+00 0.  1.
        -11    1    1    2    0    0 -0.24660885663E+02 -0.32034273340E+02 -0.70836956401E+02  0.81561193850E+02  0.00000000000E+00 0. -1.
         11    1    1    2    0    0  0.30255166752E+02  0.38959741778E+02 -0.10025157054E+03  0.11173009438E+03  0.00000000000E+00 0.  1.
        -15    1    1    2    0    0 -0.31298116460E+01 -0.49940063333E+01  0.32759582098E+02  0.33332923190E+02  0.17770000000E+01 0.  1.
         15    1    1    2    0    0 -0.24644694433E+01 -0.19314621042E+01  0.13832894484E+03  0.13837578858E+03  0.17770000000E+01 0. -1.
</event>
