<event>
 6    1  0.1289981E-005  0.5141424E+03  0.7546771E-02  0.9368710E-01
        -11   -1    0    0    0    0  0.00000000000E+00  0.00000000000E+00  0.50000000000E+03  0.50000000000E+03  0.00000000000E+00 0. -1.
         11   -1    0    0    0    0 -0.00000000000E+00 -0.00000000000E+00 -0.50000000000E+03  0.50000000000E+03  0.00000000000E+00 0.  1.
        -11    1    1    2    0    0 -0.34092763193E+02  0.87235433465E+02  0.12377344867E+03  0.15521663554E+03  0.00000000000E+00 0. -1.
         11    1    1    2    0    0  0.16765821821E+02 -0.64413032391E+02 -0.48127696684E+03  0.48585764411E+03  0.00000000000E+00 0.  1.
        -15    1    1    2    0    0 -0.19258577687E+01 -0.11157629525E+01  0.33392327377E+02  0.33513566085E+02  0.17770000000E+01 0. -1.
         15    1    1    2    0    0  0.19252799141E+02 -0.21706638122E+02  0.32411119080E+03  0.32541215427E+03  0.17770000000E+01 0. -1.
</event>
<event>
 6    1  0.1289981E-005  0.5102885E+03  0.7546771E-02  0.9377078E-01
        -11   -1    0    0    0    0  0.00000000000E+00  0.00000000000E+00  0.50000000000E+03  0.50000000000E+03  0.00000000000E+00 0.  1.
         11   -1    0    0    0    0 -0.00000000000E+00 -0.00000000000E+00 -0.50000000000E+03  0.50000000000E+03  0.00000000000E+00 0. -1.
        -11    1    1    2    0    0  0.73003057518E+02  0.37066914816E+02  0.57692381792E+02  0.10015894118E+03  0.00000000000E+00 0.  1.
         11    1    1    2    0    0 -0.19292241098E+03 -0.16198055911E+03 -0.41995306976E+03  0.48971148546E+03  0.00000000000E+00 0. -1.
        -15    1    1    2    0    0  0.17850962530E+01  0.37679600360E+02  0.35271394748E+02  0.51673667069E+02  0.17770000000E+01 0. -1.
         15    1    1    2    0    0  0.11813425721E+03  0.87234043936E+02  0.32698929322E+03  0.35845590629E+03  0.17770000000E+01 0.  1.
</event>
<event>
 6    1  0.1289981E-005  0.3617799E+03  0.7546771E-02  0.9776600E-01
        -11   -1    0    0    0    0  0.00000000000E+00  0.00000000000E+00  0.50000000000E+03  0.50000000000E+03  0.00000000000E+00 0. -1.
         11   -1    0    0    0    0 -0.00000000000E+00 -0.00000000000E+00 -0.50000000000E+03  0.50000000000E+03  0.00000000000E+00 0. -1.
        -11    1    1    2    0    0  0.27500960215E+03  0.14750726984E+03  0.88329373294E+02  0.32433124135E+03  0.00000000000E+00 0. -1.
         11    1    1    2    0    0 -0.30062189387E+03 -0.67668095971E+02 -0.30989995531E+03  0.43702457207E+03  0.00000000000E+00 0. -1.
        -15    1    1    2    0    0  0.25921750476E+02 -0.80518705891E+02  0.22098791067E+03  0.23663054228E+03  0.17770000000E+01 0. -1.
         15    1    1    2    0    0 -0.30945875462E+00  0.67953202487E+00  0.58267134662E+00  0.20136443062E+01  0.17770000000E+01 0.  1.
</event>
<event>
 6    1  0.1289981E-005  0.4558253E+03  0.7546771E-02  0.9504469E-01
        -11   -1    0    0    0    0  0.00000000000E+00  0.00000000000E+00  0.50000000000E+03  0.50000000000E+03  0.00000000000E+00 0. -1.
         11   -1    0    0    0    0 -0.00000000000E+00 -0.00000000000E+00 -0.50000000000E+03  0.50000000000E+03  0.00000000000E+00 0. -1.
        -11    1    1    2    0    0  0.20617445936E+02 -0.65832175184E+02  0.46067240463E+03  0.46580899385E+03  0.00000000000E+00 0. -1.
         11    1    1    2    0    0 -0.47370500011E+02  0.17963183278E+02 -0.44475200780E+03  0.44762818127E+03  0.00000000000E+00 0. -1.
        -15    1    1    2    0    0  0.11917826491E+02  0.25001187926E+02 -0.40979720161E+02  0.49493324595E+02  0.17770000000E+01 0.  1.
         15    1    1    2    0    0  0.14835227584E+02  0.22867803980E+02  0.25059323335E+02  0.37069500284E+02  0.17770000000E+01 0. -1.
</event>
<event>
 6    1  0.1289981E-005  0.4248170E+03  0.7546771E-02  0.9585789E-01
        -11   -1    0    0    0    0  0.00000000000E+00  0.00000000000E+00  0.50000000000E+03  0.50000000000E+03  0.00000000000E+00 0.  1.
         11   -1    0    0    0    0 -0.00000000000E+00 -0.00000000000E+00 -0.50000000000E+03  0.50000000000E+03  0.00000000000E+00 0.  1.
        -11    1    1    2    0    0  0.46222692047E+02 -0.15999576387E+03  0.32410762751E+02  0.16966331147E+03  0.00000000000E+00 0.  1.
         11    1    1    2    0    0 -0.97388949662E+02  0.99611336948E+02 -0.39610867066E+03  0.41989177765E+03  0.00000000000E+00 0.  1.
        -15    1    1    2    0    0  0.94996651725E+02  0.59065964441E+02  0.34509872459E+03  0.36278015303E+03  0.17770000000E+01 0.  1.
         15    1    1    2    0    0 -0.43830394110E+02  0.13184624842E+01  0.18599183322E+02  0.47664757845E+02  0.17770000000E+01 0. -1.
</event>
<event>
 6    1  0.1289981E-005  0.4953059E+03  0.7546771E-02  0.9410375E-01
        -11   -1    0    0    0    0  0.00000000000E+00  0.00000000000E+00  0.50000000000E+03  0.50000000000E+03  0.00000000000E+00 0. -1.
         11   -1    0    0    0    0 -0.00000000000E+00 -0.00000000000E+00 -0.50000000000E+03  0.50000000000E+03  0.00000000000E+00 0.  1.
        -11    1    1    2    0    0 -0.26727522290E+02  0.14461841246E+03  0.47339738617E+03  0.49571557460E+03  0.00000000000E+00 0. -1.
         11    1    1    2    0    0  0.34334582979E+02 -0.14141687072E+03 -0.47305257104E+03  0.49493063138E+03  0.00000000000E+00 0.  1.
        -15    1    1    2    0    0 -0.57526459979E+01 -0.28791896974E+01  0.31907852467E+00  0.66814825746E+01  0.17770000000E+01 0.  1.
         15    1    1    2    0    0 -0.18544146905E+01 -0.32235204821E+00 -0.66389365542E+00  0.26723114476E+01  0.17770000000E+01 0.  1.
</event>
<event>
 6    1  0.1289981E-005  0.5200810E+03  0.7546771E-02  0.9355965E-01
        -11   -1    0    0    0    0  0.00000000000E+00  0.00000000000E+00  0.50000000000E+03  0.50000000000E+03  0.00000000000E+00 0.  1.
         11   -1    0    0    0    0 -0.00000000000E+00 -0.00000000000E+00 -0.50000000000E+03  0.50000000000E+03  0.00000000000E+00 0. -1.
        -11    1    1    2    0    0 -0.67622007423E+02 -0.95423084308E+02  0.15886853312E+03  0.19727521822E+03  0.00000000000E+00 0.  1.
         11    1    1    2    0    0  0.55407366963E+02  0.35572657786E+02 -0.47538078174E+03  0.47991903270E+03  0.00000000000E+00 0. -1.
        -15    1    1    2    0    0  0.73817696423E+01  0.11915929992E+02  0.49542117860E+02  0.51517560906E+02  0.17770000000E+01 0. -1.
         15    1    1    2    0    0  0.48328708180E+01  0.47934496529E+02  0.26697013076E+03  0.27128818818E+03  0.17770000000E+01 0.  1.
</event>
<event>
 6    1  0.1289981E-005  0.5148496E+03  0.7546771E-02  0.9367182E-01
        -11   -1    0    0    0    0  0.00000000000E+00  0.00000000000E+00  0.50000000000E+03  0.50000000000E+03  0.00000000000E+00 0. -1.
         11   -1    0    0    0    0 -0.00000000000E+00 -0.00000000000E+00 -0.50000000000E+03  0.50000000000E+03  0.00000000000E+00 0. -1.
        -11    1    1    2    0    0 -0.17390142219E+02  0.19935305814E+03  0.26512903761E+03  0.33217083770E+03  0.00000000000E+00 0. -1.
         11    1    1    2    0    0  0.16843833825E+02 -0.18702897738E+03 -0.44733358546E+03  0.48515037854E+03  0.00000000000E+00 0. -1.
        -15    1    1    2    0    0 -0.48264556829E+00 -0.72598819256E+01  0.12059427993E+03  0.12082663992E+03  0.17770000000E+01 0. -1.
         15    1    1    2    0    0  0.10289539628E+01 -0.50641988307E+01  0.61610267918E+02  0.61852143843E+02  0.17770000000E+01 0. -1.
</event>
<event>
 6    1  0.1289981E-005  0.5221880E+03  0.7546771E-02  0.9351487E-01
        -11   -1    0    0    0    0  0.00000000000E+00  0.00000000000E+00  0.50000000000E+03  0.50000000000E+03  0.00000000000E+00 0. -1.
         11   -1    0    0    0    0 -0.00000000000E+00 -0.00000000000E+00 -0.50000000000E+03  0.50000000000E+03  0.00000000000E+00 0. -1.
        -11    1    1    2    0    0  0.28979092296E+03 -0.14003720908E+03  0.81544567688E+02  0.33202216113E+03  0.00000000000E+00 0. -1.
         11    1    1    2    0    0 -0.42060875358E+03  0.89581460866E+02 -0.20824927485E+03  0.47781201554E+03  0.00000000000E+00 0. -1.
        -15    1    1    2    0    0  0.29407810453E+01  0.21156443441E+01  0.43759484618E+00  0.40587390156E+01  0.17770000000E+01 0. -1.
         15    1    1    2    0    0  0.12787704957E+03  0.48340103874E+02  0.12626711232E+03  0.18610708432E+03  0.17770000000E+01 0.  1.
</event>
<event>
 6    1  0.1289981E-005  0.5007128E+03  0.7546771E-02  0.9398216E-01
        -11   -1    0    0    0    0  0.00000000000E+00  0.00000000000E+00  0.50000000000E+03  0.50000000000E+03  0.00000000000E+00 0.  1.
         11   -1    0    0    0    0 -0.00000000000E+00 -0.00000000000E+00 -0.50000000000E+03  0.50000000000E+03  0.00000000000E+00 0.  1.
        -11    1    1    2    0    0 -0.81298279263E+01 -0.59053297498E+01  0.28916677796E+02  0.30612763291E+02  0.00000000000E+00 0.  1.
         11    1    1    2    0    0  0.20489194105E+02  0.91026940519E+01 -0.49878353377E+03  0.49928717155E+03  0.00000000000E+00 0.  1.
        -15    1    1    2    0    0 -0.36512789480E+01  0.19772994770E+00  0.24272858580E+03  0.24276263104E+03  0.17770000000E+01 0. -1.
         15    1    1    2    0    0 -0.87080872310E+01 -0.33950942498E+01  0.22713827017E+03  0.22733743412E+03  0.17770000000E+01 0.  1.
</event>
<event>
 6    1  0.1289981E-005  0.4437933E+03  0.7546771E-02  0.9535181E-01
        -11   -1    0    0    0    0  0.00000000000E+00  0.00000000000E+00  0.50000000000E+03  0.50000000000E+03  0.00000000000E+00 0.  1.
         11   -1    0    0    0    0 -0.00000000000E+00 -0.00000000000E+00 -0.50000000000E+03  0.50000000000E+03  0.00000000000E+00 0. -1.
        -11    1    1    2    0    0 -0.87795091033E+02 -0.18593406202E+01  0.88236868994E+02  0.12448767090E+03  0.00000000000E+00 0.  1.
         11    1    1    2    0    0 -0.70386934209E+02 -0.13796888243E+02 -0.45125371393E+03  0.45691858024E+03  0.00000000000E+00 0. -1.
        -15    1    1    2    0    0 -0.16662286475E+02 -0.19771393550E+02  0.79474728699E+02  0.83593839631E+02  0.17770000000E+01 0.  1.
         15    1    1    2    0    0  0.17484431172E+03  0.35427622413E+02  0.28354211624E+03  0.33499990922E+03  0.17770000000E+01 0. -1.
</event>
<event>
 6    1  0.1289981E-005  0.5022076E+03  0.7546771E-02  0.9394883E-01
        -11   -1    0    0    0    0  0.00000000000E+00  0.00000000000E+00  0.50000000000E+03  0.50000000000E+03  0.00000000000E+00 0.  1.
         11   -1    0    0    0    0 -0.00000000000E+00 -0.00000000000E+00 -0.50000000000E+03  0.50000000000E+03  0.00000000000E+00 0. -1.
        -11    1    1    2    0    0 -0.75770046827E+02  0.21018883683E+02  0.34509936223E+03  0.35394415277E+03  0.00000000000E+00 0.  1.
         11    1    1    2    0    0  0.72822351087E+02 -0.89813877020E+01 -0.49235504255E+03  0.49779237446E+03  0.00000000000E+00 0. -1.
        -15    1    1    2    0    0  0.40533316259E+01 -0.12713451190E+02  0.14082785545E+03  0.14146979868E+03  0.17770000000E+01 0.  1.
         15    1    1    2    0    0 -0.11056358865E+01  0.67595520864E+00  0.64278248728E+01  0.67936740983E+01  0.17770000000E+01 0. -1.
</event>
<event>
 6    1  0.1289981E-005  0.4476410E+03  0.7546771E-02  0.9525248E-01
        -11   -1    0    0    0    0  0.00000000000E+00  0.00000000000E+00  0.50000000000E+03  0.50000000000E+03  0.00000000000E+00 0.  1.
         11   -1    0    0    0    0 -0.00000000000E+00 -0.00000000000E+00 -0.50000000000E+03  0.50000000000E+03  0.00000000000E+00 0.  1.
        -11    1    1    2    0    0 -0.32022172019E+02 -0.93040807641E+02 -0.13533817595E+02  0.99323590380E+02  0.00000000000E+00 0.  1.
         11    1    1    2    0    0  0.14831615211E+02  0.58123101119E+02 -0.44065850933E+03  0.44472260291E+03  0.00000000000E+00 0.  1.
        -15    1    1    2    0    0  0.25611458860E+01  0.64210594341E+01  0.52601056250E+02  0.53083126510E+02  0.17770000000E+01 0. -1.
         15    1    1    2    0    0  0.14629410922E+02  0.28496647088E+02  0.40159127067E+03  0.40287068020E+03  0.17770000000E+01 0.  1.
</event>
<event>
 6    1  0.1554915E-005  0.5022305E+03  0.7546771E-02  0.9394833E-01
        -11   -1    0    0    0    0  0.00000000000E+00  0.00000000000E+00  0.50000000000E+03  0.50000000000E+03  0.00000000000E+00 0.  1.
         11   -1    0    0    0    0 -0.00000000000E+00 -0.00000000000E+00 -0.50000000000E+03  0.50000000000E+03  0.00000000000E+00 0.  1.
        -11    1    1    2    0    0 -0.68106270822E+02 -0.31147390043E+02  0.49210346565E+03  0.49776946967E+03  0.00000000000E+00 0.  1.
         11    1    1    2    0    0  0.16097293445E+02  0.40913841282E+02 -0.27220528393E+03  0.27573317150E+03  0.00000000000E+00 0.  1.
        -15    1    1    2    0    0  0.41702260827E+02 -0.53028212152E+01 -0.15494349359E+03  0.16055479565E+03  0.17770000000E+01 0.  1.
         15    1    1    2    0    0  0.10306716550E+02 -0.44636300245E+01 -0.64954688135E+02  0.65942563180E+02  0.17770000000E+01 0. -1.
</event>
<event>
 6    1  0.1289981E-005  0.5057496E+03  0.7546771E-02  0.9387036E-01
        -11   -1    0    0    0    0  0.00000000000E+00  0.00000000000E+00  0.50000000000E+03  0.50000000000E+03  0.00000000000E+00 0. -1.
         11   -1    0    0    0    0 -0.00000000000E+00 -0.00000000000E+00 -0.50000000000E+03  0.50000000000E+03  0.00000000000E+00 0. -1.
        -11    1    1    2    0    0 -0.71216181922E+01  0.50008133391E+02  0.77310879054E+02  0.92349893725E+02  0.00000000000E+00 0. -1.
         11    1    1    2    0    0  0.15238170227E+02 -0.58745089699E+02 -0.49051019818E+03  0.49425038382E+03  0.00000000000E+00 0. -1.
        -15    1    1    2    0    0 -0.63194149834E+01  0.45758590098E+01  0.25800255523E+03  0.25812661569E+03  0.17770000000E+01 0. -1.
         15    1    1    2    0    0 -0.17971370514E+01  0.41610972979E+01  0.15519676389E+03  0.15527310676E+03  0.17770000000E+01 0. -1.
</event>
<event>
 6    1  0.1289981E-005  0.4897385E+03  0.7546771E-02  0.9423068E-01
        -11   -1    0    0    0    0  0.00000000000E+00  0.00000000000E+00  0.50000000000E+03  0.50000000000E+03  0.00000000000E+00 0.  1.
         11   -1    0    0    0    0 -0.00000000000E+00 -0.00000000000E+00 -0.50000000000E+03  0.50000000000E+03  0.00000000000E+00 0. -1.
        -11    1    1    2    0    0  0.11614676059E+03 -0.13676129394E+03  0.45406996245E+03  0.48823483316E+03  0.00000000000E+00 0.  1.
         11    1    1    2    0    0 -0.12004722538E+03  0.12557336124E+03 -0.45959173876E+03  0.49132939227E+03  0.00000000000E+00 0. -1.
        -15    1    1    2    0    0  0.83972857310E+01  0.57724767354E+01  0.76557557010E+01  0.12868730305E+02  0.17770000000E+01 0.  1.
         15    1    1    2    0    0 -0.44968209443E+01  0.54154559632E+01 -0.21339793926E+01  0.75670442672E+01  0.17770000000E+01 0. -1.
</event>
<event>
 6    1  0.1289981E-005  0.5013007E+03  0.7546771E-02  0.9396904E-01
        -11   -1    0    0    0    0  0.00000000000E+00  0.00000000000E+00  0.50000000000E+03  0.50000000000E+03  0.00000000000E+00 0. -1.
         11   -1    0    0    0    0 -0.00000000000E+00 -0.00000000000E+00 -0.50000000000E+03  0.50000000000E+03  0.00000000000E+00 0.  1.
        -11    1    1    2    0    0  0.55923316954E+02  0.89485105365E+02  0.38452818078E+03  0.39874418274E+03  0.00000000000E+00 0. -1.
         11    1    1    2    0    0 -0.61096203051E+02 -0.89015405572E+02 -0.48687215753E+03  0.49869929440E+03  0.00000000000E+00 0.  1.
        -15    1    1    2    0    0  0.22226995338E+01 -0.11443526032E+01  0.51987221136E+02  0.52077623089E+02  0.17770000000E+01 0. -1.
         15    1    1    2    0    0  0.29501865630E+01  0.67465281007E+00  0.50356755613E+02  0.50478899771E+02  0.17770000000E+01 0.  1.
</event>
<event>
 6    1  0.1289981E-005  0.5217419E+03  0.7546771E-02  0.9352433E-01
        -11   -1    0    0    0    0  0.00000000000E+00  0.00000000000E+00  0.50000000000E+03  0.50000000000E+03  0.00000000000E+00 0. -1.
         11   -1    0    0    0    0 -0.00000000000E+00 -0.00000000000E+00 -0.50000000000E+03  0.50000000000E+03  0.00000000000E+00 0. -1.
        -11    1    1    2    0    0 -0.20062425922E+03 -0.15628066779E+03  0.30257942185E+03  0.39525693801E+03  0.00000000000E+00 0. -1.
         11    1    1    2    0    0  0.27627325049E+03  0.93187974199E+02 -0.37910402406E+03  0.47825805642E+03  0.00000000000E+00 0. -1.
        -15    1    1    2    0    0 -0.65863734738E+02  0.50420339120E+02  0.71737457499E+02  0.10967981896E+03  0.17770000000E+01 0. -1.
         15    1    1    2    0    0 -0.97852565307E+01  0.12672354474E+02  0.47871447095E+01  0.16805186603E+02  0.17770000000E+01 0.  1.
</event>
<event>
 6    1  0.1289981E-005  0.4060382E+03  0.7546771E-02  0.9638726E-01
        -11   -1    0    0    0    0  0.00000000000E+00  0.00000000000E+00  0.50000000000E+03  0.50000000000E+03  0.00000000000E+00 0. -1.
         11   -1    0    0    0    0 -0.00000000000E+00 -0.00000000000E+00 -0.50000000000E+03  0.50000000000E+03  0.00000000000E+00 0. -1.
        -11    1    1    2    0    0  0.12818202092E+02 -0.16737522535E+03  0.33592778474E+02  0.17119359548E+03  0.00000000000E+00 0. -1.
         11    1    1    2    0    0  0.11973145912E+03 -0.24849652169E+01 -0.39179613099E+03  0.40969013366E+03  0.00000000000E+00 0. -1.
        -15    1    1    2    0    0 -0.11745872568E+02  0.11314255225E+02  0.44629343165E+02  0.47549068277E+02  0.17770000000E+01 0. -1.
         15    1    1    2    0    0 -0.12080378865E+03  0.15854593535E+03  0.31357400935E+03  0.37156720259E+03  0.17770000000E+01 0.  1.
</event>
<event>
 6    1  0.1289981E-005  0.4159722E+03  0.7546771E-02  0.9610351E-01
        -11   -1    0    0    0    0  0.00000000000E+00  0.00000000000E+00  0.50000000000E+03  0.50000000000E+03  0.00000000000E+00 0.  1.
         11   -1    0    0    0    0 -0.00000000000E+00 -0.00000000000E+00 -0.50000000000E+03  0.50000000000E+03  0.00000000000E+00 0. -1.
        -11    1    1    2    0    0  0.26889398115E+03 -0.20216429632E+03  0.17930561503E+03  0.38121500415E+03  0.00000000000E+00 0.  1.
         11    1    1    2    0    0 -0.26211171831E+03  0.19160031223E+03 -0.33265796682E+03  0.46483820348E+03  0.00000000000E+00 0. -1.
        -15    1    1    2    0    0 -0.15475465727E+01  0.56388700610E+01  0.68807270503E+02  0.69078143859E+02  0.17770000000E+01 0.  1.
         15    1    1    2    0    0 -0.52347162746E+01  0.49251140220E+01  0.84545081283E+02  0.84868648515E+02  0.17770000000E+01 0. -1.
</event>
<event>
 6    1  0.1289981E-005  0.5090217E+03  0.7546771E-02  0.9379846E-01
        -11   -1    0    0    0    0  0.00000000000E+00  0.00000000000E+00  0.50000000000E+03  0.50000000000E+03  0.00000000000E+00 0.  1.
         11   -1    0    0    0    0 -0.00000000000E+00 -0.00000000000E+00 -0.50000000000E+03  0.50000000000E+03  0.00000000000E+00 0.  1.
        -11    1    1    2    0    0 -0.22956678465E+03 -0.29037459912E+03  0.21026618022E+03  0.42571138460E+03  0.00000000000E+00 0.  1.
         11    1    1    2    0    0  0.26321880545E+03  0.30074228605E+03 -0.28518345669E+03  0.49097827460E+03  0.00000000000E+00 0.  1.
        -15    1    1    2    0    0 -0.85683144822E+01 -0.61735691083E+01  0.26712577903E+02  0.28779307077E+02  0.17770000000E+01 0.  1.
         15    1    1    2    0    0 -0.25083706314E+02 -0.41941178182E+01  0.48204698565E+02  0.54531033728E+02  0.17770000000E+01 0. -1.
</event>
<event>
 6    1  0.1289981E-005  0.5268793E+03  0.7546771E-02  0.9341596E-01
        -11   -1    0    0    0    0  0.00000000000E+00  0.00000000000E+00  0.50000000000E+03  0.50000000000E+03  0.00000000000E+00 0.  1.
         11   -1    0    0    0    0 -0.00000000000E+00 -0.00000000000E+00 -0.50000000000E+03  0.50000000000E+03  0.00000000000E+00 0.  1.
        -11    1    1    2    0    0  0.40404441905E+02 -0.74920192133E+02  0.46540053827E+03  0.47312071941E+03  0.00000000000E+00 0.  1.
         11    1    1    2    0    0  0.36184767441E+02 -0.42934766180E+02 -0.27707941974E+03  0.28271140123E+03  0.00000000000E+00 0.  1.
        -15    1    1    2    0    0 -0.47066815000E+02  0.11091680334E+03 -0.17101369104E+03  0.20920483405E+03  0.17770000000E+01 0. -1.
         15    1    1    2    0    0 -0.29522394346E+02  0.69381549769E+01 -0.17307427484E+02  0.34963045313E+02  0.17770000000E+01 0.  1.
</event>
<event>
 6    1  0.1289981E-005  0.5021432E+03  0.7546771E-02  0.9395027E-01
        -11   -1    0    0    0    0  0.00000000000E+00  0.00000000000E+00  0.50000000000E+03  0.50000000000E+03  0.00000000000E+00 0. -1.
         11   -1    0    0    0    0 -0.00000000000E+00 -0.00000000000E+00 -0.50000000000E+03  0.50000000000E+03  0.00000000000E+00 0. -1.
        -11    1    1    2    0    0 -0.90866803296E+02 -0.31127618236E+02  0.32324746591E+03  0.33721599721E+03  0.00000000000E+00 0. -1.
         11    1    1    2    0    0  0.92141354397E+02  0.49043621833E+02 -0.48679158403E+03  0.49785675883E+03  0.00000000000E+00 0. -1.
        -15    1    1    2    0    0 -0.64136455381E+00 -0.10813975234E+02  0.13523949507E+03  0.13568431068E+03  0.17770000000E+01 0. -1.
         15    1    1    2    0    0 -0.63318654656E+00 -0.71020283632E+01  0.28304623045E+02  0.29242933280E+02  0.17770000000E+01 0.  1.
</event>
<event>
 6    1  0.1289981E-005  0.3082276E+03  0.7546771E-02  0.9974777E-01
        -11   -1    0    0    0    0  0.00000000000E+00  0.00000000000E+00  0.50000000000E+03  0.50000000000E+03  0.00000000000E+00 0.  1.
         11   -1    0    0    0    0 -0.00000000000E+00 -0.00000000000E+00 -0.50000000000E+03  0.50000000000E+03  0.00000000000E+00 0. -1.
        -11    1    1    2    0    0  0.10921768318E+03 -0.11864340286E+03 -0.33642689405E+03  0.37307883135E+03  0.00000000000E+00 0. -1.
         11    1    1    2    0    0  0.88352742001E+02  0.10247554003E+03  0.51430105263E+02  0.14474978083E+03  0.00000000000E+00 0.  1.
        -15    1    1    2    0    0 -0.20336612324E+03 -0.76051509469E+02  0.40609828550E+02  0.22089347677E+03  0.17770000000E+01 0.  1.
         15    1    1    2    0    0  0.57956980582E+01  0.92219372300E+02  0.24438696023E+03  0.26127791105E+03  0.17770000000E+01 0. -1.
</event>
<event>
 6    1  0.1289981E-005  0.5073617E+03  0.7546771E-02  0.9383486E-01
        -11   -1    0    0    0    0  0.00000000000E+00  0.00000000000E+00  0.50000000000E+03  0.50000000000E+03  0.00000000000E+00 0. -1.
         11   -1    0    0    0    0 -0.00000000000E+00 -0.00000000000E+00 -0.50000000000E+03  0.50000000000E+03  0.00000000000E+00 0. -1.
        -11    1    1    2    0    0 -0.20644282037E+01  0.40986628970E+02  0.44233148241E+02  0.60338520213E+02  0.00000000000E+00 0. -1.
         11    1    1    2    0    0 -0.20967542794E+01 -0.37681100749E+02 -0.49119057883E+03  0.49263825112E+03  0.00000000000E+00 0. -1.
        -15    1    1    2    0    0 -0.36454641229E+00 -0.67173554200E+00  0.76124780915E+02  0.76149354042E+02  0.17770000000E+01 0.  1.
         15    1    1    2    0    0  0.45257288955E+01 -0.26337926791E+01  0.37083264968E+03  0.37087387463E+03  0.17770000000E+01 0. -1.
</event>
<event>
 6    1  0.1289981E-005  0.5021858E+03  0.7546771E-02  0.9394932E-01
        -11   -1    0    0    0    0  0.00000000000E+00  0.00000000000E+00  0.50000000000E+03  0.50000000000E+03  0.00000000000E+00 0. -1.
         11   -1    0    0    0    0 -0.00000000000E+00 -0.00000000000E+00 -0.50000000000E+03  0.50000000000E+03  0.00000000000E+00 0.  1.
        -11    1    1    2    0    0  0.19905007395E+03  0.30849027657E+03  0.33620208501E+03  0.49781424713E+03  0.00000000000E+00 0. -1.
         11    1    1    2    0    0 -0.19014888812E+03 -0.27210612873E+03 -0.31645006064E+03  0.45862728421E+03  0.00000000000E+00 0.  1.
        -15    1    1    2    0    0  0.18488898493E+01 -0.82185074348E+01 -0.48645405199E+01  0.98885662055E+01  0.17770000000E+01 0.  1.
         15    1    1    2    0    0 -0.10750075675E+02 -0.28165640411E+02 -0.14887483853E+02  0.33669902454E+02  0.17770000000E+01 0.  1.
</event>
<event>
 6    1  0.1289981E-005  0.5009152E+03  0.7546771E-02  0.9397764E-01
        -11   -1    0    0    0    0  0.00000000000E+00  0.00000000000E+00  0.50000000000E+03  0.50000000000E+03  0.00000000000E+00 0.  1.
         11   -1    0    0    0    0 -0.00000000000E+00 -0.00000000000E+00 -0.50000000000E+03  0.50000000000E+03  0.00000000000E+00 0. -1.
        -11    1    1    2    0    0 -0.10883225389E+03 -0.20646967823E+02  0.41651167035E+03  0.43099040396E+03  0.00000000000E+00 0.  1.
         11    1    1    2    0    0  0.11545503706E+03  0.12200093486E+02 -0.48539357189E+03  0.49908478989E+03  0.00000000000E+00 0. -1.
        -15    1    1    2    0    0 -0.44301417584E+01  0.24040525560E+01  0.32544999498E+02  0.32980908811E+02  0.17770000000E+01 0. -1.
         15    1    1    2    0    0 -0.21926414111E+01  0.60428217809E+01  0.36336902047E+02  0.36943897342E+02  0.17770000000E+01 0.  1.
</event>
<event>
 6    1  0.1289981E-005  0.3877491E+03  0.7546771E-02  0.9693307E-01
        -11   -1    0    0    0    0  0.00000000000E+00  0.00000000000E+00  0.50000000000E+03  0.50000000000E+03  0.00000000000E+00 0.  1.
         11   -1    0    0    0    0 -0.00000000000E+00 -0.00000000000E+00 -0.50000000000E+03  0.50000000000E+03  0.00000000000E+00 0. -1.
        -11    1    1    2    0    0  0.68009196763E+02  0.35473244591E+03 -0.13920529578E+03  0.38708974851E+03  0.00000000000E+00 0. -1.
         11    1    1    2    0    0 -0.10176387264E+03 -0.39724485192E+03 -0.50956962406E+02  0.41322629414E+03  0.00000000000E+00 0.  1.
        -15    1    1    2    0    0  0.30366625537E+02  0.33984392782E+02  0.18076360997E+03  0.18642883714E+03  0.17770000000E+01 0. -1.
         15    1    1    2    0    0  0.33880503380E+01  0.85280132264E+01  0.93986482144E+01  0.13255120216E+02  0.17770000000E+01 0.  1.
</event>
<event>
 6    1  0.1289981E-005  0.5081277E+03  0.7546771E-02  0.9381805E-01
        -11   -1    0    0    0    0  0.00000000000E+00  0.00000000000E+00  0.50000000000E+03  0.50000000000E+03  0.00000000000E+00 0.  1.
         11   -1    0    0    0    0 -0.00000000000E+00 -0.00000000000E+00 -0.50000000000E+03  0.50000000000E+03  0.00000000000E+00 0. -1.
        -11    1    1    2    0    0  0.59111271666E+02  0.16355653429E+03  0.46010155852E+03  0.49187226644E+03  0.00000000000E+00 0.  1.
         11    1    1    2    0    0 -0.56420714132E+02 -0.17462143132E+03 -0.40139990896E+03  0.44135906943E+03  0.00000000000E+00 0. -1.
        -15    1    1    2    0    0 -0.15413015115E+02  0.10910715712E+02 -0.34845201028E+02  0.39673045207E+02  0.17770000000E+01 0.  1.
         15    1    1    2    0    0  0.12722457581E+02  0.15418132441E+00 -0.23856448533E+02  0.27095618915E+02  0.17770000000E+01 0. -1.
</event>
<event>
 6    1  0.1289981E-005  0.5088179E+03  0.7546771E-02  0.9380292E-01
        -11   -1    0    0    0    0  0.00000000000E+00  0.00000000000E+00  0.50000000000E+03  0.50000000000E+03  0.00000000000E+00 0.  1.
         11   -1    0    0    0    0 -0.00000000000E+00 -0.00000000000E+00 -0.50000000000E+03  0.50000000000E+03  0.00000000000E+00 0. -1.
        -11    1    1    2    0    0 -0.10761975605E+02 -0.47077983565E+02 -0.72062562372E+02  0.86747735135E+02  0.00000000000E+00 0.  1.
         11    1    1    2    0    0  0.66186502096E+01  0.50508548644E+02 -0.41898482808E+03  0.42207014367E+03  0.00000000000E+00 0. -1.
        -15    1    1    2    0    0  0.59451797879E+01 -0.49242020812E+01  0.41892714917E+03  0.41900203695E+03  0.17770000000E+01 0.  1.
         15    1    1    2    0    0 -0.18018543923E+01  0.14936370023E+01  0.72120241281E+02  0.72180084249E+02  0.17770000000E+01 0. -1.
</event>
<event>
 6    1  0.1289981E-005  0.5162780E+03  0.7546771E-02  0.9364105E-01
        -11   -1    0    0    0    0  0.00000000000E+00  0.00000000000E+00  0.50000000000E+03  0.50000000000E+03  0.00000000000E+00 0.  1.
         11   -1    0    0    0    0 -0.00000000000E+00 -0.00000000000E+00 -0.50000000000E+03  0.50000000000E+03  0.00000000000E+00 0. -1.
        -11    1    1    2    0    0  0.10876071789E+03  0.46413101818E+02  0.12202823295E+03  0.16992339278E+03  0.00000000000E+00 0.  1.
         11    1    1    2    0    0 -0.12037787694E+03 -0.28671180518E+02 -0.46762603090E+03  0.48372200139E+03  0.00000000000E+00 0. -1.
        -15    1    1    2    0    0  0.21115896721E+01 -0.88891693874E+00  0.24800691773E+02  0.24969602033E+02  0.17770000000E+01 0.  1.
         15    1    1    2    0    0  0.95055693766E+01 -0.16853004361E+02  0.32079710618E+03  0.32138500380E+03  0.17770000000E+01 0.  1.
</event>
<event>
 6    1  0.1289981E-005  0.5040314E+03  0.7546771E-02  0.9390834E-01
        -11   -1    0    0    0    0  0.00000000000E+00  0.00000000000E+00  0.50000000000E+03  0.50000000000E+03  0.00000000000E+00 0.  1.
         11   -1    0    0    0    0 -0.00000000000E+00 -0.00000000000E+00 -0.50000000000E+03  0.50000000000E+03  0.00000000000E+00 0. -1.
        -11    1    1    2    0    0 -0.30520666284E+02  0.49171370063E+02  0.16689121572E+03  0.17664091425E+03  0.00000000000E+00 0.  1.
         11    1    1    2    0    0  0.41960929154E+01 -0.55281385036E+02 -0.49286022778E+03  0.49596859060E+03  0.00000000000E+00 0. -1.
        -15    1    1    2    0    0  0.20937224941E+02 -0.53078939323E+00  0.19471322702E+03  0.19584444753E+03  0.17770000000E+01 0.  1.
         15    1    1    2    0    0  0.53873484275E+01  0.66408043666E+01  0.13125578505E+03  0.13154604762E+03  0.17770000000E+01 0. -1.
</event>
<event>
 6    1  0.1289981E-005  0.5014355E+03  0.7546771E-02  0.9396603E-01
        -11   -1    0    0    0    0  0.00000000000E+00  0.00000000000E+00  0.50000000000E+03  0.50000000000E+03  0.00000000000E+00 0. -1.
         11   -1    0    0    0    0 -0.00000000000E+00 -0.00000000000E+00 -0.50000000000E+03  0.50000000000E+03  0.00000000000E+00 0.  1.
        -11    1    1    2    0    0 -0.35304027203E+02  0.12804924732E+03  0.39042387434E+03  0.41240003120E+03  0.00000000000E+00 0. -1.
         11    1    1    2    0    0  0.49222846531E+02 -0.13375186314E+03 -0.47775945072E+03  0.49856448155E+03  0.00000000000E+00 0.  1.
        -15    1    1    2    0    0 -0.73706272085E+01  0.16169067280E+01  0.62209546300E+02  0.62690716319E+02  0.17770000000E+01 0. -1.
         15    1    1    2    0    0 -0.65481921194E+01  0.40857090986E+01  0.25126030077E+02  0.26344770929E+02  0.17770000000E+01 0. -1.
</event>
<event>
 6    1  0.1289981E-005  0.5020867E+03  0.7546771E-02  0.9395153E-01
        -11   -1    0    0    0    0  0.00000000000E+00  0.00000000000E+00  0.50000000000E+03  0.50000000000E+03  0.00000000000E+00 0. -1.
         11   -1    0    0    0    0 -0.00000000000E+00 -0.00000000000E+00 -0.50000000000E+03  0.50000000000E+03  0.00000000000E+00 0.  1.
        -11    1    1    2    0    0 -0.74015780560E+02 -0.22721613491E+02  0.33320469495E+03  0.34208182680E+03  0.00000000000E+00 0. -1.
         11    1    1    2    0    0  0.75880931343E+02  0.93977101578E+01 -0.49200756362E+03  0.49791332113E+03  0.00000000000E+00 0.  1.
        -15    1    1    2    0    0 -0.21640804128E+01  0.45150993446E+01  0.12214271597E+03  0.12225821102E+03  0.17770000000E+01 0. -1.
         15    1    1    2    0    0  0.29892962913E+00  0.88088039889E+01  0.36660152693E+02  0.37746641058E+02  0.17770000000E+01 0.  1.
</event>
<event>
 6    1  0.1289981E-005  0.5020895E+03  0.7546771E-02  0.9395147E-01
        -11   -1    0    0    0    0  0.00000000000E+00  0.00000000000E+00  0.50000000000E+03  0.50000000000E+03  0.00000000000E+00 0.  1.
         11   -1    0    0    0    0 -0.00000000000E+00 -0.00000000000E+00 -0.50000000000E+03  0.50000000000E+03  0.00000000000E+00 0.  1.
        -11    1    1    2    0    0 -0.60115865612E+02 -0.63372477695E+02  0.36281731604E+03  0.37318412754E+03  0.00000000000E+00 0.  1.
         11    1    1    2    0    0  0.56881728005E+02  0.57426172438E+02 -0.49130603439E+03  0.49791054988E+03  0.00000000000E+00 0.  1.
        -15    1    1    2    0    0 -0.65286529455E+00  0.94316396270E+00  0.94026751566E+01  0.96376252498E+01  0.17770000000E+01 0.  1.
         15    1    1    2    0    0  0.38870029023E+01  0.50031412949E+01  0.11908604319E+03  0.11926769733E+03  0.17770000000E+01 0.  1.
</event>
<event>
 6    1  0.1690591E-005  0.5010061E+03  0.7546771E-02  0.9397561E-01
        -11   -1    0    0    0    0  0.00000000000E+00  0.00000000000E+00  0.50000000000E+03  0.50000000000E+03  0.00000000000E+00 0. -1.
         11   -1    0    0    0    0 -0.00000000000E+00 -0.00000000000E+00 -0.50000000000E+03  0.50000000000E+03  0.00000000000E+00 0. -1.
        -11    1    1    2    0    0 -0.21652259687E+02 -0.19628225232E+02  0.49813738948E+03  0.49899393421E+03  0.00000000000E+00 0. -1.
         11    1    1    2    0    0  0.21225412625E+02  0.27124575380E+02 -0.46106829050E+03  0.46235292714E+03  0.00000000000E+00 0. -1.
        -15    1    1    2    0    0 -0.14600672863E+01 -0.66353481618E+01 -0.16915795690E+02  0.18315608495E+02  0.17770000000E+01 0. -1.
         15    1    1    2    0    0  0.18869143480E+01 -0.86100198649E+00 -0.20153303290E+02  0.20337530151E+02  0.17770000000E+01 0. -1.
</event>
<event>
 6    1  0.1289981E-005  0.5412236E+03  0.7546771E-02  0.9312017E-01
        -11   -1    0    0    0    0  0.00000000000E+00  0.00000000000E+00  0.50000000000E+03  0.50000000000E+03  0.00000000000E+00 0.  1.
         11   -1    0    0    0    0 -0.00000000000E+00 -0.00000000000E+00 -0.50000000000E+03  0.50000000000E+03  0.00000000000E+00 0. -1.
        -11    1    1    2    0    0  0.63445931028E+02  0.64581319581E+02  0.44975514230E+03  0.45877643905E+03  0.00000000000E+00 0.  1.
         11    1    1    2    0    0  0.36036298153E+02  0.25348636454E+02 -0.23732560896E+03  0.24138063887E+03  0.00000000000E+00 0. -1.
        -15    1    1    2    0    0 -0.23379957241E+02 -0.22698918585E+02  0.25322729261E+02  0.41306920144E+02  0.17770000000E+01 0.  1.
         15    1    1    2    0    0 -0.76102271940E+02 -0.67231037450E+02 -0.23775226261E+03  0.25853600193E+03  0.17770000000E+01 0. -1.
</event>
<event>
 6    1  0.1289981E-005  0.3646284E+03  0.7546771E-02  0.9767104E-01
        -11   -1    0    0    0    0  0.00000000000E+00  0.00000000000E+00  0.50000000000E+03  0.50000000000E+03  0.00000000000E+00 0.  1.
         11   -1    0    0    0    0 -0.00000000000E+00 -0.00000000000E+00 -0.50000000000E+03  0.50000000000E+03  0.00000000000E+00 0. -1.
        -11    1    1    2    0    0 -0.21557230275E+03  0.23991255241E+02  0.88133682797E+02  0.23412506077E+03  0.00000000000E+00 0.  1.
         11    1    1    2    0    0  0.22313708609E+03 -0.32178522773E+01 -0.39739760605E+03  0.45576898869E+03  0.00000000000E+00 0. -1.
        -15    1    1    2    0    0 -0.37518051720E+01 -0.70659622993E+01  0.13784622730E+03  0.13808962298E+03  0.17770000000E+01 0.  1.
         15    1    1    2    0    0 -0.38129781700E+01 -0.13707440664E+02  0.17141769595E+03  0.17201632756E+03  0.17770000000E+01 0.  1.
</event>
<event>
 6    1  0.1289981E-005  0.5125631E+03  0.7546771E-02  0.9372129E-01
        -11   -1    0    0    0    0  0.00000000000E+00  0.00000000000E+00  0.50000000000E+03  0.50000000000E+03  0.00000000000E+00 0. -1.
         11   -1    0    0    0    0 -0.00000000000E+00 -0.00000000000E+00 -0.50000000000E+03  0.50000000000E+03  0.00000000000E+00 0.  1.
        -11    1    1    2    0    0  0.30281605102E+03 -0.44339763769E+02  0.25071953033E+03  0.39563096226E+03  0.00000000000E+00 0. -1.
         11    1    1    2    0    0 -0.31740287779E+03  0.58272699234E+02 -0.36531419140E+03  0.48743692181E+03  0.00000000000E+00 0.  1.
        -15    1    1    2    0    0  0.12356550068E+02 -0.53234130002E+01  0.81269616552E+02  0.82394971685E+02  0.17770000000E+01 0. -1.
         15    1    1    2    0    0  0.22302767010E+01 -0.86095224647E+01  0.33325044521E+02  0.34537144244E+02  0.17770000000E+01 0.  1.
</event>
<event>
 6    1  0.1289981E-005  0.3650779E+03  0.7546771E-02  0.9765613E-01
        -11   -1    0    0    0    0  0.00000000000E+00  0.00000000000E+00  0.50000000000E+03  0.50000000000E+03  0.00000000000E+00 0.  1.
         11   -1    0    0    0    0 -0.00000000000E+00 -0.00000000000E+00 -0.50000000000E+03  0.50000000000E+03  0.00000000000E+00 0. -1.
        -11    1    1    2    0    0 -0.22495491520E+03 -0.55191385431E+02 -0.29916956698E+02  0.23355048104E+03  0.00000000000E+00 0.  1.
         11    1    1    2    0    0  0.21634952563E+03  0.67027586141E+02 -0.33319371233E+03  0.40288691276E+03  0.00000000000E+00 0. -1.
        -15    1    1    2    0    0  0.68403157820E+01 -0.11813872979E+02  0.34556007408E+03  0.34583417998E+03  0.17770000000E+01 0.  1.
         15    1    1    2    0    0  0.17650737915E+01 -0.22327731387E-01  0.17550594948E+02  0.17728426215E+02  0.17770000000E+01 0. -1.
</event>
<event>
 6    1  0.1289981E-005  0.5030826E+03  0.7546771E-02  0.9392939E-01
        -11   -1    0    0    0    0  0.00000000000E+00  0.00000000000E+00  0.50000000000E+03  0.50000000000E+03  0.00000000000E+00 0.  1.
         11   -1    0    0    0    0 -0.00000000000E+00 -0.00000000000E+00 -0.50000000000E+03  0.50000000000E+03  0.00000000000E+00 0. -1.
        -11    1    1    2    0    0 -0.12810210155E+03  0.23773393380E+03  0.41713231260E+03  0.49691743571E+03  0.00000000000E+00 0.  1.
         11    1    1    2    0    0  0.12864430465E+03 -0.21398001534E+03 -0.38968539962E+03  0.46280829159E+03  0.00000000000E+00 0. -1.
        -15    1    1    2    0    0 -0.28680662173E+00  0.44597156033E+00 -0.10532813756E+02  0.10694813850E+02  0.17770000000E+01 0. -1.
         15    1    1    2    0    0 -0.25539647807E+00 -0.24199890017E+02 -0.16914099226E+02  0.29579458849E+02  0.17770000000E+01 0.  1.
</event>
<event>
 6    1  0.1289981E-005  0.5035422E+03  0.7546771E-02  0.9391919E-01
        -11   -1    0    0    0    0  0.00000000000E+00  0.00000000000E+00  0.50000000000E+03  0.50000000000E+03  0.00000000000E+00 0. -1.
         11   -1    0    0    0    0 -0.00000000000E+00 -0.00000000000E+00 -0.50000000000E+03  0.50000000000E+03  0.00000000000E+00 0.  1.
        -11    1    1    2    0    0 -0.34363946936E+03 -0.89421068359E+02 -0.30106518225E+03  0.46553674005E+03  0.00000000000E+00 0.  1.
         11    1    1    2    0    0  0.35242890456E+03  0.90380471551E+02  0.33778042675E+03  0.49645783215E+03  0.00000000000E+00 0. -1.
        -15    1    1    2    0    0 -0.40453023560E+01 -0.92769487380E+00 -0.21500882032E+02  0.21969768913E+02  0.17770000000E+01 0. -1.
         15    1    1    2    0    0 -0.47441328384E+01 -0.31708318830E-01 -0.15214362466E+02  0.16035658890E+02  0.17770000000E+01 0. -1.
</event>
<event>
 6    1  0.1289981E-005  0.4578932E+03  0.7546771E-02  0.9499292E-01
        -11   -1    0    0    0    0  0.00000000000E+00  0.00000000000E+00  0.50000000000E+03  0.50000000000E+03  0.00000000000E+00 0. -1.
         11   -1    0    0    0    0 -0.00000000000E+00 -0.00000000000E+00 -0.50000000000E+03  0.50000000000E+03  0.00000000000E+00 0.  1.
        -11    1    1    2    0    0 -0.35272505659E+02  0.38362701420E+02  0.44181313111E+03  0.44487603817E+03  0.00000000000E+00 0. -1.
         11    1    1    2    0    0  0.13258322517E+02  0.30122461939E+02 -0.47312151564E+03  0.47426481462E+03  0.00000000000E+00 0.  1.
        -15    1    1    2    0    0  0.16613437147E+02 -0.44133045139E+02  0.10540240698E+02  0.48352728672E+02  0.17770000000E+01 0. -1.
         15    1    1    2    0    0  0.54007459940E+01 -0.24352118220E+02  0.20768143831E+02  0.32506418540E+02  0.17770000000E+01 0.  1.
</event>
<event>
 6    1  0.1289981E-005  0.5113263E+03  0.7546771E-02  0.9374817E-01
        -11   -1    0    0    0    0  0.00000000000E+00  0.00000000000E+00  0.50000000000E+03  0.50000000000E+03  0.00000000000E+00 0. -1.
         11   -1    0    0    0    0 -0.00000000000E+00 -0.00000000000E+00 -0.50000000000E+03  0.50000000000E+03  0.00000000000E+00 0. -1.
        -11    1    1    2    0    0 -0.62497225565E+02  0.29700010003E+03  0.38299738263E+03  0.48867367202E+03  0.00000000000E+00 0. -1.
         11    1    1    2    0    0  0.85986856292E+02 -0.22636055507E+03 -0.20334415358E+03  0.31619880636E+03  0.00000000000E+00 0. -1.
        -15    1    1    2    0    0  0.76923727361E+00 -0.18441768958E+02 -0.45895823870E+02  0.49500251979E+02  0.17770000000E+01 0.  1.
         15    1    1    2    0    0 -0.24258868001E+02 -0.52197775997E+02 -0.13375740518E+03  0.14562726964E+03  0.17770000000E+01 0. -1.
</event>
<event>
 6    1  0.1289981E-005  0.5006083E+03  0.7546771E-02  0.9398450E-01
        -11   -1    0    0    0    0  0.00000000000E+00  0.00000000000E+00  0.50000000000E+03  0.50000000000E+03  0.00000000000E+00 0. -1.
         11   -1    0    0    0    0 -0.00000000000E+00 -0.00000000000E+00 -0.50000000000E+03  0.50000000000E+03  0.00000000000E+00 0.  1.
        -11    1    1    2    0    0  0.33803466389E+01  0.46900276068E+02  0.44387654533E+03  0.44636022463E+03  0.00000000000E+00 0. -1.
         11    1    1    2    0    0 -0.11931200661E+02 -0.47837768375E+02 -0.49695202238E+03  0.49939174821E+03  0.00000000000E+00 0.  1.
        -15    1    1    2    0    0  0.31059222061E+01 -0.14122621739E+00  0.76099299452E+01  0.84104375846E+01  0.17770000000E+01 0.  1.
         15    1    1    2    0    0  0.54449318165E+01  0.10787185239E+01  0.45465547100E+02  0.45837589578E+02  0.17770000000E+01 0. -1.
</event>
<event>
 6    1  0.1289981E-005  0.5044558E+03  0.7546771E-02  0.9389894E-01
        -11   -1    0    0    0    0  0.00000000000E+00  0.00000000000E+00  0.50000000000E+03  0.50000000000E+03  0.00000000000E+00 0. -1.
         11   -1    0    0    0    0 -0.00000000000E+00 -0.00000000000E+00 -0.50000000000E+03  0.50000000000E+03  0.00000000000E+00 0. -1.
        -11    1    1    2    0    0  0.29279863466E+03  0.14470388190E+03  0.37268464221E+03  0.49554424266E+03  0.00000000000E+00 0. -1.
         11    1    1    2    0    0 -0.16574808727E+03 -0.35445688036E+02 -0.20787313686E+03  0.26821645413E+03  0.00000000000E+00 0. -1.
        -15    1    1    2    0    0 -0.11128664369E+03 -0.99046742985E+02 -0.13555990666E+03  0.20143142849E+03  0.17770000000E+01 0. -1.
         15    1    1    2    0    0 -0.15763903694E+02 -0.10211450878E+02 -0.29251598681E+02  0.34807874728E+02  0.17770000000E+01 0.  1.
</event>
<event>
 6    1  0.1289981E-005  0.4895694E+03  0.7546771E-02  0.9423456E-01
        -11   -1    0    0    0    0  0.00000000000E+00  0.00000000000E+00  0.50000000000E+03  0.50000000000E+03  0.00000000000E+00 0.  1.
         11   -1    0    0    0    0 -0.00000000000E+00 -0.00000000000E+00 -0.50000000000E+03  0.50000000000E+03  0.00000000000E+00 0. -1.
        -11    1    1    2    0    0 -0.11823111537E+02  0.16613748199E+02  0.77260380949E+01  0.21805830878E+02  0.00000000000E+00 0.  1.
         11    1    1    2    0    0  0.15520240573E+02 -0.26737564886E+02 -0.49181581843E+03  0.49278654050E+03  0.00000000000E+00 0. -1.
        -15    1    1    2    0    0 -0.99405869347E+01  0.49424018921E+01  0.45542579600E+03  0.45556454647E+03  0.17770000000E+01 0.  1.
         15    1    1    2    0    0  0.62434578982E+01  0.51814147951E+01  0.28663984332E+02  0.29843082157E+02  0.17770000000E+01 0. -1.
</event>
<event>
 6    1  0.1289981E-005  0.5031144E+03  0.7546771E-02  0.9392868E-01
        -11   -1    0    0    0    0  0.00000000000E+00  0.00000000000E+00  0.50000000000E+03  0.50000000000E+03  0.00000000000E+00 0. -1.
         11   -1    0    0    0    0 -0.00000000000E+00 -0.00000000000E+00 -0.50000000000E+03  0.50000000000E+03  0.00000000000E+00 0.  1.
        -11    1    1    2    0    0 -0.12716958392E+03  0.15533105075E+02  0.31419990604E+03  0.33931543051E+03  0.00000000000E+00 0. -1.
         11    1    1    2    0    0  0.14063168314E+03 -0.39181771064E+02 -0.47495560224E+03  0.49688560613E+03  0.00000000000E+00 0.  1.
        -15    1    1    2    0    0 -0.27339099079E+01 -0.18130910341E+01  0.20483737649E+02  0.20820730044E+02  0.17770000000E+01 0. -1.
         15    1    1    2    0    0 -0.10728189306E+02  0.25461757023E+02  0.14027195855E+03  0.14297823331E+03  0.17770000000E+01 0.  1.
</event>
<event>
 6    1  0.1289981E-005  0.5003614E+03  0.7546771E-02  0.9399001E-01
        -11   -1    0    0    0    0  0.00000000000E+00  0.00000000000E+00  0.50000000000E+03  0.50000000000E+03  0.00000000000E+00 0. -1.
         11   -1    0    0    0    0 -0.00000000000E+00 -0.00000000000E+00 -0.50000000000E+03  0.50000000000E+03  0.00000000000E+00 0. -1.
        -11    1    1    2    0    0 -0.16595342760E+02  0.38649082548E+02  0.31383458751E+03  0.31664065642E+03  0.00000000000E+00 0. -1.
         11    1    1    2    0    0  0.10990013271E+02 -0.49685609509E+02 -0.49704054713E+03  0.49963861508E+03  0.00000000000E+00 0. -1.
        -15    1    1    2    0    0  0.13539626805E+01  0.56650285335E+01  0.11156195959E+03  0.11172803731E+03  0.17770000000E+01 0.  1.
         15    1    1    2    0    0  0.42513668089E+01  0.53714984278E+01  0.71644000033E+02  0.71992691190E+02  0.17770000000E+01 0. -1.
</event>
<event>
 6    1  0.1289981E-005  0.5338859E+03  0.7546771E-02  0.9327025E-01
        -11   -1    0    0    0    0  0.00000000000E+00  0.00000000000E+00  0.50000000000E+03  0.50000000000E+03  0.00000000000E+00 0. -1.
         11   -1    0    0    0    0 -0.00000000000E+00 -0.00000000000E+00 -0.50000000000E+03  0.50000000000E+03  0.00000000000E+00 0.  1.
        -11    1    1    2    0    0 -0.30748079009E+03  0.26276316982E+03  0.23167526890E+03  0.46611409537E+03  0.00000000000E+00 0. -1.
         11    1    1    2    0    0  0.10006042590E+03 -0.24204810156E+03 -0.15020059835E+03  0.30192646795E+03  0.00000000000E+00 0.  1.
        -15    1    1    2    0    0  0.16281279104E+03  0.64468061945E+01 -0.47892108108E+02  0.16984221497E+03  0.17770000000E+01 0.  1.
         15    1    1    2    0    0  0.44607573140E+02 -0.27161874448E+02 -0.33582562436E+02  0.62117221716E+02  0.17770000000E+01 0. -1.
</event>
<event>
 6    1  0.1289981E-005  0.5071376E+03  0.7546771E-02  0.9383979E-01
        -11   -1    0    0    0    0  0.00000000000E+00  0.00000000000E+00  0.50000000000E+03  0.50000000000E+03  0.00000000000E+00 0. -1.
         11   -1    0    0    0    0 -0.00000000000E+00 -0.00000000000E+00 -0.50000000000E+03  0.50000000000E+03  0.00000000000E+00 0. -1.
        -11    1    1    2    0    0 -0.17106297433E+03 -0.28244338803E+03  0.28042911656E+03  0.43321737966E+03  0.00000000000E+00 0. -1.
         11    1    1    2    0    0  0.20413593468E+03  0.28636384333E+03 -0.34530796185E+03  0.49286237340E+03  0.00000000000E+00 0. -1.
        -15    1    1    2    0    0 -0.25528368191E+02  0.19847077301E+01  0.46089246507E+02  0.52754270157E+02  0.17770000000E+01 0. -1.
         15    1    1    2    0    0 -0.75445921609E+01 -0.59051630335E+01  0.18789598787E+02  0.21165976776E+02  0.17770000000E+01 0.  1.
</event>
<event>
 6    1  0.1289981E-005  0.5041046E+03  0.7546771E-02  0.9390672E-01
        -11   -1    0    0    0    0  0.00000000000E+00  0.00000000000E+00  0.50000000000E+03  0.50000000000E+03  0.00000000000E+00 0.  1.
         11   -1    0    0    0    0 -0.00000000000E+00 -0.00000000000E+00 -0.50000000000E+03  0.50000000000E+03  0.00000000000E+00 0. -1.
        -11    1    1    2    0    0 -0.16329756046E+03  0.19242631863E+02  0.41223024655E+03  0.44381319077E+03  0.00000000000E+00 0.  1.
         11    1    1    2    0    0  0.16619080548E+03 -0.41425892714E+02 -0.46537813316E+03  0.49589544789E+03  0.00000000000E+00 0. -1.
        -15    1    1    2    0    0 -0.42808957208E+01 -0.13298014779E+01  0.99630153097E+01  0.11068597165E+02  0.17770000000E+01 0.  1.
         15    1    1    2    0    0  0.13876506928E+01  0.23513062329E+02  0.43184871297E+02  0.49222764170E+02  0.17770000000E+01 0. -1.
</event>
<event>
 6    1  0.1289981E-005  0.5173625E+03  0.7546771E-02  0.9361777E-01
        -11   -1    0    0    0    0  0.00000000000E+00  0.00000000000E+00  0.50000000000E+03  0.50000000000E+03  0.00000000000E+00 0.  1.
         11   -1    0    0    0    0 -0.00000000000E+00 -0.00000000000E+00 -0.50000000000E+03  0.50000000000E+03  0.00000000000E+00 0. -1.
        -11    1    1    2    0    0 -0.44249267977E+02  0.13698172708E+03  0.46067016852E+03  0.48263754043E+03  0.00000000000E+00 0.  1.
         11    1    1    2    0    0  0.59639163100E+02 -0.66127033959E+02 -0.38823047455E+03  0.39831208337E+03  0.00000000000E+00 0. -1.
        -15    1    1    2    0    0  0.14626509870E+02 -0.57735246784E+02 -0.34340231267E+02  0.68772834206E+02  0.17770000000E+01 0. -1.
         15    1    1    2    0    0 -0.30016404994E+02 -0.13119446341E+02 -0.38099462705E+02  0.50277541989E+02  0.17770000000E+01 0.  1.
</event>
<event>
 6    1  0.1289981E-005  0.5075011E+03  0.7546771E-02  0.9383180E-01
        -11   -1    0    0    0    0  0.00000000000E+00  0.00000000000E+00  0.50000000000E+03  0.50000000000E+03  0.00000000000E+00 0. -1.
         11   -1    0    0    0    0 -0.00000000000E+00 -0.00000000000E+00 -0.50000000000E+03  0.50000000000E+03  0.00000000000E+00 0.  1.
        -11    1    1    2    0    0  0.85686677751E+02 -0.50191695651E+02  0.17162124151E+03  0.19828076960E+03  0.00000000000E+00 0. -1.
         11    1    1    2    0    0 -0.86685466283E+02  0.64893349888E+02 -0.48044731615E+03  0.49249887363E+03  0.00000000000E+00 0.  1.
        -15    1    1    2    0    0 -0.32411148412E+00 -0.10398750486E+02  0.18629446035E+03  0.18659320123E+03  0.17770000000E+01 0. -1.
         15    1    1    2    0    0  0.13229000152E+01 -0.43029037513E+01  0.12253161430E+03  0.12262715554E+03  0.17770000000E+01 0. -1.
</event>
<event>
 6    1  0.1289981E-005  0.5031561E+03  0.7546771E-02  0.9392775E-01
        -11   -1    0    0    0    0  0.00000000000E+00  0.00000000000E+00  0.50000000000E+03  0.50000000000E+03  0.00000000000E+00 0.  1.
         11   -1    0    0    0    0 -0.00000000000E+00 -0.00000000000E+00 -0.50000000000E+03  0.50000000000E+03  0.00000000000E+00 0.  1.
        -11    1    1    2    0    0  0.40636033616E+02  0.79531223782E+02  0.24621864962E+03  0.26191625800E+03  0.00000000000E+00 0.  1.
         11    1    1    2    0    0 -0.55480630698E+02 -0.81606363200E+02 -0.48694578934E+03  0.49684393994E+03  0.00000000000E+00 0.  1.
        -15    1    1    2    0    0  0.48573965418E+01  0.20717536251E+01  0.83034795887E+02  0.83221520781E+02  0.17770000000E+01 0. -1.
         15    1    1    2    0    0  0.99872005401E+01  0.33857931447E-02  0.15769234383E+03  0.15801828128E+03  0.17770000000E+01 0.  1.
</event>
<event>
 6    1  0.1289981E-005  0.5013689E+03  0.7546771E-02  0.9396752E-01
        -11   -1    0    0    0    0  0.00000000000E+00  0.00000000000E+00  0.50000000000E+03  0.50000000000E+03  0.00000000000E+00 0.  1.
         11   -1    0    0    0    0 -0.00000000000E+00 -0.00000000000E+00 -0.50000000000E+03  0.50000000000E+03  0.00000000000E+00 0.  1.
        -11    1    1    2    0    0  0.17999781465E+02 -0.29852113014E+02  0.19881257119E+03  0.20184543405E+03  0.00000000000E+00 0.  1.
         11    1    1    2    0    0 -0.60687035608E+02  0.20797989537E+02 -0.49448710673E+03  0.49863109749E+03  0.00000000000E+00 0.  1.
        -15    1    1    2    0    0  0.33372865025E+02  0.14934439992E+02  0.23447696652E+03  0.23731706887E+03  0.17770000000E+01 0.  1.
         15    1    1    2    0    0  0.93143891187E+01 -0.58803165150E+01  0.61197569024E+02  0.62206399593E+02  0.17770000000E+01 0. -1.
</event>
<event>
 6    1  0.1289981E-005  0.5126767E+03  0.7546771E-02  0.9371883E-01
        -11   -1    0    0    0    0  0.00000000000E+00  0.00000000000E+00  0.50000000000E+03  0.50000000000E+03  0.00000000000E+00 0.  1.
         11   -1    0    0    0    0 -0.00000000000E+00 -0.00000000000E+00 -0.50000000000E+03  0.50000000000E+03  0.00000000000E+00 0. -1.
        -11    1    1    2    0    0 -0.19556618981E+03  0.13018021805E+03  0.30286177388E+03  0.38329920147E+03  0.00000000000E+00 0.  1.
         11    1    1    2    0    0  0.23906983021E+03 -0.87075049328E+02 -0.41562910591E+03  0.48732330296E+03  0.00000000000E+00 0. -1.
        -15    1    1    2    0    0 -0.11257917428E+02 -0.29752530178E+01  0.24356562853E+02  0.27055363948E+02  0.17770000000E+01 0. -1.
         15    1    1    2    0    0 -0.32245722967E+02 -0.40129915702E+02  0.88410769177E+02  0.10232213162E+03  0.17770000000E+01 0.  1.
</event>
<event>
 6    1  0.1289981E-005  0.5020611E+03  0.7546771E-02  0.9395210E-01
        -11   -1    0    0    0    0  0.00000000000E+00  0.00000000000E+00  0.50000000000E+03  0.50000000000E+03  0.00000000000E+00 0.  1.
         11   -1    0    0    0    0 -0.00000000000E+00 -0.00000000000E+00 -0.50000000000E+03  0.50000000000E+03  0.00000000000E+00 0.  1.
        -11    1    1    2    0    0  0.15075820158E+03 -0.18702583945E+02  0.38897279377E+03  0.41758550775E+03  0.00000000000E+00 0.  1.
         11    1    1    2    0    0 -0.15341808786E+03  0.23308753939E+02 -0.47314134232E+03  0.49793888933E+03  0.00000000000E+00 0.  1.
        -15    1    1    2    0    0  0.11064468241E+01 -0.37650983599E+00  0.16979667096E+02  0.17112358339E+02  0.17770000000E+01 0. -1.
         15    1    1    2    0    0  0.15534394548E+01 -0.42296601578E+01  0.67188881458E+02  0.67363244576E+02  0.17770000000E+01 0. -1.
</event>
<event>
 6    1  0.1289981E-005  0.5313180E+03  0.7546771E-02  0.9332337E-01
        -11   -1    0    0    0    0  0.00000000000E+00  0.00000000000E+00  0.50000000000E+03  0.50000000000E+03  0.00000000000E+00 0.  1.
         11   -1    0    0    0    0 -0.00000000000E+00 -0.00000000000E+00 -0.50000000000E+03  0.50000000000E+03  0.00000000000E+00 0. -1.
        -11    1    1    2    0    0 -0.21820996187E+03 -0.40123724682E+01  0.12785671137E+03  0.25294075439E+03  0.00000000000E+00 0.  1.
         11    1    1    2    0    0  0.23761312443E+03  0.13959307846E+02 -0.40374242973E+03  0.46868199106E+03  0.00000000000E+00 0. -1.
        -15    1    1    2    0    0  0.42954972195E+01 -0.71878220069E+01  0.26538311128E+02  0.27884686983E+02  0.17770000000E+01 0. -1.
         15    1    1    2    0    0 -0.23698659784E+02 -0.27591133705E+01  0.24934740723E+03  0.25049256756E+03  0.17770000000E+01 0.  1.
</event>
