<event>
 7    1  0.1462063E-003  0.1899560E+03  0.7546771E-02  0.1062670E+00
        -11   -1    0    0    0    0  0.00000000000E+00  0.00000000000E+00  0.18250000000E+03  0.18250000000E+03  0.00000000000E+00 0. -1.
         11   -1    0    0    0    0 -0.00000000000E+00 -0.00000000000E+00 -0.18250000000E+03  0.18250000000E+03  0.00000000000E+00 0.  1.
         23    2    1    2    0    0 -0.76244995425E+01 -0.51792980785E+01 -0.16633934147E+03  0.18995601212E+03  0.91266378795E+02 0.  0.
        -11    1    1    2    0    0 -0.16249570070E+02  0.12431002757E+02  0.12571635115E+03  0.12737024497E+03  0.00000000000E+00 0. -1.
         11    1    1    2    0    0  0.23874069612E+02 -0.72517046788E+01  0.40622990322E+02  0.47673742913E+02  0.00000000000E+00 0.  1.
        -15    1    3    3    0    0  0.11198970150E+02 -0.14832159296E+02 -0.16765047987E+03  0.16868684303E+03  0.17770000000E+01 0.  1.
         15    1    3    3    0    0 -0.18823469693E+02  0.96528612174E+01  0.13111383990E+01  0.21269169092E+02  0.17770000000E+01 0. -1.
</event>
<event>
 7    1  0.1462063E-003  0.1564446E+03  0.7546771E-02  0.1091322E+00
        -11   -1    0    0    0    0  0.00000000000E+00  0.00000000000E+00  0.18250000000E+03  0.18250000000E+03  0.00000000000E+00 0. -1.
         11   -1    0    0    0    0 -0.00000000000E+00 -0.00000000000E+00 -0.18250000000E+03  0.18250000000E+03  0.00000000000E+00 0.  1.
         23    2    1    2    0    0  0.30629710250E+02  0.40836107328E+02 -0.83126289731E+02  0.14139926026E+03  0.10236212164E+03 0.  0.
        -11    1    1    2    0    0  0.15716097405E+01 -0.26993111202E+01  0.14447691100E+03  0.14451067106E+03  0.00000000000E+00 0. -1.
         11    1    1    2    0    0 -0.32201319991E+02 -0.38136796208E+02 -0.61350621267E+02  0.79090068681E+02  0.00000000000E+00 0.  1.
        -15    1    3    3    0    0  0.47473133340E+02  0.53182671865E+02 -0.93839545413E+02  0.11786056587E+03  0.17770000000E+01 0. -1.
         15    1    3    3    0    0 -0.16843423090E+02 -0.12346564536E+02  0.10713255681E+02  0.23538694389E+02  0.17770000000E+01 0.  1.
</event>
<event>
 7    1  0.1462063E-003  0.1933681E+03  0.7546771E-02  0.1060119E+00
        -11   -1    0    0    0    0  0.00000000000E+00  0.00000000000E+00  0.18250000000E+03  0.18250000000E+03  0.00000000000E+00 0.  1.
         11   -1    0    0    0    0 -0.00000000000E+00 -0.00000000000E+00 -0.18250000000E+03  0.18250000000E+03  0.00000000000E+00 0.  1.
         23    2    1    2    0    0  0.94101471377E+00 -0.20598272244E+02 -0.16990134944E+03  0.19336810832E+03  0.89997680216E+02 0.  0.
        -11    1    1    2    0    0 -0.37249882904E+01  0.20864719310E+00  0.26799758396E+02  0.27058198785E+02  0.00000000000E+00 0.  1.
         11    1    1    2    0    0  0.27839735766E+01  0.20389625051E+02  0.14310159104E+03  0.14457369290E+03  0.00000000000E+00 0.  1.
        -15    1    3    3    0    0 -0.13134065964E+02  0.14084985342E+02  0.44104610352E-01  0.19340376807E+02  0.17770000000E+01 0. -1.
         15    1    3    3    0    0  0.14075080678E+02 -0.34683257586E+02 -0.16994545405E+03  0.17402773151E+03  0.17770000000E+01 0.  1.
</event>
<event>
 7    1  0.1462063E-003  0.2058224E+03  0.7546771E-02  0.1051271E+00
        -11   -1    0    0    0    0  0.00000000000E+00  0.00000000000E+00  0.18250000000E+03  0.18250000000E+03  0.00000000000E+00 0. -1.
         11   -1    0    0    0    0 -0.00000000000E+00 -0.00000000000E+00 -0.18250000000E+03  0.18250000000E+03  0.00000000000E+00 0.  1.
         23    2    1    2    0    0  0.46314160803E+01 -0.84039420401E+02  0.54189078375E+02  0.12409823291E+03  0.73347399410E+02 0.  0.
        -11    1    1    2    0    0  0.88708528426E+00  0.13415012973E+01  0.81708340954E+02  0.81724167340E+02  0.00000000000E+00 0. -1.
         11    1    1    2    0    0 -0.55185013645E+01  0.82697919104E+02 -0.13589741933E+03  0.15917759975E+03  0.00000000000E+00 0.  1.
        -15    1    3    3    0    0  0.21473922561E+02 -0.84675656223E+02  0.60211983084E+02  0.10611190670E+03  0.17770000000E+01 0. -1.
         15    1    3    3    0    0 -0.16842506480E+02  0.63623582186E+00 -0.60229047085E+01  0.17986326214E+02  0.17770000000E+01 0.  1.
</event>
<event>
 7    1  0.1462063E-003  0.1934866E+03  0.7546771E-02  0.1060031E+00
        -11   -1    0    0    0    0  0.00000000000E+00  0.00000000000E+00  0.18250000000E+03  0.18250000000E+03  0.00000000000E+00 0. -1.
         11   -1    0    0    0    0 -0.00000000000E+00 -0.00000000000E+00 -0.18250000000E+03  0.18250000000E+03  0.00000000000E+00 0. -1.
         23    2    1    2    0    0 -0.36967289436E+01  0.11226581670E+01 -0.17030887229E+03  0.19348656786E+03  0.91744284824E+02 0.  0.
        -11    1    1    2    0    0  0.27146019468E+01 -0.60121438560E+01  0.15919826797E+03  0.15933487836E+03  0.00000000000E+00 0. -1.
         11    1    1    2    0    0  0.98212699679E+00  0.48894856890E+01  0.11110604316E+02  0.12178553773E+02  0.00000000000E+00 0. -1.
        -15    1    3    3    0    0  0.12547847442E+02 -0.65755388378E+01  0.65495895304E+01  0.15707992820E+02  0.17770000000E+01 0.  1.
         15    1    3    3    0    0 -0.16244576385E+02  0.76981970048E+01 -0.17685846182E+03  0.17777857504E+03  0.17770000000E+01 0. -1.
</event>
<event>
 7    1  0.1462063E-003  0.1258501E+03  0.7546771E-02  0.1125383E+00
        -11   -1    0    0    0    0  0.00000000000E+00  0.00000000000E+00  0.18250000000E+03  0.18250000000E+03  0.00000000000E+00 0.  1.
         11   -1    0    0    0    0 -0.00000000000E+00 -0.00000000000E+00 -0.18250000000E+03  0.18250000000E+03  0.00000000000E+00 0. -1.
         23    2    1    2    0    0  0.52216450217E+02 -0.13961109351E+02 -0.15913136816E+02  0.10707036468E+03  0.91045948955E+02 0.  0.
        -11    1    1    2    0    0  0.34776974859E+01  0.43837321241E+01  0.13026021957E+03  0.13038035239E+03  0.00000000000E+00 0.  1.
         11    1    1    2    0    0 -0.55694147703E+02  0.95773772265E+01 -0.11434708275E+03  0.12754928293E+03  0.00000000000E+00 0. -1.
        -15    1    3    3    0    0  0.14973522376E+02 -0.80154222831E+01  0.37763300080E+02  0.41444878196E+02  0.17770000000E+01 0.  1.
         15    1    3    3    0    0  0.37242927840E+02 -0.59456870675E+01 -0.53676436897E+02  0.65625486480E+02  0.17770000000E+01 0. -1.
</event>
<event>
 7    1  0.1462063E-003  0.1468832E+03  0.7546771E-02  0.1100975E+00
        -11   -1    0    0    0    0  0.00000000000E+00  0.00000000000E+00  0.18250000000E+03  0.18250000000E+03  0.00000000000E+00 0.  1.
         11   -1    0    0    0    0 -0.00000000000E+00 -0.00000000000E+00 -0.18250000000E+03  0.18250000000E+03  0.00000000000E+00 0.  1.
         23    2    1    2    0    0  0.69747213096E+00 -0.29604441727E+02 -0.15462947211E+03  0.17388418050E+03  0.73814125670E+02 0.  0.
        -11    1    1    2    0    0  0.32286525241E+02  0.59472091289E+02  0.88444973060E+02  0.11136365033E+03  0.00000000000E+00 0.  1.
         11    1    1    2    0    0 -0.32983997372E+02 -0.29867649562E+02  0.66184499047E+02  0.79752169169E+02  0.00000000000E+00 0.  1.
        -15    1    3    3    0    0  0.23577211492E+02 -0.35609060712E+02 -0.13913055533E+03  0.14554847736E+03  0.17770000000E+01 0.  1.
         15    1    3    3    0    0 -0.22879739361E+02  0.60046189844E+01 -0.15498916775E+02  0.28335703142E+02  0.17770000000E+01 0. -1.
</event>
<event>
 7    1  0.1462063E-003  0.1454544E+03  0.7546771E-02  0.1102486E+00
        -11   -1    0    0    0    0  0.00000000000E+00  0.00000000000E+00  0.18250000000E+03  0.18250000000E+03  0.00000000000E+00 0. -1.
         11   -1    0    0    0    0 -0.00000000000E+00 -0.00000000000E+00 -0.18250000000E+03  0.18250000000E+03  0.00000000000E+00 0.  1.
         23    2    1    2    0    0  0.13494554502E+02  0.25339094511E+02 -0.70110198977E+02  0.11800707622E+03  0.90476833088E+02 0.  0.
        -11    1    1    2    0    0 -0.28705321377E+01 -0.14056520982E+01  0.15659666450E+03  0.15662927934E+03  0.00000000000E+00 0. -1.
         11    1    1    2    0    0 -0.10624022364E+02 -0.23933442413E+02 -0.86486465528E+02  0.90363644440E+02  0.00000000000E+00 0.  1.
        -15    1    3    3    0    0 -0.35531506895E+02  0.27671972996E+02 -0.26238699076E+02  0.52152211170E+02  0.17770000000E+01 0. -1.
         15    1    3    3    0    0  0.49026061397E+02 -0.23328784847E+01 -0.43871499901E+02  0.65854865050E+02  0.17770000000E+01 0.  1.
</event>
<event>
 7    1  0.1462063E-003  0.1763642E+03  0.7546771E-02  0.1073447E+00
        -11   -1    0    0    0    0  0.00000000000E+00  0.00000000000E+00  0.18250000000E+03  0.18250000000E+03  0.00000000000E+00 0.  1.
         11   -1    0    0    0    0 -0.00000000000E+00 -0.00000000000E+00 -0.18250000000E+03  0.18250000000E+03  0.00000000000E+00 0.  1.
         23    2    1    2    0    0 -0.10290075132E+02  0.73958041968E+01 -0.13813866836E+03  0.16663280660E+03  0.92323436755E+02 0.  0.
        -11    1    1    2    0    0  0.41310568928E+02 -0.13497187510E+02  0.15607908845E+03  0.16201672453E+03  0.00000000000E+00 0.  1.
         11    1    1    2    0    0 -0.31020493797E+02  0.61013833133E+01 -0.17940420096E+02  0.36350468868E+02  0.00000000000E+00 0.  1.
        -15    1    3    3    0    0 -0.29467092748E+02  0.21422303141E+02 -0.13807060870E+03  0.14280712637E+03  0.17770000000E+01 0.  1.
         15    1    3    3    0    0  0.19177017617E+02 -0.14026498944E+02 -0.68059658835E-01  0.23825680230E+02  0.17770000000E+01 0. -1.
</event>
<event>
 7    1  0.1462063E-003  0.1382964E+03  0.7546771E-02  0.1110359E+00
        -11   -1    0    0    0    0  0.00000000000E+00  0.00000000000E+00  0.18250000000E+03  0.18250000000E+03  0.00000000000E+00 0. -1.
         11   -1    0    0    0    0 -0.00000000000E+00 -0.00000000000E+00 -0.18250000000E+03  0.18250000000E+03  0.00000000000E+00 0.  1.
         23    2    1    2    0    0 -0.86539643803E+01  0.78484141677E+02 -0.53561454427E+00  0.12639845401E+03  0.98699699587E+02 0.  0.
        -11    1    1    2    0    0 -0.18631286295E+01 -0.10138017974E+01  0.10671957326E+03  0.10674064999E+03  0.00000000000E+00 0. -1.
         11    1    1    2    0    0  0.10517093010E+02 -0.77470339879E+02 -0.10618395872E+03  0.13186089601E+03  0.00000000000E+00 0.  1.
        -15    1    3    3    0    0  0.45057081115E+02  0.32911652588E+02 -0.28548640235E+01  0.55898348923E+02  0.17770000000E+01 0.  1.
         15    1    3    3    0    0 -0.53711045495E+02  0.45572489089E+02  0.23192494792E+01  0.70500105086E+02  0.17770000000E+01 0. -1.
</event>
<event>
 7    1  0.1462063E-003  0.1939946E+03  0.7546771E-02  0.1059656E+00
        -11   -1    0    0    0    0  0.00000000000E+00  0.00000000000E+00  0.18250000000E+03  0.18250000000E+03  0.00000000000E+00 0.  1.
         11   -1    0    0    0    0 -0.00000000000E+00 -0.00000000000E+00 -0.18250000000E+03  0.18250000000E+03  0.00000000000E+00 0.  1.
         23    2    1    2    0    0  0.12296837865E+02  0.12589959517E+02 -0.16907577504E+03  0.19399456738E+03  0.93474890559E+02 0.  0.
        -11    1    1    2    0    0  0.55588801082E+00 -0.24795678792E+01  0.99549934369E+02  0.99582361396E+02  0.00000000000E+00 0.  1.
         11    1    1    2    0    0 -0.12852725876E+02 -0.10110391638E+02  0.69525840673E+02  0.71423071223E+02  0.00000000000E+00 0.  1.
        -15    1    3    3    0    0 -0.22834986376E+01 -0.39470284849E+02 -0.55167613317E+02  0.67895073755E+02  0.17770000000E+01 0.  1.
         15    1    3    3    0    0  0.14580336503E+02  0.52060244367E+02 -0.11390816173E+03  0.12609949363E+03  0.17770000000E+01 0. -1.
</event>
<event>
 7    1  0.1462063E-003  0.1939328E+03  0.7546771E-02  0.1059702E+00
        -11   -1    0    0    0    0  0.00000000000E+00  0.00000000000E+00  0.18250000000E+03  0.18250000000E+03  0.00000000000E+00 0. -1.
         11   -1    0    0    0    0 -0.00000000000E+00 -0.00000000000E+00 -0.18250000000E+03  0.18250000000E+03  0.00000000000E+00 0. -1.
         23    2    1    2    0    0  0.19806293734E+01 -0.26221889227E+01 -0.17099962846E+03  0.19393281836E+03  0.91423554615E+02 0.  0.
        -11    1    1    2    0    0 -0.22296385594E+01  0.16050566156E+00  0.98447028672E+02  0.98472404787E+02  0.00000000000E+00 0. -1.
         11    1    1    2    0    0  0.24900918600E+00  0.24616832612E+01  0.72552599786E+02  0.72594776849E+02  0.00000000000E+00 0. -1.
        -15    1    3    3    0    0  0.46065385657E+02  0.58618005006E+00 -0.71950816208E+02  0.85454321393E+02  0.17770000000E+01 0.  1.
         15    1    3    3    0    0 -0.44084756283E+02 -0.32083689728E+01 -0.99048812250E+02  0.10847849697E+03  0.17770000000E+01 0. -1.
</event>
<event>
 7    1  0.1462063E-003  0.1934250E+03  0.7546771E-02  0.1060076E+00
        -11   -1    0    0    0    0  0.00000000000E+00  0.00000000000E+00  0.18250000000E+03  0.18250000000E+03  0.00000000000E+00 0. -1.
         11   -1    0    0    0    0 -0.00000000000E+00 -0.00000000000E+00 -0.18250000000E+03  0.18250000000E+03  0.00000000000E+00 0. -1.
         23    2    1    2    0    0 -0.10724140300E+02 -0.57018929516E+01 -0.17000505841E+03  0.19342497289E+03  0.91454805693E+02 0.  0.
        -11    1    1    2    0    0  0.25011015516E+01 -0.55235875156E+01  0.10094941693E+03  0.10113135174E+03  0.00000000000E+00 0. -1.
         11    1    1    2    0    0  0.82230387481E+01  0.11225480467E+02  0.69055641484E+02  0.70443675364E+02  0.00000000000E+00 0. -1.
        -15    1    3    3    0    0 -0.57403728388E+01  0.32793102193E+02 -0.20919557945E+02  0.39358926121E+02  0.17770000000E+01 0.  1.
         15    1    3    3    0    0 -0.49837674609E+01 -0.38494995145E+02 -0.14908550047E+03  0.15406604677E+03  0.17770000000E+01 0. -1.
</event>
<event>
 7    1  0.1462063E-003  0.1768350E+03  0.7546771E-02  0.1073056E+00
        -11   -1    0    0    0    0  0.00000000000E+00  0.00000000000E+00  0.18250000000E+03  0.18250000000E+03  0.00000000000E+00 0.  1.
         11   -1    0    0    0    0 -0.00000000000E+00 -0.00000000000E+00 -0.18250000000E+03  0.18250000000E+03  0.00000000000E+00 0.  1.
         23    2    1    2    0    0 -0.21043540470E+01  0.14863550119E+02 -0.14158214882E+03  0.16494309052E+03  0.83278837764E+02 0.  0.
        -11    1    1    2    0    0  0.49969754690E+01 -0.17072021829E+01  0.16922457447E+03  0.16930694288E+03  0.00000000000E+00 0.  1.
         11    1    1    2    0    0 -0.28926214220E+01 -0.13156347936E+02 -0.27642425653E+02  0.30749966596E+02  0.00000000000E+00 0.  1.
        -15    1    3    3    0    0 -0.17191986901E+02  0.30547662757E+02 -0.13851587918E+03  0.14289342402E+03  0.17770000000E+01 0.  1.
         15    1    3    3    0    0  0.15087632854E+02 -0.15684112638E+02 -0.30662696345E+01  0.22049666502E+02  0.17770000000E+01 0. -1.
</event>
<event>
 7    1  0.1462063E-003  0.1524717E+03  0.7546771E-02  0.1095238E+00
        -11   -1    0    0    0    0  0.00000000000E+00  0.00000000000E+00  0.18250000000E+03  0.18250000000E+03  0.00000000000E+00 0.  1.
         11   -1    0    0    0    0 -0.00000000000E+00 -0.00000000000E+00 -0.18250000000E+03  0.18250000000E+03  0.00000000000E+00 0.  1.
         23    2    1    2    0    0 -0.70652130844E+01 -0.21589434296E+02 -0.86724310742E+02  0.12666847559E+03  0.89486176168E+02 0.  0.
        -11    1    1    2    0    0 -0.12078518260E+02  0.85582746380E+00  0.15966429111E+03  0.16012279319E+03  0.00000000000E+00 0.  1.
         11    1    1    2    0    0  0.19143731344E+02  0.20733606832E+02 -0.72939980370E+02  0.78208731216E+02  0.00000000000E+00 0.  1.
        -15    1    3    3    0    0  0.16864481288E+02 -0.12734381522E+02  0.12217268549E+02  0.24474365807E+02  0.17770000000E+01 0. -1.
         15    1    3    3    0    0 -0.23929694372E+02 -0.88550527735E+01 -0.98941579292E+02  0.10219410978E+03  0.17770000000E+01 0.  1.
</event>
<event>
 7    1  0.1462063E-003  0.1942638E+03  0.7546771E-02  0.1059458E+00
        -11   -1    0    0    0    0  0.00000000000E+00  0.00000000000E+00  0.18250000000E+03  0.18250000000E+03  0.00000000000E+00 0. -1.
         11   -1    0    0    0    0 -0.00000000000E+00 -0.00000000000E+00 -0.18250000000E+03  0.18250000000E+03  0.00000000000E+00 0.  1.
         23    2    1    2    0    0  0.22544545758E+01  0.46339560748E+01 -0.17000426758E+03  0.19426377188E+03  0.93863762731E+02 0.  0.
        -11    1    1    2    0    0 -0.29906999139E+01 -0.21296019155E+01  0.16542104186E+03  0.16546177982E+03  0.00000000000E+00 0. -1.
         11    1    1    2    0    0  0.73624533810E+00 -0.25043541593E+01  0.45832257137E+01  0.52744483025E+01  0.00000000000E+00 0.  1.
        -15    1    3    3    0    0  0.12679211408E+02  0.67653062875E+01 -0.17938458071E+03  0.17996810078E+03  0.17770000000E+01 0.  1.
         15    1    3    3    0    0 -0.10424756832E+02 -0.21313502127E+01  0.93803131319E+01  0.14295671100E+02  0.17770000000E+01 0. -1.
</event>
<event>
 7    1  0.1462063E-003  0.1264673E+03  0.7546771E-02  0.1124594E+00
        -11   -1    0    0    0    0  0.00000000000E+00  0.00000000000E+00  0.18250000000E+03  0.18250000000E+03  0.00000000000E+00 0.  1.
         11   -1    0    0    0    0 -0.00000000000E+00 -0.00000000000E+00 -0.18250000000E+03  0.18250000000E+03  0.00000000000E+00 0. -1.
         23    2    1    2    0    0 -0.30696470440E+02  0.12589487505E+02 -0.14765237180E+02  0.10947178485E+03  0.10327289556E+03 0.  0.
        -11    1    1    2    0    0 -0.71789858701E+01  0.61154874741E+01  0.13126657307E+03  0.13160490200E+03  0.00000000000E+00 0.  1.
         11    1    1    2    0    0  0.37875456310E+02 -0.18704974979E+02 -0.11650133589E+03  0.12392331315E+03  0.00000000000E+00 0. -1.
        -15    1    3    3    0    0 -0.29493199180E+02  0.48128544829E+02 -0.36981225677E+02  0.67505365763E+02  0.17770000000E+01 0. -1.
         15    1    3    3    0    0 -0.12032712595E+01 -0.35539057324E+02  0.22215988496E+02  0.41966419088E+02  0.17770000000E+01 0.  1.
</event>
<event>
 7    1  0.1462063E-003  0.1786680E+03  0.7546771E-02  0.1071547E+00
        -11   -1    0    0    0    0  0.00000000000E+00  0.00000000000E+00  0.18250000000E+03  0.18250000000E+03  0.00000000000E+00 0. -1.
         11   -1    0    0    0    0 -0.00000000000E+00 -0.00000000000E+00 -0.18250000000E+03  0.18250000000E+03  0.00000000000E+00 0.  1.
         23    2    1    2    0    0 -0.18746448097E+00  0.28768180647E+02 -0.14479761401E+03  0.17364745791E+03  0.91430012892E+02 0.  0.
        -11    1    1    2    0    0 -0.20390067670E+02 -0.51848701007E+02  0.14998524941E+03  0.15999880530E+03  0.00000000000E+00 0. -1.
         11    1    1    2    0    0  0.20577532151E+02  0.23080520359E+02 -0.51876354061E+01  0.31353736788E+02  0.00000000000E+00 0.  1.
        -15    1    3    3    0    0  0.56131511524E+01 -0.31982366650E+02 -0.69317526778E+02  0.76566680025E+02  0.17770000000E+01 0.  1.
         15    1    3    3    0    0 -0.58006156334E+01  0.60750547297E+02 -0.75480087228E+02  0.97080777889E+02  0.17770000000E+01 0. -1.
</event>
<event>
 7    1  0.1462063E-003  0.1389939E+03  0.7546771E-02  0.1109569E+00
        -11   -1    0    0    0    0  0.00000000000E+00  0.00000000000E+00  0.18250000000E+03  0.18250000000E+03  0.00000000000E+00 0.  1.
         11   -1    0    0    0    0 -0.00000000000E+00 -0.00000000000E+00 -0.18250000000E+03  0.18250000000E+03  0.00000000000E+00 0. -1.
         23    2    1    2    0    0  0.67583438798E+02  0.38111438051E+02 -0.10120036569E+02  0.13355413339E+03  0.10823256671E+03 0.  0.
        -11    1    1    2    0    0  0.89684044867E+00 -0.33275748862E+02  0.10736677198E+03  0.11240864518E+03  0.00000000000E+00 0.  1.
         11    1    1    2    0    0 -0.68480279247E+02 -0.48356891890E+01 -0.97246735415E+02  0.11903722143E+03  0.00000000000E+00 0. -1.
        -15    1    3    3    0    0  0.13341863031E+02  0.28868679462E+02  0.45339745761E+02  0.55409892959E+02  0.17770000000E+01 0.  1.
         15    1    3    3    0    0  0.54241575767E+02  0.92427585895E+01 -0.55459782330E+02  0.78144240435E+02  0.17770000000E+01 0. -1.
</event>
<event>
 7    1  0.1462063E-003  0.1328875E+03  0.7546771E-02  0.1116665E+00
        -11   -1    0    0    0    0  0.00000000000E+00  0.00000000000E+00  0.18250000000E+03  0.18250000000E+03  0.00000000000E+00 0. -1.
         11   -1    0    0    0    0 -0.00000000000E+00 -0.00000000000E+00 -0.18250000000E+03  0.18250000000E+03  0.00000000000E+00 0.  1.
         23    2    1    2    0    0 -0.38652653999E+02  0.30117324669E+02 -0.41062197866E+02  0.11365387854E+03  0.93968181355E+02 0.  0.
        -11    1    1    2    0    0 -0.39471186915E+01  0.28751791454E+01  0.13925539408E+03  0.13934098888E+03  0.00000000000E+00 0. -1.
         11    1    1    2    0    0  0.42599772690E+02 -0.32992503814E+02 -0.98193196216E+02  0.11200513258E+03  0.00000000000E+00 0.  1.
        -15    1    3    3    0    0  0.18657459445E+01 -0.71804692526E+01  0.25863051284E+02  0.26964704659E+02  0.17770000000E+01 0. -1.
         15    1    3    3    0    0 -0.40518399943E+02  0.37297793922E+02 -0.66925249150E+02  0.86689173881E+02  0.17770000000E+01 0.  1.
</event>
<event>
 7    1  0.1462063E-003  0.1914694E+03  0.7546771E-02  0.1061531E+00
        -11   -1    0    0    0    0  0.00000000000E+00  0.00000000000E+00  0.18250000000E+03  0.18250000000E+03  0.00000000000E+00 0.  1.
         11   -1    0    0    0    0 -0.00000000000E+00 -0.00000000000E+00 -0.18250000000E+03  0.18250000000E+03  0.00000000000E+00 0.  1.
         23    2    1    2    0    0 -0.44291761014E+01 -0.12770951625E+02 -0.16923923914E+03  0.19263608216E+03  0.91016620884E+02 0.  0.
        -11    1    1    2    0    0  0.74687893469E+01  0.95094408413E+01  0.16688441214E+03  0.16732190322E+03  0.00000000000E+00 0.  1.
         11    1    1    2    0    0 -0.30396132455E+01  0.32615107833E+01  0.23548270003E+01  0.50420146245E+01  0.00000000000E+00 0.  1.
        -15    1    3    3    0    0  0.27402385328E+02 -0.13152153486E+02 -0.12880192048E+02  0.33059445537E+02  0.17770000000E+01 0. -1.
         15    1    3    3    0    0 -0.31831561430E+02  0.38120186166E+00 -0.15635904710E+03  0.15957663662E+03  0.17770000000E+01 0.  1.
</event>
<event>
 7    1  0.1462063E-003  0.1441224E+03  0.7546771E-02  0.1103913E+00
        -11   -1    0    0    0    0  0.00000000000E+00  0.00000000000E+00  0.18250000000E+03  0.18250000000E+03  0.00000000000E+00 0.  1.
         11   -1    0    0    0    0 -0.00000000000E+00 -0.00000000000E+00 -0.18250000000E+03  0.18250000000E+03  0.00000000000E+00 0. -1.
         23    2    1    2    0    0  0.41280279228E+02 -0.57167547917E+02  0.36258014834E+02  0.12205544510E+03  0.92793847055E+02 0.  0.
        -11    1    1    2    0    0  0.63664040739E+01  0.15519534251E+01  0.93616177919E+02  0.93845236578E+02  0.00000000000E+00 0.  1.
         11    1    1    2    0    0 -0.47646683302E+02  0.55615594492E+02 -0.12987419275E+03  0.14909931832E+03  0.00000000000E+00 0. -1.
        -15    1    3    3    0    0 -0.80946585350E+01 -0.64111094224E+01  0.48981099354E+02  0.50089236806E+02  0.17770000000E+01 0.  1.
         15    1    3    3    0    0  0.49374937763E+02 -0.50756438495E+02 -0.12723084520E+02  0.71966208296E+02  0.17770000000E+01 0. -1.
</event>
<event>
 7    1  0.1462063E-003  0.1904096E+03  0.7546771E-02  0.1062327E+00
        -11   -1    0    0    0    0  0.00000000000E+00  0.00000000000E+00  0.18250000000E+03  0.18250000000E+03  0.00000000000E+00 0.  1.
         11   -1    0    0    0    0 -0.00000000000E+00 -0.00000000000E+00 -0.18250000000E+03  0.18250000000E+03  0.00000000000E+00 0.  1.
         23    2    1    2    0    0  0.19342231390E+02 -0.17059473644E+01 -0.16563524668E+03  0.19040958807E+03  0.91889847740E+02 0.  0.
        -11    1    1    2    0    0 -0.44691941640E+01 -0.52562690966E+01  0.15471568402E+03  0.15486944484E+03  0.00000000000E+00 0.  1.
         11    1    1    2    0    0 -0.14873037226E+02  0.69622164611E+01  0.10919562653E+02  0.19720967089E+02  0.00000000000E+00 0.  1.
        -15    1    3    3    0    0  0.43547164382E+02 -0.13993872280E+02 -0.15428657350E+03  0.16093380154E+03  0.17770000000E+01 0.  1.
         15    1    3    3    0    0 -0.24204932992E+02  0.12287924915E+02 -0.11348673174E+02  0.29475786532E+02  0.17770000000E+01 0. -1.
</event>
<event>
 7    1  0.1462063E-003  0.1936816E+03  0.7546771E-02  0.1059887E+00
        -11   -1    0    0    0    0  0.00000000000E+00  0.00000000000E+00  0.18250000000E+03  0.18250000000E+03  0.00000000000E+00 0. -1.
         11   -1    0    0    0    0 -0.00000000000E+00 -0.00000000000E+00 -0.18250000000E+03  0.18250000000E+03  0.00000000000E+00 0. -1.
         23    2    1    2    0    0 -0.20544459010E+01  0.33386456411E+00 -0.17109938134E+03  0.19368160159E+03  0.90737160445E+02 0.  0.
        -11    1    1    2    0    0  0.12508249750E+01 -0.29262332536E+01  0.15134391398E+03  0.15137736853E+03  0.00000000000E+00 0. -1.
         11    1    1    2    0    0  0.80362092598E+00  0.25923686895E+01  0.19755467362E+02  0.19941029881E+02  0.00000000000E+00 0. -1.
        -15    1    3    3    0    0  0.40397293024E+02 -0.12939669730E+01 -0.44544205527E+02  0.60174409919E+02  0.17770000000E+01 0.  1.
         15    1    3    3    0    0 -0.42451738925E+02  0.16278315371E+01 -0.12655517581E+03  0.13350719167E+03  0.17770000000E+01 0. -1.
</event>
<event>
 7    1  0.1462063E-003  0.1566379E+03  0.7546771E-02  0.1091135E+00
        -11   -1    0    0    0    0  0.00000000000E+00  0.00000000000E+00  0.18250000000E+03  0.18250000000E+03  0.00000000000E+00 0.  1.
         11   -1    0    0    0    0 -0.00000000000E+00 -0.00000000000E+00 -0.18250000000E+03  0.18250000000E+03  0.00000000000E+00 0. -1.
         23    2    1    2    0    0  0.10273157681E+02 -0.39874040509E+02 -0.94270281563E+02  0.13501298733E+03  0.87442231707E+02 0.  0.
        -11    1    1    2    0    0 -0.45226222262E+01  0.14593637884E+02  0.15927331600E+03  0.16000442984E+03  0.00000000000E+00 0.  1.
         11    1    1    2    0    0 -0.57505354547E+01  0.25280402625E+02 -0.65003034434E+02  0.69982582837E+02  0.00000000000E+00 0. -1.
        -15    1    3    3    0    0 -0.36728692507E+01 -0.35348437651E+02 -0.10869326627E+03  0.11436951462E+03  0.17770000000E+01 0. -1.
         15    1    3    3    0    0  0.13946026932E+02 -0.45256028588E+01  0.14422984709E+02  0.20643472706E+02  0.17770000000E+01 0.  1.
</event>
<event>
 7    1  0.1462063E-003  0.1851100E+03  0.7546771E-02  0.1066396E+00
        -11   -1    0    0    0    0  0.00000000000E+00  0.00000000000E+00  0.18250000000E+03  0.18250000000E+03  0.00000000000E+00 0.  1.
         11   -1    0    0    0    0 -0.00000000000E+00 -0.00000000000E+00 -0.18250000000E+03  0.18250000000E+03  0.00000000000E+00 0.  1.
         23    2    1    2    0    0  0.37286476809E+02 -0.56223655426E+02 -0.14843868362E+03  0.18511003248E+03  0.87637323947E+02 0.  0.
        -11    1    1    2    0    0 -0.30349666206E+02 -0.10021203228E+01  0.10027610858E+03  0.10477310931E+03  0.00000000000E+00 0.  1.
         11    1    1    2    0    0 -0.69368106028E+01  0.57225775749E+02  0.48162575044E+02  0.75116858203E+02  0.00000000000E+00 0.  1.
        -15    1    3    3    0    0  0.41817335648E+02 -0.69087223330E+02 -0.15087937064E+03  0.17114168458E+03  0.17770000000E+01 0.  1.
         15    1    3    3    0    0 -0.45308588397E+01  0.12863567904E+02  0.24406870154E+01  0.13968347903E+02  0.17770000000E+01 0. -1.
</event>
<event>
 7    1  0.1462063E-003  0.1867852E+03  0.7546771E-02  0.1065094E+00
        -11   -1    0    0    0    0  0.00000000000E+00  0.00000000000E+00  0.18250000000E+03  0.18250000000E+03  0.00000000000E+00 0. -1.
         11   -1    0    0    0    0 -0.00000000000E+00 -0.00000000000E+00 -0.18250000000E+03  0.18250000000E+03  0.00000000000E+00 0. -1.
         23    2    1    2    0    0 -0.27903517710E+02 -0.15804384667E+02 -0.16049582697E+03  0.18678520088E+03  0.90007865859E+02 0.  0.
        -11    1    1    2    0    0 -0.52664131841E+01  0.69347158974E+00  0.13158314737E+03  0.13169032114E+03  0.00000000000E+00 0. -1.
         11    1    1    2    0    0  0.33169930894E+02  0.15110913077E+02  0.28912679604E+02  0.46524477982E+02  0.00000000000E+00 0. -1.
        -15    1    3    3    0    0 -0.41812405195E+02  0.19058515848E+02 -0.41308829486E+02  0.61814896077E+02  0.17770000000E+01 0.  1.
         15    1    3    3    0    0  0.13908887485E+02 -0.34862900515E+02 -0.11918699749E+03  0.12497030480E+03  0.17770000000E+01 0. -1.
</event>
<event>
 7    1  0.1462063E-003  0.1883519E+03  0.7546771E-02  0.1063890E+00
        -11   -1    0    0    0    0  0.00000000000E+00  0.00000000000E+00  0.18250000000E+03  0.18250000000E+03  0.00000000000E+00 0. -1.
         11   -1    0    0    0    0 -0.00000000000E+00 -0.00000000000E+00 -0.18250000000E+03  0.18250000000E+03  0.00000000000E+00 0.  1.
         23    2    1    2    0    0 -0.18509095321E+02  0.13759954160E+02 -0.16283744155E+03  0.18835187400E+03  0.91806716111E+02 0.  0.
        -11    1    1    2    0    0 -0.59919233014E+01 -0.13618848266E+01  0.14211324633E+03  0.14224602862E+03  0.00000000000E+00 0. -1.
         11    1    1    2    0    0  0.24501018623E+02 -0.12398069334E+02  0.20724195216E+02  0.34402097379E+02  0.00000000000E+00 0.  1.
        -15    1    3    3    0    0  0.56055862472E+01  0.14540341418E+02  0.67299644293E+01  0.17067345310E+02  0.17770000000E+01 0. -1.
         15    1    3    3    0    0 -0.24114681568E+02 -0.78038725723E+00 -0.16956740598E+03  0.17128452869E+03  0.17770000000E+01 0.  1.
</event>
<event>
 7    1  0.1462063E-003  0.1789005E+03  0.7546771E-02  0.1071357E+00
        -11   -1    0    0    0    0  0.00000000000E+00  0.00000000000E+00  0.18250000000E+03  0.18250000000E+03  0.00000000000E+00 0. -1.
         11   -1    0    0    0    0 -0.00000000000E+00 -0.00000000000E+00 -0.18250000000E+03  0.18250000000E+03  0.00000000000E+00 0.  1.
         23    2    1    2    0    0  0.16176839234E+02 -0.26265209444E+01 -0.13766150426E+03  0.16618171905E+03  0.91635611258E+02 0.  0.
        -11    1    1    2    0    0 -0.11375718769E+02 -0.49100851774E+01  0.16735311027E+03  0.16781114215E+03  0.00000000000E+00 0. -1.
         11    1    1    2    0    0 -0.48011204650E+01  0.75366061217E+01 -0.29691606002E+02  0.31007138799E+02  0.00000000000E+00 0.  1.
        -15    1    3    3    0    0 -0.51866664671E+01 -0.17747379080E+02 -0.13868970082E+03  0.13992805943E+03  0.17770000000E+01 0.  1.
         15    1    3    3    0    0  0.21363505701E+02  0.15120858135E+02  0.10281965513E+01  0.26253659626E+02  0.17770000000E+01 0. -1.
</event>
<event>
 7    1  0.1462063E-003  0.1880202E+03  0.7546771E-02  0.1064144E+00
        -11   -1    0    0    0    0  0.00000000000E+00  0.00000000000E+00  0.18250000000E+03  0.18250000000E+03  0.00000000000E+00 0. -1.
         11   -1    0    0    0    0 -0.00000000000E+00 -0.00000000000E+00 -0.18250000000E+03  0.18250000000E+03  0.00000000000E+00 0. -1.
         23    2    1    2    0    0  0.68315805941E+00  0.11140539486E+02 -0.16764109310E+03  0.18844537998E+03  0.85343698155E+02 0.  0.
        -11    1    1    2    0    0 -0.51426263314E+01 -0.29701068661E+01  0.16712672630E+03  0.16723220618E+03  0.00000000000E+00 0. -1.
         11    1    1    2    0    0  0.44594682720E+01 -0.81704326203E+01  0.51436680183E+00  0.93224138332E+01  0.00000000000E+00 0. -1.
        -15    1    3    3    0    0  0.16305346254E+02 -0.13681728145E+02 -0.34379536519E+01  0.21634030041E+02  0.17770000000E+01 0.  1.
         15    1    3    3    0    0 -0.15622188195E+02  0.24822267631E+02 -0.16420313945E+03  0.16681134994E+03  0.17770000000E+01 0. -1.
</event>
<event>
 7    1  0.1462063E-003  0.1277923E+03  0.7546771E-02  0.1122915E+00
        -11   -1    0    0    0    0  0.00000000000E+00  0.00000000000E+00  0.18250000000E+03  0.18250000000E+03  0.00000000000E+00 0.  1.
         11   -1    0    0    0    0 -0.00000000000E+00 -0.00000000000E+00 -0.18250000000E+03  0.18250000000E+03  0.00000000000E+00 0. -1.
         23    2    1    2    0    0 -0.44016868354E+02 -0.62206058846E+00  0.10995070743E+02  0.10541915036E+03  0.95154789808E+02 0.  0.
        -11    1    1    2    0    0  0.72508134980E-01  0.17508926902E+01  0.12071549552E+03  0.12072821436E+03  0.00000000000E+00 0.  1.
         11    1    1    2    0    0  0.43944360219E+02 -0.11288321017E+01 -0.13171056627E+03  0.13885263528E+03  0.00000000000E+00 0. -1.
        -15    1    3    3    0    0 -0.62269293665E+02  0.91454212335E+00  0.37824667217E+02  0.72884597137E+02  0.17770000000E+01 0. -1.
         15    1    3    3    0    0  0.18252425311E+02 -0.15366027118E+01 -0.26829596474E+02  0.32534553225E+02  0.17770000000E+01 0.  1.
</event>
<event>
 7    1  0.1462063E-003  0.2119775E+03  0.7546771E-02  0.1047146E+00
        -11   -1    0    0    0    0  0.00000000000E+00  0.00000000000E+00  0.18250000000E+03  0.18250000000E+03  0.00000000000E+00 0. -1.
         11   -1    0    0    0    0 -0.00000000000E+00 -0.00000000000E+00 -0.18250000000E+03  0.18250000000E+03  0.00000000000E+00 0. -1.
         23    2    1    2    0    0 -0.14908417530E+02  0.44214286472E+01 -0.42844896922E+02  0.99989175342E+02  0.88996292332E+02 0.  0.
        -11    1    1    2    0    0  0.79002048810E+01  0.24169374905E+02  0.15089504619E+03  0.15302250451E+03  0.00000000000E+00 0. -1.
         11    1    1    2    0    0  0.70082126493E+01 -0.28590803552E+02 -0.10805014927E+03  0.11198832015E+03  0.00000000000E+00 0. -1.
        -15    1    3    3    0    0  0.29220556672E+01  0.43485393198E+02 -0.35817403665E+02  0.56440782819E+02  0.17770000000E+01 0.  1.
         15    1    3    3    0    0 -0.17830473197E+02 -0.39063964551E+02 -0.70274932570E+01  0.43548392523E+02  0.17770000000E+01 0. -1.
</event>
<event>
 7    1  0.1462063E-003  0.1840588E+03  0.7546771E-02  0.1067221E+00
        -11   -1    0    0    0    0  0.00000000000E+00  0.00000000000E+00  0.18250000000E+03  0.18250000000E+03  0.00000000000E+00 0. -1.
         11   -1    0    0    0    0 -0.00000000000E+00 -0.00000000000E+00 -0.18250000000E+03  0.18250000000E+03  0.00000000000E+00 0. -1.
         23    2    1    2    0    0 -0.18586072039E+02 -0.23358753550E+00 -0.16155879515E+03  0.18674082262E+03  0.91789944462E+02 0.  0.
        -11    1    1    2    0    0 -0.14138243963E+01 -0.35941835637E+01  0.15743567359E+03  0.15748304154E+03  0.00000000000E+00 0. -1.
         11    1    1    2    0    0  0.19999896436E+02  0.38277710992E+01  0.41231215682E+01  0.20776135841E+02  0.00000000000E+00 0. -1.
        -15    1    3    3    0    0 -0.21695640056E+02  0.34037509683E+02 -0.14086938024E+03  0.14654894364E+03  0.17770000000E+01 0. -1.
         15    1    3    3    0    0  0.31095680162E+01 -0.34271097218E+02 -0.20689414915E+02  0.40191878985E+02  0.17770000000E+01 0.  1.
</event>
<event>
 7    1  0.1462063E-003  0.2201442E+03  0.7546771E-02  0.1041903E+00
        -11   -1    0    0    0    0  0.00000000000E+00  0.00000000000E+00  0.18250000000E+03  0.18250000000E+03  0.00000000000E+00 0. -1.
         11   -1    0    0    0    0 -0.00000000000E+00 -0.00000000000E+00 -0.18250000000E+03  0.18250000000E+03  0.00000000000E+00 0. -1.
         23    2    1    2    0    0  0.15111244025E+02  0.14384867694E+02  0.27674087441E+02  0.10436030541E+03  0.98437513763E+02 0.  0.
        -11    1    1    2    0    0 -0.50050613222E+01  0.45138442716E+01  0.11558757374E+03  0.11578390489E+03  0.00000000000E+00 0. -1.
         11    1    1    2    0    0 -0.10106182703E+02 -0.18898711965E+02 -0.14326166118E+03  0.14485578969E+03  0.00000000000E+00 0. -1.
        -15    1    3    3    0    0 -0.15974256196E+02 -0.79662357701E+01  0.54631703077E+02  0.57501465055E+02  0.17770000000E+01 0. -1.
         15    1    3    3    0    0  0.31085500222E+02  0.22351103464E+02 -0.26957615636E+02  0.46858840360E+02  0.17770000000E+01 0.  1.
</event>
<event>
 7    1  0.1462063E-003  0.1791679E+03  0.7546771E-02  0.1071138E+00
        -11   -1    0    0    0    0  0.00000000000E+00  0.00000000000E+00  0.18250000000E+03  0.18250000000E+03  0.00000000000E+00 0. -1.
         11   -1    0    0    0    0 -0.00000000000E+00 -0.00000000000E+00 -0.18250000000E+03  0.18250000000E+03  0.00000000000E+00 0.  1.
         23    2    1    2    0    0  0.32720497755E+02  0.18830691087E+02  0.13240014479E+03  0.16612963287E+03  0.92973279371E+02 0.  0.
        -11    1    1    2    0    0  0.29868347080E+01 -0.43198875958E+01  0.30767340121E+02  0.31212366596E+02  0.00000000000E+00 0. -1.
         11    1    1    2    0    0 -0.35707332463E+02 -0.14510803492E+02 -0.16316748491E+03  0.16765800053E+03  0.00000000000E+00 0.  1.
        -15    1    3    3    0    0  0.15431425396E+02 -0.33396621075E+02  0.88046656212E+02  0.95440214732E+02  0.17770000000E+01 0. -1.
         15    1    3    3    0    0  0.17289072359E+02  0.52227312162E+02  0.44353488580E+02  0.70689418140E+02  0.17770000000E+01 0.  1.
</event>
<event>
 7    1  0.1462063E-003  0.1902527E+03  0.7546771E-02  0.1062446E+00
        -11   -1    0    0    0    0  0.00000000000E+00  0.00000000000E+00  0.18250000000E+03  0.18250000000E+03  0.00000000000E+00 0. -1.
         11   -1    0    0    0    0 -0.00000000000E+00 -0.00000000000E+00 -0.18250000000E+03  0.18250000000E+03  0.00000000000E+00 0. -1.
         23    2    1    2    0    0 -0.29138043860E+01  0.93449186074E+01 -0.16745133975E+03  0.19025273344E+03  0.89779360872E+02 0.  0.
        -11    1    1    2    0    0  0.23114801463E+02 -0.12730863963E+02  0.12306947893E+03  0.12586685659E+03  0.00000000000E+00 0. -1.
         11    1    1    2    0    0 -0.20200997077E+02  0.33859453551E+01  0.44381860821E+02  0.48880409970E+02  0.00000000000E+00 0. -1.
        -15    1    3    3    0    0  0.14480470270E+02  0.43218340036E+02 -0.54652784330E+02  0.71187031816E+02  0.17770000000E+01 0. -1.
         15    1    3    3    0    0 -0.17394274656E+02 -0.33873421429E+02 -0.11279855542E+03  0.11906570163E+03  0.17770000000E+01 0.  1.
</event>
