<event>
 7    1  0.4931604E-004  0.5159776E+03  0.7546771E-02  0.9364752E-01
        -11   -1    0    0    0    0  0.00000000000E+00  0.00000000000E+00  0.50000000000E+03  0.50000000000E+03  0.00000000000E+00 0. -1.
         11   -1    0    0    0    0 -0.00000000000E+00 -0.00000000000E+00 -0.50000000000E+03  0.50000000000E+03  0.00000000000E+00 0. -1.
         23    2    1    2    0    0  0.55389319874E+02  0.14701413648E+01 -0.23017899111E+03  0.25427530252E+03  0.92754641136E+02 0.  0.
        -11    1    1    2    0    0 -0.16157921539E+02  0.71375026087E+02  0.47845818544E+03  0.48402242509E+03  0.00000000000E+00 0. -1.
         11    1    1    2    0    0 -0.39231398335E+02 -0.72845167452E+02 -0.24827919433E+03  0.26170227239E+03  0.00000000000E+00 0. -1.
        -15    1    3    3    0    0  0.21187881935E+02  0.41539910926E+02 -0.59349893190E+02  0.75498729071E+02  0.17770000000E+01 0.  1.
         15    1    3    3    0    0  0.34201437939E+02 -0.40069769561E+02 -0.17082909792E+03  0.17877657345E+03  0.17770000000E+01 0. -1.
</event>
<event>
 6    1  0.4931604E-004  0.4309054E+03  0.7546771E-02  0.9569250E-01
        -11   -1    0    0    0    0  0.00000000000E+00  0.00000000000E+00  0.50000000000E+03  0.50000000000E+03  0.00000000000E+00 0. -1.
         11   -1    0    0    0    0 -0.00000000000E+00 -0.00000000000E+00 -0.50000000000E+03  0.50000000000E+03  0.00000000000E+00 0.  1.
        -11    1    1    2    0    0 -0.52571711743E+01 -0.24391270048E+02  0.31938406556E+03  0.32035722754E+03  0.00000000000E+00 0. -1.
         11    1    1    2    0    0  0.79781004808E+02 -0.18388446714E+03  0.14875714860E+02  0.20099699718E+03  0.00000000000E+00 0.  1.
        -15    1    1    2    0    0 -0.78913984094E+01  0.24462182025E+02  0.45055244855E+02  0.51901881818E+02  0.17770000000E+01 0. -1.
         15    1    1    2    0    0 -0.66632435224E+02  0.18381355516E+03 -0.37931502527E+03  0.42674389347E+03  0.17770000000E+01 0.  1.
</event>
<event>
 7    1  0.4931604E-004  0.5185048E+03  0.7546771E-02  0.9359330E-01
        -11   -1    0    0    0    0  0.00000000000E+00  0.00000000000E+00  0.50000000000E+03  0.50000000000E+03  0.00000000000E+00 0.  1.
         11   -1    0    0    0    0 -0.00000000000E+00 -0.00000000000E+00 -0.50000000000E+03  0.50000000000E+03  0.00000000000E+00 0.  1.
         23    2    1    2    0    0 -0.76879569573E+02 -0.13057773357E+01 -0.23667673899E+03  0.26544961942E+03  0.92387490475E+02 0.  0.
        -11    1    1    2    0    0  0.12301911417E+02  0.70013305898E+01  0.48128708201E+03  0.48149518270E+03  0.00000000000E+00 0.  1.
         11    1    1    2    0    0  0.64577658156E+02 -0.56955532541E+01 -0.24461034302E+03  0.25305519788E+03  0.00000000000E+00 0.  1.
        -15    1    3    3    0    0 -0.61352436887E+02 -0.68534029335E+01 -0.24060656869E+03  0.24840645980E+03  0.17770000000E+01 0.  1.
         15    1    3    3    0    0 -0.15527132686E+02  0.55476255978E+01  0.39298297003E+01  0.17043159616E+02  0.17770000000E+01 0. -1.
</event>
<event>
 7    1  0.4931604E-004  0.4663389E+03  0.7546771E-02  0.9478448E-01
        -11   -1    0    0    0    0  0.00000000000E+00  0.00000000000E+00  0.50000000000E+03  0.50000000000E+03  0.00000000000E+00 0. -1.
         11   -1    0    0    0    0 -0.00000000000E+00 -0.00000000000E+00 -0.50000000000E+03  0.50000000000E+03  0.00000000000E+00 0.  1.
         23    2    1    2    0    0  0.26051615119E+01 -0.24149025222E+02 -0.42935530017E+03  0.43960565939E+03  0.91198682543E+02 0.  0.
        -11    1    1    2    0    0 -0.36316092015E+02 -0.89601233259E+01  0.48554191794E+03  0.48698059143E+03  0.00000000000E+00 0. -1.
         11    1    1    2    0    0  0.33710930504E+02  0.33109148548E+02 -0.56186617773E+02  0.73413749188E+02  0.00000000000E+00 0.  1.
        -15    1    3    3    0    0 -0.34318905318E+02 -0.25805701886E+02 -0.10972986995E+03  0.11784533763E+03  0.17770000000E+01 0. -1.
         15    1    3    3    0    0  0.36924066830E+02  0.16566766642E+01 -0.31962543022E+03  0.32176032176E+03  0.17770000000E+01 0.  1.
</event>
<event>
 7    1  0.4931604E-004  0.5236778E+03  0.7546771E-02  0.9348334E-01
        -11   -1    0    0    0    0  0.00000000000E+00  0.00000000000E+00  0.50000000000E+03  0.50000000000E+03  0.00000000000E+00 0.  1.
         11   -1    0    0    0    0 -0.00000000000E+00 -0.00000000000E+00 -0.50000000000E+03  0.50000000000E+03  0.00000000000E+00 0. -1.
         23    2    1    2    0    0 -0.11049081900E+01 -0.51116481098E+02 -0.25985323106E+03  0.28036097590E+03  0.92002498088E+02 0.  0.
        -11    1    1    2    0    0 -0.89963397884E+01 -0.69002551188E+02  0.47121181193E+03  0.47632222066E+03  0.00000000000E+00 0.  1.
         11    1    1    2    0    0  0.10101247978E+02  0.12011903229E+03 -0.21135858087E+03  0.24331680344E+03  0.00000000000E+00 0. -1.
        -15    1    3    3    0    0 -0.38432908008E+02 -0.33324985188E+02 -0.73093918372E+02  0.89070318781E+02  0.17770000000E+01 0.  1.
         15    1    3    3    0    0  0.37327999818E+02 -0.17791495909E+02 -0.18675931269E+03  0.19129065712E+03  0.17770000000E+01 0. -1.
</event>
<event>
 7    1  0.4931604E-004  0.4426003E+03  0.7546771E-02  0.9538282E-01
        -11   -1    0    0    0    0  0.00000000000E+00  0.00000000000E+00  0.50000000000E+03  0.50000000000E+03  0.00000000000E+00 0.  1.
         11   -1    0    0    0    0 -0.00000000000E+00 -0.00000000000E+00 -0.50000000000E+03  0.50000000000E+03  0.00000000000E+00 0. -1.
         23    2    1    2    0    0 -0.82041389336E+02 -0.13374634237E+02 -0.34168144005E+02  0.11024870348E+03  0.63856433895E+02 0.  0.
        -11    1    1    2    0    0 -0.35311788703E+01  0.45154740391E+02  0.45595531620E+03  0.45819937819E+03  0.00000000000E+00 0.  1.
         11    1    1    2    0    0  0.85572568207E+02 -0.31780106154E+02 -0.42178717220E+03  0.43155191832E+03  0.00000000000E+00 0. -1.
        -15    1    3    3    0    0 -0.64537185333E+02  0.15760601205E+02 -0.37056840634E+02  0.76090814215E+02  0.17770000000E+01 0.  1.
         15    1    3    3    0    0 -0.17504204003E+02 -0.29135235442E+02  0.28886966288E+01  0.34157889268E+02  0.17770000000E+01 0. -1.
</event>
<event>
 7    1  0.4931604E-004  0.5019281E+03  0.7546771E-02  0.9395506E-01
        -11   -1    0    0    0    0  0.00000000000E+00  0.00000000000E+00  0.50000000000E+03  0.50000000000E+03  0.00000000000E+00 0. -1.
         11   -1    0    0    0    0 -0.00000000000E+00 -0.00000000000E+00 -0.50000000000E+03  0.50000000000E+03  0.00000000000E+00 0. -1.
         23    2    1    2    0    0 -0.17587427404E+01  0.41547424968E+01 -0.49290750398E+03  0.50192814339E+03  0.94623985250E+02 0.  0.
        -11    1    1    2    0    0  0.12252585613E+02  0.23694841082E+01  0.48014669240E+03  0.48030884494E+03  0.00000000000E+00 0. -1.
         11    1    1    2    0    0 -0.10493842873E+02 -0.65242266050E+01  0.12760811586E+02  0.17763011664E+02  0.00000000000E+00 0. -1.
        -15    1    3    3    0    0  0.60983796216E+01 -0.30954777969E+02 -0.62676767456E+02  0.70192046706E+02  0.17770000000E+01 0.  1.
         15    1    3    3    0    0 -0.78571223620E+01  0.35109520466E+02 -0.43023073653E+03  0.43173609669E+03  0.17770000000E+01 0. -1.
</event>
<event>
 7    1  0.4931604E-004  0.5028519E+03  0.7546771E-02  0.9393451E-01
        -11   -1    0    0    0    0  0.00000000000E+00  0.00000000000E+00  0.50000000000E+03  0.50000000000E+03  0.00000000000E+00 0. -1.
         11   -1    0    0    0    0 -0.00000000000E+00 -0.00000000000E+00 -0.50000000000E+03  0.50000000000E+03  0.00000000000E+00 0. -1.
         23    2    1    2    0    0 -0.21881320118E+02 -0.95404683221E+01 -0.48815501928E+03  0.49714809939E+03  0.91055462099E+02 0.  0.
        -11    1    1    2    0    0 -0.23010118473E+01 -0.64308927438E+01  0.46680795160E+03  0.46685791705E+03  0.00000000000E+00 0. -1.
         11    1    1    2    0    0  0.24182331966E+02  0.15971361066E+02  0.21347067682E+02  0.35993983556E+02  0.00000000000E+00 0. -1.
        -15    1    3    3    0    0 -0.18110863100E+02 -0.50021879091E+02 -0.26014611486E+03  0.26553596848E+03  0.17770000000E+01 0. -1.
         15    1    3    3    0    0 -0.37704570182E+01  0.40481410769E+02 -0.22800890442E+03  0.23161213092E+03  0.17770000000E+01 0.  1.
</event>
<event>
 7    1  0.4931604E-004  0.5027581E+03  0.7546771E-02  0.9393659E-01
        -11   -1    0    0    0    0  0.00000000000E+00  0.00000000000E+00  0.50000000000E+03  0.50000000000E+03  0.00000000000E+00 0. -1.
         11   -1    0    0    0    0 -0.00000000000E+00 -0.00000000000E+00 -0.50000000000E+03  0.50000000000E+03  0.00000000000E+00 0. -1.
         23    2    1    2    0    0  0.19170716720E+03 -0.39881357743E+02 -0.45358645357E+03  0.50275812694E+03  0.93182094289E+02 0.  0.
        -11    1    1    2    0    0  0.33865450478E+01 -0.17622299133E+01  0.13941189422E+02  0.14454442367E+02  0.00000000000E+00 0. -1.
         11    1    1    2    0    0 -0.19509371225E+03  0.41643587657E+02  0.43964526414E+03  0.48278743069E+03  0.00000000000E+00 0. -1.
        -15    1    3    3    0    0  0.17892699949E+03 -0.53552243174E+02 -0.44393543203E+03  0.48162697125E+03  0.17770000000E+01 0. -1.
         15    1    3    3    0    0  0.12780167709E+02  0.13670885430E+02 -0.96510215352E+01  0.21131155690E+02  0.17770000000E+01 0.  1.
</event>
<event>
 6    1  0.4931604E-004  0.4787066E+03  0.7546771E-02  0.9448758E-01
        -11   -1    0    0    0    0  0.00000000000E+00  0.00000000000E+00  0.50000000000E+03  0.50000000000E+03  0.00000000000E+00 0. -1.
         11   -1    0    0    0    0 -0.00000000000E+00 -0.00000000000E+00 -0.50000000000E+03  0.50000000000E+03  0.00000000000E+00 0.  1.
        -11    1    1    2    0    0 -0.27413362750E+02 -0.83065329772E+01  0.48155701288E+03  0.48240817530E+03  0.00000000000E+00 0. -1.
         11    1    1    2    0    0  0.92004219923E+01  0.10158946046E+02  0.29720212961E+01  0.14024437963E+02  0.00000000000E+00 0.  1.
        -15    1    1    2    0    0 -0.25862026602E+02  0.11320038767E+01 -0.11340083393E+02  0.28317504711E+02  0.17770000000E+01 0. -1.
         15    1    1    2    0    0  0.44074967359E+02 -0.29844169452E+01 -0.47318895078E+03  0.47524988202E+03  0.17770000000E+01 0.  1.
</event>
<event>
 7    1  0.4931604E-004  0.4984563E+03  0.7546771E-02  0.9403271E-01
        -11   -1    0    0    0    0  0.00000000000E+00  0.00000000000E+00  0.50000000000E+03  0.50000000000E+03  0.00000000000E+00 0. -1.
         11   -1    0    0    0    0 -0.00000000000E+00 -0.00000000000E+00 -0.50000000000E+03  0.50000000000E+03  0.00000000000E+00 0. -1.
         23    2    1    2    0    0 -0.81603002823E+01  0.45427696292E+01 -0.49354276334E+03  0.50064798176E+03  0.83526733098E+02 0.  0.
        -11    1    1    2    0    0  0.16301684999E+02 -0.70444473848E+00  0.48899566763E+03  0.48926782455E+03  0.00000000000E+00 0. -1.
         11    1    1    2    0    0 -0.81413847166E+01 -0.38383248907E+01  0.45470957020E+01  0.10084193691E+02  0.00000000000E+00 0. -1.
        -15    1    3    3    0    0  0.10701202633E+02 -0.73969207615E+01 -0.97915123659E+01  0.16378694025E+02  0.17770000000E+01 0.  1.
         15    1    3    3    0    0 -0.18861502916E+02  0.11939690391E+02 -0.48375125097E+03  0.48426928773E+03  0.17770000000E+01 0. -1.
</event>
<event>
 7    1  0.4931604E-004  0.5122527E+03  0.7546771E-02  0.9372803E-01
        -11   -1    0    0    0    0  0.00000000000E+00  0.00000000000E+00  0.50000000000E+03  0.50000000000E+03  0.00000000000E+00 0.  1.
         11   -1    0    0    0    0 -0.00000000000E+00 -0.00000000000E+00 -0.50000000000E+03  0.50000000000E+03  0.00000000000E+00 0. -1.
         23    2    1    2    0    0  0.40077563965E+02 -0.36153225702E+02 -0.26163116011E+03  0.28422244288E+03  0.97047752351E+02 0.  0.
        -11    1    1    2    0    0  0.38081395197E+01  0.55639879167E+02  0.48454840856E+03  0.48774733041E+03  0.00000000000E+00 0.  1.
         11    1    1    2    0    0 -0.43885703485E+02 -0.19486653465E+02 -0.22291724845E+03  0.22803022671E+03  0.00000000000E+00 0. -1.
        -15    1    3    3    0    0  0.35050499595E+02 -0.66897131199E+01 -0.20402335910E+02  0.41142469822E+02  0.17770000000E+01 0.  1.
         15    1    3    3    0    0  0.50270643705E+01 -0.29463512582E+02 -0.24122882420E+03  0.24307997306E+03  0.17770000000E+01 0. -1.
</event>
<event>
 7    1  0.4931604E-004  0.4208395E+03  0.7546771E-02  0.9596755E-01
        -11   -1    0    0    0    0  0.00000000000E+00  0.00000000000E+00  0.50000000000E+03  0.50000000000E+03  0.00000000000E+00 0. -1.
         11   -1    0    0    0    0 -0.00000000000E+00 -0.00000000000E+00 -0.50000000000E+03  0.50000000000E+03  0.00000000000E+00 0.  1.
         23    2    1    2    0    0  0.10281911258E+03 -0.66056817244E+02 -0.17683278384E+02  0.14931110256E+03  0.83939466267E+02 0.  0.
        -11    1    1    2    0    0 -0.26771803712E+02  0.33438735790E+02  0.42899901309E+03  0.43113226712E+03  0.00000000000E+00 0. -1.
         11    1    1    2    0    0 -0.76047308872E+02  0.32618081454E+02 -0.41131573470E+03  0.41955663031E+03  0.00000000000E+00 0.  1.
        -15    1    3    3    0    0  0.64036791194E+01 -0.11202086648E+02  0.26788819525E+02  0.29787454273E+02  0.17770000000E+01 0.  1.
         15    1    3    3    0    0  0.96415433464E+02 -0.54854730596E+02 -0.44472097910E+02  0.11952364829E+03  0.17770000000E+01 0. -1.
</event>
<event>
 7    1  0.4931604E-004  0.4852458E+03  0.7546771E-02  0.9433442E-01
        -11   -1    0    0    0    0  0.00000000000E+00  0.00000000000E+00  0.50000000000E+03  0.50000000000E+03  0.00000000000E+00 0. -1.
         11   -1    0    0    0    0 -0.00000000000E+00 -0.00000000000E+00 -0.50000000000E+03  0.50000000000E+03  0.00000000000E+00 0.  1.
         23    2    1    2    0    0 -0.14221200962E+02 -0.19912146548E+02 -0.46014259764E+03  0.46938952465E+03  0.89423596161E+02 0.  0.
        -11    1    1    2    0    0  0.30666968241E+02  0.11846162578E+02  0.49241011648E+03  0.49350634983E+03  0.00000000000E+00 0. -1.
         11    1    1    2    0    0 -0.16445767279E+02  0.80659839709E+01 -0.32267518835E+02  0.37104125519E+02  0.00000000000E+00 0.  1.
        -15    1    3    3    0    0  0.15421537970E+02  0.69872856778E+01 -0.15742674604E+02  0.23186968909E+02  0.17770000000E+01 0. -1.
         15    1    3    3    0    0 -0.29642738932E+02 -0.26899432226E+02 -0.44439992304E+03  0.44620255574E+03  0.17770000000E+01 0.  1.
</event>
<event>
 7    1  0.4931604E-004  0.5233089E+03  0.7546771E-02  0.9349113E-01
        -11   -1    0    0    0    0  0.00000000000E+00  0.00000000000E+00  0.50000000000E+03  0.50000000000E+03  0.00000000000E+00 0. -1.
         11   -1    0    0    0    0 -0.00000000000E+00 -0.00000000000E+00 -0.50000000000E+03  0.50000000000E+03  0.00000000000E+00 0.  1.
         23    2    1    2    0    0 -0.80628614603E+01 -0.37063527040E+02 -0.94728294166E+02  0.14006842047E+03  0.95953102739E+02 0.  0.
        -11    1    1    2    0    0 -0.18073631766E+01  0.67437118844E+01  0.47663998580E+03  0.47669111621E+03  0.00000000000E+00 0. -1.
         11    1    1    2    0    0  0.98702246369E+01  0.30319815156E+02 -0.38191169163E+03  0.38324046332E+03  0.00000000000E+00 0.  1.
        -15    1    3    3    0    0  0.31807204516E+01 -0.28329088173E+01  0.19624897136E+02  0.20160274590E+02  0.17770000000E+01 0. -1.
         15    1    3    3    0    0 -0.11243581912E+02 -0.34230618223E+02 -0.11435319130E+03  0.11990814588E+03  0.17770000000E+01 0.  1.
</event>
<event>
 7    1  0.4931604E-004  0.5038119E+03  0.7546771E-02  0.9391320E-01
        -11   -1    0    0    0    0  0.00000000000E+00  0.00000000000E+00  0.50000000000E+03  0.50000000000E+03  0.00000000000E+00 0.  1.
         11   -1    0    0    0    0 -0.00000000000E+00 -0.00000000000E+00 -0.50000000000E+03  0.50000000000E+03  0.00000000000E+00 0.  1.
         23    2    1    2    0    0 -0.79363635732E+00 -0.36497718397E+01 -0.49596426986E+03  0.50381190780E+03  0.88498196408E+02 0.  0.
        -11    1    1    2    0    0 -0.37178690528E+01  0.52178738524E+01  0.43133253316E+03  0.43138011419E+03  0.00000000000E+00 0.  1.
         11    1    1    2    0    0  0.45115054101E+01 -0.15681020127E+01  0.64631736703E+02  0.64807978014E+02  0.00000000000E+00 0.  1.
        -15    1    3    3    0    0 -0.35189019545E+02 -0.10903024374E+02 -0.39820920183E+03  0.39991357715E+03  0.17770000000E+01 0. -1.
         15    1    3    3    0    0  0.34395383188E+02  0.72532525339E+01 -0.97755068030E+02  0.10389833065E+03  0.17770000000E+01 0.  1.
</event>
<event>
 7    1  0.4931604E-004  0.5031491E+03  0.7546771E-02  0.9392791E-01
        -11   -1    0    0    0    0  0.00000000000E+00  0.00000000000E+00  0.50000000000E+03  0.50000000000E+03  0.00000000000E+00 0.  1.
         11   -1    0    0    0    0 -0.00000000000E+00 -0.00000000000E+00 -0.50000000000E+03  0.50000000000E+03  0.00000000000E+00 0.  1.
         23    2    1    2    0    0  0.10815486537E+02  0.37660192543E+01 -0.49499894327E+03  0.50314905069E+03  0.89464270606E+02 0.  0.
        -11    1    1    2    0    0 -0.13096900900E+01 -0.89396261397E+01  0.46267794207E+03  0.46276615076E+03  0.00000000000E+00 0.  1.
         11    1    1    2    0    0 -0.95057964474E+01  0.51736068854E+01  0.32321001198E+02  0.34084798558E+02  0.00000000000E+00 0.  1.
        -15    1    3    3    0    0  0.10617010673E+02 -0.96408066094E+01 -0.91330311992E+01  0.17094913149E+02  0.17770000000E+01 0. -1.
         15    1    3    3    0    0  0.19847586480E+00  0.13406825864E+02 -0.48586591207E+03  0.48605413754E+03  0.17770000000E+01 0.  1.
</event>
<event>
 7    1  0.4931604E-004  0.5058499E+03  0.7546771E-02  0.9386814E-01
        -11   -1    0    0    0    0  0.00000000000E+00  0.00000000000E+00  0.50000000000E+03  0.50000000000E+03  0.00000000000E+00 0. -1.
         11   -1    0    0    0    0 -0.00000000000E+00 -0.00000000000E+00 -0.50000000000E+03  0.50000000000E+03  0.00000000000E+00 0.  1.
         23    2    1    2    0    0  0.22004770367E+02 -0.19259088505E+02  0.38437576700E+03  0.39645410076E+03  0.92606702470E+02 0.  0.
        -11    1    1    2    0    0  0.15082707074E+02  0.57870216060E+01  0.10819640724E+03  0.10939579613E+03  0.00000000000E+00 0. -1.
         11    1    1    2    0    0 -0.37087477441E+02  0.13472066900E+02 -0.49257217424E+03  0.49415010311E+03  0.00000000000E+00 0.  1.
        -15    1    3    3    0    0  0.26196480833E+02  0.32888041486E+02  0.12641228650E+03  0.13323326457E+03  0.17770000000E+01 0.  1.
         15    1    3    3    0    0 -0.41917104662E+01 -0.52147129991E+02  0.25796348050E+03  0.26322083619E+03  0.17770000000E+01 0. -1.
</event>
<event>
 7    1  0.4931604E-004  0.5030001E+03  0.7546771E-02  0.9393122E-01
        -11   -1    0    0    0    0  0.00000000000E+00  0.00000000000E+00  0.50000000000E+03  0.50000000000E+03  0.00000000000E+00 0. -1.
         11   -1    0    0    0    0 -0.00000000000E+00 -0.00000000000E+00 -0.50000000000E+03  0.50000000000E+03  0.00000000000E+00 0. -1.
         23    2    1    2    0    0  0.18787967569E+02  0.16816987194E+02 -0.49268076073E+03  0.50300006052E+03  0.98178053082E+02 0.  0.
        -11    1    1    2    0    0  0.17042186543E+01  0.82303806753E+01  0.37082070144E+03  0.37091594215E+03  0.00000000000E+00 0. -1.
         11    1    1    2    0    0 -0.20492186223E+02 -0.25047367870E+02  0.12186005929E+03  0.12608399733E+03  0.00000000000E+00 0. -1.
        -15    1    3    3    0    0  0.30070339962E+01  0.57024460469E+02 -0.24483114312E+03  0.25140858719E+03  0.17770000000E+01 0.  1.
         15    1    3    3    0    0  0.15780933573E+02 -0.40207473275E+02 -0.24784961761E+03  0.25159147332E+03  0.17770000000E+01 0. -1.
</event>
<event>
 7    1  0.4931604E-004  0.5319147E+03  0.7546771E-02  0.9331100E-01
        -11   -1    0    0    0    0  0.00000000000E+00  0.00000000000E+00  0.50000000000E+03  0.50000000000E+03  0.00000000000E+00 0. -1.
         11   -1    0    0    0    0 -0.00000000000E+00 -0.00000000000E+00 -0.50000000000E+03  0.50000000000E+03  0.00000000000E+00 0. -1.
         23    2    1    2    0    0  0.39666151603E+02 -0.42631428739E+02  0.65297456114E+02  0.13254973561E+03  0.99573251111E+02 0.  0.
        -11    1    1    2    0    0  0.18169789937E+02  0.17976997123E+02  0.39854623171E+03  0.39936501161E+03  0.00000000000E+00 0. -1.
         11    1    1    2    0    0 -0.57835941540E+02  0.24654431616E+02 -0.46384368782E+03  0.46808525277E+03  0.00000000000E+00 0. -1.
        -15    1    3    3    0    0 -0.25609456555E+02 -0.34461159406E+02  0.49425096910E+01  0.43255079513E+02  0.17770000000E+01 0.  1.
         15    1    3    3    0    0  0.65275608158E+02 -0.81702693331E+01  0.60354946423E+02  0.89294656100E+02  0.17770000000E+01 0. -1.
</event>
<event>
 7    1  0.4931604E-004  0.5204511E+03  0.7546771E-02  0.9355177E-01
        -11   -1    0    0    0    0  0.00000000000E+00  0.00000000000E+00  0.50000000000E+03  0.50000000000E+03  0.00000000000E+00 0. -1.
         11   -1    0    0    0    0 -0.00000000000E+00 -0.00000000000E+00 -0.50000000000E+03  0.50000000000E+03  0.00000000000E+00 0.  1.
         23    2    1    2    0    0  0.29958122941E+02 -0.64804871104E+02 -0.19039745562E+03  0.22306217722E+03  0.91697237431E+02 0.  0.
        -11    1    1    2    0    0 -0.78276259729E+01 -0.13764635509E+01  0.47948301061E+03  0.47954887534E+03  0.00000000000E+00 0. -1.
         11    1    1    2    0    0 -0.22130496968E+02  0.66181334655E+02 -0.28908555499E+03  0.29738894744E+03  0.00000000000E+00 0.  1.
        -15    1    3    3    0    0  0.42937140927E+02 -0.47073117471E+02 -0.50177636175E+02  0.81119845664E+02  0.17770000000E+01 0. -1.
         15    1    3    3    0    0 -0.12979017985E+02 -0.17731753633E+02 -0.14021981944E+03  0.14194233156E+03  0.17770000000E+01 0.  1.
</event>
<event>
 7    1  0.4931604E-004  0.4733164E+03  0.7546771E-02  0.9461579E-01
        -11   -1    0    0    0    0  0.00000000000E+00  0.00000000000E+00  0.50000000000E+03  0.50000000000E+03  0.00000000000E+00 0. -1.
         11   -1    0    0    0    0 -0.00000000000E+00 -0.00000000000E+00 -0.50000000000E+03  0.50000000000E+03  0.00000000000E+00 0.  1.
         23    2    1    2    0    0  0.94404669249E+01 -0.25435825204E+02 -0.43935339006E+03  0.44950421234E+03  0.91030390174E+02 0.  0.
        -11    1    1    2    0    0 -0.24631534727E+01 -0.61888081101E+01  0.49018176640E+03  0.49022702148E+03  0.00000000000E+00 0. -1.
         11    1    1    2    0    0 -0.69773134522E+01  0.31624633314E+02 -0.50828376340E+02  0.60268766178E+02  0.00000000000E+00 0.  1.
        -15    1    3    3    0    0 -0.26665924673E+02 -0.10030752959E+02 -0.35822047271E+03  0.35935602449E+03  0.17770000000E+01 0.  1.
         15    1    3    3    0    0  0.36106391598E+02 -0.15405072245E+02 -0.81132917356E+02  0.90148187851E+02  0.17770000000E+01 0. -1.
</event>
<event>
 7    1  0.4931604E-004  0.4090678E+03  0.7546771E-02  0.9629981E-01
        -11   -1    0    0    0    0  0.00000000000E+00  0.00000000000E+00  0.50000000000E+03  0.50000000000E+03  0.00000000000E+00 0.  1.
         11   -1    0    0    0    0 -0.00000000000E+00 -0.00000000000E+00 -0.50000000000E+03  0.50000000000E+03  0.00000000000E+00 0.  1.
         23    2    1    2    0    0  0.20518590818E+03 -0.32541367411E+03 -0.20168298266E+03  0.44356555672E+03  0.89883599147E+02 0.  0.
        -11    1    1    2    0    0 -0.30530807914E+01  0.13517341526E+01  0.17342398643E+03  0.17345612574E+03  0.00000000000E+00 0.  1.
         11    1    1    2    0    0 -0.20213282739E+03  0.32406193996E+03  0.28258996224E+02  0.38297831754E+03  0.00000000000E+00 0.  1.
        -15    1    3    3    0    0  0.14743429588E+03 -0.15125179693E+03 -0.11707525686E+03  0.24150310800E+03  0.17770000000E+01 0.  1.
         15    1    3    3    0    0  0.57751612303E+02 -0.17416187719E+03 -0.84607725797E+02  0.20206244872E+03  0.17770000000E+01 0. -1.
</event>
<event>
 6    1  0.4931604E-004  0.4110218E+03  0.7546771E-02  0.9624384E-01
        -11   -1    0    0    0    0  0.00000000000E+00  0.00000000000E+00  0.50000000000E+03  0.50000000000E+03  0.00000000000E+00 0. -1.
         11   -1    0    0    0    0 -0.00000000000E+00 -0.00000000000E+00 -0.50000000000E+03  0.50000000000E+03  0.00000000000E+00 0. -1.
        -11    1    1    2    0    0  0.20489562060E+02 -0.78788839339E+01  0.42125671457E+03  0.42182830457E+03  0.00000000000E+00 0. -1.
         11    1    1    2    0    0  0.37250693898E+02  0.72954294124E+02 -0.39680099725E+03  0.40516783515E+03  0.00000000000E+00 0. -1.
        -15    1    1    2    0    0 -0.33723000372E+02 -0.45596518293E+02  0.60280483848E+02  0.82783921727E+02  0.17770000000E+01 0.  1.
         15    1    1    2    0    0 -0.24017255586E+02 -0.19478891897E+02 -0.84736201167E+02  0.90219938554E+02  0.17770000000E+01 0. -1.
</event>
<event>
 7    1  0.4931604E-004  0.5029414E+03  0.7546771E-02  0.9393252E-01
        -11   -1    0    0    0    0  0.00000000000E+00  0.00000000000E+00  0.50000000000E+03  0.50000000000E+03  0.00000000000E+00 0. -1.
         11   -1    0    0    0    0 -0.00000000000E+00 -0.00000000000E+00 -0.50000000000E+03  0.50000000000E+03  0.00000000000E+00 0.  1.
         23    2    1    2    0    0  0.19134494980E+01 -0.90984739967E+01 -0.49509667508E+03  0.50294138070E+03  0.87993586281E+02 0.  0.
        -11    1    1    2    0    0  0.65978351156E+01  0.32349897840E+00  0.45701877122E+03  0.45706650865E+03  0.00000000000E+00 0. -1.
         11    1    1    2    0    0 -0.85112846136E+01  0.87749750183E+01  0.38077903857E+02  0.39992110653E+02  0.00000000000E+00 0.  1.
        -15    1    3    3    0    0  0.12509794933E+01  0.11088689397E+02 -0.47228854061E+03  0.47242369469E+03  0.17770000000E+01 0.  1.
         15    1    3    3    0    0  0.66247000476E+00 -0.20187163394E+02 -0.22808134465E+02  0.30517686006E+02  0.17770000000E+01 0. -1.
</event>
<event>
 7    1  0.4931604E-004  0.5107244E+03  0.7546771E-02  0.9376128E-01
        -11   -1    0    0    0    0  0.00000000000E+00  0.00000000000E+00  0.50000000000E+03  0.50000000000E+03  0.00000000000E+00 0. -1.
         11   -1    0    0    0    0 -0.00000000000E+00 -0.00000000000E+00 -0.50000000000E+03  0.50000000000E+03  0.00000000000E+00 0. -1.
         23    2    1    2    0    0 -0.76033330452E+02 -0.69583519311E+02 -0.46987647495E+03  0.48927556827E+03  0.89351813019E+02 0.  0.
        -11    1    1    2    0    0 -0.46618788545E+00 -0.27220057751E+02  0.29749168558E+03  0.29873475169E+03  0.00000000000E+00 0. -1.
         11    1    1    2    0    0  0.76499518338E+02  0.96803577062E+02  0.17238478937E+03  0.21198968004E+03  0.00000000000E+00 0. -1.
        -15    1    3    3    0    0 -0.39182385237E+02 -0.43054104245E+02 -0.93431256315E+02  0.11009755942E+03  0.17770000000E+01 0.  1.
         15    1    3    3    0    0 -0.36850945215E+02 -0.26529415066E+02 -0.37644521864E+03  0.37917800885E+03  0.17770000000E+01 0. -1.
</event>
<event>
 7    1  0.4931604E-004  0.5162595E+03  0.7546771E-02  0.9364145E-01
        -11   -1    0    0    0    0  0.00000000000E+00  0.00000000000E+00  0.50000000000E+03  0.50000000000E+03  0.00000000000E+00 0. -1.
         11   -1    0    0    0    0 -0.00000000000E+00 -0.00000000000E+00 -0.50000000000E+03  0.50000000000E+03  0.00000000000E+00 0. -1.
         23    2    1    2    0    0 -0.20268335170E+02  0.17903164091E+02  0.11379345216E+03  0.14739875584E+03  0.89700138091E+02 0.  0.
        -11    1    1    2    0    0  0.21417458712E+01  0.12762576560E+02  0.36863365775E+03  0.36886073804E+03  0.00000000000E+00 0. -1.
         11    1    1    2    0    0  0.18126589299E+02 -0.30665740652E+02 -0.48242710991E+03  0.48374050613E+03  0.00000000000E+00 0. -1.
        -15    1    3    3    0    0 -0.10316976564E+02 -0.99984039825E+01  0.11668712548E+03  0.11758167829E+03  0.17770000000E+01 0. -1.
         15    1    3    3    0    0 -0.99513586061E+01  0.27901568074E+02 -0.28936733247E+01  0.29817077546E+02  0.17770000000E+01 0.  1.
</event>
<event>
 7    1  0.4931604E-004  0.5198555E+03  0.7546771E-02  0.9356446E-01
        -11   -1    0    0    0    0  0.00000000000E+00  0.00000000000E+00  0.50000000000E+03  0.50000000000E+03  0.00000000000E+00 0. -1.
         11   -1    0    0    0    0 -0.00000000000E+00 -0.00000000000E+00 -0.50000000000E+03  0.50000000000E+03  0.00000000000E+00 0. -1.
         23    2    1    2    0    0  0.31736336717E+02 -0.21796187950E+01 -0.91719880668E+02  0.12919601950E+03  0.85247458249E+02 0.  0.
        -11    1    1    2    0    0  0.97996117407E+01 -0.12985213791E+02  0.47986883939E+03  0.48014451073E+03  0.00000000000E+00 0. -1.
         11    1    1    2    0    0 -0.41535948458E+02  0.15164832586E+02 -0.38814895872E+03  0.39065946977E+03  0.00000000000E+00 0. -1.
        -15    1    3    3    0    0  0.15409446325E+02  0.40687131667E+02 -0.56522744297E+02  0.71350347380E+02  0.17770000000E+01 0.  1.
         15    1    3    3    0    0  0.16326890392E+02 -0.42866750462E+02 -0.35197136371E+02  0.57845672118E+02  0.17770000000E+01 0. -1.
</event>
<event>
 7    1  0.4931604E-004  0.4900211E+03  0.7546771E-02  0.9422419E-01
        -11   -1    0    0    0    0  0.00000000000E+00  0.00000000000E+00  0.50000000000E+03  0.50000000000E+03  0.00000000000E+00 0. -1.
         11   -1    0    0    0    0 -0.00000000000E+00 -0.00000000000E+00 -0.50000000000E+03  0.50000000000E+03  0.00000000000E+00 0. -1.
         23    2    1    2    0    0  0.11378255184E+02  0.14807519634E+02 -0.48822918078E+03  0.49718464521E+03  0.92065797899E+02 0.  0.
        -11    1    1    2    0    0  0.10442923475E+02 -0.33014700077E+01  0.47441609116E+03  0.47454249748E+03  0.00000000000E+00 0. -1.
         11    1    1    2    0    0 -0.21821178658E+02 -0.11506049626E+02  0.13813089613E+02  0.28272857314E+02  0.00000000000E+00 0. -1.
        -15    1    3    3    0    0 -0.26493312858E+02  0.33037221711E+01 -0.39474959757E+03  0.39565542170E+03  0.17770000000E+01 0. -1.
         15    1    3    3    0    0  0.37871568042E+02  0.11503797463E+02 -0.93479583203E+02  0.10152922351E+03  0.17770000000E+01 0.  1.
</event>
<event>
 7    1  0.6535941E-004  0.5384532E+03  0.7546771E-02  0.9317654E-01
        -11   -1    0    0    0    0  0.00000000000E+00  0.00000000000E+00  0.50000000000E+03  0.50000000000E+03  0.00000000000E+00 0. -1.
         11   -1    0    0    0    0 -0.00000000000E+00 -0.00000000000E+00 -0.50000000000E+03  0.50000000000E+03  0.00000000000E+00 0. -1.
         23    2    1    2    0    0 -0.35721565629E+02 -0.89526641187E+01  0.25530155288E+02  0.10395866151E+03  0.93805298511E+02 0.  0.
        -11    1    1    2    0    0  0.99781838029E+00 -0.67310487218E+01  0.43444127124E+03  0.43449455787E+03  0.00000000000E+00 0. -1.
         11    1    1    2    0    0  0.34723747248E+02  0.15683712840E+02 -0.45997142653E+03  0.46154678062E+03  0.00000000000E+00 0. -1.
        -15    1    3    3    0    0 -0.42281582065E+01  0.40558550238E+01  0.57127611261E+02  0.57454755932E+02  0.17770000000E+01 0.  1.
         15    1    3    3    0    0 -0.31493407422E+02 -0.13008519142E+02 -0.31597455973E+02  0.46503905581E+02  0.17770000000E+01 0. -1.
</event>
<event>
 6    1  0.4931604E-004  0.5204017E+03  0.7546771E-02  0.9355282E-01
        -11   -1    0    0    0    0  0.00000000000E+00  0.00000000000E+00  0.50000000000E+03  0.50000000000E+03  0.00000000000E+00 0.  1.
         11   -1    0    0    0    0 -0.00000000000E+00 -0.00000000000E+00 -0.50000000000E+03  0.50000000000E+03  0.00000000000E+00 0. -1.
        -11    1    1    2    0    0  0.33526015873E+01  0.86985015659E+01  0.43572041044E+03  0.43582012338E+03  0.00000000000E+00 0.  1.
         11    1    1    2    0    0 -0.47729267336E+02  0.19295920544E+02 -0.47682715810E+03  0.47959832591E+03  0.00000000000E+00 0. -1.
        -15    1    1    2    0    0  0.23045090242E+02 -0.17388379238E+02  0.51075042034E+02  0.58696248301E+02  0.17770000000E+01 0. -1.
         15    1    1    2    0    0  0.21331575507E+02 -0.10606042872E+02 -0.99682943732E+01  0.25885302407E+02  0.17770000000E+01 0.  1.
</event>
<event>
 7    1  0.4931604E-004  0.5132161E+03  0.7546771E-02  0.9370714E-01
        -11   -1    0    0    0    0  0.00000000000E+00  0.00000000000E+00  0.50000000000E+03  0.50000000000E+03  0.00000000000E+00 0. -1.
         11   -1    0    0    0    0 -0.00000000000E+00 -0.00000000000E+00 -0.50000000000E+03  0.50000000000E+03  0.00000000000E+00 0. -1.
         23    2    1    2    0    0  0.18889398991E+02  0.23315535887E+02  0.12385179980E+03  0.15091462886E+03  0.80842645194E+02 0.  0.
        -11    1    1    2    0    0 -0.27259002292E+02  0.26591297164E+02  0.36029464952E+03  0.36230151085E+03  0.00000000000E+00 0. -1.
         11    1    1    2    0    0  0.83696033010E+01 -0.49906833051E+02 -0.48414644932E+03  0.48678386029E+03  0.00000000000E+00 0. -1.
        -15    1    3    3    0    0  0.13974267945E+01  0.22877951241E+02 -0.26992705787E+01  0.23147294556E+02  0.17770000000E+01 0. -1.
         15    1    3    3    0    0  0.17491972197E+02  0.43758464617E+00  0.12655107038E+03  0.12776733431E+03  0.17770000000E+01 0.  1.
</event>
<event>
 7    1  0.4931604E-004  0.5022598E+03  0.7546771E-02  0.9394767E-01
        -11   -1    0    0    0    0  0.00000000000E+00  0.00000000000E+00  0.50000000000E+03  0.50000000000E+03  0.00000000000E+00 0.  1.
         11   -1    0    0    0    0 -0.00000000000E+00 -0.00000000000E+00 -0.50000000000E+03  0.50000000000E+03  0.00000000000E+00 0. -1.
         23    2    1    2    0    0 -0.45231221805E+01  0.13681359471E+01 -0.49394063626E+03  0.50225982147E+03  0.90913396645E+02 0.  0.
        -11    1    1    2    0    0 -0.65889065187E+01 -0.81687440147E+01  0.47274082625E+03  0.47285730497E+03  0.00000000000E+00 0.  1.
         11    1    1    2    0    0  0.11112028699E+02  0.68006080676E+01  0.21199810010E+02  0.24882873555E+02  0.00000000000E+00 0. -1.
        -15    1    3    3    0    0  0.30928736477E+02  0.24701164172E+02 -0.13153092057E+03  0.13736911970E+03  0.17770000000E+01 0.  1.
         15    1    3    3    0    0 -0.35451858658E+02 -0.23333028225E+02 -0.36240971569E+03  0.36489070177E+03  0.17770000000E+01 0. -1.
</event>
<event>
 7    1  0.7230590E-004  0.4663085E+03  0.7546771E-02  0.9478523E-01
        -11   -1    0    0    0    0  0.00000000000E+00  0.00000000000E+00  0.50000000000E+03  0.50000000000E+03  0.00000000000E+00 0. -1.
         11   -1    0    0    0    0 -0.00000000000E+00 -0.00000000000E+00 -0.50000000000E+03  0.50000000000E+03  0.00000000000E+00 0. -1.
         23    2    1    2    0    0  0.27873441136E+02 -0.50308907897E+01  0.73999605053E+01  0.66923623509E+02  0.60181171351E+02 0.  0.
        -11    1    1    2    0    0  0.21869369815E+01  0.71666131107E+01  0.46232498588E+03  0.46238570004E+03  0.00000000000E+00 0. -1.
         11    1    1    2    0    0 -0.30060378118E+02 -0.21357223209E+01 -0.46972494638E+03  0.47069067645E+03  0.00000000000E+00 0. -1.
        -15    1    3    3    0    0 -0.30201563092E+01 -0.13340758306E+01  0.28848652331E+02  0.29091297199E+02  0.17770000000E+01 0.  1.
         15    1    3    3    0    0  0.30893597445E+02 -0.36968149591E+01 -0.21448691825E+02  0.37832326309E+02  0.17770000000E+01 0. -1.
</event>
<event>
 7    1  0.4931604E-004  0.5177539E+03  0.7546771E-02  0.9360937E-01
        -11   -1    0    0    0    0  0.00000000000E+00  0.00000000000E+00  0.50000000000E+03  0.50000000000E+03  0.00000000000E+00 0. -1.
         11   -1    0    0    0    0 -0.00000000000E+00 -0.00000000000E+00 -0.50000000000E+03  0.50000000000E+03  0.00000000000E+00 0.  1.
         23    2    1    2    0    0 -0.22146971703E+02 -0.91390486757E+02 -0.27454600910E+03  0.29903644559E+03  0.72142742196E+02 0.  0.
        -11    1    1    2    0    0 -0.84677569223E+01  0.27269439947E+02  0.48139998610E+03  0.48224606985E+03  0.00000000000E+00 0. -1.
         11    1    1    2    0    0  0.30614728625E+02  0.64121046810E+02 -0.20685397700E+03  0.21871748456E+03  0.00000000000E+00 0.  1.
        -15    1    3    3    0    0 -0.39020817032E+02 -0.52305951719E+02 -0.22192698636E+03  0.23132937935E+03  0.17770000000E+01 0.  1.
         15    1    3    3    0    0  0.16873845329E+02 -0.39084535038E+02 -0.52619022745E+02  0.67707066241E+02  0.17770000000E+01 0. -1.
</event>
<event>
 7    1  0.4931604E-004  0.5206737E+03  0.7546771E-02  0.9354703E-01
        -11   -1    0    0    0    0  0.00000000000E+00  0.00000000000E+00  0.50000000000E+03  0.50000000000E+03  0.00000000000E+00 0. -1.
         11   -1    0    0    0    0 -0.00000000000E+00 -0.00000000000E+00 -0.50000000000E+03  0.50000000000E+03  0.00000000000E+00 0.  1.
         23    2    1    2    0    0  0.47983851597E+02  0.14843801436E+02 -0.46709624539E+03  0.47932626897E+03  0.95141900404E+02 0.  0.
        -11    1    1    2    0    0  0.53753050959E+02 -0.34397282636E+02  0.38001905505E+03  0.38534016887E+03  0.00000000000E+00 0. -1.
         11    1    1    2    0    0 -0.10173690256E+03  0.19553481200E+02  0.87077190340E+02  0.13533356216E+03  0.00000000000E+00 0.  1.
        -15    1    3    3    0    0  0.23417541708E+02  0.76209961809E+00 -0.18691533528E+02  0.30024876521E+02  0.17770000000E+01 0. -1.
         15    1    3    3    0    0  0.24566309889E+02  0.14081701818E+02 -0.44840471187E+03  0.44930139245E+03  0.17770000000E+01 0.  1.
</event>
<event>
 7    1  0.4931604E-004  0.5297818E+03  0.7546771E-02  0.9335530E-01
        -11   -1    0    0    0    0  0.00000000000E+00  0.00000000000E+00  0.50000000000E+03  0.50000000000E+03  0.00000000000E+00 0.  1.
         11   -1    0    0    0    0 -0.00000000000E+00 -0.00000000000E+00 -0.50000000000E+03  0.50000000000E+03  0.00000000000E+00 0. -1.
         23    2    1    2    0    0 -0.23546771911E+03 -0.38222067283E+02  0.22561053797E+03  0.34018695579E+03  0.89000431876E+02 0.  0.
        -11    1    1    2    0    0 -0.14673148668E+01 -0.11552450239E+03  0.15032682795E+03  0.18959488091E+03  0.00000000000E+00 0.  1.
         11    1    1    2    0    0  0.23693503398E+03  0.15374656967E+03 -0.37593736591E+03  0.47021816331E+03  0.00000000000E+00 0. -1.
        -15    1    3    3    0    0 -0.67126890706E+02 -0.31166325871E+02  0.12101916598E+03  0.14186668244E+03  0.17770000000E+01 0. -1.
         15    1    3    3    0    0 -0.16834082841E+03 -0.70557414115E+01  0.10459137199E+03  0.19832027334E+03  0.17770000000E+01 0.  1.
</event>
<event>
 7    1  0.4931604E-004  0.5350894E+03  0.7546771E-02  0.9324546E-01
        -11   -1    0    0    0    0  0.00000000000E+00  0.00000000000E+00  0.50000000000E+03  0.50000000000E+03  0.00000000000E+00 0.  1.
         11   -1    0    0    0    0 -0.00000000000E+00 -0.00000000000E+00 -0.50000000000E+03  0.50000000000E+03  0.00000000000E+00 0.  1.
         23    2    1    2    0    0  0.13979460998E+02 -0.72631952829E+01  0.23623788827E+02  0.94435049336E+02  0.90065064309E+02 0.  0.
        -11    1    1    2    0    0 -0.73958069164E+01 -0.45453992996E+02  0.43824136420E+03  0.44065435063E+03  0.00000000000E+00 0.  1.
         11    1    1    2    0    0 -0.65836540812E+01  0.52717188279E+02 -0.46186515302E+03  0.46491060003E+03  0.00000000000E+00 0.  1.
        -15    1    3    3    0    0  0.36119027082E+02 -0.38626470071E+02  0.11630933632E+02  0.54175867817E+02  0.17770000000E+01 0. -1.
         15    1    3    3    0    0 -0.22139566085E+02  0.31363274788E+02  0.11992855195E+02  0.40259181519E+02  0.17770000000E+01 0.  1.
</event>
<event>
 7    1  0.4931604E-004  0.4463797E+03  0.7546771E-02  0.9528492E-01
        -11   -1    0    0    0    0  0.00000000000E+00  0.00000000000E+00  0.50000000000E+03  0.50000000000E+03  0.00000000000E+00 0.  1.
         11   -1    0    0    0    0 -0.00000000000E+00 -0.00000000000E+00 -0.50000000000E+03  0.50000000000E+03  0.00000000000E+00 0. -1.
         23    2    1    2    0    0 -0.81413117792E+00  0.35785260459E+02  0.88005164671E+01  0.10647991548E+03  0.99896324430E+02 0.  0.
        -11    1    1    2    0    0  0.74410151113E+01 -0.25508398732E+01  0.44168833264E+03  0.44175837137E+03  0.00000000000E+00 0.  1.
         11    1    1    2    0    0 -0.66268839333E+01 -0.33234420585E+02 -0.45048884910E+03  0.45176171315E+03  0.00000000000E+00 0. -1.
        -15    1    3    3    0    0 -0.93820131267E+01 -0.19557551850E+02  0.37627836437E+02  0.43468745192E+02  0.17770000000E+01 0. -1.
         15    1    3    3    0    0  0.85678819488E+01  0.55342812308E+02 -0.28827319970E+02  0.63011170287E+02  0.17770000000E+01 0.  1.
</event>
<event>
 6    1  0.4931604E-004  0.5056593E+03  0.7546771E-02  0.9387235E-01
        -11   -1    0    0    0    0  0.00000000000E+00  0.00000000000E+00  0.50000000000E+03  0.50000000000E+03  0.00000000000E+00 0. -1.
         11   -1    0    0    0    0 -0.00000000000E+00 -0.00000000000E+00 -0.50000000000E+03  0.50000000000E+03  0.00000000000E+00 0. -1.
        -11    1    1    2    0    0  0.12904239523E+01 -0.94949853244E+01  0.49424778448E+03  0.49434066432E+03  0.00000000000E+00 0. -1.
         11    1    1    2    0    0 -0.29620205796E+02  0.40480997235E+01 -0.40190184532E+03  0.40301220450E+03  0.00000000000E+00 0. -1.
        -15    1    1    2    0    0  0.27772552542E+02 -0.97600786067E+01 -0.59953365345E+02  0.66814201741E+02  0.17770000000E+01 0. -1.
         15    1    1    2    0    0  0.55722930228E+00  0.15206964208E+02 -0.32392573810E+02  0.35832929436E+02  0.17770000000E+01 0.  1.
</event>
<event>
 7    1  0.4931604E-004  0.4940172E+03  0.7546771E-02  0.9413297E-01
        -11   -1    0    0    0    0  0.00000000000E+00  0.00000000000E+00  0.50000000000E+03  0.50000000000E+03  0.00000000000E+00 0. -1.
         11   -1    0    0    0    0 -0.00000000000E+00 -0.00000000000E+00 -0.50000000000E+03  0.50000000000E+03  0.00000000000E+00 0. -1.
         23    2    1    2    0    0 -0.84320373335E+01  0.30297016001E+01 -0.47758772579E+03  0.48625817186E+03  0.90976345968E+02 0.  0.
        -11    1    1    2    0    0  0.12928527218E+02  0.88714213936E+01  0.49328627298E+03  0.49353540506E+03  0.00000000000E+00 0. -1.
         11    1    1    2    0    0 -0.44964898848E+01 -0.11901122994E+02 -0.15698547195E+02  0.20206423083E+02  0.00000000000E+00 0. -1.
        -15    1    3    3    0    0  0.20875996040E+02  0.39231340850E+02 -0.25383826774E+03  0.25770512066E+03  0.17770000000E+01 0. -1.
         15    1    3    3    0    0 -0.29308033374E+02 -0.36201639250E+02 -0.22374945805E+03  0.22855305119E+03  0.17770000000E+01 0.  1.
</event>
<event>
 7    1  0.4931604E-004  0.4907834E+03  0.7546771E-02  0.9420672E-01
        -11   -1    0    0    0    0  0.00000000000E+00  0.00000000000E+00  0.50000000000E+03  0.50000000000E+03  0.00000000000E+00 0. -1.
         11   -1    0    0    0    0 -0.00000000000E+00 -0.00000000000E+00 -0.50000000000E+03  0.50000000000E+03  0.00000000000E+00 0. -1.
         23    2    1    2    0    0 -0.19276073196E+02 -0.21529512876E+01 -0.47007193874E+03  0.47935733987E+03  0.91867456184E+02 0.  0.
        -11    1    1    2    0    0  0.14824325439E+02  0.14304900836E+02  0.49347221796E+03  0.49390203554E+03  0.00000000000E+00 0. -1.
         11    1    1    2    0    0  0.44517477573E+01 -0.12151949548E+02 -0.23400279219E+02  0.26740624590E+02  0.00000000000E+00 0. -1.
        -15    1    3    3    0    0 -0.34752951419E+02  0.36807893048E+02 -0.29576461873E+03  0.30007075173E+03  0.17770000000E+01 0.  1.
         15    1    3    3    0    0  0.15476878222E+02 -0.38960844336E+02 -0.17430732001E+03  0.17928658814E+03  0.17770000000E+01 0. -1.
</event>
<event>
 7    1  0.4931604E-004  0.5355478E+03  0.7546771E-02  0.9323603E-01
        -11   -1    0    0    0    0  0.00000000000E+00  0.00000000000E+00  0.50000000000E+03  0.50000000000E+03  0.00000000000E+00 0.  1.
         11   -1    0    0    0    0 -0.00000000000E+00 -0.00000000000E+00 -0.50000000000E+03  0.50000000000E+03  0.00000000000E+00 0.  1.
         23    2    1    2    0    0 -0.29959063940E+02 -0.34552872680E+02 -0.37750766771E+02  0.10744295163E+03  0.89595875693E+02 0.  0.
        -11    1    1    2    0    0  0.12277721423E+02  0.24429221549E+01  0.46428342969E+03  0.46445216481E+03  0.00000000000E+00 0.  1.
         11    1    1    2    0    0  0.17681342517E+02  0.32109950525E+02 -0.42653266291E+03  0.42810488356E+03  0.00000000000E+00 0.  1.
        -15    1    3    3    0    0 -0.18662547101E+02 -0.10496930334E+00 -0.61349143780E+02  0.64149644227E+02  0.17770000000E+01 0. -1.
         15    1    3    3    0    0 -0.11296516839E+02 -0.34447903376E+02  0.23598377009E+02  0.43293307406E+02  0.17770000000E+01 0.  1.
</event>
<event>
 7    1  0.4931604E-004  0.5001154E+03  0.7546771E-02  0.9399551E-01
        -11   -1    0    0    0    0  0.00000000000E+00  0.00000000000E+00  0.50000000000E+03  0.50000000000E+03  0.00000000000E+00 0.  1.
         11   -1    0    0    0    0 -0.00000000000E+00 -0.00000000000E+00 -0.50000000000E+03  0.50000000000E+03  0.00000000000E+00 0. -1.
         23    2    1    2    0    0 -0.34849614653E+00  0.40980651542E+01 -0.48663643561E+03  0.49710850940E+03  0.10141466394E+03 0.  0.
        -11    1    1    2    0    0  0.81628180024E+01 -0.20486392331E+01  0.49271162055E+03  0.49278349155E+03  0.00000000000E+00 0.  1.
         11    1    1    2    0    0 -0.78143218559E+01 -0.20494259212E+01 -0.60751849388E+01  0.10107999046E+02  0.00000000000E+00 0. -1.
        -15    1    3    3    0    0  0.45766768407E+02  0.52595446893E+00 -0.13776916659E+03  0.14518393407E+03  0.17770000000E+01 0.  1.
         15    1    3    3    0    0 -0.46115264553E+02  0.35721106853E+01 -0.34886726902E+03  0.35192457533E+03  0.17770000000E+01 0. -1.
</event>
<event>
 7    1  0.4931604E-004  0.4434513E+03  0.7546771E-02  0.9536069E-01
        -11   -1    0    0    0    0  0.00000000000E+00  0.00000000000E+00  0.50000000000E+03  0.50000000000E+03  0.00000000000E+00 0. -1.
         11   -1    0    0    0    0 -0.00000000000E+00 -0.00000000000E+00 -0.50000000000E+03  0.50000000000E+03  0.00000000000E+00 0. -1.
         23    2    1    2    0    0 -0.60528915757E+02 -0.11570705199E+03 -0.39895553290E+03  0.42969296618E+03  0.91753236602E+02 0.  0.
        -11    1    1    2    0    0  0.90784425828E+01  0.28698730347E+02  0.45414394497E+03  0.45514037175E+03  0.00000000000E+00 0. -1.
         11    1    1    2    0    0  0.51450473174E+02  0.87008321642E+02 -0.55188412074E+02  0.11516666207E+03  0.00000000000E+00 0. -1.
        -15    1    3    3    0    0 -0.58639907305E+01  0.52064463259E+01 -0.12529013728E+03  0.12554787811E+03  0.17770000000E+01 0.  1.
         15    1    3    3    0    0 -0.54664925026E+02 -0.12091349832E+03 -0.27366539563E+03  0.30414508807E+03  0.17770000000E+01 0. -1.
</event>
<event>
 7    1  0.4931604E-004  0.5311285E+03  0.7546771E-02  0.9332731E-01
        -11   -1    0    0    0    0  0.00000000000E+00  0.00000000000E+00  0.50000000000E+03  0.50000000000E+03  0.00000000000E+00 0.  1.
         11   -1    0    0    0    0 -0.00000000000E+00 -0.00000000000E+00 -0.50000000000E+03  0.50000000000E+03  0.00000000000E+00 0. -1.
         23    2    1    2    0    0  0.13185745159E+02 -0.67106529390E+02 -0.81319060557E+02  0.13964494798E+03  0.90613308766E+02 0.  0.
        -11    1    1    2    0    0  0.12316189539E+03  0.61226916932E+02  0.44824426209E+03  0.46887152433E+03  0.00000000000E+00 0.  1.
         11    1    1    2    0    0 -0.13634764055E+03  0.58796124584E+01 -0.36692520153E+03  0.39148352768E+03  0.00000000000E+00 0. -1.
        -15    1    3    3    0    0 -0.23207632200E+01  0.19816233644E+02 -0.66051819668E+00  0.20041533650E+02  0.17770000000E+01 0.  1.
         15    1    3    3    0    0  0.15506508379E+02 -0.86922763035E+02 -0.80658542360E+02  0.11960341433E+03  0.17770000000E+01 0. -1.
</event>
<event>
 7    1  0.4931604E-004  0.4738323E+03  0.7546771E-02  0.9460344E-01
        -11   -1    0    0    0    0  0.00000000000E+00  0.00000000000E+00  0.50000000000E+03  0.50000000000E+03  0.00000000000E+00 0. -1.
         11   -1    0    0    0    0 -0.00000000000E+00 -0.00000000000E+00 -0.50000000000E+03  0.50000000000E+03  0.00000000000E+00 0.  1.
         23    2    1    2    0    0 -0.13207215423E+02  0.28355837400E+02 -0.44035397687E+03  0.45100273735E+03  0.92267871427E+02 0.  0.
        -11    1    1    2    0    0 -0.81405522532E+01 -0.22586139750E+01  0.48940388665E+03  0.48947679638E+03  0.00000000000E+00 0. -1.
         11    1    1    2    0    0  0.21347767676E+02 -0.26097223425E+02 -0.49049909776E+02  0.59520466264E+02  0.00000000000E+00 0.  1.
        -15    1    3    3    0    0  0.17907868213E+02  0.28485663942E+02 -0.55770541800E+02  0.65158543997E+02  0.17770000000E+01 0. -1.
         15    1    3    3    0    0 -0.31115083636E+02 -0.12982654183E+00 -0.38458343507E+03  0.38584419336E+03  0.17770000000E+01 0.  1.
</event>
<event>
 7    1  0.4931604E-004  0.5127968E+03  0.7546771E-02  0.9371622E-01
        -11   -1    0    0    0    0  0.00000000000E+00  0.00000000000E+00  0.50000000000E+03  0.50000000000E+03  0.00000000000E+00 0.  1.
         11   -1    0    0    0    0 -0.00000000000E+00 -0.00000000000E+00 -0.50000000000E+03  0.50000000000E+03  0.00000000000E+00 0. -1.
         23    2    1    2    0    0  0.15032931844E+03  0.16291136114E+02  0.19483581297E+03  0.26287681991E+03  0.90988589012E+02 0.  0.
        -11    1    1    2    0    0  0.74696002172E+02 -0.24797496581E+02  0.23720372782E+03  0.24992002135E+03  0.00000000000E+00 0.  1.
         11    1    1    2    0    0 -0.22502532061E+03  0.85063604669E+01 -0.43203954079E+03  0.48720315875E+03  0.00000000000E+00 0. -1.
        -15    1    3    3    0    0  0.11918068368E+03  0.48765833271E+02  0.12295289081E+03  0.17805255670E+03  0.17770000000E+01 0.  1.
         15    1    3    3    0    0  0.31148634759E+02 -0.32474697157E+02  0.71882922153E+02  0.84824263209E+02  0.17770000000E+01 0. -1.
</event>
<event>
 7    1  0.4931604E-004  0.4488130E+03  0.7546771E-02  0.9522243E-01
        -11   -1    0    0    0    0  0.00000000000E+00  0.00000000000E+00  0.50000000000E+03  0.50000000000E+03  0.00000000000E+00 0.  1.
         11   -1    0    0    0    0 -0.00000000000E+00 -0.00000000000E+00 -0.50000000000E+03  0.50000000000E+03  0.00000000000E+00 0. -1.
         23    2    1    2    0    0  0.28910195260E+02 -0.43020224191E+02 -0.22136712744E+02  0.10060630256E+03  0.83336996492E+02 0.  0.
        -11    1    1    2    0    0 -0.56066149063E+01 -0.10777875172E+02  0.45872530770E+03  0.45888615653E+03  0.00000000000E+00 0.  1.
         11    1    1    2    0    0 -0.23303580354E+02  0.53798099363E+02 -0.43658859496E+03  0.44050754091E+03  0.00000000000E+00 0. -1.
        -15    1    3    3    0    0 -0.14893205382E+02  0.15753629345E+02  0.51800254191E+01  0.22360116199E+02  0.17770000000E+01 0.  1.
         15    1    3    3    0    0  0.43803400642E+02 -0.58773853536E+02 -0.27316738163E+02  0.78246186362E+02  0.17770000000E+01 0. -1.
</event>
<event>
 7    1  0.4931604E-004  0.5131720E+03  0.7546771E-02  0.9370809E-01
        -11   -1    0    0    0    0  0.00000000000E+00  0.00000000000E+00  0.50000000000E+03  0.50000000000E+03  0.00000000000E+00 0.  1.
         11   -1    0    0    0    0 -0.00000000000E+00 -0.00000000000E+00 -0.50000000000E+03  0.50000000000E+03  0.00000000000E+00 0. -1.
         23    2    1    2    0    0 -0.33002716845E+02  0.13808499892E+02 -0.19102314871E+03  0.21420256842E+03  0.90072431889E+02 0.  0.
        -11    1    1    2    0    0 -0.19359568952E+01  0.14245619960E+02  0.48661570474E+03  0.48682802889E+03  0.00000000000E+00 0.  1.
         11    1    1    2    0    0  0.34938673740E+02 -0.28054119853E+02 -0.29559255602E+03  0.29896940268E+03  0.00000000000E+00 0. -1.
        -15    1    3    3    0    0  0.28121940853E+02 -0.10891576441E+02 -0.48148254014E+02  0.56840848765E+02  0.17770000000E+01 0.  1.
         15    1    3    3    0    0 -0.61124657698E+02  0.24700076333E+02 -0.14287489470E+03  0.15736171966E+03  0.17770000000E+01 0. -1.
</event>
<event>
 7    1  0.4931604E-004  0.4665247E+03  0.7546771E-02  0.9477995E-01
        -11   -1    0    0    0    0  0.00000000000E+00  0.00000000000E+00  0.50000000000E+03  0.50000000000E+03  0.00000000000E+00 0.  1.
         11   -1    0    0    0    0 -0.00000000000E+00 -0.00000000000E+00 -0.50000000000E+03  0.50000000000E+03  0.00000000000E+00 0. -1.
         23    2    1    2    0    0 -0.22510329545E+02  0.97444634117E+01 -0.58734178940E+01  0.66609800853E+02  0.61649809638E+02 0.  0.
        -11    1    1    2    0    0  0.64191155829E+00  0.23204815470E+02  0.46850086077E+03  0.46907561443E+03  0.00000000000E+00 0.  1.
         11    1    1    2    0    0  0.21868417987E+02 -0.32949278882E+02 -0.46262744287E+03  0.46431458472E+03  0.00000000000E+00 0. -1.
        -15    1    3    3    0    0 -0.23948512347E+02  0.34083607728E+02 -0.62554366772E+01  0.42160547629E+02  0.17770000000E+01 0.  1.
         15    1    3    3    0    0  0.14381828014E+01 -0.24339144316E+02  0.38201878313E+00  0.24449253223E+02  0.17770000000E+01 0. -1.
</event>
<event>
 7    1  0.4931604E-004  0.5233824E+03  0.7546771E-02  0.9348958E-01
        -11   -1    0    0    0    0  0.00000000000E+00  0.00000000000E+00  0.50000000000E+03  0.50000000000E+03  0.00000000000E+00 0.  1.
         11   -1    0    0    0    0 -0.00000000000E+00 -0.00000000000E+00 -0.50000000000E+03  0.50000000000E+03  0.00000000000E+00 0.  1.
         23    2    1    2    0    0  0.81360728397E+02  0.17644411357E+02 -0.23178816407E+03  0.26100605000E+03  0.86414765840E+02 0.  0.
        -11    1    1    2    0    0  0.13009980407E+02 -0.72536644845E+01  0.47638482710E+03  0.47661764416E+03  0.00000000000E+00 0.  1.
         11    1    1    2    0    0 -0.94370708804E+02 -0.10390746872E+02 -0.24459666303E+03  0.26237630584E+03  0.00000000000E+00 0.  1.
        -15    1    3    3    0    0  0.54510555582E+02  0.39885998093E+02 -0.20815778727E+03  0.21884952740E+03  0.17770000000E+01 0.  1.
         15    1    3    3    0    0  0.26850172816E+02 -0.22241586736E+02 -0.23630376801E+02  0.42156522598E+02  0.17770000000E+01 0. -1.
</event>
<event>
 7    1  0.4931604E-004  0.5243720E+03  0.7546771E-02  0.9346868E-01
        -11   -1    0    0    0    0  0.00000000000E+00  0.00000000000E+00  0.50000000000E+03  0.50000000000E+03  0.00000000000E+00 0. -1.
         11   -1    0    0    0    0 -0.00000000000E+00 -0.00000000000E+00 -0.50000000000E+03  0.50000000000E+03  0.00000000000E+00 0.  1.
         23    2    1    2    0    0 -0.30600272994E+02 -0.14002371530E+01 -0.44108074841E+02  0.90910773343E+02  0.73354679961E+02 0.  0.
        -11    1    1    2    0    0 -0.12173492479E+02  0.91540297096E+01  0.47538402707E+03  0.47562796740E+03  0.00000000000E+00 0. -1.
         11    1    1    2    0    0  0.42773765473E+02 -0.77537925566E+01 -0.43127595223E+03  0.43346125926E+03  0.00000000000E+00 0.  1.
        -15    1    3    3    0    0  0.14297071847E+02 -0.17566199333E+02 -0.35861001423E+02  0.42451699312E+02  0.17770000000E+01 0. -1.
         15    1    3    3    0    0 -0.44897344841E+02  0.16165962180E+02 -0.82470734179E+01  0.48459074031E+02  0.17770000000E+01 0.  1.
</event>
<event>
 7    1  0.4931604E-004  0.5330121E+03  0.7546771E-02  0.9328829E-01
        -11   -1    0    0    0    0  0.00000000000E+00  0.00000000000E+00  0.50000000000E+03  0.50000000000E+03  0.00000000000E+00 0.  1.
         11   -1    0    0    0    0 -0.00000000000E+00 -0.00000000000E+00 -0.50000000000E+03  0.50000000000E+03  0.00000000000E+00 0.  1.
         23    2    1    2    0    0 -0.21561050821E+02 -0.61934261505E+02  0.64966360467E+02  0.13200392948E+03  0.94359301320E+02 0.  0.
        -11    1    1    2    0    0  0.25172830747E+01  0.25360453579E+02  0.40019750090E+03  0.40100814087E+03  0.00000000000E+00 0.  1.
         11    1    1    2    0    0  0.19043767746E+02  0.36573807926E+02 -0.46516386137E+03  0.46698792965E+03  0.00000000000E+00 0.  1.
        -15    1    3    3    0    0 -0.21808354218E+02 -0.43047162284E+02 -0.14408896599E+02  0.50392822154E+02  0.17770000000E+01 0.  1.
         15    1    3    3    0    0  0.24730339780E+00 -0.18887099221E+02  0.79375257066E+02  0.81611107328E+02  0.17770000000E+01 0.  1.
</event>
<event>
 7    1  0.4931604E-004  0.4842301E+03  0.7546771E-02  0.9435804E-01
        -11   -1    0    0    0    0  0.00000000000E+00  0.00000000000E+00  0.50000000000E+03  0.50000000000E+03  0.00000000000E+00 0. -1.
         11   -1    0    0    0    0 -0.00000000000E+00 -0.00000000000E+00 -0.50000000000E+03  0.50000000000E+03  0.00000000000E+00 0. -1.
         23    2    1    2    0    0  0.14023071646E+02  0.18796426226E+02 -0.45867531877E+03  0.46827052361E+03  0.91347047285E+02 0.  0.
        -11    1    1    2    0    0  0.54821172379E+01 -0.11456226953E+02  0.49214112792E+03  0.49230497513E+03  0.00000000000E+00 0. -1.
         11    1    1    2    0    0 -0.19505188884E+02 -0.73401992726E+01 -0.33465809143E+02  0.39424501270E+02  0.00000000000E+00 0. -1.
        -15    1    3    3    0    0  0.34028091391E+02 -0.92601608333E+00 -0.63300085573E+02  0.71894555232E+02  0.17770000000E+01 0.  1.
         15    1    3    3    0    0 -0.20005019745E+02  0.19722442309E+02 -0.39537523320E+03  0.39637596837E+03  0.17770000000E+01 0. -1.
</event>
<event>
 7    1  0.4931604E-004  0.4873505E+03  0.7546771E-02  0.9428567E-01
        -11   -1    0    0    0    0  0.00000000000E+00  0.00000000000E+00  0.50000000000E+03  0.50000000000E+03  0.00000000000E+00 0. -1.
         11   -1    0    0    0    0 -0.00000000000E+00 -0.00000000000E+00 -0.50000000000E+03  0.50000000000E+03  0.00000000000E+00 0.  1.
         23    2    1    2    0    0  0.12640403245E+02 -0.37454904055E+01 -0.46512338085E+03  0.47518111086E+03  0.96351026022E+02 0.  0.
        -11    1    1    2    0    0 -0.36220406041E+02 -0.28259756186E+01  0.48916279395E+03  0.49051008444E+03  0.00000000000E+00 0. -1.
         11    1    1    2    0    0  0.23580002796E+02  0.65714660241E+01 -0.24039413104E+02  0.34308804700E+02  0.00000000000E+00 0.  1.
        -15    1    3    3    0    0 -0.15887801263E+02  0.34600196766E+02 -0.10140199639E+03  0.10832875170E+03  0.17770000000E+01 0. -1.
         15    1    3    3    0    0  0.28528204507E+02 -0.38345687171E+02 -0.36372138446E+03  0.36685235916E+03  0.17770000000E+01 0.  1.
</event>
<event>
 7    1  0.4931604E-004  0.5102814E+03  0.7546771E-02  0.9377094E-01
        -11   -1    0    0    0    0  0.00000000000E+00  0.00000000000E+00  0.50000000000E+03  0.50000000000E+03  0.00000000000E+00 0. -1.
         11   -1    0    0    0    0 -0.00000000000E+00 -0.00000000000E+00 -0.50000000000E+03  0.50000000000E+03  0.00000000000E+00 0.  1.
         23    2    1    2    0    0 -0.10560303623E+03 -0.85655866081E+02  0.32931489167E+03  0.36787873593E+03  0.91638080612E+02 0.  0.
        -11    1    1    2    0    0  0.10838000956E+02 -0.91962752944E+01  0.14169147845E+03  0.14240262922E+03  0.00000000000E+00 0. -1.
         11    1    1    2    0    0  0.94765035278E+02  0.94852141376E+02 -0.47100637011E+03  0.48971863485E+03  0.00000000000E+00 0.  1.
        -15    1    3    3    0    0 -0.43007476581E+01  0.37823765339E+00  0.11894164116E+03  0.11903323580E+03  0.17770000000E+01 0. -1.
         15    1    3    3    0    0 -0.10130228858E+03 -0.86034103735E+02  0.21037325051E+03  0.24884550013E+03  0.17770000000E+01 0.  1.
</event>
<event>
 7    1  0.4931604E-004  0.5113762E+03  0.7546771E-02  0.9374708E-01
        -11   -1    0    0    0    0  0.00000000000E+00  0.00000000000E+00  0.50000000000E+03  0.50000000000E+03  0.00000000000E+00 0. -1.
         11   -1    0    0    0    0 -0.00000000000E+00 -0.00000000000E+00 -0.50000000000E+03  0.50000000000E+03  0.00000000000E+00 0.  1.
         23    2    1    2    0    0 -0.14951814746E+02 -0.24270304197E+02  0.20204705048E+03  0.22528092853E+03  0.95477126703E+02 0.  0.
        -11    1    1    2    0    0  0.12514811689E+02 -0.30773273051E+01  0.28580480489E+03  0.28609522358E+03  0.00000000000E+00 0. -1.
         11    1    1    2    0    0  0.24370030571E+01  0.27347631503E+02 -0.48785185537E+03  0.48862384789E+03  0.00000000000E+00 0.  1.
        -15    1    3    3    0    0 -0.15684677739E+02 -0.58140142115E+02  0.90734884846E+02  0.10891401332E+03  0.17770000000E+01 0. -1.
         15    1    3    3    0    0  0.73286299313E+00  0.33869837918E+02  0.11131216563E+03  0.11636691521E+03  0.17770000000E+01 0.  1.
</event>
<event>
 7    1  0.4931604E-004  0.4558151E+03  0.7546771E-02  0.9504495E-01
        -11   -1    0    0    0    0  0.00000000000E+00  0.00000000000E+00  0.50000000000E+03  0.50000000000E+03  0.00000000000E+00 0.  1.
         11   -1    0    0    0    0 -0.00000000000E+00 -0.00000000000E+00 -0.50000000000E+03  0.50000000000E+03  0.00000000000E+00 0. -1.
         23    2    1    2    0    0  0.33742237355E+02  0.13542260274E+02 -0.40498584008E+03  0.41761798629E+03  0.95232979663E+02 0.  0.
        -11    1    1    2    0    0 -0.86124134342E+01  0.20956663375E+02  0.48827146570E+03  0.48879686949E+03  0.00000000000E+00 0.  1.
         11    1    1    2    0    0 -0.25129823921E+02 -0.34498923649E+02 -0.83285625624E+02  0.93585144220E+02  0.00000000000E+00 0. -1.
        -15    1    3    3    0    0  0.23102784977E+02  0.13921368922E+02 -0.23035813904E+02  0.35515484476E+02  0.17770000000E+01 0.  1.
         15    1    3    3    0    0  0.10639452378E+02 -0.37910864819E+00 -0.38195002617E+03  0.38210250181E+03  0.17770000000E+01 0. -1.
</event>
<event>
 7    1  0.4931604E-004  0.4721794E+03  0.7546771E-02  0.9464307E-01
        -11   -1    0    0    0    0  0.00000000000E+00  0.00000000000E+00  0.50000000000E+03  0.50000000000E+03  0.00000000000E+00 0.  1.
         11   -1    0    0    0    0 -0.00000000000E+00 -0.00000000000E+00 -0.50000000000E+03  0.50000000000E+03  0.00000000000E+00 0.  1.
         23    2    1    2    0    0 -0.62073371629E+02 -0.67011657940E+02 -0.45146486407E+03  0.46654510259E+03  0.74162952280E+02 0.  0.
        -11    1    1    2    0    0  0.92237576727E+01  0.91082032280E+02  0.46491663231E+03  0.47384437246E+03  0.00000000000E+00 0.  1.
         11    1    1    2    0    0  0.52849613956E+02 -0.24070374340E+02 -0.13451768242E+02  0.59610524952E+02  0.00000000000E+00 0.  1.
        -15    1    3    3    0    0  0.25151713883E+01 -0.26348073340E+02 -0.24474512477E+03  0.24617855488E+03  0.17770000000E+01 0.  1.
         15    1    3    3    0    0 -0.64588543017E+02 -0.40663584600E+02 -0.20671973931E+03  0.22036654771E+03  0.17770000000E+01 0. -1.
</event>
<event>
 7    1  0.4931604E-004  0.4846317E+03  0.7546771E-02  0.9434870E-01
        -11   -1    0    0    0    0  0.00000000000E+00  0.00000000000E+00  0.50000000000E+03  0.50000000000E+03  0.00000000000E+00 0. -1.
         11   -1    0    0    0    0 -0.00000000000E+00 -0.00000000000E+00 -0.50000000000E+03  0.50000000000E+03  0.00000000000E+00 0.  1.
         23    2    1    2    0    0 -0.72351209591E+01  0.32923434100E+02 -0.46638231816E+03  0.47659611403E+03  0.92168811029E+02 0.  0.
        -11    1    1    2    0    0  0.83278303487E+01  0.13506383546E+01  0.48453201862E+03  0.48460546225E+03  0.00000000000E+00 0. -1.
         11    1    1    2    0    0 -0.10927093896E+01 -0.34274072455E+02 -0.18149700455E+02  0.38798423719E+02  0.00000000000E+00 0.  1.
        -15    1    3    3    0    0  0.38990016663E+01  0.62363318310E+02 -0.23903206957E+03  0.24707058444E+03  0.17770000000E+01 0.  1.
         15    1    3    3    0    0 -0.11134122625E+02 -0.29439884210E+02 -0.22735024859E+03  0.22952552958E+03  0.17770000000E+01 0. -1.
</event>
<event>
 7    1  0.4931604E-004  0.4934299E+03  0.7546771E-02  0.9414632E-01
        -11   -1    0    0    0    0  0.00000000000E+00  0.00000000000E+00  0.50000000000E+03  0.50000000000E+03  0.00000000000E+00 0.  1.
         11   -1    0    0    0    0 -0.00000000000E+00 -0.00000000000E+00 -0.50000000000E+03  0.50000000000E+03  0.00000000000E+00 0.  1.
         23    2    1    2    0    0  0.17972604132E+02  0.59710410534E+01 -0.48939886289E+03  0.49603284472E+03  0.78604505078E+02 0.  0.
        -11    1    1    2    0    0 -0.33788277556E+01  0.56614621108E+01  0.48466986243E+03  0.48471470390E+03  0.00000000000E+00 0.  1.
         11    1    1    2    0    0 -0.14593776376E+02 -0.11632503164E+02  0.47290004595E+01  0.19252451380E+02  0.00000000000E+00 0.  1.
        -15    1    3    3    0    0  0.32477390238E+02  0.85225048700E+01 -0.85679172416E+02  0.92040709910E+02  0.17770000000E+01 0. -1.
         15    1    3    3    0    0 -0.14504786106E+02 -0.25514638166E+01 -0.40371969047E+03  0.40399213481E+03  0.17770000000E+01 0.  1.
</event>
<event>
 7    1  0.4931604E-004  0.4875245E+03  0.7546771E-02  0.9428165E-01
        -11   -1    0    0    0    0  0.00000000000E+00  0.00000000000E+00  0.50000000000E+03  0.50000000000E+03  0.00000000000E+00 0.  1.
         11   -1    0    0    0    0 -0.00000000000E+00 -0.00000000000E+00 -0.50000000000E+03  0.50000000000E+03  0.00000000000E+00 0.  1.
         23    2    1    2    0    0 -0.10020478722E+02  0.33672749020E+02 -0.46860976489E+03  0.48042267845E+03  0.99882802294E+02 0.  0.
        -11    1    1    2    0    0  0.70783247274E+01 -0.31812748085E+01  0.48484554047E+03  0.48490764203E+03  0.00000000000E+00 0.  1.
         11    1    1    2    0    0  0.29421539941E+01 -0.30491474211E+02 -0.16235775573E+02  0.34669679522E+02  0.00000000000E+00 0.  1.
        -15    1    3    3    0    0  0.31849588532E+02 -0.95339488396E+01 -0.29083108908E+03  0.29273054603E+03  0.17770000000E+01 0. -1.
         15    1    3    3    0    0 -0.41870067253E+02  0.43206697860E+02 -0.17777867581E+03  0.18769213242E+03  0.17770000000E+01 0.  1.
</event>
<event>
 7    1  0.4931604E-004  0.5349540E+03  0.7546771E-02  0.9324824E-01
        -11   -1    0    0    0    0  0.00000000000E+00  0.00000000000E+00  0.50000000000E+03  0.50000000000E+03  0.00000000000E+00 0.  1.
         11   -1    0    0    0    0 -0.00000000000E+00 -0.00000000000E+00 -0.50000000000E+03  0.50000000000E+03  0.00000000000E+00 0. -1.
         23    2    1    2    0    0  0.53398630052E+02  0.63954822934E+02 -0.10705977778E+03  0.16352709791E+03  0.91310912075E+02 0.  0.
        -11    1    1    2    0    0 -0.39871876463E+01  0.24587800059E+02  0.46437845491E+03  0.46504602671E+03  0.00000000000E+00 0.  1.
         11    1    1    2    0    0 -0.49411442406E+02 -0.88542622993E+02 -0.35731867713E+03  0.37142687538E+03  0.00000000000E+00 0. -1.
        -15    1    3    3    0    0 -0.24241904563E+02  0.26277453435E+01 -0.25076344306E+02  0.35022218023E+02  0.17770000000E+01 0. -1.
         15    1    3    3    0    0  0.77640534616E+02  0.61327077590E+02 -0.81983433469E+02  0.12850487988E+03  0.17770000000E+01 0.  1.
</event>
<event>
 7    1  0.4931604E-004  0.5043327E+03  0.7546771E-02  0.9390167E-01
        -11   -1    0    0    0    0  0.00000000000E+00  0.00000000000E+00  0.50000000000E+03  0.50000000000E+03  0.00000000000E+00 0. -1.
         11   -1    0    0    0    0 -0.00000000000E+00 -0.00000000000E+00 -0.50000000000E+03  0.50000000000E+03  0.00000000000E+00 0.  1.
         23    2    1    2    0    0 -0.22023130285E+02 -0.30316790449E+02  0.36759799245E+03  0.37799193879E+03  0.79658619662E+02 0.  0.
        -11    1    1    2    0    0 -0.35504312776E+01 -0.37592629912E+01  0.12623488156E+03  0.12634074142E+03  0.00000000000E+00 0. -1.
         11    1    1    2    0    0  0.25573561563E+02  0.34076053440E+02 -0.49383287400E+03  0.49566731980E+03  0.00000000000E+00 0.  1.
        -15    1    3    3    0    0  0.16924883518E+02  0.51147734829E+01  0.22948734229E+03  0.23017430480E+03  0.17770000000E+01 0. -1.
         15    1    3    3    0    0 -0.38948013803E+02 -0.35431563931E+02  0.13811065016E+03  0.14781763399E+03  0.17770000000E+01 0.  1.
</event>
<event>
 7    1  0.4931604E-004  0.5155903E+03  0.7546771E-02  0.9365585E-01
        -11   -1    0    0    0    0  0.00000000000E+00  0.00000000000E+00  0.50000000000E+03  0.50000000000E+03  0.00000000000E+00 0. -1.
         11   -1    0    0    0    0 -0.00000000000E+00 -0.00000000000E+00 -0.50000000000E+03  0.50000000000E+03  0.00000000000E+00 0. -1.
         23    2    1    2    0    0 -0.44504362505E+02  0.23558336507E+01 -0.21103488687E+03  0.23984816898E+03  0.10490582658E+03 0.  0.
        -11    1    1    2    0    0  0.78942055581E+01 -0.75195374944E+01  0.48428703320E+03  0.48440973612E+03  0.00000000000E+00 0. -1.
         11    1    1    2    0    0  0.36610156947E+02  0.51637038437E+01 -0.27325214632E+03  0.27574209490E+03  0.00000000000E+00 0. -1.
        -15    1    3    3    0    0 -0.44433519806E+02 -0.13485712624E+01 -0.22289745040E+03  0.22729405503E+03  0.17770000000E+01 0. -1.
         15    1    3    3    0    0 -0.70842698879E-01  0.37044049131E+01  0.11862563530E+02  0.12554113946E+02  0.17770000000E+01 0.  1.
</event>
<event>
 7    1  0.4931604E-004  0.3532491E+03  0.7546771E-02  0.9805610E-01
        -11   -1    0    0    0    0  0.00000000000E+00  0.00000000000E+00  0.50000000000E+03  0.50000000000E+03  0.00000000000E+00 0. -1.
         11   -1    0    0    0    0 -0.00000000000E+00 -0.00000000000E+00 -0.50000000000E+03  0.50000000000E+03  0.00000000000E+00 0. -1.
         23    2    1    2    0    0  0.44793460541E+02  0.17645705024E+02 -0.45686088568E+03  0.46805512806E+03  0.89643231913E+02 0.  0.
        -11    1    1    2    0    0  0.75751786274E+02 -0.99293044060E+02  0.24322141426E+03  0.27341195672E+03  0.00000000000E+00 0. -1.
         11    1    1    2    0    0 -0.12054524681E+03  0.81647339036E+02  0.21363947142E+03  0.25853291522E+03  0.00000000000E+00 0. -1.
        -15    1    3    3    0    0  0.56259902763E+02  0.18632763223E+02 -0.15474982103E+03  0.16571970723E+03  0.17770000000E+01 0. -1.
         15    1    3    3    0    0 -0.11466442222E+02 -0.98705819941E+00 -0.30211106465E+03  0.30233542084E+03  0.17770000000E+01 0.  1.
</event>
<event>
 7    1  0.4931604E-004  0.5332620E+03  0.7546771E-02  0.9328312E-01
        -11   -1    0    0    0    0  0.00000000000E+00  0.00000000000E+00  0.50000000000E+03  0.50000000000E+03  0.00000000000E+00 0.  1.
         11   -1    0    0    0    0 -0.00000000000E+00 -0.00000000000E+00 -0.50000000000E+03  0.50000000000E+03  0.00000000000E+00 0. -1.
         23    2    1    2    0    0  0.13489244714E+03 -0.69263329669E+01  0.12101537361E+03  0.20528135667E+03  0.96186113159E+02 0.  0.
        -11    1    1    2    0    0 -0.72998776052E+01 -0.37977390030E+02  0.32569272499E+03  0.32798067241E+03  0.00000000000E+00 0.  1.
         11    1    1    2    0    0 -0.12759256953E+03  0.44903722997E+02 -0.44670809860E+03  0.46673797091E+03  0.00000000000E+00 0. -1.
        -15    1    3    3    0    0  0.80966645101E+02 -0.16635368091E+02  0.12549021743E+03  0.15027736187E+03  0.17770000000E+01 0.  1.
         15    1    3    3    0    0  0.53925802035E+02  0.97090351241E+01 -0.44748438196E+01  0.55003994804E+02  0.17770000000E+01 0. -1.
</event>
<event>
 7    1  0.4931604E-004  0.5113459E+03  0.7546771E-02  0.9374774E-01
        -11   -1    0    0    0    0  0.00000000000E+00  0.00000000000E+00  0.50000000000E+03  0.50000000000E+03  0.00000000000E+00 0.  1.
         11   -1    0    0    0    0 -0.00000000000E+00 -0.00000000000E+00 -0.50000000000E+03  0.50000000000E+03  0.00000000000E+00 0. -1.
         23    2    1    2    0    0 -0.38508138660E+02  0.82738461385E+02 -0.19874574808E+03  0.23611933582E+03  0.89016507640E+02 0.  0.
        -11    1    1    2    0    0  0.20002378189E+02 -0.22845534394E+03  0.43149840359E+03  0.48865408175E+03  0.00000000000E+00 0.  1.
         11    1    1    2    0    0  0.18505760470E+02  0.14571688255E+03 -0.23275265551E+03  0.27522658243E+03  0.00000000000E+00 0. -1.
        -15    1    3    3    0    0 -0.59362058151E+02  0.69516388462E+02 -0.10532284902E+03  0.13947201320E+03  0.17770000000E+01 0. -1.
         15    1    3    3    0    0  0.20853919491E+02  0.13222072923E+02 -0.93422899067E+02  0.96647322619E+02  0.17770000000E+01 0.  1.
</event>
<event>
 7    1  0.4931604E-004  0.5134072E+03  0.7546771E-02  0.9370300E-01
        -11   -1    0    0    0    0  0.00000000000E+00  0.00000000000E+00  0.50000000000E+03  0.50000000000E+03  0.00000000000E+00 0.  1.
         11   -1    0    0    0    0 -0.00000000000E+00 -0.00000000000E+00 -0.50000000000E+03  0.50000000000E+03  0.00000000000E+00 0.  1.
         23    2    1    2    0    0 -0.58197559970E+02 -0.79442044361E+00 -0.28896982739E+03  0.30833838730E+03  0.90451162809E+02 0.  0.
        -11    1    1    2    0    0  0.69457499460E+01 -0.24333727412E+02  0.48593437160E+03  0.48659283516E+03  0.00000000000E+00 0.  1.
         11    1    1    2    0    0  0.51251810024E+02  0.25128147855E+02 -0.19696454421E+03  0.20506877754E+03  0.00000000000E+00 0.  1.
        -15    1    3    3    0    0 -0.62740846563E+02  0.12018217388E+02 -0.28753774705E+03  0.29455384072E+03  0.17770000000E+01 0.  1.
         15    1    3    3    0    0  0.45432865931E+01 -0.12812637832E+02 -0.14320803355E+01  0.13784546578E+02  0.17770000000E+01 0. -1.
</event>
<event>
 7    1  0.4931604E-004  0.5056569E+03  0.7546771E-02  0.9387240E-01
        -11   -1    0    0    0    0  0.00000000000E+00  0.00000000000E+00  0.50000000000E+03  0.50000000000E+03  0.00000000000E+00 0.  1.
         11   -1    0    0    0    0 -0.00000000000E+00 -0.00000000000E+00 -0.50000000000E+03  0.50000000000E+03  0.00000000000E+00 0.  1.
         23    2    1    2    0    0 -0.92040057209E+02  0.66244354345E+00  0.34428030997E+03  0.36245581244E+03  0.66132240048E+02 0.  0.
        -11    1    1    2    0    0  0.81235915467E+01 -0.55196219471E+01  0.14286392496E+03  0.14320111739E+03  0.00000000000E+00 0.  1.
         11    1    1    2    0    0  0.83916465663E+02  0.48571784036E+01 -0.48714423494E+03  0.49434307017E+03  0.00000000000E+00 0.  1.
        -15    1    3    3    0    0  0.31340130024E+01  0.13419407689E+02  0.20759706055E+02  0.24980505694E+02  0.17770000000E+01 0.  1.
         15    1    3    3    0    0 -0.95174070212E+02 -0.12756964146E+02  0.32352060392E+03  0.33747530675E+03  0.17770000000E+01 0.  1.
</event>
<event>
 7    1  0.4931604E-004  0.5251326E+03  0.7546771E-02  0.9345266E-01
        -11   -1    0    0    0    0  0.00000000000E+00  0.00000000000E+00  0.50000000000E+03  0.50000000000E+03  0.00000000000E+00 0.  1.
         11   -1    0    0    0    0 -0.00000000000E+00 -0.00000000000E+00 -0.50000000000E+03  0.50000000000E+03  0.00000000000E+00 0. -1.
         23    2    1    2    0    0 -0.13698197366E+02  0.81976512858E+02 -0.20887040841E+03  0.24263501187E+03  0.91307788302E+02 0.  0.
        -11    1    1    2    0    0 -0.38717564374E+02  0.25532513427E+01  0.47327952074E+03  0.47486742743E+03  0.00000000000E+00 0.  1.
         11    1    1    2    0    0  0.52415761739E+02 -0.84529764201E+02 -0.26440911233E+03  0.28249756070E+03  0.00000000000E+00 0. -1.
        -15    1    3    3    0    0  0.87462571356E+01  0.76622893490E+02 -0.20517754284E+03  0.21919978703E+03  0.17770000000E+01 0.  1.
         15    1    3    3    0    0 -0.22444454501E+02  0.53536193684E+01 -0.36928655742E+01  0.23435224841E+02  0.17770000000E+01 0. -1.
</event>
<event>
 7    1  0.4931604E-004  0.3659684E+03  0.7546771E-02  0.9762668E-01
        -11   -1    0    0    0    0  0.00000000000E+00  0.00000000000E+00  0.50000000000E+03  0.50000000000E+03  0.00000000000E+00 0. -1.
         11   -1    0    0    0    0 -0.00000000000E+00 -0.00000000000E+00 -0.50000000000E+03  0.50000000000E+03  0.00000000000E+00 0.  1.
         23    2    1    2    0    0 -0.90362413686E+02 -0.14957465139E+02 -0.34598055867E+03  0.36888414166E+03  0.89352512126E+02 0.  0.
        -11    1    1    2    0    0 -0.32845905515E+02 -0.19110876273E+03  0.33945526447E+03  0.39093642613E+03  0.00000000000E+00 0. -1.
         11    1    1    2    0    0  0.12320831920E+03  0.20606622787E+03  0.65252941963E+01  0.24017943220E+03  0.00000000000E+00 0.  1.
        -15    1    3    3    0    0 -0.38213832219E+02  0.37133340290E+02 -0.16730358232E+03  0.17559279119E+03  0.17770000000E+01 0.  1.
         15    1    3    3    0    0 -0.52148581467E+02 -0.52090805429E+02 -0.17867697635E+03  0.19329135047E+03  0.17770000000E+01 0. -1.
</event>
<event>
 7    1  0.4931604E-004  0.5010977E+03  0.7546771E-02  0.9397357E-01
        -11   -1    0    0    0    0  0.00000000000E+00  0.00000000000E+00  0.50000000000E+03  0.50000000000E+03  0.00000000000E+00 0.  1.
         11   -1    0    0    0    0 -0.00000000000E+00 -0.00000000000E+00 -0.50000000000E+03  0.50000000000E+03  0.00000000000E+00 0. -1.
         23    2    1    2    0    0 -0.77530598238E+01 -0.25908064514E+01 -0.49257749132E+03  0.50109770999E+03  0.91648828603E+02 0.  0.
        -11    1    1    2    0    0 -0.14135768491E+02  0.85586902037E+01  0.45286115440E+03  0.45316254953E+03  0.00000000000E+00 0.  1.
         11    1    1    2    0    0  0.21888828315E+02 -0.59678837523E+01  0.39716336915E+02  0.45739740482E+02  0.00000000000E+00 0. -1.
        -15    1    3    3    0    0 -0.23357814775E+02  0.19434934958E+02 -0.44744354030E+03  0.44847762898E+03  0.17770000000E+01 0. -1.
         15    1    3    3    0    0  0.15604754951E+02 -0.22025741409E+02 -0.45133951016E+02  0.52620081005E+02  0.17770000000E+01 0.  1.
</event>
<event>
 7    1  0.4931604E-004  0.4552904E+03  0.7546771E-02  0.9505813E-01
        -11   -1    0    0    0    0  0.00000000000E+00  0.00000000000E+00  0.50000000000E+03  0.50000000000E+03  0.00000000000E+00 0.  1.
         11   -1    0    0    0    0 -0.00000000000E+00 -0.00000000000E+00 -0.50000000000E+03  0.50000000000E+03  0.00000000000E+00 0. -1.
         23    2    1    2    0    0  0.46944068863E+02  0.93930812777E+01 -0.45557132118E+03  0.46678779161E+03  0.89742064464E+02 0.  0.
        -11    1    1    2    0    0 -0.82061498254E+02  0.72048057590E+02  0.42592103875E+03  0.43969733152E+03  0.00000000000E+00 0.  1.
         11    1    1    2    0    0  0.35117429391E+02 -0.81441138868E+02  0.29650282434E+02  0.93514876867E+02  0.00000000000E+00 0. -1.
        -15    1    3    3    0    0  0.40055200413E+02  0.44080797760E+02 -0.35936842455E+03  0.36427511321E+03  0.17770000000E+01 0. -1.
         15    1    3    3    0    0  0.68888684506E+01 -0.34687716482E+02 -0.96202896635E+02  0.10251267840E+03  0.17770000000E+01 0.  1.
</event>
<event>
 7    1  0.4931604E-004  0.5356644E+03  0.7546771E-02  0.9323364E-01
        -11   -1    0    0    0    0  0.00000000000E+00  0.00000000000E+00  0.50000000000E+03  0.50000000000E+03  0.00000000000E+00 0.  1.
         11   -1    0    0    0    0 -0.00000000000E+00 -0.00000000000E+00 -0.50000000000E+03  0.50000000000E+03  0.00000000000E+00 0. -1.
         23    2    1    2    0    0 -0.10607523550E+02  0.67527820639E+02 -0.10134997843E+03  0.16758158303E+03  0.11462653588E+03 0.  0.
        -11    1    1    2    0    0 -0.30269054025E+01 -0.75883124074E+01  0.46426367654E+03  0.46433555323E+03  0.00000000000E+00 0.  1.
         11    1    1    2    0    0  0.13634428952E+02 -0.59939508232E+02 -0.36291369811E+03  0.36808286374E+03  0.00000000000E+00 0. -1.
        -15    1    3    3    0    0 -0.25381676707E+02  0.29740725414E+02  0.16840312050E+02  0.42608615320E+02  0.17770000000E+01 0.  1.
         15    1    3    3    0    0  0.14774153157E+02  0.37787095226E+02 -0.11819029048E+03  0.12497296771E+03  0.17770000000E+01 0. -1.
</event>
<event>
 7    1  0.4931604E-004  0.5173004E+03  0.7546771E-02  0.9361910E-01
        -11   -1    0    0    0    0  0.00000000000E+00  0.00000000000E+00  0.50000000000E+03  0.50000000000E+03  0.00000000000E+00 0. -1.
         11   -1    0    0    0    0 -0.00000000000E+00 -0.00000000000E+00 -0.50000000000E+03  0.50000000000E+03  0.00000000000E+00 0. -1.
         23    2    1    2    0    0 -0.22550056817E+02 -0.50548764817E+02 -0.18907705515E+03  0.21935967128E+03  0.96461649966E+02 0.  0.
        -11    1    1    2    0    0  0.21829874652E+02 -0.28238915512E+01  0.48219741283E+03  0.48269955742E+03  0.00000000000E+00 0. -1.
         11    1    1    2    0    0  0.72018216539E+00  0.53372656368E+02 -0.29312035769E+03  0.29794077130E+03  0.00000000000E+00 0. -1.
        -15    1    3    3    0    0 -0.35233390256E+02 -0.48320903131E+02 -0.45421270002E+02  0.75116915312E+02  0.17770000000E+01 0.  1.
         15    1    3    3    0    0  0.12683333439E+02 -0.22278616858E+01 -0.14365578514E+03  0.14424275597E+03  0.17770000000E+01 0. -1.
</event>
<event>
 7    1  0.4931604E-004  0.4921657E+03  0.7546771E-02  0.9417512E-01
        -11   -1    0    0    0    0  0.00000000000E+00  0.00000000000E+00  0.50000000000E+03  0.50000000000E+03  0.00000000000E+00 0. -1.
         11   -1    0    0    0    0 -0.00000000000E+00 -0.00000000000E+00 -0.50000000000E+03  0.50000000000E+03  0.00000000000E+00 0. -1.
         23    2    1    2    0    0  0.34409708399E+02  0.29985342579E+02 -0.48201192935E+03  0.49226677599E+03  0.88926542229E+02 0.  0.
        -11    1    1    2    0    0 -0.23783390277E+02 -0.50904830506E+02  0.48097600376E+03  0.48424670119E+03  0.00000000000E+00 0. -1.
         11    1    1    2    0    0 -0.10626318121E+02  0.20919487928E+02  0.10359255831E+01  0.23486522812E+02  0.00000000000E+00 0. -1.
        -15    1    3    3    0    0  0.29110686997E+01 -0.25688281663E+02 -0.25788261950E+03  0.25918133672E+03  0.17770000000E+01 0.  1.
         15    1    3    3    0    0  0.31498639699E+02  0.55673624242E+02 -0.22412930985E+03  0.23308543927E+03  0.17770000000E+01 0. -1.
</event>
<event>
 7    1  0.4931604E-004  0.5322221E+03  0.7546771E-02  0.9330463E-01
        -11   -1    0    0    0    0  0.00000000000E+00  0.00000000000E+00  0.50000000000E+03  0.50000000000E+03  0.00000000000E+00 0.  1.
         11   -1    0    0    0    0 -0.00000000000E+00 -0.00000000000E+00 -0.50000000000E+03  0.50000000000E+03  0.00000000000E+00 0.  1.
         23    2    1    2    0    0 -0.20778899176E+01 -0.42543787043E+01  0.32533207129E+02  0.97013930706E+02  0.91273631572E+02 0.  0.
        -11    1    1    2    0    0  0.48144077787E+01 -0.40838490674E+01  0.43516237147E+03  0.43520816386E+03  0.00000000000E+00 0.  1.
         11    1    1    2    0    0 -0.27365178611E+01  0.83382277717E+01 -0.46769557860E+03  0.46777790544E+03  0.00000000000E+00 0.  1.
        -15    1    3    3    0    0  0.23784148530E+02 -0.15831392469E+01 -0.24549348186E+02  0.34263979286E+02  0.17770000000E+01 0. -1.
         15    1    3    3    0    0 -0.25862038448E+02 -0.26712394574E+01  0.57082555315E+02  0.62749951420E+02  0.17770000000E+01 0.  1.
</event>
<event>
 7    1  0.4931604E-004  0.5180299E+03  0.7546771E-02  0.9360346E-01
        -11   -1    0    0    0    0  0.00000000000E+00  0.00000000000E+00  0.50000000000E+03  0.50000000000E+03  0.00000000000E+00 0. -1.
         11   -1    0    0    0    0 -0.00000000000E+00 -0.00000000000E+00 -0.50000000000E+03  0.50000000000E+03  0.00000000000E+00 0.  1.
         23    2    1    2    0    0  0.33778986960E+02  0.49575379253E+02 -0.36192604750E+03  0.37967440497E+03  0.97792902324E+02 0.  0.
        -11    1    1    2    0    0  0.53291615250E+01  0.71886533792E+01  0.48188703076E+03  0.48197011019E+03  0.00000000000E+00 0. -1.
         11    1    1    2    0    0 -0.39108148485E+02 -0.56764032632E+02 -0.11996098327E+03  0.13835548484E+03  0.00000000000E+00 0.  1.
        -15    1    3    3    0    0  0.37156479837E+01 -0.22804150012E+02 -0.18122737531E+03  0.18270291346E+03  0.17770000000E+01 0. -1.
         15    1    3    3    0    0  0.30063338976E+02  0.72379529265E+02 -0.18069867219E+03  0.19697149151E+03  0.17770000000E+01 0.  1.
</event>
<event>
 7    1  0.4931604E-004  0.4663860E+03  0.7546771E-02  0.9478333E-01
        -11   -1    0    0    0    0  0.00000000000E+00  0.00000000000E+00  0.50000000000E+03  0.50000000000E+03  0.00000000000E+00 0. -1.
         11   -1    0    0    0    0 -0.00000000000E+00 -0.00000000000E+00 -0.50000000000E+03  0.50000000000E+03  0.00000000000E+00 0.  1.
         23    2    1    2    0    0 -0.54100994385E+02  0.27580363263E+02 -0.44146853898E+03  0.45506276978E+03  0.92195767238E+02 0.  0.
        -11    1    1    2    0    0  0.45793686396E+01 -0.76468822658E+02  0.46516090097E+03  0.47142668067E+03  0.00000000000E+00 0. -1.
         11    1    1    2    0    0  0.49521625746E+02  0.48888459395E+02 -0.23692361992E+02  0.73510549551E+02  0.00000000000E+00 0.  1.
        -15    1    3    3    0    0  0.56437086290E+01  0.42039518665E+02 -0.10940865340E+03  0.11735665190E+03  0.17770000000E+01 0. -1.
         15    1    3    3    0    0 -0.59744703014E+02 -0.14459155401E+02 -0.33205988558E+03  0.33770611788E+03  0.17770000000E+01 0.  1.
</event>
<event>
 7    1  0.4931604E-004  0.5025023E+03  0.7546771E-02  0.9394228E-01
        -11   -1    0    0    0    0  0.00000000000E+00  0.00000000000E+00  0.50000000000E+03  0.50000000000E+03  0.00000000000E+00 0. -1.
         11   -1    0    0    0    0 -0.00000000000E+00 -0.00000000000E+00 -0.50000000000E+03  0.50000000000E+03  0.00000000000E+00 0.  1.
         23    2    1    2    0    0  0.54411304515E+02  0.14045268007E+02 -0.48567221180E+03  0.49749769888E+03  0.92025015435E+02 0.  0.
        -11    1    1    2    0    0 -0.13556645776E+02 -0.15073512794E+02  0.44283091490E+03  0.44329472433E+03  0.00000000000E+00 0. -1.
         11    1    1    2    0    0 -0.40854658739E+02  0.10282447867E+01  0.42841296905E+02  0.59207576783E+02  0.00000000000E+00 0.  1.
        -15    1    3    3    0    0  0.42396562390E+02 -0.35340280489E+02 -0.20796053981E+03  0.21516772010E+03  0.17770000000E+01 0. -1.
         15    1    3    3    0    0  0.12014742125E+02  0.49385548496E+02 -0.27771167200E+03  0.28232997878E+03  0.17770000000E+01 0.  1.
</event>
<event>
 7    1  0.4931604E-004  0.5153665E+03  0.7546771E-02  0.9366068E-01
        -11   -1    0    0    0    0  0.00000000000E+00  0.00000000000E+00  0.50000000000E+03  0.50000000000E+03  0.00000000000E+00 0. -1.
         11   -1    0    0    0    0 -0.00000000000E+00 -0.00000000000E+00 -0.50000000000E+03  0.50000000000E+03  0.00000000000E+00 0.  1.
         23    2    1    2    0    0  0.84308245580E+01 -0.64275884103E+02 -0.32018551212E+03  0.34036052095E+03  0.95519914001E+02 0.  0.
        -11    1    1    2    0    0 -0.86859450356E+01  0.41486119900E+01  0.48453794417E+03  0.48463354812E+03  0.00000000000E+00 0. -1.
         11    1    1    2    0    0  0.25512047756E+00  0.60127272113E+02 -0.16435243205E+03  0.17500593092E+03  0.00000000000E+00 0.  1.
        -15    1    3    3    0    0  0.13589845372E+02 -0.59921582272E+02 -0.84087003445E+02  0.10415882966E+03  0.17770000000E+01 0. -1.
         15    1    3    3    0    0 -0.51590208138E+01 -0.43543018312E+01 -0.23609850868E+03  0.23620169129E+03  0.17770000000E+01 0.  1.
</event>
<event>
 7    1  0.4931604E-004  0.4323188E+03  0.7546771E-02  0.9565452E-01
        -11   -1    0    0    0    0  0.00000000000E+00  0.00000000000E+00  0.50000000000E+03  0.50000000000E+03  0.00000000000E+00 0. -1.
         11   -1    0    0    0    0 -0.00000000000E+00 -0.00000000000E+00 -0.50000000000E+03  0.50000000000E+03  0.00000000000E+00 0. -1.
         23    2    1    2    0    0 -0.16872378565E+03 -0.50343986924E+02 -0.41528519005E+03  0.45966224477E+03  0.88461049744E+02 0.  0.
        -11    1    1    2    0    0  0.35735871780E+02  0.58582568598E+02  0.40043229792E+03  0.40626960887E+03  0.00000000000E+00 0. -1.
         11    1    1    2    0    0  0.13298791387E+03 -0.82385816750E+01  0.14852892135E+02  0.13406814636E+03  0.00000000000E+00 0. -1.
        -15    1    3    3    0    0 -0.59919759019E+02  0.12360255844E+02 -0.21246398039E+03  0.22110462261E+03  0.17770000000E+01 0.  1.
         15    1    3    3    0    0 -0.10880402663E+03 -0.62704242767E+02 -0.20282120966E+03  0.23855762216E+03  0.17770000000E+01 0. -1.
</event>
<event>
 7    1  0.4931604E-004  0.5278448E+03  0.7546771E-02  0.9339574E-01
        -11   -1    0    0    0    0  0.00000000000E+00  0.00000000000E+00  0.50000000000E+03  0.50000000000E+03  0.00000000000E+00 0. -1.
         11   -1    0    0    0    0 -0.00000000000E+00 -0.00000000000E+00 -0.50000000000E+03  0.50000000000E+03  0.00000000000E+00 0. -1.
         23    2    1    2    0    0  0.52215570624E+02 -0.88725599083E+02 -0.30166174223E+03  0.32497026723E+03  0.63302212539E+02 0.  0.
        -11    1    1    2    0    0 -0.40894226883E+01 -0.10363820963E+02  0.47202376949E+03  0.47215524050E+03  0.00000000000E+00 0. -1.
         11    1    1    2    0    0 -0.48126147936E+02  0.99089420046E+02 -0.17036202726E+03  0.20287449227E+03  0.00000000000E+00 0. -1.
        -15    1    3    3    0    0  0.63032094941E+02 -0.85479281196E+02 -0.28904427650E+03  0.30794399493E+03  0.17770000000E+01 0. -1.
         15    1    3    3    0    0 -0.10816524316E+02 -0.32463178864E+01 -0.12617465725E+02  0.17026272300E+02  0.17770000000E+01 0.  1.
</event>
<event>
 7    1  0.4931604E-004  0.3696596E+03  0.7546771E-02  0.9750555E-01
        -11   -1    0    0    0    0  0.00000000000E+00  0.00000000000E+00  0.50000000000E+03  0.50000000000E+03  0.00000000000E+00 0.  1.
         11   -1    0    0    0    0 -0.00000000000E+00 -0.00000000000E+00 -0.50000000000E+03  0.50000000000E+03  0.00000000000E+00 0.  1.
         23    2    1    2    0    0 -0.20698757020E+03 -0.75289860701E+02 -0.25408043371E+03  0.34865211151E+03  0.92135827580E+02 0.  0.
        -11    1    1    2    0    0  0.48668030433E+02  0.48442757178E+01  0.41320278001E+03  0.41608722835E+03  0.00000000000E+00 0.  1.
         11    1    1    2    0    0  0.15831953977E+03  0.70445584983E+02 -0.15912234630E+03  0.23526066013E+03  0.00000000000E+00 0.  1.
        -15    1    3    3    0    0 -0.68751192687E+02 -0.73191282328E+02 -0.10329883926E+03  0.14407462728E+03  0.17770000000E+01 0. -1.
         15    1    3    3    0    0 -0.13823637751E+03 -0.20985783730E+01 -0.15078159445E+03  0.20457748423E+03  0.17770000000E+01 0.  1.
</event>
<event>
 7    1  0.4931604E-004  0.5004741E+03  0.7546771E-02  0.9398750E-01
        -11   -1    0    0    0    0  0.00000000000E+00  0.00000000000E+00  0.50000000000E+03  0.50000000000E+03  0.00000000000E+00 0.  1.
         11   -1    0    0    0    0 -0.00000000000E+00 -0.00000000000E+00 -0.50000000000E+03  0.50000000000E+03  0.00000000000E+00 0.  1.
         23    2    1    2    0    0 -0.56261832201E+01  0.35597113845E+02 -0.49092268260E+03  0.50047406179E+03  0.90390252666E+02 0.  0.
        -11    1    1    2    0    0 -0.62337506737E+01 -0.44378972103E+01  0.43007424835E+03  0.43014231792E+03  0.00000000000E+00 0.  1.
         11    1    1    2    0    0  0.11859933894E+02 -0.31159216635E+02  0.60848434255E+02  0.69383620290E+02  0.00000000000E+00 0.  1.
        -15    1    3    3    0    0  0.41490618046E+02  0.13868045047E+02 -0.27046483045E+03  0.27398572280E+03  0.17770000000E+01 0.  1.
         15    1    3    3    0    0 -0.47116801266E+02  0.21729068798E+02 -0.22045785215E+03  0.22648833898E+03  0.17770000000E+01 0. -1.
</event>
<event>
 7    1  0.4931604E-004  0.5123480E+03  0.7546771E-02  0.9372596E-01
        -11   -1    0    0    0    0  0.00000000000E+00  0.00000000000E+00  0.50000000000E+03  0.50000000000E+03  0.00000000000E+00 0.  1.
         11   -1    0    0    0    0 -0.00000000000E+00 -0.00000000000E+00 -0.50000000000E+03  0.50000000000E+03  0.00000000000E+00 0. -1.
         23    2    1    2    0    0  0.55666343726E+02  0.13084722269E+02 -0.33604053352E+03  0.35227640970E+03  0.88912748701E+02 0.  0.
        -11    1    1    2    0    0 -0.33554868808E+02 -0.79631031047E+02  0.47993485902E+03  0.48765202679E+03  0.00000000000E+00 0.  1.
         11    1    1    2    0    0 -0.22111474917E+02  0.66546308777E+02 -0.14389432550E+03  0.16007156352E+03  0.00000000000E+00 0. -1.
        -15    1    3    3    0    0 -0.15862223729E+02 -0.19361335069E+02 -0.54853621504E+02  0.60320385927E+02  0.17770000000E+01 0.  1.
         15    1    3    3    0    0  0.71528567455E+02  0.32446057338E+02 -0.28118691201E+03  0.29195602377E+03  0.17770000000E+01 0. -1.
</event>
<event>
 7    1  0.4931604E-004  0.5033670E+03  0.7546771E-02  0.9392307E-01
        -11   -1    0    0    0    0  0.00000000000E+00  0.00000000000E+00  0.50000000000E+03  0.50000000000E+03  0.00000000000E+00 0.  1.
         11   -1    0    0    0    0 -0.00000000000E+00 -0.00000000000E+00 -0.50000000000E+03  0.50000000000E+03  0.00000000000E+00 0.  1.
         23    2    1    2    0    0  0.38239628663E+02 -0.29728546812E+01 -0.49358921448E+03  0.50336696950E+03  0.90977394258E+02 0.  0.
        -11    1    1    2    0    0  0.55677268257E+00 -0.56704638085E+01  0.22937863273E+03  0.22944938725E+03  0.00000000000E+00 0.  1.
         11    1    1    2    0    0 -0.38796401345E+02  0.86433184897E+01  0.26421058175E+03  0.26718364325E+03  0.00000000000E+00 0.  1.
        -15    1    3    3    0    0  0.45243840213E+02 -0.67755765846E+01 -0.49306343930E+03  0.49518443677E+03  0.17770000000E+01 0.  1.
         15    1    3    3    0    0 -0.70042115506E+01  0.38027219034E+01 -0.52577517971E+00  0.81825327289E+01  0.17770000000E+01 0. -1.
</event>
<event>
 7    1  0.4931604E-004  0.4323542E+03  0.7546771E-02  0.9565357E-01
        -11   -1    0    0    0    0  0.00000000000E+00  0.00000000000E+00  0.50000000000E+03  0.50000000000E+03  0.00000000000E+00 0.  1.
         11   -1    0    0    0    0 -0.00000000000E+00 -0.00000000000E+00 -0.50000000000E+03  0.50000000000E+03  0.00000000000E+00 0. -1.
         23    2    1    2    0    0 -0.59357219954E+02  0.51628772283E+02 -0.61901680886E+02  0.12951672513E+03  0.82182445229E+02 0.  0.
        -11    1    1    2    0    0 -0.69209908639E+01 -0.26599817850E+01  0.46196324938E+03  0.46202274770E+03  0.00000000000E+00 0.  1.
         11    1    1    2    0    0  0.66278210818E+02 -0.48968790498E+02 -0.40006156849E+03  0.40846052717E+03  0.00000000000E+00 0. -1.
        -15    1    3    3    0    0 -0.42546795915E+02  0.72544791678E+02 -0.33903469200E+02  0.90694981090E+02  0.17770000000E+01 0.  1.
         15    1    3    3    0    0 -0.16810424039E+02 -0.20916019395E+02 -0.27998211687E+02  0.38821744041E+02  0.17770000000E+01 0. -1.
</event>
<event>
 7    1  0.4931604E-004  0.5324150E+03  0.7546771E-02  0.9330064E-01
        -11   -1    0    0    0    0  0.00000000000E+00  0.00000000000E+00  0.50000000000E+03  0.50000000000E+03  0.00000000000E+00 0.  1.
         11   -1    0    0    0    0 -0.00000000000E+00 -0.00000000000E+00 -0.50000000000E+03  0.50000000000E+03  0.00000000000E+00 0. -1.
         23    2    1    2    0    0  0.51287233425E+02  0.11250971555E+03 -0.19170445404E+03  0.24469900277E+03  0.88533540827E+02 0.  0.
        -11    1    1    2    0    0 -0.12600871688E+01 -0.40762199119E+02  0.46580313792E+03  0.46758497408E+03  0.00000000000E+00 0.  1.
         11    1    1    2    0    0 -0.50027146256E+02 -0.71747516426E+02 -0.27409868387E+03  0.28771602315E+03  0.00000000000E+00 0. -1.
        -15    1    3    3    0    0  0.56993735814E+02  0.10526382521E+03 -0.19938577515E+03  0.23256526801E+03  0.17770000000E+01 0.  1.
         15    1    3    3    0    0 -0.57065023894E+01  0.72458903378E+01  0.76813211108E+01  0.12133734764E+02  0.17770000000E+01 0. -1.
</event>
<event>
 6    1  0.4931604E-004  0.3583543E+03  0.7546771E-02  0.9788145E-01
        -11   -1    0    0    0    0  0.00000000000E+00  0.00000000000E+00  0.50000000000E+03  0.50000000000E+03  0.00000000000E+00 0.  1.
         11   -1    0    0    0    0 -0.00000000000E+00 -0.00000000000E+00 -0.50000000000E+03  0.50000000000E+03  0.00000000000E+00 0. -1.
        -11    1    1    2    0    0 -0.44759175618E+00  0.60827833725E+01  0.39027237997E+03  0.39032003684E+03  0.00000000000E+00 0.  1.
         11    1    1    2    0    0 -0.13838262331E+03  0.84363219331E+02 -0.24852233562E+03  0.29669892907E+03  0.00000000000E+00 0. -1.
        -15    1    1    2    0    0  0.44592407714E+02  0.49404492619E+02  0.29330098889E+02  0.72750939145E+02  0.17770000000E+01 0.  1.
         15    1    1    2    0    0  0.94237807348E+02 -0.13985049532E+03 -0.17108014324E+03  0.24023009494E+03  0.17770000000E+01 0. -1.
</event>
<event>
 7    1  0.4931604E-004  0.4500273E+03  0.7546771E-02  0.9519141E-01
        -11   -1    0    0    0    0  0.00000000000E+00  0.00000000000E+00  0.50000000000E+03  0.50000000000E+03  0.00000000000E+00 0. -1.
         11   -1    0    0    0    0 -0.00000000000E+00 -0.00000000000E+00 -0.50000000000E+03  0.50000000000E+03  0.00000000000E+00 0.  1.
         23    2    1    2    0    0  0.26737126712E+02 -0.28915721715E+02  0.12312129952E+02  0.99000007162E+02  0.89991221612E+02 0.  0.
        -11    1    1    2    0    0 -0.65961270281E+01 -0.23341055178E+02  0.44229333086E+03  0.44295790350E+03  0.00000000000E+00 0. -1.
         11    1    1    2    0    0 -0.20140999684E+02  0.52256776893E+02 -0.45460546082E+03  0.45804208934E+03  0.00000000000E+00 0.  1.
        -15    1    3    3    0    0 -0.48962916694E+01 -0.34091918781E+02  0.42636864127E+02  0.54838786546E+02  0.17770000000E+01 0.  1.
         15    1    3    3    0    0  0.31633418381E+02  0.51761970669E+01 -0.30324734175E+02  0.44161220616E+02  0.17770000000E+01 0. -1.
</event>
<event>
 7    1  0.4931604E-004  0.5076620E+03  0.7546771E-02  0.9382827E-01
        -11   -1    0    0    0    0  0.00000000000E+00  0.00000000000E+00  0.50000000000E+03  0.50000000000E+03  0.00000000000E+00 0. -1.
         11   -1    0    0    0    0 -0.00000000000E+00 -0.00000000000E+00 -0.50000000000E+03  0.50000000000E+03  0.00000000000E+00 0. -1.
         23    2    1    2    0    0 -0.54954489286E+02  0.19185714184E+02  0.30466014122E+03  0.32357031952E+03  0.92151302236E+02 0.  0.
        -11    1    1    2    0    0 -0.38056976500E+01 -0.55518466380E+01  0.18396860174E+03  0.18409169661E+03  0.00000000000E+00 0. -1.
         11    1    1    2    0    0  0.58760186936E+02 -0.13633867546E+02 -0.48862874296E+03  0.49233798387E+03  0.00000000000E+00 0. -1.
        -15    1    3    3    0    0 -0.39215514989E+02  0.45302091248E+02  0.27328835660E+03  0.27978530996E+03  0.17770000000E+01 0. -1.
         15    1    3    3    0    0 -0.15738974297E+02 -0.26116377064E+02  0.31371784622E+02  0.43785009561E+02  0.17770000000E+01 0.  1.
</event>
<event>
 7    1  0.4931604E-004  0.4742330E+03  0.7546771E-02  0.9459386E-01
        -11   -1    0    0    0    0  0.00000000000E+00  0.00000000000E+00  0.50000000000E+03  0.50000000000E+03  0.00000000000E+00 0. -1.
         11   -1    0    0    0    0 -0.00000000000E+00 -0.00000000000E+00 -0.50000000000E+03  0.50000000000E+03  0.00000000000E+00 0.  1.
         23    2    1    2    0    0 -0.26310380298E+02  0.52561398674E+02 -0.43151385932E+03  0.44620470279E+03  0.97157034050E+02 0.  0.
        -11    1    1    2    0    0  0.39818389283E+02 -0.66360976049E+02  0.48800058137E+03  0.49409902923E+03  0.00000000000E+00 0. -1.
         11    1    1    2    0    0 -0.13508008985E+02  0.13799577376E+02 -0.56486722056E+02  0.59696267983E+02  0.00000000000E+00 0.  1.
        -15    1    3    3    0    0  0.16624428100E+02  0.55034372960E+02 -0.13732999003E+03  0.14888867555E+03  0.17770000000E+01 0. -1.
         15    1    3    3    0    0 -0.42934808398E+02 -0.24729742869E+01 -0.29418386929E+03  0.29731602724E+03  0.17770000000E+01 0.  1.
</event>
<event>
 7    1  0.4931604E-004  0.5138617E+03  0.7546771E-02  0.9369316E-01
        -11   -1    0    0    0    0  0.00000000000E+00  0.00000000000E+00  0.50000000000E+03  0.50000000000E+03  0.00000000000E+00 0. -1.
         11   -1    0    0    0    0 -0.00000000000E+00 -0.00000000000E+00 -0.50000000000E+03  0.50000000000E+03  0.00000000000E+00 0.  1.
         23    2    1    2    0    0  0.47283772784E+02  0.37017514636E+01 -0.20799930698E+03  0.23279732906E+03  0.93174173347E+02 0.  0.
        -11    1    1    2    0    0 -0.78183928740E+01 -0.26175952192E+02  0.48537011862E+03  0.48613831344E+03  0.00000000000E+00 0. -1.
         11    1    1    2    0    0 -0.39465379910E+02  0.22474200728E+02 -0.27737081164E+03  0.28106435750E+03  0.00000000000E+00 0.  1.
        -15    1    3    3    0    0  0.48985139789E+02  0.36333781116E+02 -0.79606641008E+02  0.10029986337E+03  0.17770000000E+01 0. -1.
         15    1    3    3    0    0 -0.17013670053E+01 -0.32632029652E+02 -0.12839266598E+03  0.13249746569E+03  0.17770000000E+01 0.  1.
</event>
<event>
 7    1  0.4931604E-004  0.5267489E+03  0.7546771E-02  0.9341869E-01
        -11   -1    0    0    0    0  0.00000000000E+00  0.00000000000E+00  0.50000000000E+03  0.50000000000E+03  0.00000000000E+00 0. -1.
         11   -1    0    0    0    0 -0.00000000000E+00 -0.00000000000E+00 -0.50000000000E+03  0.50000000000E+03  0.00000000000E+00 0.  1.
         23    2    1    2    0    0 -0.80147939146E+02 -0.20663728467E+01 -0.12914955193E+03  0.17531531739E+03  0.87337802253E+02 0.  0.
        -11    1    1    2    0    0  0.84016400048E+01  0.19342466311E+00  0.47317647603E+03  0.47325109872E+03  0.00000000000E+00 0. -1.
         11    1    1    2    0    0  0.71746299142E+02  0.18729481836E+01 -0.34402692411E+03  0.35143358389E+03  0.00000000000E+00 0.  1.
        -15    1    3    3    0    0  0.32847651444E+01  0.23853943663E+02 -0.70221528385E+01  0.25144953168E+02  0.17770000000E+01 0. -1.
         15    1    3    3    0    0 -0.83432704291E+02 -0.25920316510E+02 -0.12212739909E+03  0.15017036422E+03  0.17770000000E+01 0.  1.
</event>
<event>
 7    1  0.4931604E-004  0.5182119E+03  0.7546771E-02  0.9359957E-01
        -11   -1    0    0    0    0  0.00000000000E+00  0.00000000000E+00  0.50000000000E+03  0.50000000000E+03  0.00000000000E+00 0. -1.
         11   -1    0    0    0    0 -0.00000000000E+00 -0.00000000000E+00 -0.50000000000E+03  0.50000000000E+03  0.00000000000E+00 0.  1.
         23    2    1    2    0    0  0.50250581553E+02 -0.52382658148E+02 -0.32023460362E+03  0.34405295105E+03  0.10272861310E+03 0.  0.
        -11    1    1    2    0    0 -0.19350743559E+02 -0.60533209351E+01  0.48136123389E+03  0.48178805658E+03  0.00000000000E+00 0. -1.
         11    1    1    2    0    0 -0.30899837994E+02  0.58435979083E+02 -0.16112663028E+03  0.17415899237E+03  0.00000000000E+00 0.  1.
        -15    1    3    3    0    0 -0.10250667442E+02 -0.33526186099E+02 -0.27667652277E+02  0.44696063013E+02  0.17770000000E+01 0. -1.
         15    1    3    3    0    0  0.60501248996E+02 -0.18856472049E+02 -0.29256695134E+03  0.29935688803E+03  0.17770000000E+01 0.  1.
</event>
<event>
 7    1  0.4931604E-004  0.4751718E+03  0.7546771E-02  0.9457145E-01
        -11   -1    0    0    0    0  0.00000000000E+00  0.00000000000E+00  0.50000000000E+03  0.50000000000E+03  0.00000000000E+00 0.  1.
         11   -1    0    0    0    0 -0.00000000000E+00 -0.00000000000E+00 -0.50000000000E+03  0.50000000000E+03  0.00000000000E+00 0. -1.
         23    2    1    2    0    0  0.40852836314E+02 -0.37618608650E+02 -0.43654252442E+03  0.44915133489E+03  0.89907908789E+02 0.  0.
        -11    1    1    2    0    0 -0.45259143192E+02  0.25394086927E+02  0.49157298958E+03  0.49430481869E+03  0.00000000000E+00 0.  1.
         11    1    1    2    0    0  0.44063068776E+01  0.12224521723E+02 -0.55030465164E+02  0.56543846418E+02  0.00000000000E+00 0. -1.
        -15    1    3    3    0    0  0.29326057724E+02  0.90136892790E+00 -0.35478155046E+02  0.46072631160E+02  0.17770000000E+01 0.  1.
         15    1    3    3    0    0  0.11526778591E+02 -0.38519977578E+02 -0.40106436937E+03  0.40307870373E+03  0.17770000000E+01 0. -1.
</event>
<event>
 7    1  0.4931604E-004  0.5159299E+03  0.7546771E-02  0.9364854E-01
        -11   -1    0    0    0    0  0.00000000000E+00  0.00000000000E+00  0.50000000000E+03  0.50000000000E+03  0.00000000000E+00 0.  1.
         11   -1    0    0    0    0 -0.00000000000E+00 -0.00000000000E+00 -0.50000000000E+03  0.50000000000E+03  0.00000000000E+00 0. -1.
         23    2    1    2    0    0  0.80360451506E+02 -0.34402122965E+02  0.18570834348E+03  0.22517509214E+03  0.92600891195E+02 0.  0.
        -11    1    1    2    0    0 -0.56201791370E+01 -0.93740546585E+01  0.29054933235E+03  0.29075483460E+03  0.00000000000E+00 0.  1.
         11    1    1    2    0    0 -0.74740272369E+02  0.43776177624E+02 -0.47625767583E+03  0.48407007326E+03  0.00000000000E+00 0. -1.
        -15    1    3    3    0    0  0.64522328648E+02  0.22413083638E+02  0.10085392997E+03  0.12182015486E+03  0.17770000000E+01 0.  1.
         15    1    3    3    0    0  0.15838122858E+02 -0.56815206603E+02  0.84854413515E+02  0.10335493727E+03  0.17770000000E+01 0. -1.
</event>
<event>
 7    1  0.4931604E-004  0.5070797E+03  0.7546771E-02  0.9384106E-01
        -11   -1    0    0    0    0  0.00000000000E+00  0.00000000000E+00  0.50000000000E+03  0.50000000000E+03  0.00000000000E+00 0.  1.
         11   -1    0    0    0    0 -0.00000000000E+00 -0.00000000000E+00 -0.50000000000E+03  0.50000000000E+03  0.00000000000E+00 0.  1.
         23    2    1    2    0    0  0.18345323069E+01 -0.90980860837E+01 -0.27968448536E+03  0.29345430835E+03  0.88350886023E+02 0.  0.
        -11    1    1    2    0    0  0.14673934295E+02  0.66520387984E+01  0.49265696761E+03  0.49292034012E+03  0.00000000000E+00 0.  1.
         11    1    1    2    0    0 -0.16508466602E+02  0.24460472853E+01 -0.21297248225E+03  0.21362535152E+03  0.00000000000E+00 0.  1.
        -15    1    3    3    0    0 -0.10161058411E+02 -0.47400122521E+02 -0.16147026607E+03  0.16859959453E+03  0.17770000000E+01 0.  1.
         15    1    3    3    0    0  0.11995590718E+02  0.38302036437E+02 -0.11821421929E+03  0.12485471382E+03  0.17770000000E+01 0. -1.
</event>
<event>
 7    1  0.4931604E-004  0.5190993E+03  0.7546771E-02  0.9358059E-01
        -11   -1    0    0    0    0  0.00000000000E+00  0.00000000000E+00  0.50000000000E+03  0.50000000000E+03  0.00000000000E+00 0.  1.
         11   -1    0    0    0    0 -0.00000000000E+00 -0.00000000000E+00 -0.50000000000E+03  0.50000000000E+03  0.00000000000E+00 0.  1.
         23    2    1    2    0    0  0.30082218551E+02  0.37675766485E+02  0.11327222528E+03  0.15222458648E+03  0.89539513368E+02 0.  0.
        -11    1    1    2    0    0 -0.12123911833E+02 -0.10498129746E+02  0.36652397794E+03  0.36687467393E+03  0.00000000000E+00 0.  1.
         11    1    1    2    0    0 -0.17958306718E+02 -0.27177636739E+02 -0.47979620322E+03  0.48090073960E+03  0.00000000000E+00 0.  1.
        -15    1    3    3    0    0  0.21807064569E+02  0.66560958101E+02  0.90653164747E+02  0.11457339663E+03  0.17770000000E+01 0.  1.
         15    1    3    3    0    0  0.82751539820E+01 -0.28885191615E+02  0.22619060535E+02  0.37651189843E+02  0.17770000000E+01 0. -1.
</event>
<event>
 7    1  0.4931604E-004  0.4409006E+03  0.7546771E-02  0.9542719E-01
        -11   -1    0    0    0    0  0.00000000000E+00  0.00000000000E+00  0.50000000000E+03  0.50000000000E+03  0.00000000000E+00 0.  1.
         11   -1    0    0    0    0 -0.00000000000E+00 -0.00000000000E+00 -0.50000000000E+03  0.50000000000E+03  0.00000000000E+00 0. -1.
         23    2    1    2    0    0  0.89961530738E+02 -0.99934352636E+01 -0.28054529518E+02  0.11312152714E+03  0.61777645747E+02 0.  0.
        -11    1    1    2    0    0 -0.19803275749E+02  0.96053812214E+01  0.45433257590E+03  0.45486538954E+03  0.00000000000E+00 0.  1.
         11    1    1    2    0    0 -0.70158254989E+02  0.38805404224E+00 -0.42627804639E+03  0.43201308332E+03  0.00000000000E+00 0. -1.
        -15    1    3    3    0    0  0.57971628531E+02 -0.12380954532E+02 -0.47134523162E+02  0.75754991600E+02  0.17770000000E+01 0.  1.
         15    1    3    3    0    0  0.31989902207E+02  0.23875192687E+01  0.19079993644E+02  0.37366535536E+02  0.17770000000E+01 0. -1.
</event>
<event>
 7    1  0.4931604E-004  0.5027410E+03  0.7546771E-02  0.9393697E-01
        -11   -1    0    0    0    0  0.00000000000E+00  0.00000000000E+00  0.50000000000E+03  0.50000000000E+03  0.00000000000E+00 0.  1.
         11   -1    0    0    0    0 -0.00000000000E+00 -0.00000000000E+00 -0.50000000000E+03  0.50000000000E+03  0.00000000000E+00 0. -1.
         23    2    1    2    0    0  0.78423440513E+00 -0.59513728560E+01 -0.49424864039E+03  0.50274099329E+03  0.91819137133E+02 0.  0.
        -11    1    1    2    0    0 -0.91876460656E+01  0.11750338940E+01  0.47971592469E+03  0.47980533755E+03  0.00000000000E+00 0.  1.
         11    1    1    2    0    0  0.84034116605E+01  0.47763389620E+01  0.14532715702E+02  0.17453669158E+02  0.00000000000E+00 0. -1.
        -15    1    3    3    0    0  0.74166529338E+01  0.40999423415E+02 -0.29425491234E+03  0.29719534086E+03  0.17770000000E+01 0. -1.
         15    1    3    3    0    0 -0.66324185287E+01 -0.46950796271E+02 -0.19999372805E+03  0.20554565243E+03  0.17770000000E+01 0.  1.
</event>
<event>
 7    1  0.4931604E-004  0.4016988E+03  0.7546771E-02  0.9651394E-01
        -11   -1    0    0    0    0  0.00000000000E+00  0.00000000000E+00  0.50000000000E+03  0.50000000000E+03  0.00000000000E+00 0. -1.
         11   -1    0    0    0    0 -0.00000000000E+00 -0.00000000000E+00 -0.50000000000E+03  0.50000000000E+03  0.00000000000E+00 0. -1.
         23    2    1    2    0    0  0.33308927037E+02 -0.15639246690E+03 -0.35729074104E+03  0.40139748019E+03  0.88854798114E+02 0.  0.
        -11    1    1    2    0    0 -0.93373606239E+01 -0.18663937844E+02  0.41285464156E+03  0.41338176536E+03  0.00000000000E+00 0. -1.
         11    1    1    2    0    0 -0.23971566413E+02  0.17505640474E+03 -0.55563900515E+02  0.18522075445E+03  0.00000000000E+00 0. -1.
        -15    1    3    3    0    0  0.10641004638E+02 -0.11785488192E+02 -0.13045405023E+03  0.13142886160E+03  0.17770000000E+01 0.  1.
         15    1    3    3    0    0  0.22667922398E+02 -0.14460697870E+03 -0.22683669081E+03  0.26996861859E+03  0.17770000000E+01 0. -1.
</event>
<event>
 7    1  0.4931604E-004  0.4785428E+03  0.7546771E-02  0.9449145E-01
        -11   -1    0    0    0    0  0.00000000000E+00  0.00000000000E+00  0.50000000000E+03  0.50000000000E+03  0.00000000000E+00 0. -1.
         11   -1    0    0    0    0 -0.00000000000E+00 -0.00000000000E+00 -0.50000000000E+03  0.50000000000E+03  0.00000000000E+00 0. -1.
         23    2    1    2    0    0  0.21067906051E+02 -0.34889282395E+01 -0.44622092074E+03  0.45558966763E+03  0.89402493553E+02 0.  0.
        -11    1    1    2    0    0 -0.18501088646E+02 -0.11385536939E+02  0.49391100516E+03  0.49438851296E+03  0.00000000000E+00 0. -1.
         11    1    1    2    0    0 -0.25668174050E+01  0.14874465178E+02 -0.47690084414E+02  0.50021819412E+02  0.00000000000E+00 0. -1.
        -15    1    3    3    0    0  0.46164257784E+02 -0.10788131405E+02 -0.39706381543E+03  0.39988792646E+03  0.17770000000E+01 0. -1.
         15    1    3    3    0    0 -0.25096351733E+02  0.72992031658E+01 -0.49157105311E+02  0.55701741164E+02  0.17770000000E+01 0.  1.
</event>
<event>
 7    1  0.4931604E-004  0.5281788E+03  0.7546771E-02  0.9338875E-01
        -11   -1    0    0    0    0  0.00000000000E+00  0.00000000000E+00  0.50000000000E+03  0.50000000000E+03  0.00000000000E+00 0.  1.
         11   -1    0    0    0    0 -0.00000000000E+00 -0.00000000000E+00 -0.50000000000E+03  0.50000000000E+03  0.00000000000E+00 0. -1.
         23    2    1    2    0    0  0.55432869248E+02  0.44213368363E+02  0.79541682819E+02  0.13960511046E+03  0.90194692885E+02 0.  0.
        -11    1    1    2    0    0 -0.10218812135E+02 -0.43669896071E+01  0.38841473736E+03  0.38857367759E+03  0.00000000000E+00 0.  1.
         11    1    1    2    0    0 -0.45214057114E+02 -0.39846378756E+02 -0.46795642018E+03  0.47182121195E+03  0.00000000000E+00 0. -1.
        -15    1    3    3    0    0  0.39475348684E+02  0.57368943203E+02  0.91998645552E+02  0.11539673873E+03  0.17770000000E+01 0. -1.
         15    1    3    3    0    0  0.15957520564E+02 -0.13155574841E+02 -0.12456962732E+02  0.24208371723E+02  0.17770000000E+01 0.  1.
</event>
<event>
 7    1  0.4931604E-004  0.4356725E+03  0.7546771E-02  0.9556502E-01
        -11   -1    0    0    0    0  0.00000000000E+00  0.00000000000E+00  0.50000000000E+03  0.50000000000E+03  0.00000000000E+00 0.  1.
         11   -1    0    0    0    0 -0.00000000000E+00 -0.00000000000E+00 -0.50000000000E+03  0.50000000000E+03  0.00000000000E+00 0. -1.
         23    2    1    2    0    0 -0.43932950006E+02 -0.59684598926E+02  0.30144215364E+02  0.12498962151E+03  0.96027997579E+02 0.  0.
        -11    1    1    2    0    0 -0.43837611525E+01 -0.74729876510E+01  0.41860695635E+03  0.41869660473E+03  0.00000000000E+00 0.  1.
         11    1    1    2    0    0  0.48316711159E+02  0.67157586576E+02 -0.44875117172E+03  0.45631377377E+03  0.00000000000E+00 0. -1.
        -15    1    3    3    0    0 -0.37625774129E+01  0.10267991069E+02  0.42000766146E+02  0.43437434492E+02  0.17770000000E+01 0.  1.
         15    1    3    3    0    0 -0.40170372594E+02 -0.69952589995E+02 -0.11856550782E+02  0.81552187014E+02  0.17770000000E+01 0. -1.
</event>
<event>
 7    1  0.4931604E-004  0.5027267E+03  0.7546771E-02  0.9393729E-01
        -11   -1    0    0    0    0  0.00000000000E+00  0.00000000000E+00  0.50000000000E+03  0.50000000000E+03  0.00000000000E+00 0. -1.
         11   -1    0    0    0    0 -0.00000000000E+00 -0.00000000000E+00 -0.50000000000E+03  0.50000000000E+03  0.00000000000E+00 0.  1.
         23    2    1    2    0    0 -0.34006284602E+01  0.61972621049E+01 -0.49420956642E+03  0.50272667612E+03  0.91875159907E+02 0.  0.
        -11    1    1    2    0    0 -0.24773533801E+01 -0.93012992061E+01  0.48825254541E+03  0.48834741685E+03  0.00000000000E+00 0. -1.
         11    1    1    2    0    0  0.58779818403E+01  0.31040371012E+01  0.59570210129E+01  0.89259070233E+01  0.00000000000E+00 0.  1.
        -15    1    3    3    0    0  0.43208701194E+02  0.96925401836E+01 -0.27850194070E+03  0.28200607422E+03  0.17770000000E+01 0.  1.
         15    1    3    3    0    0 -0.46609329654E+02 -0.34952780787E+01 -0.21570762573E+03  0.22072060190E+03  0.17770000000E+01 0. -1.
</event>
<event>
 7    1  0.4931604E-004  0.4891096E+03  0.7546771E-02  0.9424513E-01
        -11   -1    0    0    0    0  0.00000000000E+00  0.00000000000E+00  0.50000000000E+03  0.50000000000E+03  0.00000000000E+00 0. -1.
         11   -1    0    0    0    0 -0.00000000000E+00 -0.00000000000E+00 -0.50000000000E+03  0.50000000000E+03  0.00000000000E+00 0. -1.
         23    2    1    2    0    0  0.28829239055E+01  0.16562008788E+02 -0.47233300841E+03  0.48214228493E+03  0.95289562374E+02 0.  0.
        -11    1    1    2    0    0 -0.11784957679E+02  0.88763174896E+01  0.48696670043E+03  0.48719014929E+03  0.00000000000E+00 0. -1.
         11    1    1    2    0    0  0.89020337733E+01 -0.25438326277E+02 -0.14633692017E+02  0.30667565784E+02  0.00000000000E+00 0. -1.
        -15    1    3    3    0    0  0.13716428646E+02  0.36969621088E+02 -0.80819175408E+02  0.89943260675E+02  0.17770000000E+01 0.  1.
         15    1    3    3    0    0 -0.10833504741E+02 -0.20407612300E+02 -0.39151383300E+03  0.39219902425E+03  0.17770000000E+01 0. -1.
</event>
<event>
 7    1  0.4931604E-004  0.4485654E+03  0.7546771E-02  0.9522877E-01
        -11   -1    0    0    0    0  0.00000000000E+00  0.00000000000E+00  0.50000000000E+03  0.50000000000E+03  0.00000000000E+00 0. -1.
         11   -1    0    0    0    0 -0.00000000000E+00 -0.00000000000E+00 -0.50000000000E+03  0.50000000000E+03  0.00000000000E+00 0. -1.
         23    2    1    2    0    0 -0.55782118327E+02 -0.53372846062E+02  0.96803582630E+01  0.99501476312E+02  0.62020392054E+02 0.  0.
        -11    1    1    2    0    0 -0.58663322552E+01  0.85436409889E+01  0.44215615148E+03  0.44227759376E+03  0.00000000000E+00 0. -1.
         11    1    1    2    0    0  0.61648450582E+02  0.44829205073E+02 -0.45183650974E+03  0.45822092992E+03  0.00000000000E+00 0. -1.
        -15    1    3    3    0    0 -0.41562726761E+02  0.18558437749E+01  0.80973219472E+01  0.42422031584E+02  0.17770000000E+01 0.  1.
         15    1    3    3    0    0 -0.14219391565E+02 -0.55228689837E+02  0.15830363158E+01  0.57079444729E+02  0.17770000000E+01 0. -1.
</event>
<event>
 7    1  0.4931604E-004  0.5099830E+03  0.7546771E-02  0.9377745E-01
        -11   -1    0    0    0    0  0.00000000000E+00  0.00000000000E+00  0.50000000000E+03  0.50000000000E+03  0.00000000000E+00 0. -1.
         11   -1    0    0    0    0 -0.00000000000E+00 -0.00000000000E+00 -0.50000000000E+03  0.50000000000E+03  0.00000000000E+00 0. -1.
         23    2    1    2    0    0 -0.11510573343E+03  0.14987124704E+02  0.28697405284E+03  0.32357247201E+03  0.94186484482E+02 0.  0.
        -11    1    1    2    0    0 -0.18596156329E+02  0.38857317856E+02  0.18136475943E+03  0.18641052584E+03  0.00000000000E+00 0. -1.
         11    1    1    2    0    0  0.13370188976E+03 -0.53844442560E+02 -0.46833881227E+03  0.49001700215E+03  0.00000000000E+00 0. -1.
        -15    1    3    3    0    0 -0.11054845746E+03  0.17472282701E+02  0.15345985062E+03  0.18994558587E+03  0.17770000000E+01 0.  1.
         15    1    3    3    0    0 -0.45572759703E+01 -0.24851579969E+01  0.13351420222E+03  0.13362688614E+03  0.17770000000E+01 0. -1.
</event>
<event>
 7    1  0.4931604E-004  0.4293032E+03  0.7546771E-02  0.9573574E-01
        -11   -1    0    0    0    0  0.00000000000E+00  0.00000000000E+00  0.50000000000E+03  0.50000000000E+03  0.00000000000E+00 0. -1.
         11   -1    0    0    0    0 -0.00000000000E+00 -0.00000000000E+00 -0.50000000000E+03  0.50000000000E+03  0.00000000000E+00 0. -1.
         23    2    1    2    0    0 -0.71731383812E+02  0.61422205859E+02  0.13065783083E+02  0.13611713605E+03  0.97154934212E+02 0.  0.
        -11    1    1    2    0    0 -0.10023825323E+01 -0.11369504169E+02  0.42088573354E+03  0.42104046254E+03  0.00000000000E+00 0. -1.
         11    1    1    2    0    0  0.72733766344E+02 -0.50052701690E+02 -0.43395151662E+03  0.44284240142E+03  0.00000000000E+00 0. -1.
        -15    1    3    3    0    0 -0.27395752675E+02 -0.62353439485E+01 -0.32709369692E+02  0.43156313251E+02  0.17770000000E+01 0.  1.
         15    1    3    3    0    0 -0.44335631137E+02  0.67657549808E+02  0.45775152775E+02  0.92960822796E+02  0.17770000000E+01 0. -1.
</event>
<event>
 7    1  0.4931604E-004  0.4610431E+03  0.7546771E-02  0.9491463E-01
        -11   -1    0    0    0    0  0.00000000000E+00  0.00000000000E+00  0.50000000000E+03  0.50000000000E+03  0.00000000000E+00 0.  1.
         11   -1    0    0    0    0 -0.00000000000E+00 -0.00000000000E+00 -0.50000000000E+03  0.50000000000E+03  0.00000000000E+00 0.  1.
         23    2    1    2    0    0 -0.20248431497E+02 -0.77128016837E+01 -0.41295554344E+03  0.42331668590E+03  0.90527616852E+02 0.  0.
        -11    1    1    2    0    0 -0.22185707794E+00  0.10755432386E+02  0.49345193204E+03  0.49356918237E+03  0.00000000000E+00 0.  1.
         11    1    1    2    0    0  0.20470288575E+02 -0.30426307020E+01 -0.80496388601E+02  0.83114131733E+02  0.00000000000E+00 0.  1.
        -15    1    3    3    0    0 -0.13767794475E+02  0.39918831729E+02 -0.14323302781E+03  0.14933828470E+03  0.17770000000E+01 0.  1.
         15    1    3    3    0    0 -0.64806370215E+01 -0.47631633413E+02 -0.26972251563E+03  0.27397840120E+03  0.17770000000E+01 0. -1.
</event>
<event>
 7    1  0.4931604E-004  0.5394460E+03  0.7546771E-02  0.9315630E-01
        -11   -1    0    0    0    0  0.00000000000E+00  0.00000000000E+00  0.50000000000E+03  0.50000000000E+03  0.00000000000E+00 0. -1.
         11   -1    0    0    0    0 -0.00000000000E+00 -0.00000000000E+00 -0.50000000000E+03  0.50000000000E+03  0.00000000000E+00 0. -1.
         23    2    1    2    0    0  0.26473877204E+02  0.31666552698E+02 -0.52525830938E+02  0.12862774002E+03  0.10992040690E+03 0.  0.
        -11    1    1    2    0    0  0.26237577913E+01  0.68816825723E+01  0.46049515294E+03  0.46055404410E+03  0.00000000000E+00 0. -1.
         11    1    1    2    0    0 -0.29097634995E+02 -0.38548235270E+02 -0.40796932200E+03  0.41081821588E+03  0.00000000000E+00 0. -1.
        -15    1    3    3    0    0  0.12793962044E+02  0.38846152942E+02 -0.84042748948E+02  0.93482888503E+02  0.17770000000E+01 0.  1.
         15    1    3    3    0    0  0.13679915160E+02 -0.71796002443E+01  0.31516918010E+02  0.35144851519E+02  0.17770000000E+01 0. -1.
</event>
<event>
 7    1  0.4931604E-004  0.5019575E+03  0.7546771E-02  0.9395440E-01
        -11   -1    0    0    0    0  0.00000000000E+00  0.00000000000E+00  0.50000000000E+03  0.50000000000E+03  0.00000000000E+00 0. -1.
         11   -1    0    0    0    0 -0.00000000000E+00 -0.00000000000E+00 -0.50000000000E+03  0.50000000000E+03  0.00000000000E+00 0.  1.
         23    2    1    2    0    0 -0.15932675912E+02 -0.17933704451E+02 -0.49301394527E+03  0.50195747246E+03  0.91230948784E+02 0.  0.
        -11    1    1    2    0    0 -0.82404919486E+01  0.10441060129E+02  0.42901874564E+03  0.42922488925E+03  0.00000000000E+00 0. -1.
         11    1    1    2    0    0  0.24173167861E+02  0.74926443218E+01  0.63995199629E+02  0.68817638284E+02  0.00000000000E+00 0.  1.
        -15    1    3    3    0    0  0.98694016335E+01  0.24554172777E+02 -0.54285980073E+02  0.60418853439E+02  0.17770000000E+01 0. -1.
         15    1    3    3    0    0 -0.25802077545E+02 -0.42487877228E+02 -0.43872796520E+03  0.44153861902E+03  0.17770000000E+01 0.  1.
</event>
<event>
 7    1  0.4931604E-004  0.4588918E+03  0.7546771E-02  0.9496803E-01
        -11   -1    0    0    0    0  0.00000000000E+00  0.00000000000E+00  0.50000000000E+03  0.50000000000E+03  0.00000000000E+00 0.  1.
         11   -1    0    0    0    0 -0.00000000000E+00 -0.00000000000E+00 -0.50000000000E+03  0.50000000000E+03  0.00000000000E+00 0. -1.
         23    2    1    2    0    0  0.60801021177E+02  0.15039027489E+02 -0.40758828037E+03  0.42227892559E+03  0.90930457938E+02 0.  0.
        -11    1    1    2    0    0 -0.69557986555E+02  0.23962330891E+02  0.48502674399E+03  0.49057461122E+03  0.00000000000E+00 0.  1.
         11    1    1    2    0    0  0.87569653783E+01 -0.39001358380E+02 -0.77438463618E+02  0.87146463185E+02  0.00000000000E+00 0. -1.
        -15    1    3    3    0    0  0.32062288147E+02  0.22851856844E+01 -0.37701680395E+03  0.37838874267E+03  0.17770000000E+01 0. -1.
         15    1    3    3    0    0  0.28738733030E+02  0.12753841805E+02 -0.30571476423E+02  0.43890182919E+02  0.17770000000E+01 0.  1.
</event>
