<event>
 6    1  0.1196607E-002  0.1827163E+03  0.7546771E-02  0.1068283E+00
        -11   -1    0    0    0    0  0.00000000000E+00  0.00000000000E+00  0.18250000000E+03  0.18250000000E+03  0.00000000000E+00 0.  1.
         11   -1    0    0    0    0 -0.00000000000E+00 -0.00000000000E+00 -0.18250000000E+03  0.18250000000E+03  0.00000000000E+00 0. -1.
        -11    1    1    2    0    0  0.19554641941E-01 -0.82652391093E+00  0.53438699733E+02  0.53445094755E+02  0.00000000000E+00 0.  1.
         11    1    1    2    0    0 -0.47872187203E+01 -0.22858844098E+01 -0.18220645930E+03  0.18228367053E+03  0.00000000000E+00 0. -1.
        -15    1    1    2    0    0  0.38559043571E+01 -0.25285248364E+01  0.40400562887E+02  0.40701654105E+02  0.17770000000E+01 0. -1.
         15    1    1    2    0    0  0.91175972131E+00  0.56409331571E+01  0.88367196677E+02  0.88569580614E+02  0.17770000000E+01 0.  1.
</event>
<event>
 6    1  0.1196607E-002  0.1827288E+03  0.7546771E-02  0.1068273E+00
        -11   -1    0    0    0    0  0.00000000000E+00  0.00000000000E+00  0.18250000000E+03  0.18250000000E+03  0.00000000000E+00 0.  1.
         11   -1    0    0    0    0 -0.00000000000E+00 -0.00000000000E+00 -0.18250000000E+03  0.18250000000E+03  0.00000000000E+00 0.  1.
        -11    1    1    2    0    0  0.23695389473E+01 -0.83916214030E+00  0.18225390027E+03  0.18227123490E+03  0.00000000000E+00 0.  1.
         11    1    1    2    0    0 -0.25460170972E+01  0.32259592982E+01 -0.88030611665E+02  0.88126486408E+02  0.00000000000E+00 0.  1.
        -15    1    1    2    0    0  0.64505454755E+00 -0.12878396411E+00 -0.52518380979E+01  0.55832081356E+01  0.17770000000E+01 0.  1.
         15    1    1    2    0    0 -0.46857639759E+00 -0.22580131938E+01 -0.88971450511E+02  0.89019070555E+02  0.17770000000E+01 0.  1.
</event>
<event>
 6    1  0.1196607E-002  0.1792311E+03  0.7546771E-02  0.1071087E+00
        -11   -1    0    0    0    0  0.00000000000E+00  0.00000000000E+00  0.18250000000E+03  0.18250000000E+03  0.00000000000E+00 0. -1.
         11   -1    0    0    0    0 -0.00000000000E+00 -0.00000000000E+00 -0.18250000000E+03  0.18250000000E+03  0.00000000000E+00 0. -1.
        -11    1    1    2    0    0  0.17374377184E+01  0.26441796730E+01  0.17941580512E+03  0.17944370009E+03  0.00000000000E+00 0. -1.
         11    1    1    2    0    0 -0.24138503982E+01 -0.26586197537E+00 -0.17901080840E+03  0.17902727971E+03  0.00000000000E+00 0. -1.
        -15    1    1    2    0    0 -0.15299911132E+01  0.53888688346E+00  0.21481031850E+00  0.24156043452E+01  0.17770000000E+01 0. -1.
         15    1    1    2    0    0  0.22064037930E+01 -0.29172045811E+01 -0.61980704086E+00  0.41134158595E+01  0.17770000000E+01 0.  1.
</event>
<event>
 6    1  0.1196607E-002  0.1847855E+03  0.7546771E-02  0.1066650E+00
        -11   -1    0    0    0    0  0.00000000000E+00  0.00000000000E+00  0.18250000000E+03  0.18250000000E+03  0.00000000000E+00 0.  1.
         11   -1    0    0    0    0 -0.00000000000E+00 -0.00000000000E+00 -0.18250000000E+03  0.18250000000E+03  0.00000000000E+00 0. -1.
        -11    1    1    2    0    0  0.42342137922E+01 -0.10087568046E+01  0.12682899519E+03  0.12690366495E+03  0.00000000000E+00 0.  1.
         11    1    1    2    0    0 -0.50274996597E+01 -0.73676653256E+01 -0.17999359935E+03  0.18021446683E+03  0.00000000000E+00 0. -1.
        -15    1    1    2    0    0  0.58312829082E+01  0.37798774678E+00  0.44558999094E+02  0.44975647459E+02  0.17770000000E+01 0. -1.
         15    1    1    2    0    0 -0.50379970407E+01  0.79984343834E+01  0.86056050672E+01  0.12906220761E+02  0.17770000000E+01 0.  1.
</event>
<event>
 6    1  0.1196607E-002  0.1960876E+03  0.7546771E-02  0.1058126E+00
        -11   -1    0    0    0    0  0.00000000000E+00  0.00000000000E+00  0.18250000000E+03  0.18250000000E+03  0.00000000000E+00 0.  1.
         11   -1    0    0    0    0 -0.00000000000E+00 -0.00000000000E+00 -0.18250000000E+03  0.18250000000E+03  0.00000000000E+00 0. -1.
        -11    1    1    2    0    0  0.41597050128E+01  0.66080369955E+01  0.16339436393E+03  0.16358082853E+03  0.00000000000E+00 0.  1.
         11    1    1    2    0    0 -0.58567995511E+01 -0.29414578129E+01 -0.16878516614E+03  0.16891236362E+03  0.00000000000E+00 0. -1.
        -15    1    1    2    0    0 -0.14600906460E+02 -0.14691368232E+01  0.60030417602E+01  0.15954280674E+02  0.17770000000E+01 0. -1.
         15    1    1    2    0    0  0.16298000999E+02 -0.21974423593E+01 -0.61223954975E+00  0.16552527171E+02  0.17770000000E+01 0.  1.
</event>
<event>
 6    1  0.1196607E-002  0.1835336E+03  0.7546771E-02  0.1067635E+00
        -11   -1    0    0    0    0  0.00000000000E+00  0.00000000000E+00  0.18250000000E+03  0.18250000000E+03  0.00000000000E+00 0. -1.
         11   -1    0    0    0    0 -0.00000000000E+00 -0.00000000000E+00 -0.18250000000E+03  0.18250000000E+03  0.00000000000E+00 0.  1.
        -11    1    1    2    0    0 -0.96688042221E+00 -0.26255654416E+01  0.81548313086E+02  0.81596297825E+02  0.00000000000E+00 0. -1.
         11    1    1    2    0    0  0.17900658939E+01  0.28323473824E+01 -0.18143542594E+03  0.18146636138E+03  0.00000000000E+00 0.  1.
        -15    1    1    2    0    0  0.18352501444E+01  0.31024730891E+01  0.95483507064E+02  0.95568045562E+02  0.17770000000E+01 0. -1.
         15    1    1    2    0    0 -0.26584356161E+01 -0.33092550299E+01  0.44036057894E+01  0.63692952299E+01  0.17770000000E+01 0. -1.
</event>
<event>
 6    1  0.1196607E-002  0.1826355E+03  0.7546771E-02  0.1068347E+00
        -11   -1    0    0    0    0  0.00000000000E+00  0.00000000000E+00  0.18250000000E+03  0.18250000000E+03  0.00000000000E+00 0.  1.
         11   -1    0    0    0    0 -0.00000000000E+00 -0.00000000000E+00 -0.18250000000E+03  0.18250000000E+03  0.00000000000E+00 0.  1.
        -11    1    1    2    0    0  0.24501466871E+00 -0.54671950036E+01  0.57868839396E+02  0.58127040406E+02  0.00000000000E+00 0.  1.
         11    1    1    2    0    0 -0.18690448130E+01  0.11871036425E+02 -0.18196815632E+03  0.18236453808E+03  0.00000000000E+00 0.  1.
        -15    1    1    2    0    0 -0.64457887971E+00 -0.30686498083E+01  0.95811854642E+02  0.95879618859E+02  0.17770000000E+01 0.  1.
         15    1    1    2    0    0  0.22686090240E+01 -0.33351916126E+01  0.28287462283E+02  0.28628802654E+02  0.17770000000E+01 0. -1.
</event>
<event>
 6    1  0.1196607E-002  0.1825620E+03  0.7546771E-02  0.1068405E+00
        -11   -1    0    0    0    0  0.00000000000E+00  0.00000000000E+00  0.18250000000E+03  0.18250000000E+03  0.00000000000E+00 0.  1.
         11   -1    0    0    0    0 -0.00000000000E+00 -0.00000000000E+00 -0.18250000000E+03  0.18250000000E+03  0.00000000000E+00 0. -1.
        -11    1    1    2    0    0 -0.24682115133E+01 -0.19779156571E+01  0.18241057133E+03  0.18243799152E+03  0.00000000000E+00 0.  1.
         11    1    1    2    0    0  0.19047446991E+00  0.13718253633E+01 -0.60777008353E+02  0.60792786823E+02  0.00000000000E+00 0. -1.
        -15    1    1    2    0    0 -0.76280227529E+00  0.66288348067E+00 -0.60268125064E+02  0.60302785256E+02  0.17770000000E+01 0. -1.
         15    1    1    2    0    0  0.30405393187E+01 -0.56793186944E-01 -0.61365437910E+02  0.61466436400E+02  0.17770000000E+01 0. -1.
</event>
<event>
 6    1  0.1196607E-002  0.1844142E+03  0.7546771E-02  0.1066941E+00
        -11   -1    0    0    0    0  0.00000000000E+00  0.00000000000E+00  0.18250000000E+03  0.18250000000E+03  0.00000000000E+00 0. -1.
         11   -1    0    0    0    0 -0.00000000000E+00 -0.00000000000E+00 -0.18250000000E+03  0.18250000000E+03  0.00000000000E+00 0.  1.
        -11    1    1    2    0    0 -0.17564532655E+01 -0.16590622750E+02  0.17981348451E+03  0.18058577769E+03  0.00000000000E+00 0. -1.
         11    1    1    2    0    0  0.15176639281E+01  0.17561870806E+01 -0.13052577164E+03  0.13054640768E+03  0.00000000000E+00 0.  1.
        -15    1    1    2    0    0 -0.34387807825E+01  0.17209803320E+00 -0.24318590692E+02  0.24625320571E+02  0.17770000000E+01 0. -1.
         15    1    1    2    0    0  0.36775701198E+01  0.14662337637E+02 -0.24969122186E+02  0.29242494057E+02  0.17770000000E+01 0.  1.
</event>
<event>
 6    1  0.1196607E-002  0.1836412E+03  0.7546771E-02  0.1067550E+00
        -11   -1    0    0    0    0  0.00000000000E+00  0.00000000000E+00  0.18250000000E+03  0.18250000000E+03  0.00000000000E+00 0. -1.
         11   -1    0    0    0    0 -0.00000000000E+00 -0.00000000000E+00 -0.18250000000E+03  0.18250000000E+03  0.00000000000E+00 0. -1.
        -11    1    1    2    0    0 -0.28938740613E+01 -0.73620848689E+00  0.12383190975E+03  0.12386790699E+03  0.00000000000E+00 0. -1.
         11    1    1    2    0    0 -0.35812637541E+01  0.10320866169E+02 -0.18102945370E+03  0.18135878483E+03  0.00000000000E+00 0. -1.
        -15    1    1    2    0    0  0.94764960578E+01 -0.41107665278E+01  0.28931468289E+02  0.30771577232E+02  0.17770000000E+01 0.  1.
         15    1    1    2    0    0 -0.30013582425E+01 -0.54738911548E+01  0.28266075659E+02  0.29001730946E+02  0.17770000000E+01 0. -1.
</event>
<event>
 6    1  0.1196607E-002  0.1626260E+03  0.7546771E-02  0.1085476E+00
        -11   -1    0    0    0    0  0.00000000000E+00  0.00000000000E+00  0.18250000000E+03  0.18250000000E+03  0.00000000000E+00 0.  1.
         11   -1    0    0    0    0 -0.00000000000E+00 -0.00000000000E+00 -0.18250000000E+03  0.18250000000E+03  0.00000000000E+00 0.  1.
        -11    1    1    2    0    0  0.13037715432E+02  0.73593168966E+01  0.15823975046E+03  0.15894640667E+03  0.00000000000E+00 0.  1.
         11    1    1    2    0    0  0.49293630297E+01 -0.24636751731E+00 -0.16692184538E+03  0.16699479568E+03  0.00000000000E+00 0.  1.
        -15    1    1    2    0    0  0.19211421726E+01 -0.28649666505E+01 -0.10408912750E+02  0.11108645948E+02  0.17770000000E+01 0.  1.
         15    1    1    2    0    0 -0.19888220635E+02 -0.42479827288E+01  0.19091007676E+02  0.27950151706E+02  0.17770000000E+01 0. -1.
</event>
<event>
 6    1  0.1196607E-002  0.1967319E+03  0.7546771E-02  0.1057659E+00
        -11   -1    0    0    0    0  0.00000000000E+00  0.00000000000E+00  0.18250000000E+03  0.18250000000E+03  0.00000000000E+00 0. -1.
         11   -1    0    0    0    0 -0.00000000000E+00 -0.00000000000E+00 -0.18250000000E+03  0.18250000000E+03  0.00000000000E+00 0.  1.
        -11    1    1    2    0    0 -0.44361200358E+01  0.62261552424E+01  0.16809437131E+03  0.16826812484E+03  0.00000000000E+00 0. -1.
         11    1    1    2    0    0 -0.13506957268E+01  0.21787903750E+01 -0.75398318666E+02  0.75441884680E+02  0.00000000000E+00 0.  1.
        -15    1    1    2    0    0 -0.27075490892E+02 -0.11858525590E+02 -0.80916889226E+02  0.86165001754E+02  0.17770000000E+01 0.  1.
         15    1    1    2    0    0  0.32862306654E+02  0.34535799721E+01 -0.11779163419E+02  0.35124988728E+02  0.17770000000E+01 0. -1.
</event>
<event>
 6    1  0.1196607E-002  0.1836930E+03  0.7546771E-02  0.1067509E+00
        -11   -1    0    0    0    0  0.00000000000E+00  0.00000000000E+00  0.18250000000E+03  0.18250000000E+03  0.00000000000E+00 0. -1.
         11   -1    0    0    0    0 -0.00000000000E+00 -0.00000000000E+00 -0.18250000000E+03  0.18250000000E+03  0.00000000000E+00 0. -1.
        -11    1    1    2    0    0 -0.64945216058E+00  0.61402226436E+01  0.11247034779E+03  0.11263970549E+03  0.00000000000E+00 0. -1.
         11    1    1    2    0    0  0.42733979273E+01  0.73625001769E+01 -0.18110699357E+03  0.18130695370E+03  0.00000000000E+00 0. -1.
        -15    1    1    2    0    0 -0.46977497772E+01 -0.14582701607E+02  0.64317090277E+02  0.66140531219E+02  0.17770000000E+01 0.  1.
         15    1    1    2    0    0  0.10738040104E+01  0.10799787869E+01  0.43195555119E+01  0.49128095885E+01  0.17770000000E+01 0.  1.
</event>
<event>
 6    1  0.1196607E-002  0.1578213E+03  0.7546771E-02  0.1089995E+00
        -11   -1    0    0    0    0  0.00000000000E+00  0.00000000000E+00  0.18250000000E+03  0.18250000000E+03  0.00000000000E+00 0. -1.
         11   -1    0    0    0    0 -0.00000000000E+00 -0.00000000000E+00 -0.18250000000E+03  0.18250000000E+03  0.00000000000E+00 0.  1.
        -11    1    1    2    0    0 -0.19756623088E+02 -0.11913096965E+02  0.15965031038E+03  0.16130860993E+03  0.00000000000E+00 0. -1.
         11    1    1    2    0    0 -0.55887150965E+00  0.82540865652E+00 -0.21916192729E+02  0.21938850028E+02  0.00000000000E+00 0.  1.
        -15    1    1    2    0    0  0.17611606804E+02  0.10221164820E+02  0.17241484237E+02  0.26740744421E+02  0.17770000000E+01 0.  1.
         15    1    1    2    0    0  0.27038877935E+01  0.86652348804E+00 -0.15497560188E+03  0.15501179562E+03  0.17770000000E+01 0.  1.
</event>
<event>
 6    1  0.1196607E-002  0.1839156E+03  0.7546771E-02  0.1067334E+00
        -11   -1    0    0    0    0  0.00000000000E+00  0.00000000000E+00  0.18250000000E+03  0.18250000000E+03  0.00000000000E+00 0.  1.
         11   -1    0    0    0    0 -0.00000000000E+00 -0.00000000000E+00 -0.18250000000E+03  0.18250000000E+03  0.00000000000E+00 0. -1.
        -11    1    1    2    0    0  0.19424249044E+01  0.15676718850E+01  0.18106717287E+03  0.18108437729E+03  0.00000000000E+00 0.  1.
         11    1    1    2    0    0  0.17287100738E+01 -0.17898924007E+01 -0.13782672512E+03  0.13784918683E+03  0.00000000000E+00 0. -1.
        -15    1    1    2    0    0  0.30470138530E+01 -0.28537316937E+01 -0.38526372096E+01  0.59521945927E+01  0.17770000000E+01 0. -1.
         15    1    1    2    0    0 -0.67181488312E+01  0.30759522094E+01 -0.39387810540E+02  0.40114241285E+02  0.17770000000E+01 0.  1.
</event>
<event>
 6    1  0.1196607E-002  0.1834382E+03  0.7546771E-02  0.1067710E+00
        -11   -1    0    0    0    0  0.00000000000E+00  0.00000000000E+00  0.18250000000E+03  0.18250000000E+03  0.00000000000E+00 0. -1.
         11   -1    0    0    0    0 -0.00000000000E+00 -0.00000000000E+00 -0.18250000000E+03  0.18250000000E+03  0.00000000000E+00 0.  1.
        -11    1    1    2    0    0 -0.20467093637E+01 -0.62449904783E+01  0.18144277957E+03  0.18156175584E+03  0.00000000000E+00 0. -1.
         11    1    1    2    0    0 -0.19076477800E+01  0.18044620292E+01 -0.16316091441E+03  0.16318204312E+03  0.00000000000E+00 0.  1.
        -15    1    1    2    0    0  0.30581827621E+01  0.43852786171E+01 -0.80084102360E+01  0.97916042538E+01  0.17770000000E+01 0. -1.
         15    1    1    2    0    0  0.89617438155E+00  0.55249831997E-01 -0.10273454920E+02  0.10464596794E+02  0.17770000000E+01 0.  1.
</event>
<event>
 6    1  0.1196607E-002  0.2018498E+03  0.7546771E-02  0.1054017E+00
        -11   -1    0    0    0    0  0.00000000000E+00  0.00000000000E+00  0.18250000000E+03  0.18250000000E+03  0.00000000000E+00 0. -1.
         11   -1    0    0    0    0 -0.00000000000E+00 -0.00000000000E+00 -0.18250000000E+03  0.18250000000E+03  0.00000000000E+00 0. -1.
        -11    1    1    2    0    0  0.34061300324E+01  0.89628474244E+00  0.16311220457E+03  0.16315022625E+03  0.00000000000E+00 0. -1.
         11    1    1    2    0    0  0.17921027042E+01 -0.11314485769E+01 -0.15452737337E+03  0.15454190670E+03  0.00000000000E+00 0. -1.
        -15    1    1    2    0    0 -0.99046121103E+01  0.33074460470E+01 -0.26451719580E+02  0.28493714011E+02  0.17770000000E+01 0. -1.
         15    1    1    2    0    0  0.47063793737E+01 -0.30722822126E+01  0.17866888381E+02  0.18814153030E+02  0.17770000000E+01 0.  1.
</event>
<event>
 6    1  0.1196607E-002  0.1829703E+03  0.7546771E-02  0.1068081E+00
        -11   -1    0    0    0    0  0.00000000000E+00  0.00000000000E+00  0.18250000000E+03  0.18250000000E+03  0.00000000000E+00 0. -1.
         11   -1    0    0    0    0 -0.00000000000E+00 -0.00000000000E+00 -0.18250000000E+03  0.18250000000E+03  0.00000000000E+00 0. -1.
        -11    1    1    2    0    0 -0.16499094756E+00  0.25983216230E+01  0.18201109157E+03  0.18202971173E+03  0.00000000000E+00 0. -1.
         11    1    1    2    0    0  0.43749388057E+01 -0.24419728171E+01 -0.15546576237E+03  0.15554647726E+03  0.00000000000E+00 0. -1.
        -15    1    1    2    0    0 -0.47092733425E+01 -0.15746923000E-01 -0.19200973380E+02  0.19849750908E+02  0.17770000000E+01 0.  1.
         15    1    1    2    0    0  0.49932548442E+00 -0.14060188281E+00 -0.73443558275E+01  0.75740600968E+01  0.17770000000E+01 0. -1.
</event>
<event>
 6    1  0.1196607E-002  0.2083025E+03  0.7546771E-02  0.1049590E+00
        -11   -1    0    0    0    0  0.00000000000E+00  0.00000000000E+00  0.18250000000E+03  0.18250000000E+03  0.00000000000E+00 0. -1.
         11   -1    0    0    0    0 -0.00000000000E+00 -0.00000000000E+00 -0.18250000000E+03  0.18250000000E+03  0.00000000000E+00 0.  1.
        -11    1    1    2    0    0 -0.17233430729E+01 -0.45523903440E+01  0.15662187774E+03  0.15669750080E+03  0.00000000000E+00 0. -1.
         11    1    1    2    0    0  0.15971680075E+01 -0.39086245044E+01 -0.13929728880E+03  0.13936126778E+03  0.00000000000E+00 0.  1.
        -15    1    1    2    0    0 -0.11378123805E+01  0.74976337521E+01  0.25186494791E+02  0.26363352931E+02  0.17770000000E+01 0. -1.
         15    1    1    2    0    0  0.12639874459E+01  0.96338109629E+00 -0.42511083736E+02  0.42577878491E+02  0.17770000000E+01 0.  1.
</event>
<event>
 6    1  0.1196607E-002  0.1871002E+03  0.7546771E-02  0.1064851E+00
        -11   -1    0    0    0    0  0.00000000000E+00  0.00000000000E+00  0.18250000000E+03  0.18250000000E+03  0.00000000000E+00 0.  1.
         11   -1    0    0    0    0 -0.00000000000E+00 -0.00000000000E+00 -0.18250000000E+03  0.18250000000E+03  0.00000000000E+00 0. -1.
        -11    1    1    2    0    0 -0.15622460861E+00  0.97443678658E+01  0.17763265036E+03  0.17789979085E+03  0.00000000000E+00 0.  1.
         11    1    1    2    0    0  0.21359070702E+01  0.10929411226E+01 -0.15173893471E+03  0.15175790236E+03  0.00000000000E+00 0. -1.
        -15    1    1    2    0    0  0.14744362271E+00  0.61530179253E+01 -0.10215321820E+02  0.12057856282E+02  0.17770000000E+01 0. -1.
         15    1    1    2    0    0 -0.21271260843E+01 -0.16990326914E+02 -0.15678393820E+02  0.23284450515E+02  0.17770000000E+01 0.  1.
</event>
<event>
 6    1  0.1196607E-002  0.1836964E+03  0.7546771E-02  0.1067506E+00
        -11   -1    0    0    0    0  0.00000000000E+00  0.00000000000E+00  0.18250000000E+03  0.18250000000E+03  0.00000000000E+00 0.  1.
         11   -1    0    0    0    0 -0.00000000000E+00 -0.00000000000E+00 -0.18250000000E+03  0.18250000000E+03  0.00000000000E+00 0.  1.
        -11    1    1    2    0    0 -0.10994995332E+01 -0.23834824469E+01  0.18128457923E+03  0.18130358119E+03  0.00000000000E+00 0.  1.
         11    1    1    2    0    0 -0.59566261595E+01  0.30084387481E+01 -0.12165861032E+03  0.12184149360E+03  0.00000000000E+00 0.  1.
        -15    1    1    2    0    0  0.53176077481E+01 -0.11285256438E+01 -0.58954250013E+02  0.59231004094E+02  0.17770000000E+01 0.  1.
         15    1    1    2    0    0  0.17385179446E+01  0.50356934267E+00 -0.67171889802E+00  0.26239211125E+01  0.17770000000E+01 0. -1.
</event>
<event>
 6    1  0.1196607E-002  0.1847487E+03  0.7546771E-02  0.1066679E+00
        -11   -1    0    0    0    0  0.00000000000E+00  0.00000000000E+00  0.18250000000E+03  0.18250000000E+03  0.00000000000E+00 0.  1.
         11   -1    0    0    0    0 -0.00000000000E+00 -0.00000000000E+00 -0.18250000000E+03  0.18250000000E+03  0.00000000000E+00 0. -1.
        -11    1    1    2    0    0 -0.25230378690E+01 -0.25405709943E+00  0.17703750622E+03  0.17705566603E+03  0.00000000000E+00 0.  1.
         11    1    1    2    0    0  0.28837649977E-01  0.24756395061E+01 -0.18023425246E+03  0.18025125625E+03  0.00000000000E+00 0. -1.
        -15    1    1    2    0    0  0.28100408137E+01  0.36872822573E+00  0.30590838099E+01  0.45329915768E+01  0.17770000000E+01 0.  1.
         15    1    1    2    0    0 -0.31584059474E+00 -0.25903106324E+01  0.13766242785E+00  0.31600861377E+01  0.17770000000E+01 0.  1.
</event>
<event>
 6    1  0.1196607E-002  0.1830649E+03  0.7546771E-02  0.1068006E+00
        -11   -1    0    0    0    0  0.00000000000E+00  0.00000000000E+00  0.18250000000E+03  0.18250000000E+03  0.00000000000E+00 0. -1.
         11   -1    0    0    0    0 -0.00000000000E+00 -0.00000000000E+00 -0.18250000000E+03  0.18250000000E+03  0.00000000000E+00 0.  1.
        -11    1    1    2    0    0  0.81975665100E+00  0.27071292254E+01  0.18191311531E+03  0.18193510401E+03  0.00000000000E+00 0. -1.
         11    1    1    2    0    0 -0.15361364470E+00  0.26871310633E+01 -0.54900753483E+02  0.54966689944E+02  0.00000000000E+00 0.  1.
        -15    1    1    2    0    0 -0.43980844243E+01 -0.91122928153E+01 -0.61673029896E+02  0.62522774831E+02  0.17770000000E+01 0.  1.
         15    1    1    2    0    0  0.37319414180E+01  0.37180325266E+01 -0.65339331931E+02  0.65575431214E+02  0.17770000000E+01 0. -1.
</event>
<event>
 6    1  0.1196607E-002  0.2117113E+03  0.7546771E-02  0.1047321E+00
        -11   -1    0    0    0    0  0.00000000000E+00  0.00000000000E+00  0.18250000000E+03  0.18250000000E+03  0.00000000000E+00 0. -1.
         11   -1    0    0    0    0 -0.00000000000E+00 -0.00000000000E+00 -0.18250000000E+03  0.18250000000E+03  0.00000000000E+00 0.  1.
        -11    1    1    2    0    0  0.15718714652E+01 -0.14497797297E+01  0.13732117104E+03  0.13733781947E+03  0.00000000000E+00 0. -1.
         11    1    1    2    0    0 -0.15409275601E+01 -0.18751409677E+01 -0.15326946536E+03  0.15328868067E+03  0.00000000000E+00 0.  1.
        -15    1    1    2    0    0  0.89458363954E+01  0.28503615680E+01 -0.27945174669E+02  0.29533761463E+02  0.17770000000E+01 0.  1.
         15    1    1    2    0    0 -0.89767803005E+01  0.47455912932E+00  0.43893468986E+02  0.44839738397E+02  0.17770000000E+01 0. -1.
</event>
<event>
 6    1  0.1196607E-002  0.1829605E+03  0.7546771E-02  0.1068089E+00
        -11   -1    0    0    0    0  0.00000000000E+00  0.00000000000E+00  0.18250000000E+03  0.18250000000E+03  0.00000000000E+00 0. -1.
         11   -1    0    0    0    0 -0.00000000000E+00 -0.00000000000E+00 -0.18250000000E+03  0.18250000000E+03  0.00000000000E+00 0.  1.
        -11    1    1    2    0    0  0.94157830257E+00  0.39201038538E+01  0.18199482536E+03  0.18203947440E+03  0.00000000000E+00 0. -1.
         11    1    1    2    0    0  0.18306054647E-01  0.58549807177E+00 -0.39396001153E+02  0.39400355962E+02  0.00000000000E+00 0.  1.
        -15    1    1    2    0    0 -0.33048604533E+00 -0.20545107566E+01 -0.35755062768E+01  0.45024670583E+01  0.17770000000E+01 0. -1.
         15    1    1    2    0    0 -0.62939831188E+00 -0.24510911689E+01 -0.13902331793E+03  0.13905770258E+03  0.17770000000E+01 0.  1.
</event>
<event>
 6    1  0.1196607E-002  0.1841305E+03  0.7546771E-02  0.1067164E+00
        -11   -1    0    0    0    0  0.00000000000E+00  0.00000000000E+00  0.18250000000E+03  0.18250000000E+03  0.00000000000E+00 0.  1.
         11   -1    0    0    0    0 -0.00000000000E+00 -0.00000000000E+00 -0.18250000000E+03  0.18250000000E+03  0.00000000000E+00 0.  1.
        -11    1    1    2    0    0  0.22540604223E+01 -0.26203248653E+01  0.16897971779E+03  0.16901506417E+03  0.00000000000E+00 0.  1.
         11    1    1    2    0    0  0.27298716794E+01  0.33747930101E+01 -0.18081740329E+03  0.18086949648E+03  0.00000000000E+00 0.  1.
        -15    1    1    2    0    0 -0.54945261287E+01  0.37169221464E+00  0.11566983096E+02  0.12933707877E+02  0.17770000000E+01 0.  1.
         15    1    1    2    0    0  0.51059402705E+00 -0.11261603595E+01  0.27070239408E+00  0.21817314688E+01  0.17770000000E+01 0. -1.
</event>
<event>
 6    1  0.1196607E-002  0.1839562E+03  0.7546771E-02  0.1067302E+00
        -11   -1    0    0    0    0  0.00000000000E+00  0.00000000000E+00  0.18250000000E+03  0.18250000000E+03  0.00000000000E+00 0. -1.
         11   -1    0    0    0    0 -0.00000000000E+00 -0.00000000000E+00 -0.18250000000E+03  0.18250000000E+03  0.00000000000E+00 0. -1.
        -11    1    1    2    0    0  0.86484278731E+00 -0.22571262881E+01  0.17138001395E+03  0.17139705877E+03  0.00000000000E+00 0. -1.
         11    1    1    2    0    0  0.33192824653E+01  0.67465081411E+00 -0.18101210712E+03  0.18104379501E+03  0.00000000000E+00 0. -1.
        -15    1    1    2    0    0 -0.44476470669E+01  0.30722383901E+01  0.62775007394E+01  0.84726004089E+01  0.17770000000E+01 0.  1.
         15    1    1    2    0    0  0.26352181420E+00 -0.14897629161E+01  0.33545924259E+01  0.40865458075E+01  0.17770000000E+01 0. -1.
</event>
<event>
 6    1  0.1196607E-002  0.1831216E+03  0.7546771E-02  0.1067961E+00
        -11   -1    0    0    0    0  0.00000000000E+00  0.00000000000E+00  0.18250000000E+03  0.18250000000E+03  0.00000000000E+00 0. -1.
         11   -1    0    0    0    0 -0.00000000000E+00 -0.00000000000E+00 -0.18250000000E+03  0.18250000000E+03  0.00000000000E+00 0. -1.
        -11    1    1    2    0    0 -0.14199573116E+00  0.20083118188E+01  0.12681557841E+03  0.12683155919E+03  0.00000000000E+00 0. -1.
         11    1    1    2    0    0 -0.59535365955E+01  0.50312384716E+00 -0.18178021542E+03  0.18187837818E+03  0.00000000000E+00 0. -1.
        -15    1    1    2    0    0  0.37301205449E+01  0.11069458280E+01  0.78125865340E+01  0.89069279607E+01  0.17770000000E+01 0.  1.
         15    1    1    2    0    0  0.23654117818E+01 -0.36183814940E+01  0.47152050481E+02  0.47383134669E+02  0.17770000000E+01 0. -1.
</event>
<event>
 6    1  0.1196607E-002  0.1853237E+03  0.7546771E-02  0.1066229E+00
        -11   -1    0    0    0    0  0.00000000000E+00  0.00000000000E+00  0.18250000000E+03  0.18250000000E+03  0.00000000000E+00 0. -1.
         11   -1    0    0    0    0 -0.00000000000E+00 -0.00000000000E+00 -0.18250000000E+03  0.18250000000E+03  0.00000000000E+00 0.  1.
        -11    1    1    2    0    0  0.24275129532E+01  0.62234087488E+00  0.17965877393E+03  0.17967625101E+03  0.00000000000E+00 0. -1.
         11    1    1    2    0    0 -0.56247789920E+01  0.53864223650E+00 -0.15689744808E+03  0.15699916398E+03  0.00000000000E+00 0.  1.
        -15    1    1    2    0    0 -0.37297459847E+01 -0.27927835364E+01 -0.65080112073E+00  0.50291068879E+01  0.17770000000E+01 0. -1.
         15    1    1    2    0    0  0.69270120235E+01  0.16318004250E+01 -0.22110524728E+02  0.23295478122E+02  0.17770000000E+01 0.  1.
</event>
<event>
 6    1  0.1196607E-002  0.1772264E+03  0.7546771E-02  0.1072732E+00
        -11   -1    0    0    0    0  0.00000000000E+00  0.00000000000E+00  0.18250000000E+03  0.18250000000E+03  0.00000000000E+00 0.  1.
         11   -1    0    0    0    0 -0.00000000000E+00 -0.00000000000E+00 -0.18250000000E+03  0.18250000000E+03  0.00000000000E+00 0. -1.
        -11    1    1    2    0    0 -0.22233194742E+01 -0.12799958416E+01  0.17825194213E+03  0.17827040251E+03  0.00000000000E+00 0.  1.
         11    1    1    2    0    0 -0.29228449185E+01  0.26837425456E+01 -0.17618389670E+03  0.17622857586E+03  0.00000000000E+00 0. -1.
        -15    1    1    2    0    0  0.32972346871E+01  0.21618081076E+01 -0.38222315265E+01  0.57716855179E+01  0.17770000000E+01 0. -1.
         15    1    1    2    0    0  0.18489297056E+01 -0.35655548117E+01  0.17541860951E+01  0.47293361085E+01  0.17770000000E+01 0. -1.
</event>
<event>
 6    1  0.1196607E-002  0.1828937E+03  0.7546771E-02  0.1068142E+00
        -11   -1    0    0    0    0  0.00000000000E+00  0.00000000000E+00  0.18250000000E+03  0.18250000000E+03  0.00000000000E+00 0. -1.
         11   -1    0    0    0    0 -0.00000000000E+00 -0.00000000000E+00 -0.18250000000E+03  0.18250000000E+03  0.00000000000E+00 0.  1.
        -11    1    1    2    0    0 -0.23956179342E+01  0.77699659728E+00  0.13315191419E+03  0.13317572963E+03  0.00000000000E+00 0. -1.
         11    1    1    2    0    0 -0.40734664331E+01 -0.49251494632E+00 -0.18206004681E+03  0.18210627761E+03  0.00000000000E+00 0.  1.
        -15    1    1    2    0    0  0.43581321650E+01 -0.25397381878E+01  0.27485081616E+02  0.28000554039E+02  0.17770000000E+01 0. -1.
         15    1    1    2    0    0  0.21109522022E+01  0.22552565368E+01  0.21423051007E+02  0.21717438723E+02  0.17770000000E+01 0.  1.
</event>
<event>
 6    1  0.1196607E-002  0.1856501E+03  0.7546771E-02  0.1065975E+00
        -11   -1    0    0    0    0  0.00000000000E+00  0.00000000000E+00  0.18250000000E+03  0.18250000000E+03  0.00000000000E+00 0.  1.
         11   -1    0    0    0    0 -0.00000000000E+00 -0.00000000000E+00 -0.18250000000E+03  0.18250000000E+03  0.00000000000E+00 0.  1.
        -11    1    1    2    0    0 -0.23870424476E+01 -0.64261751507E+00  0.17933290654E+03  0.17934994367E+03  0.00000000000E+00 0.  1.
         11    1    1    2    0    0  0.48548287177E+00  0.25444375113E+01 -0.16513002913E+03  0.16515034476E+03  0.00000000000E+00 0.  1.
        -15    1    1    2    0    0 -0.58408335726E+01  0.11589938549E+01 -0.51277317649E+01  0.80566721189E+01  0.17770000000E+01 0.  1.
         15    1    1    2    0    0  0.77423931485E+01 -0.30608138511E+01 -0.90751456461E+01  0.12443039444E+02  0.17770000000E+01 0.  1.
</event>
<event>
 6    1  0.1281963E-002  0.1858907E+03  0.7546771E-02  0.1065787E+00
        -11   -1    0    0    0    0  0.00000000000E+00  0.00000000000E+00  0.18250000000E+03  0.18250000000E+03  0.00000000000E+00 0. -1.
         11   -1    0    0    0    0 -0.00000000000E+00 -0.00000000000E+00 -0.18250000000E+03  0.18250000000E+03  0.00000000000E+00 0. -1.
        -11    1    1    2    0    0  0.57008763807E+01  0.22162221998E+01  0.17900484924E+03  0.17910931769E+03  0.00000000000E+00 0. -1.
         11    1    1    2    0    0 -0.18313226557E+01  0.24725643454E+01 -0.83761136046E+02  0.83817630776E+02  0.00000000000E+00 0. -1.
        -15    1    1    2    0    0 -0.90757671217E+00 -0.43205324698E+01  0.17101502351E+01  0.50569792503E+01  0.17770000000E+01 0. -1.
         15    1    1    2    0    0 -0.29619770128E+01 -0.36825407541E+00 -0.96953863428E+02  0.97016072284E+02  0.17770000000E+01 0.  1.
</event>
<event>
 6    1  0.1196607E-002  0.1829334E+03  0.7546771E-02  0.1068110E+00
        -11   -1    0    0    0    0  0.00000000000E+00  0.00000000000E+00  0.18250000000E+03  0.18250000000E+03  0.00000000000E+00 0. -1.
         11   -1    0    0    0    0 -0.00000000000E+00 -0.00000000000E+00 -0.18250000000E+03  0.18250000000E+03  0.00000000000E+00 0.  1.
        -11    1    1    2    0    0 -0.33933658478E+01 -0.64264598021E+00  0.18203387308E+03  0.18206663306E+03  0.00000000000E+00 0. -1.
         11    1    1    2    0    0 -0.13363843296E+01  0.83513222954E+00 -0.71207105015E+02  0.71224540529E+02  0.00000000000E+00 0.  1.
        -15    1    1    2    0    0  0.35289219305E+01  0.59925812702E+00 -0.10799715722E+03  0.10807106966E+03  0.17770000000E+01 0.  1.
         15    1    1    2    0    0  0.12008282469E+01 -0.79174437635E+00 -0.28296108420E+01  0.36377567474E+01  0.17770000000E+01 0.  1.
</event>
<event>
 6    1  0.1196607E-002  0.1831191E+03  0.7546771E-02  0.1067963E+00
        -11   -1    0    0    0    0  0.00000000000E+00  0.00000000000E+00  0.18250000000E+03  0.18250000000E+03  0.00000000000E+00 0. -1.
         11   -1    0    0    0    0 -0.00000000000E+00 -0.00000000000E+00 -0.18250000000E+03  0.18250000000E+03  0.00000000000E+00 0.  1.
        -11    1    1    2    0    0  0.69738333647E+01  0.90064400318E+00  0.72604680673E+02  0.72944397777E+02  0.00000000000E+00 0. -1.
         11    1    1    2    0    0  0.15111923950E+01 -0.31689809859E+01 -0.18184697557E+03  0.18188086394E+03  0.00000000000E+00 0.  1.
        -15    1    1    2    0    0  0.14889416999E+01 -0.13079091934E+01  0.98450998235E+01  0.10198592716E+02  0.17770000000E+01 0. -1.
         15    1    1    2    0    0 -0.99739674596E+01  0.35762461761E+01  0.99397195078E+02  0.99976145565E+02  0.17770000000E+01 0. -1.
</event>
<event>
 6    1  0.1196607E-002  0.1830792E+03  0.7546771E-02  0.1067995E+00
        -11   -1    0    0    0    0  0.00000000000E+00  0.00000000000E+00  0.18250000000E+03  0.18250000000E+03  0.00000000000E+00 0.  1.
         11   -1    0    0    0    0 -0.00000000000E+00 -0.00000000000E+00 -0.18250000000E+03  0.18250000000E+03  0.00000000000E+00 0.  1.
        -11    1    1    2    0    0 -0.18550808168E+00  0.18355008234E+01  0.12320977017E+03  0.12322358111E+03  0.00000000000E+00 0.  1.
         11    1    1    2    0    0 -0.39373472190E+01  0.35777691864E+01 -0.18184299270E+03  0.18192079906E+03  0.00000000000E+00 0.  1.
        -15    1    1    2    0    0  0.64714243026E+01 -0.45500104074E+01  0.50794199296E+02  0.51437246605E+02  0.17770000000E+01 0. -1.
         15    1    1    2    0    0 -0.23485690020E+01 -0.86325960244E+00  0.78390232344E+01  0.84183732257E+01  0.17770000000E+01 0.  1.
</event>
<event>
 6    1  0.1196607E-002  0.1833907E+03  0.7546771E-02  0.1067748E+00
        -11   -1    0    0    0    0  0.00000000000E+00  0.00000000000E+00  0.18250000000E+03  0.18250000000E+03  0.00000000000E+00 0. -1.
         11   -1    0    0    0    0 -0.00000000000E+00 -0.00000000000E+00 -0.18250000000E+03  0.18250000000E+03  0.00000000000E+00 0. -1.
        -11    1    1    2    0    0  0.24386157260E+01 -0.99439866911E+00  0.18159024811E+03  0.18160934415E+03  0.00000000000E+00 0. -1.
         11    1    1    2    0    0 -0.26035564878E+01 -0.36443947022E+01 -0.16618503439E+03  0.16624537820E+03  0.00000000000E+00 0. -1.
        -15    1    1    2    0    0  0.62102074832E+00  0.32561440796E+01 -0.13897471773E+02  0.14397416147E+02  0.17770000000E+01 0. -1.
         15    1    1    2    0    0 -0.45607998657E+00  0.13826492918E+01 -0.15077419499E+01  0.27478614968E+01  0.17770000000E+01 0.  1.
</event>
<event>
 6    1  0.1196607E-002  0.1833627E+03  0.7546771E-02  0.1067770E+00
        -11   -1    0    0    0    0  0.00000000000E+00  0.00000000000E+00  0.18250000000E+03  0.18250000000E+03  0.00000000000E+00 0. -1.
         11   -1    0    0    0    0 -0.00000000000E+00 -0.00000000000E+00 -0.18250000000E+03  0.18250000000E+03  0.00000000000E+00 0.  1.
        -11    1    1    2    0    0 -0.38330923516E+01  0.25686724652E+01  0.16510344310E+03  0.16516790729E+03  0.00000000000E+00 0. -1.
         11    1    1    2    0    0 -0.72652781099E+00 -0.41943677784E+01 -0.18158738345E+03  0.18163727148E+03  0.00000000000E+00 0.  1.
        -15    1    1    2    0    0  0.42631581526E+01  0.36538870318E+00  0.65656644112E+01  0.80357765337E+01  0.17770000000E+01 0. -1.
         15    1    1    2    0    0  0.29646200995E+00  0.12603066100E+01  0.99182759383E+01  0.10159044692E+02  0.17770000000E+01 0.  1.
</event>
<event>
 6    1  0.1196607E-002  0.1829570E+03  0.7546771E-02  0.1068092E+00
        -11   -1    0    0    0    0  0.00000000000E+00  0.00000000000E+00  0.18250000000E+03  0.18250000000E+03  0.00000000000E+00 0.  1.
         11   -1    0    0    0    0 -0.00000000000E+00 -0.00000000000E+00 -0.18250000000E+03  0.18250000000E+03  0.00000000000E+00 0. -1.
        -11    1    1    2    0    0  0.26701230111E+01  0.24402667517E+00  0.12543860577E+03  0.12546725837E+03  0.00000000000E+00 0.  1.
         11    1    1    2    0    0  0.45068014652E+01 -0.86073535162E+00 -0.18198518084E+03  0.18204301187E+03  0.00000000000E+00 0. -1.
        -15    1    1    2    0    0 -0.75021644523E+01  0.20911339310E+01  0.45997748027E+02  0.46686249208E+02  0.17770000000E+01 0.  1.
         15    1    1    2    0    0  0.32523997606E+00 -0.14744252545E+01  0.10548827046E+02  0.10803480547E+02  0.17770000000E+01 0. -1.
</event>
<event>
 6    1  0.1196607E-002  0.1839678E+03  0.7546771E-02  0.1067292E+00
        -11   -1    0    0    0    0  0.00000000000E+00  0.00000000000E+00  0.18250000000E+03  0.18250000000E+03  0.00000000000E+00 0.  1.
         11   -1    0    0    0    0 -0.00000000000E+00 -0.00000000000E+00 -0.18250000000E+03  0.18250000000E+03  0.00000000000E+00 0. -1.
        -11    1    1    2    0    0  0.24835940833E+00  0.27694199396E+01  0.18101084461E+03  0.18103219944E+03  0.00000000000E+00 0.  1.
         11    1    1    2    0    0 -0.24868811433E+01  0.26579271320E+01 -0.17136600072E+03  0.17140465384E+03  0.00000000000E+00 0. -1.
        -15    1    1    2    0    0  0.92739887255E+00 -0.43001117314E+01 -0.87005513078E+01  0.99100126958E+01  0.17770000000E+01 0.  1.
         15    1    1    2    0    0  0.13111228624E+01 -0.11272353401E+01 -0.94429257874E+00  0.26531340235E+01  0.17770000000E+01 0. -1.
</event>
<event>
 6    1  0.1196607E-002  0.1875418E+03  0.7546771E-02  0.1064511E+00
        -11   -1    0    0    0    0  0.00000000000E+00  0.00000000000E+00  0.18250000000E+03  0.18250000000E+03  0.00000000000E+00 0. -1.
         11   -1    0    0    0    0 -0.00000000000E+00 -0.00000000000E+00 -0.18250000000E+03  0.18250000000E+03  0.00000000000E+00 0. -1.
        -11    1    1    2    0    0  0.70726379834E+00  0.53778213191E+01  0.17737532860E+03  0.17745824404E+03  0.00000000000E+00 0. -1.
         11    1    1    2    0    0  0.26013773763E+01  0.22506303025E+01 -0.17108244710E+03  0.17111702489E+03  0.00000000000E+00 0. -1.
        -15    1    1    2    0    0 -0.36074651240E+00 -0.49971085894E+01  0.30481405643E+01  0.61278154509E+01  0.17770000000E+01 0.  1.
         15    1    1    2    0    0 -0.29478946623E+01 -0.26313430321E+01 -0.93410220598E+01  0.10296915617E+02  0.17770000000E+01 0.  1.
</event>
<event>
 6    1  0.1196607E-002  0.1829866E+03  0.7546771E-02  0.1068068E+00
        -11   -1    0    0    0    0  0.00000000000E+00  0.00000000000E+00  0.18250000000E+03  0.18250000000E+03  0.00000000000E+00 0. -1.
         11   -1    0    0    0    0 -0.00000000000E+00 -0.00000000000E+00 -0.18250000000E+03  0.18250000000E+03  0.00000000000E+00 0. -1.
        -11    1    1    2    0    0  0.19857492081E+01 -0.22303275474E+01  0.11500459829E+03  0.11504336221E+03  0.00000000000E+00 0. -1.
         11    1    1    2    0    0  0.94660853495E-01  0.43609266963E+01 -0.18196110838E+03  0.18201338304E+03  0.00000000000E+00 0. -1.
        -15    1    1    2    0    0 -0.47248470786E+01 -0.33535785642E+01  0.20912396454E+02  0.21772843718E+02  0.17770000000E+01 0.  1.
         15    1    1    2    0    0  0.26444370170E+01  0.12229794153E+01  0.46044113636E+02  0.46170411037E+02  0.17770000000E+01 0. -1.
</event>
<event>
 6    1  0.1196607E-002  0.1828116E+03  0.7546771E-02  0.1068207E+00
        -11   -1    0    0    0    0  0.00000000000E+00  0.00000000000E+00  0.18250000000E+03  0.18250000000E+03  0.00000000000E+00 0.  1.
         11   -1    0    0    0    0 -0.00000000000E+00 -0.00000000000E+00 -0.18250000000E+03  0.18250000000E+03  0.00000000000E+00 0. -1.
        -11    1    1    2    0    0 -0.38217153775E-01  0.34875731610E+01  0.18215501823E+03  0.18218840604E+03  0.00000000000E+00 0.  1.
         11    1    1    2    0    0 -0.19322310438E+01 -0.12490849743E+01 -0.12358135059E+03  0.12360276673E+03  0.00000000000E+00 0. -1.
        -15    1    1    2    0    0  0.15507420396E+01 -0.26021770604E+01 -0.99869838977E+01  0.10586486797E+02  0.17770000000E+01 0. -1.
         15    1    1    2    0    0  0.41970615792E+00  0.36368887372E+00 -0.48586683746E+02  0.48622340434E+02  0.17770000000E+01 0. -1.
</event>
<event>
 6    1  0.1196607E-002  0.1836538E+03  0.7546771E-02  0.1067540E+00
        -11   -1    0    0    0    0  0.00000000000E+00  0.00000000000E+00  0.18250000000E+03  0.18250000000E+03  0.00000000000E+00 0.  1.
         11   -1    0    0    0    0 -0.00000000000E+00 -0.00000000000E+00 -0.18250000000E+03  0.18250000000E+03  0.00000000000E+00 0.  1.
        -11    1    1    2    0    0 -0.90358219245E-02  0.30682776686E+01  0.18132022127E+03  0.18134618014E+03  0.00000000000E+00 0.  1.
         11    1    1    2    0    0  0.22253978337E+01  0.20398865675E+01 -0.11433167140E+03  0.11437152014E+03  0.00000000000E+00 0.  1.
        -15    1    1    2    0    0 -0.11239604756E+01 -0.36846639116E+00 -0.62176829864E+02  0.62213462816E+02  0.17770000000E+01 0. -1.
         15    1    1    2    0    0 -0.10924015362E+01 -0.47396978449E+01 -0.48117200070E+01  0.70688369059E+01  0.17770000000E+01 0.  1.
</event>
<event>
 6    1  0.1196607E-002  0.2021353E+03  0.7546771E-02  0.1053818E+00
        -11   -1    0    0    0    0  0.00000000000E+00  0.00000000000E+00  0.18250000000E+03  0.18250000000E+03  0.00000000000E+00 0. -1.
         11   -1    0    0    0    0 -0.00000000000E+00 -0.00000000000E+00 -0.18250000000E+03  0.18250000000E+03  0.00000000000E+00 0.  1.
        -11    1    1    2    0    0 -0.16353570349E+02  0.24851224192E+01  0.70916115754E+02  0.72819712786E+02  0.00000000000E+00 0. -1.
         11    1    1    2    0    0 -0.29479905688E+01  0.13992672523E+01 -0.16283203117E+03  0.16286472599E+03  0.00000000000E+00 0.  1.
        -15    1    1    2    0    0  0.25376971243E+01  0.28540166547E+02 -0.17618121880E+01  0.28761827557E+02  0.17770000000E+01 0.  1.
         15    1    1    2    0    0  0.16763863794E+02 -0.32424556219E+02  0.93677727606E+02  0.10055373366E+03  0.17770000000E+01 0. -1.
</event>
<event>
 6    1  0.1196607E-002  0.1857159E+03  0.7546771E-02  0.1065923E+00
        -11   -1    0    0    0    0  0.00000000000E+00  0.00000000000E+00  0.18250000000E+03  0.18250000000E+03  0.00000000000E+00 0. -1.
         11   -1    0    0    0    0 -0.00000000000E+00 -0.00000000000E+00 -0.18250000000E+03  0.18250000000E+03  0.00000000000E+00 0. -1.
        -11    1    1    2    0    0 -0.20646875268E+01  0.24974813589E+01  0.17925481146E+03  0.17928409795E+03  0.00000000000E+00 0. -1.
         11    1    1    2    0    0  0.31976937898E+01 -0.50938886344E+01 -0.16239917460E+03  0.16251050691E+03  0.00000000000E+00 0. -1.
        -15    1    1    2    0    0  0.80634313530E+00  0.42162224548E+01 -0.18925192115E+02  0.19487107190E+02  0.17770000000E+01 0. -1.
         15    1    1    2    0    0 -0.19393493983E+01 -0.16198151792E+01  0.20695552538E+01  0.37182879464E+01  0.17770000000E+01 0. -1.
</event>
<event>
 6    1  0.1196607E-002  0.1991976E+03  0.7546771E-02  0.1055890E+00
        -11   -1    0    0    0    0  0.00000000000E+00  0.00000000000E+00  0.18250000000E+03  0.18250000000E+03  0.00000000000E+00 0. -1.
         11   -1    0    0    0    0 -0.00000000000E+00 -0.00000000000E+00 -0.18250000000E+03  0.18250000000E+03  0.00000000000E+00 0. -1.
        -11    1    1    2    0    0 -0.61110003182E+01  0.44275527210E+01  0.16563061299E+03  0.16580243517E+03  0.00000000000E+00 0. -1.
         11    1    1    2    0    0 -0.28220806383E+01  0.78378713952E+01 -0.14221961387E+03  0.14246338103E+03  0.00000000000E+00 0. -1.
        -15    1    1    2    0    0  0.10679317721E+02 -0.12161700028E+02 -0.38310745175E+02  0.41627223057E+02  0.17770000000E+01 0. -1.
         15    1    1    2    0    0 -0.17462367648E+01 -0.10372408808E+00  0.14899746049E+02  0.15106960742E+02  0.17770000000E+01 0.  1.
</event>
<event>
 6    1  0.1196607E-002  0.1827699E+03  0.7546771E-02  0.1068240E+00
        -11   -1    0    0    0    0  0.00000000000E+00  0.00000000000E+00  0.18250000000E+03  0.18250000000E+03  0.00000000000E+00 0. -1.
         11   -1    0    0    0    0 -0.00000000000E+00 -0.00000000000E+00 -0.18250000000E+03  0.18250000000E+03  0.00000000000E+00 0. -1.
        -11    1    1    2    0    0  0.22478364051E+01  0.25990213137E+01  0.18219769048E+03  0.18223009109E+03  0.00000000000E+00 0. -1.
         11    1    1    2    0    0 -0.32571830694E+01 -0.34397371695E+00 -0.14785479404E+03  0.14789106694E+03  0.00000000000E+00 0. -1.
        -15    1    1    2    0    0  0.11549936057E+00 -0.30948250663E+01 -0.26669604366E+02  0.26907560431E+02  0.17770000000E+01 0.  1.
         15    1    1    2    0    0  0.89384730373E+00  0.83977746961E+00 -0.76732920703E+01  0.79712815404E+01  0.17770000000E+01 0.  1.
</event>
<event>
 6    1  0.1196607E-002  0.1828103E+03  0.7546771E-02  0.1068208E+00
        -11   -1    0    0    0    0  0.00000000000E+00  0.00000000000E+00  0.18250000000E+03  0.18250000000E+03  0.00000000000E+00 0.  1.
         11   -1    0    0    0    0 -0.00000000000E+00 -0.00000000000E+00 -0.18250000000E+03  0.18250000000E+03  0.00000000000E+00 0.  1.
        -11    1    1    2    0    0  0.18302128715E+01 -0.15562803046E+01  0.10111466332E+03  0.10114319960E+03  0.00000000000E+00 0.  1.
         11    1    1    2    0    0  0.40221998688E+01 -0.13187984691E+01 -0.18214050060E+03  0.18218967940E+03  0.00000000000E+00 0.  1.
        -15    1    1    2    0    0  0.11661672868E+00  0.15126802502E+01  0.46432080393E+02  0.46490833716E+02  0.17770000000E+01 0.  1.
         15    1    1    2    0    0 -0.59690294690E+01  0.13623985235E+01  0.34593756886E+02  0.35176287283E+02  0.17770000000E+01 0.  1.
</event>
<event>
 6    1  0.1196607E-002  0.1836353E+03  0.7546771E-02  0.1067555E+00
        -11   -1    0    0    0    0  0.00000000000E+00  0.00000000000E+00  0.18250000000E+03  0.18250000000E+03  0.00000000000E+00 0. -1.
         11   -1    0    0    0    0 -0.00000000000E+00 -0.00000000000E+00 -0.18250000000E+03  0.18250000000E+03  0.00000000000E+00 0. -1.
        -11    1    1    2    0    0  0.37856418354E-01 -0.79277950983E+00  0.43254175754E+02  0.43261456894E+02  0.00000000000E+00 0. -1.
         11    1    1    2    0    0  0.65379612817E+00  0.39874431797E+01 -0.18131967145E+03  0.18136468897E+03  0.00000000000E+00 0. -1.
        -15    1    1    2    0    0  0.95005884439E+01  0.12860613186E+01  0.10473894093E+03  0.10519181817E+03  0.17770000000E+01 0. -1.
         15    1    1    2    0    0 -0.10192240990E+02 -0.44807249885E+01  0.33326554764E+02  0.35182035960E+02  0.17770000000E+01 0.  1.
</event>
<event>
 6    1  0.1196607E-002  0.1909876E+03  0.7546771E-02  0.1061892E+00
        -11   -1    0    0    0    0  0.00000000000E+00  0.00000000000E+00  0.18250000000E+03  0.18250000000E+03  0.00000000000E+00 0. -1.
         11   -1    0    0    0    0 -0.00000000000E+00 -0.00000000000E+00 -0.18250000000E+03  0.18250000000E+03  0.00000000000E+00 0.  1.
        -11    1    1    2    0    0  0.46344069732E+01  0.74450122477E+01  0.16060429388E+03  0.16084354245E+03  0.00000000000E+00 0. -1.
         11    1    1    2    0    0  0.83476274320E+00  0.26393972151E+01 -0.17399034282E+03  0.17401236347E+03  0.00000000000E+00 0.  1.
        -15    1    1    2    0    0  0.49116792781E+01  0.32902740158E+01  0.11453499141E+02  0.13011182421E+02  0.17770000000E+01 0.  1.
         15    1    1    2    0    0 -0.10380848994E+02 -0.13374683479E+02  0.19325497990E+01  0.17132911653E+02  0.17770000000E+01 0. -1.
</event>
<event>
 6    1  0.1196607E-002  0.1839584E+03  0.7546771E-02  0.1067300E+00
        -11   -1    0    0    0    0  0.00000000000E+00  0.00000000000E+00  0.18250000000E+03  0.18250000000E+03  0.00000000000E+00 0. -1.
         11   -1    0    0    0    0 -0.00000000000E+00 -0.00000000000E+00 -0.18250000000E+03  0.18250000000E+03  0.00000000000E+00 0.  1.
        -11    1    1    2    0    0  0.34963836804E+00  0.26447079347E+01  0.18102191938E+03  0.18104157540E+03  0.00000000000E+00 0. -1.
         11    1    1    2    0    0  0.37158311388E+01 -0.18197382895E+01 -0.17518351146E+03  0.17523236441E+03  0.00000000000E+00 0.  1.
        -15    1    1    2    0    0 -0.17499084719E+01 -0.15067658903E+01 -0.10905270795E+01  0.31111897112E+01  0.17770000000E+01 0. -1.
         15    1    1    2    0    0 -0.23155610349E+01  0.68179624518E+00 -0.47478808445E+01  0.56148704829E+01  0.17770000000E+01 0.  1.
</event>
<event>
 6    1  0.1196607E-002  0.1866169E+03  0.7546771E-02  0.1065224E+00
        -11   -1    0    0    0    0  0.00000000000E+00  0.00000000000E+00  0.18250000000E+03  0.18250000000E+03  0.00000000000E+00 0.  1.
         11   -1    0    0    0    0 -0.00000000000E+00 -0.00000000000E+00 -0.18250000000E+03  0.18250000000E+03  0.00000000000E+00 0. -1.
        -11    1    1    2    0    0 -0.18945017043E+01 -0.26398691532E+01  0.13565719144E+03  0.13569610029E+03  0.00000000000E+00 0.  1.
         11    1    1    2    0    0 -0.35107535224E+01 -0.29742183169E+00 -0.17834829352E+03  0.17838309239E+03  0.00000000000E+00 0. -1.
        -15    1    1    2    0    0  0.93152819919E+00  0.27397872908E+00 -0.36929226015E+01  0.42116760880E+01  0.17770000000E+01 0. -1.
         15    1    1    2    0    0  0.44737270275E+01  0.26633122558E+01  0.46384024679E+02  0.46709131228E+02  0.17770000000E+01 0.  1.
</event>
<event>
 6    1  0.1196607E-002  0.1862262E+03  0.7546771E-02  0.1065527E+00
        -11   -1    0    0    0    0  0.00000000000E+00  0.00000000000E+00  0.18250000000E+03  0.18250000000E+03  0.00000000000E+00 0. -1.
         11   -1    0    0    0    0 -0.00000000000E+00 -0.00000000000E+00 -0.18250000000E+03  0.18250000000E+03  0.00000000000E+00 0.  1.
        -11    1    1    2    0    0  0.89357823052E+01  0.44358018900E+01  0.17849519896E+03  0.17877376931E+03  0.00000000000E+00 0. -1.
         11    1    1    2    0    0  0.18957371302E+01 -0.10997683007E+01 -0.14970847662E+03  0.14972451797E+03  0.00000000000E+00 0.  1.
        -15    1    1    2    0    0 -0.75067030677E+01 -0.17978068820E+01 -0.30910661472E+02  0.31909393949E+02  0.17770000000E+01 0.  1.
         15    1    1    2    0    0 -0.33248163676E+01 -0.15382267073E+01  0.21239391326E+01  0.45923187738E+01  0.17770000000E+01 0. -1.
</event>
<event>
 6    1  0.1196607E-002  0.1781073E+03  0.7546771E-02  0.1072006E+00
        -11   -1    0    0    0    0  0.00000000000E+00  0.00000000000E+00  0.18250000000E+03  0.18250000000E+03  0.00000000000E+00 0.  1.
         11   -1    0    0    0    0 -0.00000000000E+00 -0.00000000000E+00 -0.18250000000E+03  0.18250000000E+03  0.00000000000E+00 0.  1.
        -11    1    1    2    0    0 -0.27654201414E+01 -0.13972303803E+01  0.17886677178E+03  0.17889360483E+03  0.00000000000E+00 0.  1.
         11    1    1    2    0    0  0.84258038957E+00 -0.24368605817E+01 -0.17733128596E+03  0.17735003020E+03  0.00000000000E+00 0.  1.
        -15    1    1    2    0    0  0.39378761318E+01  0.38031576352E+01 -0.20803758058E+00  0.57595038903E+01  0.17770000000E+01 0.  1.
         15    1    1    2    0    0 -0.20150363800E+01  0.30933326815E-01 -0.13274482413E+01  0.29968610773E+01  0.17770000000E+01 0.  1.
</event>
<event>
 6    1  0.1196607E-002  0.1866182E+03  0.7546771E-02  0.1065223E+00
        -11   -1    0    0    0    0  0.00000000000E+00  0.00000000000E+00  0.18250000000E+03  0.18250000000E+03  0.00000000000E+00 0. -1.
         11   -1    0    0    0    0 -0.00000000000E+00 -0.00000000000E+00 -0.18250000000E+03  0.18250000000E+03  0.00000000000E+00 0.  1.
        -11    1    1    2    0    0 -0.18206817274E+02  0.40360217113E+01  0.60882741812E+02  0.63674845246E+02  0.00000000000E+00 0. -1.
         11    1    1    2    0    0  0.62013565124E+01 -0.10500599113E+02 -0.17796449654E+03  0.17838184165E+03  0.00000000000E+00 0.  1.
        -15    1    1    2    0    0 -0.78366477584E+01 -0.34307655208E+00  0.64038492489E+01  0.10280941777E+02  0.17770000000E+01 0.  1.
         15    1    1    2    0    0  0.19842108520E+02  0.68076539541E+01  0.11067790548E+03  0.11266237132E+03  0.17770000000E+01 0. -1.
</event>
<event>
 6    1  0.1196607E-002  0.1825518E+03  0.7546771E-02  0.1068414E+00
        -11   -1    0    0    0    0  0.00000000000E+00  0.00000000000E+00  0.18250000000E+03  0.18250000000E+03  0.00000000000E+00 0.  1.
         11   -1    0    0    0    0 -0.00000000000E+00 -0.00000000000E+00 -0.18250000000E+03  0.18250000000E+03  0.00000000000E+00 0. -1.
        -11    1    1    2    0    0  0.14035619093E+01 -0.41553194185E+01  0.18239549604E+03  0.18244822181E+03  0.00000000000E+00 0.  1.
         11    1    1    2    0    0 -0.35919150114E+00  0.73370694477E+00 -0.44707754418E+02  0.44715217203E+02  0.00000000000E+00 0. -1.
        -15    1    1    2    0    0 -0.32536770058E+00  0.35259001067E+01 -0.11483652523E+03  0.11490484363E+03  0.17770000000E+01 0. -1.
         15    1    1    2    0    0 -0.71900270758E+00 -0.10428763296E+00 -0.22851216399E+02  0.22931717352E+02  0.17770000000E+01 0.  1.
</event>
<event>
 6    1  0.1196607E-002  0.1826472E+03  0.7546771E-02  0.1068338E+00
        -11   -1    0    0    0    0  0.00000000000E+00  0.00000000000E+00  0.18250000000E+03  0.18250000000E+03  0.00000000000E+00 0. -1.
         11   -1    0    0    0    0 -0.00000000000E+00 -0.00000000000E+00 -0.18250000000E+03  0.18250000000E+03  0.00000000000E+00 0. -1.
        -11    1    1    2    0    0  0.57831542308E+00  0.12293211567E+01  0.80103708740E+02  0.80115228472E+02  0.00000000000E+00 0. -1.
         11    1    1    2    0    0  0.28975972083E+01 -0.22850984321E+01 -0.18231546339E+03  0.18235280621E+03  0.00000000000E+00 0. -1.
        -15    1    1    2    0    0  0.21366783363E-01  0.29292716663E+01  0.59778341483E+02  0.59876447193E+02  0.17770000000E+01 0. -1.
         15    1    1    2    0    0 -0.34972794147E+01 -0.18734943909E+01  0.42433413163E+02  0.42655518121E+02  0.17770000000E+01 0.  1.
</event>
<event>
 6    1  0.1196607E-002  0.1855878E+03  0.7546771E-02  0.1066023E+00
        -11   -1    0    0    0    0  0.00000000000E+00  0.00000000000E+00  0.18250000000E+03  0.18250000000E+03  0.00000000000E+00 0. -1.
         11   -1    0    0    0    0 -0.00000000000E+00 -0.00000000000E+00 -0.18250000000E+03  0.18250000000E+03  0.00000000000E+00 0. -1.
        -11    1    1    2    0    0 -0.44908146028E+01  0.13772833448E+01  0.15822444155E+03  0.15829415096E+03  0.00000000000E+00 0. -1.
         11    1    1    2    0    0  0.10909104944E+01 -0.30209001472E+01 -0.17938347436E+03  0.17941222589E+03  0.00000000000E+00 0. -1.
        -15    1    1    2    0    0  0.33646532716E+01 -0.78422290532E+00  0.23286644322E+02  0.23608503341E+02  0.17770000000E+01 0.  1.
         15    1    1    2    0    0  0.35250836767E-01  0.24278397077E+01 -0.21276115128E+01  0.36851198104E+01  0.17770000000E+01 0. -1.
</event>
<event>
 6    1  0.1196607E-002  0.1854790E+03  0.7546771E-02  0.1066108E+00
        -11   -1    0    0    0    0  0.00000000000E+00  0.00000000000E+00  0.18250000000E+03  0.18250000000E+03  0.00000000000E+00 0.  1.
         11   -1    0    0    0    0 -0.00000000000E+00 -0.00000000000E+00 -0.18250000000E+03  0.18250000000E+03  0.00000000000E+00 0.  1.
        -11    1    1    2    0    0 -0.75541675545E+00 -0.23754240212E+01  0.17950374150E+03  0.17952104753E+03  0.00000000000E+00 0.  1.
         11    1    1    2    0    0  0.94980754006E-01 -0.26219831294E+01 -0.14525788495E+03  0.14528157817E+03  0.00000000000E+00 0.  1.
        -15    1    1    2    0    0 -0.37880882995E+01  0.20249243535E-01 -0.32893219525E+02  0.33158281661E+02  0.17770000000E+01 0. -1.
         15    1    1    2    0    0  0.44485243010E+01  0.49771579071E+01 -0.13526370240E+01  0.70390926409E+01  0.17770000000E+01 0.  1.
</event>
<event>
 6    1  0.4135084E-002  0.2033026E+03  0.7546771E-02  0.1053005E+00
        -11   -1    0    0    0    0  0.00000000000E+00  0.00000000000E+00  0.18250000000E+03  0.18250000000E+03  0.00000000000E+00 0. -1.
         11   -1    0    0    0    0 -0.00000000000E+00 -0.00000000000E+00 -0.18250000000E+03  0.18250000000E+03  0.00000000000E+00 0. -1.
        -11    1    1    2    0    0 -0.58275766532E+01 -0.49156149030E+00  0.16159165161E+03  0.16169744634E+03  0.00000000000E+00 0. -1.
         11    1    1    2    0    0  0.73577387376E+01  0.37833928374E+01 -0.10500891464E+03  0.10533433692E+03  0.00000000000E+00 0. -1.
        -15    1    1    2    0    0  0.72240384567E+01 -0.49065710845E+01  0.19450574756E+02  0.21394947038E+02  0.17770000000E+01 0.  1.
         15    1    1    2    0    0 -0.87542005411E+01  0.16147397374E+01 -0.76033311731E+02  0.76573269705E+02  0.17770000000E+01 0. -1.
</event>
<event>
 6    1  0.1196607E-002  0.1737176E+03  0.7546771E-02  0.1075669E+00
        -11   -1    0    0    0    0  0.00000000000E+00  0.00000000000E+00  0.18250000000E+03  0.18250000000E+03  0.00000000000E+00 0. -1.
         11   -1    0    0    0    0 -0.00000000000E+00 -0.00000000000E+00 -0.18250000000E+03  0.18250000000E+03  0.00000000000E+00 0. -1.
        -11    1    1    2    0    0  0.13754083695E+01  0.37819790943E+01  0.17536272827E+03  0.17540889824E+03  0.00000000000E+00 0. -1.
         11    1    1    2    0    0  0.28469578495E+01  0.12312796122E+01 -0.17207579650E+03  0.17210375057E+03  0.00000000000E+00 0. -1.
        -15    1    1    2    0    0  0.25846473682E+01  0.91266517377E+00 -0.68768449437E+01  0.76132834649E+01  0.17770000000E+01 0.  1.
         15    1    1    2    0    0 -0.68070135872E+01 -0.59259238803E+01  0.35899131721E+01  0.98740677228E+01  0.17770000000E+01 0. -1.
</event>
<event>
 6    1  0.1196607E-002  0.1827888E+03  0.7546771E-02  0.1068225E+00
        -11   -1    0    0    0    0  0.00000000000E+00  0.00000000000E+00  0.18250000000E+03  0.18250000000E+03  0.00000000000E+00 0. -1.
         11   -1    0    0    0    0 -0.00000000000E+00 -0.00000000000E+00 -0.18250000000E+03  0.18250000000E+03  0.00000000000E+00 0. -1.
        -11    1    1    2    0    0 -0.69726056563E+01 -0.20232580464E+01  0.18206651912E+03  0.18221121861E+03  0.00000000000E+00 0. -1.
         11    1    1    2    0    0 -0.18739865015E+01 -0.18094667425E-01 -0.74613562582E+02  0.74637094491E+02  0.00000000000E+00 0. -1.
        -15    1    1    2    0    0  0.44279916635E+01  0.30940020164E+01 -0.29303591138E+02  0.29850261996E+02  0.17770000000E+01 0.  1.
         15    1    1    2    0    0  0.44186004942E+01 -0.10526493026E+01 -0.78149365398E+02  0.78301424904E+02  0.17770000000E+01 0. -1.
</event>
<event>
 6    1  0.1196607E-002  0.1826653E+03  0.7546771E-02  0.1068323E+00
        -11   -1    0    0    0    0  0.00000000000E+00  0.00000000000E+00  0.18250000000E+03  0.18250000000E+03  0.00000000000E+00 0. -1.
         11   -1    0    0    0    0 -0.00000000000E+00 -0.00000000000E+00 -0.18250000000E+03  0.18250000000E+03  0.00000000000E+00 0.  1.
        -11    1    1    2    0    0 -0.59623051475E+01 -0.49913135889E+00  0.18223652738E+03  0.18233472002E+03  0.00000000000E+00 0. -1.
         11    1    1    2    0    0 -0.78010355500E+00  0.33047989847E+00 -0.42557205309E+01  0.43392321621E+01  0.00000000000E+00 0.  1.
        -15    1    1    2    0    0  0.32083040747E+01 -0.20131090909E+01 -0.31624707006E+02  0.31900245225E+02  0.17770000000E+01 0. -1.
         15    1    1    2    0    0  0.35341046278E+01  0.21817605513E+01 -0.14635609984E+03  0.14642580259E+03  0.17770000000E+01 0.  1.
</event>
<event>
 6    1  0.1196607E-002  0.1828312E+03  0.7546771E-02  0.1068191E+00
        -11   -1    0    0    0    0  0.00000000000E+00  0.00000000000E+00  0.18250000000E+03  0.18250000000E+03  0.00000000000E+00 0.  1.
         11   -1    0    0    0    0 -0.00000000000E+00 -0.00000000000E+00 -0.18250000000E+03  0.18250000000E+03  0.00000000000E+00 0.  1.
        -11    1    1    2    0    0 -0.19800510565E+01  0.19090566153E+01  0.10642134320E+03  0.10645688042E+03  0.00000000000E+00 0.  1.
         11    1    1    2    0    0  0.40831028817E+01  0.25949863776E+01 -0.18210455324E+03  0.18216880631E+03  0.00000000000E+00 0.  1.
        -15    1    1    2    0    0 -0.18324955169E+01  0.53150706540E+00  0.67815806055E+01  0.72655422432E+01  0.17770000000E+01 0. -1.
         15    1    1    2    0    0 -0.27055630835E+00 -0.50355500583E+01  0.68901629432E+02  0.69108771024E+02  0.17770000000E+01 0.  1.
</event>
<event>
 6    1  0.1196607E-002  0.1863001E+03  0.7546771E-02  0.1065470E+00
        -11   -1    0    0    0    0  0.00000000000E+00  0.00000000000E+00  0.18250000000E+03  0.18250000000E+03  0.00000000000E+00 0.  1.
         11   -1    0    0    0    0 -0.00000000000E+00 -0.00000000000E+00 -0.18250000000E+03  0.18250000000E+03  0.00000000000E+00 0.  1.
        -11    1    1    2    0    0 -0.20957542832E+01  0.27017611194E+01  0.10713031504E+03  0.10718486880E+03  0.00000000000E+00 0.  1.
         11    1    1    2    0    0 -0.50709165340E+00  0.23864189379E+01 -0.17868325136E+03  0.17869990614E+03  0.00000000000E+00 0.  1.
        -15    1    1    2    0    0  0.27727399138E+01  0.22469210128E+01  0.71454253170E+02  0.71565388043E+02  0.17770000000E+01 0.  1.
         15    1    1    2    0    0 -0.16989397715E+00 -0.73351010700E+01  0.98683150756E-01  0.75498370204E+01  0.17770000000E+01 0.  1.
</event>
<event>
 6    1  0.1196607E-002  0.1860812E+03  0.7546771E-02  0.1065639E+00
        -11   -1    0    0    0    0  0.00000000000E+00  0.00000000000E+00  0.18250000000E+03  0.18250000000E+03  0.00000000000E+00 0. -1.
         11   -1    0    0    0    0 -0.00000000000E+00 -0.00000000000E+00 -0.18250000000E+03  0.18250000000E+03  0.00000000000E+00 0.  1.
        -11    1    1    2    0    0  0.30352986550E+01  0.15709994568E+01  0.15007068601E+03  0.15010959955E+03  0.00000000000E+00 0. -1.
         11    1    1    2    0    0  0.30215517326E+01  0.74339951223E+00 -0.17889178514E+03  0.17891884531E+03  0.00000000000E+00 0.  1.
        -15    1    1    2    0    0 -0.66385372258E+01 -0.52291621132E+01  0.30796838507E+02  0.31984641688E+02  0.17770000000E+01 0.  1.
         15    1    1    2    0    0  0.58168683820E+00  0.29147631442E+01 -0.19757393817E+01  0.39869134514E+01  0.17770000000E+01 0. -1.
</event>
<event>
 6    1  0.1196607E-002  0.1826468E+03  0.7546771E-02  0.1068338E+00
        -11   -1    0    0    0    0  0.00000000000E+00  0.00000000000E+00  0.18250000000E+03  0.18250000000E+03  0.00000000000E+00 0.  1.
         11   -1    0    0    0    0 -0.00000000000E+00 -0.00000000000E+00 -0.18250000000E+03  0.18250000000E+03  0.00000000000E+00 0. -1.
        -11    1    1    2    0    0  0.58714823503E+00  0.10245338278E+01  0.28236567788E+02  0.28261248611E+02  0.00000000000E+00 0.  1.
         11    1    1    2    0    0 -0.26365172561E+01  0.30664970828E+01 -0.18230833648E+03  0.18235318527E+03  0.00000000000E+00 0. -1.
        -15    1    1    2    0    0  0.15476077923E+01 -0.59394194152E+00  0.11269013331E+02  0.11528063470E+02  0.17770000000E+01 0. -1.
         15    1    1    2    0    0  0.50176122868E+00 -0.34970889691E+01  0.14280275536E+03  0.14285750265E+03  0.17770000000E+01 0.  1.
</event>
<event>
 6    1  0.1196607E-002  0.1836856E+03  0.7546771E-02  0.1067515E+00
        -11   -1    0    0    0    0  0.00000000000E+00  0.00000000000E+00  0.18250000000E+03  0.18250000000E+03  0.00000000000E+00 0. -1.
         11   -1    0    0    0    0 -0.00000000000E+00 -0.00000000000E+00 -0.18250000000E+03  0.18250000000E+03  0.00000000000E+00 0. -1.
        -11    1    1    2    0    0 -0.65057960235E+01 -0.57775817407E+01  0.10962987077E+03  0.10997460796E+03  0.00000000000E+00 0. -1.
         11    1    1    2    0    0 -0.43879192098E+01  0.13479607692E+01 -0.18125631906E+03  0.18131443415E+03  0.00000000000E+00 0. -1.
        -15    1    1    2    0    0  0.90573937080E+01  0.65923266666E+01  0.67255786708E+02  0.68205525629E+02  0.17770000000E+01 0. -1.
         15    1    1    2    0    0  0.18363215252E+01 -0.21627056952E+01  0.43706615823E+01  0.55054322569E+01  0.17770000000E+01 0.  1.
</event>
<event>
 6    1  0.1196607E-002  0.1012854E+03  0.7546771E-02  0.1161610E+00
        -11   -1    0    0    0    0  0.00000000000E+00  0.00000000000E+00  0.18250000000E+03  0.18250000000E+03  0.00000000000E+00 0.  1.
         11   -1    0    0    0    0 -0.00000000000E+00 -0.00000000000E+00 -0.18250000000E+03  0.18250000000E+03  0.00000000000E+00 0. -1.
        -11    1    1    2    0    0 -0.60971332333E+00  0.27225402263E+01  0.97491101680E+02  0.97531014977E+02  0.00000000000E+00 0.  1.
         11    1    1    2    0    0 -0.11368833142E+02  0.13010777149E+02 -0.12234675890E+03  0.12356075470E+03  0.00000000000E+00 0. -1.
        -15    1    1    2    0    0 -0.57444402573E+00 -0.46994926230E+01  0.83117193824E+02  0.83270888400E+02  0.17770000000E+01 0.  1.
         15    1    1    2    0    0  0.12552990491E+02 -0.11033824752E+02 -0.58261536602E+02  0.60637341921E+02  0.17770000000E+01 0. -1.
</event>
<event>
 6    1  0.1196607E-002  0.1831602E+03  0.7546771E-02  0.1067930E+00
        -11   -1    0    0    0    0  0.00000000000E+00  0.00000000000E+00  0.18250000000E+03  0.18250000000E+03  0.00000000000E+00 0. -1.
         11   -1    0    0    0    0 -0.00000000000E+00 -0.00000000000E+00 -0.18250000000E+03  0.18250000000E+03  0.00000000000E+00 0. -1.
        -11    1    1    2    0    0 -0.13197634424E+01 -0.33911525947E+01  0.16167885031E+03  0.16171979573E+03  0.00000000000E+00 0. -1.
         11    1    1    2    0    0  0.44467976845E+01  0.26264978487E+01 -0.18176641471E+03  0.18183977018E+03  0.00000000000E+00 0. -1.
        -15    1    1    2    0    0 -0.31041263758E+01 -0.30085985298E+00  0.46994240752E+01  0.59134112699E+01  0.17770000000E+01 0. -1.
         15    1    1    2    0    0 -0.22907866272E-01  0.10655145990E+01  0.15388140327E+02  0.15527022826E+02  0.17770000000E+01 0.  1.
</event>
<event>
 6    1  0.1196607E-002  0.1831034E+03  0.7546771E-02  0.1067975E+00
        -11   -1    0    0    0    0  0.00000000000E+00  0.00000000000E+00  0.18250000000E+03  0.18250000000E+03  0.00000000000E+00 0. -1.
         11   -1    0    0    0    0 -0.00000000000E+00 -0.00000000000E+00 -0.18250000000E+03  0.18250000000E+03  0.00000000000E+00 0. -1.
        -11    1    1    2    0    0  0.79881635239E+00 -0.31372452080E+01  0.18186775930E+03  0.18189657030E+03  0.00000000000E+00 0. -1.
         11    1    1    2    0    0  0.39315463421E+00  0.27699153440E+01 -0.16220271628E+03  0.16222684170E+03  0.00000000000E+00 0. -1.
        -15    1    1    2    0    0  0.87968209557E+00 -0.10665366330E+01 -0.22223994696E+01  0.31635627671E+01  0.17770000000E+01 0. -1.
         15    1    1    2    0    0 -0.20716530822E+01  0.14338664971E+01 -0.17442643554E+02  0.17713025229E+02  0.17770000000E+01 0. -1.
</event>
<event>
 6    1  0.1196607E-002  0.1830952E+03  0.7546771E-02  0.1067982E+00
        -11   -1    0    0    0    0  0.00000000000E+00  0.00000000000E+00  0.18250000000E+03  0.18250000000E+03  0.00000000000E+00 0. -1.
         11   -1    0    0    0    0 -0.00000000000E+00 -0.00000000000E+00 -0.18250000000E+03  0.18250000000E+03  0.00000000000E+00 0.  1.
        -11    1    1    2    0    0  0.39010083752E+01 -0.36450339620E+00  0.18186262182E+03  0.18190482112E+03  0.00000000000E+00 0. -1.
         11    1    1    2    0    0  0.20556214370E+01 -0.36931689855E+01 -0.15028933905E+03  0.15034876291E+03  0.00000000000E+00 0.  1.
        -15    1    1    2    0    0 -0.50998304246E+01  0.25981886433E+01 -0.18554078240E+02  0.19497958942E+02  0.17770000000E+01 0.  1.
         15    1    1    2    0    0 -0.85679938766E+00  0.14594837384E+01 -0.13019204537E+02  0.13248457032E+02  0.17770000000E+01 0. -1.
</event>
<event>
 6    1  0.1196607E-002  0.1843130E+03  0.7546771E-02  0.1067021E+00
        -11   -1    0    0    0    0  0.00000000000E+00  0.00000000000E+00  0.18250000000E+03  0.18250000000E+03  0.00000000000E+00 0. -1.
         11   -1    0    0    0    0 -0.00000000000E+00 -0.00000000000E+00 -0.18250000000E+03  0.18250000000E+03  0.00000000000E+00 0. -1.
        -11    1    1    2    0    0  0.96365496518E+00 -0.62457763907E+01  0.18057643785E+03  0.18068698974E+03  0.00000000000E+00 0. -1.
         11    1    1    2    0    0  0.17636561383E+01  0.20521239995E+01 -0.16605218643E+03  0.16607423134E+03  0.00000000000E+00 0. -1.
        -15    1    1    2    0    0  0.12880290951E+01 -0.20037158647E+01 -0.19689977689E+01  0.35649091756E+01  0.17770000000E+01 0. -1.
         15    1    1    2    0    0 -0.40153401985E+01  0.61973682559E+01 -0.12555253653E+02  0.14673869752E+02  0.17770000000E+01 0.  1.
</event>
<event>
 6    1  0.1196607E-002  0.1829235E+03  0.7546771E-02  0.1068118E+00
        -11   -1    0    0    0    0  0.00000000000E+00  0.00000000000E+00  0.18250000000E+03  0.18250000000E+03  0.00000000000E+00 0. -1.
         11   -1    0    0    0    0 -0.00000000000E+00 -0.00000000000E+00 -0.18250000000E+03  0.18250000000E+03  0.00000000000E+00 0. -1.
        -11    1    1    2    0    0 -0.12252221654E+01  0.15228621155E+01  0.95221382485E+02  0.95241440354E+02  0.00000000000E+00 0. -1.
         11    1    1    2    0    0 -0.29167010376E+01  0.57679653135E+01 -0.18196173543E+03  0.18207649417E+03  0.00000000000E+00 0. -1.
        -15    1    1    2    0    0  0.12495455596E+01 -0.17119603248E+01  0.52817831198E+01  0.59621417447E+01  0.17770000000E+01 0.  1.
         15    1    1    2    0    0  0.28923776433E+01 -0.55788671042E+01  0.81458569828E+02  0.81719923728E+02  0.17770000000E+01 0. -1.
</event>
<event>
 6    1  0.1196607E-002  0.1830162E+03  0.7546771E-02  0.1068045E+00
        -11   -1    0    0    0    0  0.00000000000E+00  0.00000000000E+00  0.18250000000E+03  0.18250000000E+03  0.00000000000E+00 0.  1.
         11   -1    0    0    0    0 -0.00000000000E+00 -0.00000000000E+00 -0.18250000000E+03  0.18250000000E+03  0.00000000000E+00 0.  1.
        -11    1    1    2    0    0  0.29243762170E+01 -0.68659193446E+00  0.15546082944E+03  0.15548984814E+03  0.00000000000E+00 0.  1.
         11    1    1    2    0    0 -0.22382536233E+01  0.32850279965E+01 -0.18194037921E+03  0.18198379811E+03  0.00000000000E+00 0.  1.
        -15    1    1    2    0    0 -0.27348727314E+01 -0.23537674495E+01  0.21281474309E+02  0.21658223099E+02  0.17770000000E+01 0.  1.
         15    1    1    2    0    0  0.20487501377E+01 -0.24466861251E+00  0.51980754610E+01  0.58681306525E+01  0.17770000000E+01 0. -1.
</event>
<event>
 6    1  0.1196607E-002  0.2136908E+03  0.7546771E-02  0.1046025E+00
        -11   -1    0    0    0    0  0.00000000000E+00  0.00000000000E+00  0.18250000000E+03  0.18250000000E+03  0.00000000000E+00 0. -1.
         11   -1    0    0    0    0 -0.00000000000E+00 -0.00000000000E+00 -0.18250000000E+03  0.18250000000E+03  0.00000000000E+00 0. -1.
        -11    1    1    2    0    0  0.58371293770E+01 -0.58335385044E+01  0.15108399983E+03  0.15130921074E+03  0.00000000000E+00 0. -1.
         11    1    1    2    0    0 -0.14224839698E+01 -0.16291295213E+02 -0.12705499012E+03  0.12810308456E+03  0.00000000000E+00 0. -1.
        -15    1    1    2    0    0  0.19058108235E+01  0.10014002935E+02 -0.52738561921E+02  0.53744078856E+02  0.17770000000E+01 0.  1.
         15    1    1    2    0    0 -0.63204562307E+01  0.12110830783E+02  0.28709552210E+02  0.31843625835E+02  0.17770000000E+01 0. -1.
</event>
<event>
 6    1  0.1196607E-002  0.2101644E+03  0.7546771E-02  0.1048345E+00
        -11   -1    0    0    0    0  0.00000000000E+00  0.00000000000E+00  0.18250000000E+03  0.18250000000E+03  0.00000000000E+00 0.  1.
         11   -1    0    0    0    0 -0.00000000000E+00 -0.00000000000E+00 -0.18250000000E+03  0.18250000000E+03  0.00000000000E+00 0. -1.
        -11    1    1    2    0    0 -0.13136661512E+01  0.20352819547E+01  0.77999406492E+02  0.78037013682E+02  0.00000000000E+00 0.  1.
         11    1    1    2    0    0  0.91269067085E+01  0.43919384096E+01 -0.15450398862E+03  0.15483562913E+03  0.00000000000E+00 0. -1.
        -15    1    1    2    0    0 -0.13827407455E+02 -0.10264805754E+01 -0.25877241556E+02  0.29411566073E+02  0.17770000000E+01 0.  1.
         15    1    1    2    0    0  0.60141668980E+01 -0.54007397889E+01  0.10238182369E+03  0.10271579111E+03  0.17770000000E+01 0. -1.
</event>
<event>
 6    1  0.1196607E-002  0.1829192E+03  0.7546771E-02  0.1068122E+00
        -11   -1    0    0    0    0  0.00000000000E+00  0.00000000000E+00  0.18250000000E+03  0.18250000000E+03  0.00000000000E+00 0.  1.
         11   -1    0    0    0    0 -0.00000000000E+00 -0.00000000000E+00 -0.18250000000E+03  0.18250000000E+03  0.00000000000E+00 0.  1.
        -11    1    1    2    0    0 -0.19607382340E+01  0.51274281818E+00  0.13328786331E+03  0.13330327042E+03  0.00000000000E+00 0.  1.
         11    1    1    2    0    0  0.15185851055E+01  0.44279563607E+01 -0.18202059588E+03  0.18208077939E+03  0.00000000000E+00 0.  1.
        -15    1    1    2    0    0 -0.32907167709E+01 -0.22334583833E+01  0.21128808163E+02  0.21573164270E+02  0.17770000000E+01 0.  1.
         15    1    1    2    0    0  0.37328698995E+01 -0.27072407955E+01  0.27603924409E+02  0.28042785920E+02  0.17770000000E+01 0. -1.
</event>
<event>
 6    1  0.1196607E-002  0.1864867E+03  0.7546771E-02  0.1065325E+00
        -11   -1    0    0    0    0  0.00000000000E+00  0.00000000000E+00  0.18250000000E+03  0.18250000000E+03  0.00000000000E+00 0.  1.
         11   -1    0    0    0    0 -0.00000000000E+00 -0.00000000000E+00 -0.18250000000E+03  0.18250000000E+03  0.00000000000E+00 0. -1.
        -11    1    1    2    0    0 -0.13855508688E+01 -0.24927578942E+01  0.17849048078E+03  0.17851326372E+03  0.00000000000E+00 0.  1.
         11    1    1    2    0    0  0.41315282784E+01  0.11912220711E+01 -0.16104928137E+03  0.16110667139E+03  0.00000000000E+00 0. -1.
        -15    1    1    2    0    0  0.11465958186E+01 -0.17893769580E+01  0.31081847445E+01  0.41635433558E+01  0.17770000000E+01 0.  1.
         15    1    1    2    0    0 -0.38925732283E+01  0.30909127811E+01 -0.20549384152E+02  0.21216521538E+02  0.17770000000E+01 0. -1.
</event>
<event>
 6    1  0.1196607E-002  0.1833360E+03  0.7546771E-02  0.1067791E+00
        -11   -1    0    0    0    0  0.00000000000E+00  0.00000000000E+00  0.18250000000E+03  0.18250000000E+03  0.00000000000E+00 0.  1.
         11   -1    0    0    0    0 -0.00000000000E+00 -0.00000000000E+00 -0.18250000000E+03  0.18250000000E+03  0.00000000000E+00 0. -1.
        -11    1    1    2    0    0  0.10739843196E+01  0.15265651862E+01  0.34177497563E+02  0.34228426537E+02  0.00000000000E+00 0.  1.
         11    1    1    2    0    0 -0.52560778798E+01 -0.50541517162E+01 -0.18151755718E+03  0.18166396002E+03  0.00000000000E+00 0. -1.
        -15    1    1    2    0    0 -0.15902260299E+01  0.10995192063E+01  0.13605051946E+03  0.13607585875E+03  0.17770000000E+01 0.  1.
         15    1    1    2    0    0  0.57723195900E+01  0.24280673236E+01  0.11289540157E+02  0.13031754691E+02  0.17770000000E+01 0. -1.
</event>
<event>
 6    1  0.1196607E-002  0.1832952E+03  0.7546771E-02  0.1067824E+00
        -11   -1    0    0    0    0  0.00000000000E+00  0.00000000000E+00  0.18250000000E+03  0.18250000000E+03  0.00000000000E+00 0.  1.
         11   -1    0    0    0    0 -0.00000000000E+00 -0.00000000000E+00 -0.18250000000E+03  0.18250000000E+03  0.00000000000E+00 0.  1.
        -11    1    1    2    0    0  0.38555714608E+00 -0.25667516239E+01  0.12815288436E+03  0.12817916617E+03  0.00000000000E+00 0.  1.
         11    1    1    2    0    0 -0.19236489456E+01 -0.38146761219E+01 -0.18165456662E+03  0.18170479838E+03  0.00000000000E+00 0.  1.
        -15    1    1    2    0    0  0.36013072783E+01  0.56617750819E+01  0.15188854482E+02  0.16699824570E+02  0.17770000000E+01 0.  1.
         15    1    1    2    0    0 -0.20632154787E+01  0.71965266401E+00  0.38312827772E+02  0.38416210888E+02  0.17770000000E+01 0.  1.
</event>
<event>
 6    1  0.1196607E-002  0.1848382E+03  0.7546771E-02  0.1066609E+00
        -11   -1    0    0    0    0  0.00000000000E+00  0.00000000000E+00  0.18250000000E+03  0.18250000000E+03  0.00000000000E+00 0. -1.
         11   -1    0    0    0    0 -0.00000000000E+00 -0.00000000000E+00 -0.18250000000E+03  0.18250000000E+03  0.00000000000E+00 0. -1.
        -11    1    1    2    0    0 -0.29428670051E+01 -0.31483420715E+00  0.17279344989E+03  0.17281879502E+03  0.00000000000E+00 0. -1.
         11    1    1    2    0    0 -0.20275477083E+01 -0.43660499861E+01 -0.18009749969E+03  0.18016182375E+03  0.00000000000E+00 0. -1.
        -15    1    1    2    0    0  0.49847470193E+01  0.94779448001E+00  0.36170803092E+01  0.64797388980E+01  0.17770000000E+01 0. -1.
         15    1    1    2    0    0 -0.14332305950E-01  0.37330897132E+01  0.36869694890E+01  0.55396423381E+01  0.17770000000E+01 0.  1.
</event>
<event>
 6    1  0.1196607E-002  0.1830927E+03  0.7546771E-02  0.1067984E+00
        -11   -1    0    0    0    0  0.00000000000E+00  0.00000000000E+00  0.18250000000E+03  0.18250000000E+03  0.00000000000E+00 0. -1.
         11   -1    0    0    0    0 -0.00000000000E+00 -0.00000000000E+00 -0.18250000000E+03  0.18250000000E+03  0.00000000000E+00 0.  1.
        -11    1    1    2    0    0 -0.68618983300E+00  0.21621760405E+01  0.14703677004E+03  0.14705426755E+03  0.00000000000E+00 0. -1.
         11    1    1    2    0    0 -0.23845034079E+01 -0.31114013399E+01 -0.18186508206E+03  0.18190732461E+03  0.00000000000E+00 0.  1.
        -15    1    1    2    0    0  0.53649615490E+01  0.22464632177E+01  0.22896422217E+02  0.23690362782E+02  0.17770000000E+01 0.  1.
         15    1    1    2    0    0 -0.22942683081E+01 -0.12972379184E+01  0.11931889807E+02  0.12348045054E+02  0.17770000000E+01 0. -1.
</event>
<event>
 6    1  0.1196607E-002  0.1673428E+03  0.7546771E-02  0.1081204E+00
        -11   -1    0    0    0    0  0.00000000000E+00  0.00000000000E+00  0.18250000000E+03  0.18250000000E+03  0.00000000000E+00 0.  1.
         11   -1    0    0    0    0 -0.00000000000E+00 -0.00000000000E+00 -0.18250000000E+03  0.18250000000E+03  0.00000000000E+00 0. -1.
        -11    1    1    2    0    0  0.69448011254E+01 -0.14775315879E+02  0.16353443372E+03  0.16434734934E+03  0.00000000000E+00 0.  1.
         11    1    1    2    0    0  0.51974439817E+01 -0.46520806330E+01 -0.17106375976E+03  0.17120591456E+03  0.00000000000E+00 0. -1.
        -15    1    1    2    0    0 -0.59689909158E+01  0.16708061259E+02  0.11692804855E+02  0.21322935492E+02  0.17770000000E+01 0.  1.
         15    1    1    2    0    0 -0.61732541912E+01  0.27193352528E+01 -0.41634788173E+01  0.81238006123E+01  0.17770000000E+01 0. -1.
</event>
<event>
 6    1  0.1196607E-002  0.1850046E+03  0.7546771E-02  0.1066478E+00
        -11   -1    0    0    0    0  0.00000000000E+00  0.00000000000E+00  0.18250000000E+03  0.18250000000E+03  0.00000000000E+00 0.  1.
         11   -1    0    0    0    0 -0.00000000000E+00 -0.00000000000E+00 -0.18250000000E+03  0.18250000000E+03  0.00000000000E+00 0. -1.
        -11    1    1    2    0    0  0.29415955192E+01  0.35139596439E+01  0.17993709208E+03  0.17999543884E+03  0.00000000000E+00 0.  1.
         11    1    1    2    0    0  0.25635943141E+01  0.39059449601E+01 -0.16541501031E+03  0.16548097794E+03  0.00000000000E+00 0. -1.
        -15    1    1    2    0    0 -0.67741895376E+01 -0.61194442026E+01 -0.71659241272E+01  0.11740759721E+02  0.17770000000E+01 0. -1.
         15    1    1    2    0    0  0.12689997044E+01 -0.13004604015E+01 -0.73561576374E+01  0.77828235039E+01  0.17770000000E+01 0. -1.
</event>
<event>
 6    1  0.1196607E-002  0.1914032E+03  0.7546771E-02  0.1061581E+00
        -11   -1    0    0    0    0  0.00000000000E+00  0.00000000000E+00  0.18250000000E+03  0.18250000000E+03  0.00000000000E+00 0. -1.
         11   -1    0    0    0    0 -0.00000000000E+00 -0.00000000000E+00 -0.18250000000E+03  0.18250000000E+03  0.00000000000E+00 0.  1.
        -11    1    1    2    0    0 -0.19435979792E+01  0.63548650491E+01  0.17346955426E+03  0.17359679760E+03  0.00000000000E+00 0. -1.
         11    1    1    2    0    0  0.14632808675E+00  0.40704038982E+01 -0.10046082018E+03  0.10054335379E+03  0.00000000000E+00 0.  1.
        -15    1    1    2    0    0 -0.16624880682E+01 -0.42586372184E+01 -0.80358094941E+02  0.80507645656E+02  0.17770000000E+01 0. -1.
         15    1    1    2    0    0  0.34597579607E+01 -0.61666317289E+01  0.73493608595E+01  0.10352202957E+02  0.17770000000E+01 0. -1.
</event>
<event>
 6    1  0.1196607E-002  0.1827487E+03  0.7546771E-02  0.1068257E+00
        -11   -1    0    0    0    0  0.00000000000E+00  0.00000000000E+00  0.18250000000E+03  0.18250000000E+03  0.00000000000E+00 0. -1.
         11   -1    0    0    0    0 -0.00000000000E+00 -0.00000000000E+00 -0.18250000000E+03  0.18250000000E+03  0.00000000000E+00 0.  1.
        -11    1    1    2    0    0 -0.11362906833E+01 -0.21008647096E+01  0.14784117598E+03  0.14786046836E+03  0.00000000000E+00 0. -1.
         11    1    1    2    0    0  0.25315473539E+01 -0.73810442664E-01 -0.18223365968E+03  0.18225125761E+03  0.00000000000E+00 0.  1.
        -15    1    1    2    0    0  0.26134283876E+00  0.28166989448E+01  0.20485586806E+02  0.20756181942E+02  0.17770000000E+01 0.  1.
         15    1    1    2    0    0 -0.16565995094E+01 -0.64202379259E+00  0.13906896895E+02  0.14132092086E+02  0.17770000000E+01 0.  1.
</event>
<event>
 6    1  0.1196607E-002  0.1827571E+03  0.7546771E-02  0.1068250E+00
        -11   -1    0    0    0    0  0.00000000000E+00  0.00000000000E+00  0.18250000000E+03  0.18250000000E+03  0.00000000000E+00 0.  1.
         11   -1    0    0    0    0 -0.00000000000E+00 -0.00000000000E+00 -0.18250000000E+03  0.18250000000E+03  0.00000000000E+00 0.  1.
        -11    1    1    2    0    0  0.24289360170E+01 -0.24024005538E+01  0.18221087589E+03  0.18224289986E+03  0.00000000000E+00 0.  1.
         11    1    1    2    0    0  0.72981476213E+00 -0.17861656911E+00 -0.55618721551E+02  0.55623796351E+02  0.00000000000E+00 0.  1.
        -15    1    1    2    0    0 -0.66991110061E+01  0.13858986949E+01 -0.96427983305E+02  0.96686671764E+02  0.17770000000E+01 0.  1.
         15    1    1    2    0    0  0.35403602270E+01  0.11951184279E+01 -0.30164171031E+02  0.30446632023E+02  0.17770000000E+01 0.  1.
</event>
<event>
 6    1  0.1196607E-002  0.1840241E+03  0.7546771E-02  0.1067248E+00
        -11   -1    0    0    0    0  0.00000000000E+00  0.00000000000E+00  0.18250000000E+03  0.18250000000E+03  0.00000000000E+00 0.  1.
         11   -1    0    0    0    0 -0.00000000000E+00 -0.00000000000E+00 -0.18250000000E+03  0.18250000000E+03  0.00000000000E+00 0.  1.
        -11    1    1    2    0    0 -0.20155234969E+01 -0.26197074412E+01  0.18094574794E+03  0.18097593459E+03  0.00000000000E+00 0.  1.
         11    1    1    2    0    0 -0.27361922063E+01  0.29017138577E+01 -0.13434742112E+03  0.13440660792E+03  0.00000000000E+00 0.  1.
        -15    1    1    2    0    0  0.87660007216E+01  0.33709522753E+01 -0.38747912866E+02  0.39909454624E+02  0.17770000000E+01 0.  1.
         15    1    1    2    0    0 -0.40142850185E+01 -0.36529586917E+01 -0.78504139556E+01  0.97080028681E+01  0.17770000000E+01 0. -1.
</event>
<event>
 6    1  0.1196607E-002  0.1712156E+03  0.7546771E-02  0.1077810E+00
        -11   -1    0    0    0    0  0.00000000000E+00  0.00000000000E+00  0.18250000000E+03  0.18250000000E+03  0.00000000000E+00 0.  1.
         11   -1    0    0    0    0 -0.00000000000E+00 -0.00000000000E+00 -0.18250000000E+03  0.18250000000E+03  0.00000000000E+00 0.  1.
        -11    1    1    2    0    0  0.96431597027E+01 -0.20778515740E+01  0.16874311821E+03  0.16903120404E+03  0.00000000000E+00 0.  1.
         11    1    1    2    0    0 -0.14570178533E+01  0.39505203942E+01 -0.17348459371E+03  0.17353568442E+03  0.00000000000E+00 0.  1.
        -15    1    1    2    0    0  0.50185270779E+01 -0.35600910483E+01  0.62125767775E+01  0.89226510366E+01  0.17770000000E+01 0.  1.
         15    1    1    2    0    0 -0.13204668927E+02  0.16874222282E+01 -0.14711012783E+01  0.13510460511E+02  0.17770000000E+01 0. -1.
</event>
<event>
 6    1  0.1196607E-002  0.1886946E+03  0.7546771E-02  0.1063628E+00
        -11   -1    0    0    0    0  0.00000000000E+00  0.00000000000E+00  0.18250000000E+03  0.18250000000E+03  0.00000000000E+00 0. -1.
         11   -1    0    0    0    0 -0.00000000000E+00 -0.00000000000E+00 -0.18250000000E+03  0.18250000000E+03  0.00000000000E+00 0. -1.
        -11    1    1    2    0    0 -0.21853925221E-01  0.15438188977E+02  0.17562817036E+03  0.17630539521E+03  0.00000000000E+00 0. -1.
         11    1    1    2    0    0  0.16208375724E+01 -0.51651907490E+00 -0.36211931624E+02  0.36251867515E+02  0.00000000000E+00 0. -1.
        -15    1    1    2    0    0 -0.11415335034E+02 -0.21585902311E+02 -0.13823640748E+03  0.14038775992E+03  0.17770000000E+01 0. -1.
         15    1    1    2    0    0  0.98163513872E+01  0.66642324089E+01 -0.11798312542E+01  0.12054977352E+02  0.17770000000E+01 0.  1.
</event>
<event>
 6    1  0.1196607E-002  0.1826551E+03  0.7546771E-02  0.1068331E+00
        -11   -1    0    0    0    0  0.00000000000E+00  0.00000000000E+00  0.18250000000E+03  0.18250000000E+03  0.00000000000E+00 0.  1.
         11   -1    0    0    0    0 -0.00000000000E+00 -0.00000000000E+00 -0.18250000000E+03  0.18250000000E+03  0.00000000000E+00 0. -1.
        -11    1    1    2    0    0  0.14996265834E+00 -0.17870514470E+01  0.75742939905E+02  0.75764166907E+02  0.00000000000E+00 0.  1.
         11    1    1    2    0    0 -0.27953476175E+01  0.19604415529E+01 -0.18231291973E+03  0.18234488751E+03  0.00000000000E+00 0. -1.
        -15    1    1    2    0    0 -0.16032277490E+01 -0.21827687693E+01  0.38827762349E+02  0.38962644633E+02  0.17770000000E+01 0. -1.
         15    1    1    2    0    0  0.42486127082E+01  0.20093786634E+01  0.67742217477E+02  0.67928300952E+02  0.17770000000E+01 0.  1.
</event>
<event>
 6    1  0.1196607E-002  0.1843873E+03  0.7546771E-02  0.1066962E+00
        -11   -1    0    0    0    0  0.00000000000E+00  0.00000000000E+00  0.18250000000E+03  0.18250000000E+03  0.00000000000E+00 0. -1.
         11   -1    0    0    0    0 -0.00000000000E+00 -0.00000000000E+00 -0.18250000000E+03  0.18250000000E+03  0.00000000000E+00 0.  1.
        -11    1    1    2    0    0 -0.37930501468E+01 -0.37459454902E+00  0.18057248287E+03  0.18061270476E+03  0.00000000000E+00 0. -1.
         11    1    1    2    0    0  0.25217191506E+01  0.22699839128E+00 -0.13486400591E+03  0.13488777071E+03  0.00000000000E+00 0.  1.
        -15    1    1    2    0    0 -0.16359291396E+01 -0.21322896336E+01 -0.45260907392E+02  0.45375438182E+02  0.17770000000E+01 0.  1.
         15    1    1    2    0    0  0.29072601358E+01  0.22798857914E+01 -0.44756956533E+00  0.41240863515E+01  0.17770000000E+01 0. -1.
</event>
<event>
 6    1  0.1196607E-002  0.1825804E+03  0.7546771E-02  0.1068391E+00
        -11   -1    0    0    0    0  0.00000000000E+00  0.00000000000E+00  0.18250000000E+03  0.18250000000E+03  0.00000000000E+00 0.  1.
         11   -1    0    0    0    0 -0.00000000000E+00 -0.00000000000E+00 -0.18250000000E+03  0.18250000000E+03  0.00000000000E+00 0. -1.
        -11    1    1    2    0    0 -0.61292647157E+00  0.28531847518E+01  0.18239628620E+03  0.18241963042E+03  0.00000000000E+00 0.  1.
         11    1    1    2    0    0  0.62099970986E+00  0.39386566388E+00 -0.45623213229E+02  0.45629139331E+02  0.00000000000E+00 0. -1.
        -15    1    1    2    0    0 -0.15450644785E+01  0.58151877951E+00 -0.57295191007E+02  0.57346508437E+02  0.17770000000E+01 0.  1.
         15    1    1    2    0    0  0.15369912402E+01 -0.38285691952E+01 -0.79477881966E+02  0.79604721813E+02  0.17770000000E+01 0. -1.
</event>
<event>
 6    1  0.1196607E-002  0.1740301E+03  0.7546771E-02  0.1075404E+00
        -11   -1    0    0    0    0  0.00000000000E+00  0.00000000000E+00  0.18250000000E+03  0.18250000000E+03  0.00000000000E+00 0. -1.
         11   -1    0    0    0    0 -0.00000000000E+00 -0.00000000000E+00 -0.18250000000E+03  0.18250000000E+03  0.00000000000E+00 0.  1.
        -11    1    1    2    0    0 -0.31801479883E+01 -0.95676381685E+00  0.17427132106E+03  0.17430296062E+03  0.00000000000E+00 0. -1.
         11    1    1    2    0    0 -0.20357818610E+01 -0.20327724620E+01 -0.17378565796E+03  0.17380946892E+03  0.00000000000E+00 0.  1.
        -15    1    1    2    0    0  0.19397561873E+01 -0.16193990710E+01 -0.72577813142E+01  0.78878530680E+01  0.17770000000E+01 0.  1.
         15    1    1    2    0    0  0.32761736620E+01  0.46089353498E+01  0.67721182184E+01  0.89997173892E+01  0.17770000000E+01 0. -1.
</event>
<event>
 6    1  0.1196607E-002  0.2093706E+03  0.7546771E-02  0.1048874E+00
        -11   -1    0    0    0    0  0.00000000000E+00  0.00000000000E+00  0.18250000000E+03  0.18250000000E+03  0.00000000000E+00 0.  1.
         11   -1    0    0    0    0 -0.00000000000E+00 -0.00000000000E+00 -0.18250000000E+03  0.18250000000E+03  0.00000000000E+00 0. -1.
        -11    1    1    2    0    0 -0.11401298534E+02  0.11089334661E+02  0.56172816176E+02  0.58381060531E+02  0.00000000000E+00 0.  1.
         11    1    1    2    0    0 -0.11890535878E+01  0.18671130240E+01 -0.15561366378E+03  0.15562940697E+03  0.00000000000E+00 0. -1.
        -15    1    1    2    0    0  0.14943929572E+02 -0.34481361756E+01  0.12375601519E+03  0.12471535471E+03  0.17770000000E+01 0.  1.
         15    1    1    2    0    0 -0.23535774499E+01 -0.95083115097E+01 -0.24315167590E+02  0.26274177789E+02  0.17770000000E+01 0. -1.
</event>
<event>
 6    1  0.1196607E-002  0.1827023E+03  0.7546771E-02  0.1068294E+00
        -11   -1    0    0    0    0  0.00000000000E+00  0.00000000000E+00  0.18250000000E+03  0.18250000000E+03  0.00000000000E+00 0. -1.
         11   -1    0    0    0    0 -0.00000000000E+00 -0.00000000000E+00 -0.18250000000E+03  0.18250000000E+03  0.00000000000E+00 0. -1.
        -11    1    1    2    0    0 -0.29418905100E+00  0.62002970556E+00  0.31852336141E+02  0.31859728525E+02  0.00000000000E+00 0. -1.
         11    1    1    2    0    0 -0.93172763273E-01 -0.50283392295E+01 -0.18222833695E+03  0.18229772259E+03  0.00000000000E+00 0. -1.
        -15    1    1    2    0    0  0.36077991317E+01 -0.19732912713E+01  0.54011642953E+02  0.54197097676E+02  0.17770000000E+01 0.  1.
         15    1    1    2    0    0 -0.32204373174E+01  0.63816007953E+01  0.96364357852E+02  0.96645451204E+02  0.17770000000E+01 0. -1.
</event>
<event>
 6    1  0.1196607E-002  0.1855400E+03  0.7546771E-02  0.1066060E+00
        -11   -1    0    0    0    0  0.00000000000E+00  0.00000000000E+00  0.18250000000E+03  0.18250000000E+03  0.00000000000E+00 0. -1.
         11   -1    0    0    0    0 -0.00000000000E+00 -0.00000000000E+00 -0.18250000000E+03  0.18250000000E+03  0.00000000000E+00 0.  1.
        -11    1    1    2    0    0  0.14014020092E+01  0.15781222378E+01  0.74365329850E+02  0.74395273245E+02  0.00000000000E+00 0. -1.
         11    1    1    2    0    0  0.53002147661E+01 -0.29086961723E+01 -0.17935815717E+03  0.17946002712E+03  0.00000000000E+00 0.  1.
        -15    1    1    2    0    0  0.81295795289E+01 -0.10528813932E+02  0.20329516690E+02  0.24359658536E+02  0.17770000000E+01 0. -1.
         15    1    1    2    0    0 -0.14831196304E+02  0.11859387866E+02  0.84663310626E+02  0.86785041104E+02  0.17770000000E+01 0. -1.
</event>
<event>
 6    1  0.1196607E-002  0.1884569E+03  0.7546771E-02  0.1063810E+00
        -11   -1    0    0    0    0  0.00000000000E+00  0.00000000000E+00  0.18250000000E+03  0.18250000000E+03  0.00000000000E+00 0. -1.
         11   -1    0    0    0    0 -0.00000000000E+00 -0.00000000000E+00 -0.18250000000E+03  0.18250000000E+03  0.00000000000E+00 0.  1.
        -11    1    1    2    0    0  0.10968198379E+02 -0.70574416592E+01  0.66861347810E+02  0.68121572864E+02  0.00000000000E+00 0. -1.
         11    1    1    2    0    0 -0.24761639962E+01 -0.10626339527E+01 -0.17652250188E+03  0.17654306627E+03  0.00000000000E+00 0.  1.
        -15    1    1    2    0    0 -0.13969576697E+02  0.99609426754E+01  0.11238745293E+03  0.11370341576E+03  0.17770000000E+01 0. -1.
         15    1    1    2    0    0  0.54775423143E+01 -0.18408670635E+01 -0.27262988554E+01  0.66319450993E+01  0.17770000000E+01 0.  1.
</event>
<event>
 6    1  0.1196607E-002  0.1724299E+03  0.7546771E-02  0.1076766E+00
        -11   -1    0    0    0    0  0.00000000000E+00  0.00000000000E+00  0.18250000000E+03  0.18250000000E+03  0.00000000000E+00 0.  1.
         11   -1    0    0    0    0 -0.00000000000E+00 -0.00000000000E+00 -0.18250000000E+03  0.18250000000E+03  0.00000000000E+00 0.  1.
        -11    1    1    2    0    0 -0.43171752247E+01 -0.41879904402E+01  0.16952930729E+03  0.16963597288E+03  0.00000000000E+00 0.  1.
         11    1    1    2    0    0  0.92132038703E+00 -0.77788517883E+01 -0.17532182979E+03  0.17549673321E+03  0.00000000000E+00 0.  1.
        -15    1    1    2    0    0 -0.51763015284E+00  0.75998850209E+01  0.98052443387E+01  0.12542995609E+02  0.17770000000E+01 0. -1.
         15    1    1    2    0    0  0.39134849905E+01  0.43669572076E+01 -0.40127218336E+01  0.73242982966E+01  0.17770000000E+01 0.  1.
</event>
<event>
 6    1  0.1196607E-002  0.1941047E+03  0.7546771E-02  0.1059575E+00
        -11   -1    0    0    0    0  0.00000000000E+00  0.00000000000E+00  0.18250000000E+03  0.18250000000E+03  0.00000000000E+00 0.  1.
         11   -1    0    0    0    0 -0.00000000000E+00 -0.00000000000E+00 -0.18250000000E+03  0.18250000000E+03  0.00000000000E+00 0.  1.
        -11    1    1    2    0    0  0.50540005228E+00 -0.40220315586E+01  0.17084718382E+03  0.17089526730E+03  0.00000000000E+00 0.  1.
         11    1    1    2    0    0  0.44285832697E+01 -0.10770493266E+01 -0.15818204847E+03  0.15824769459E+03  0.00000000000E+00 0.  1.
        -15    1    1    2    0    0  0.22931081878E+01  0.38652597920E+01  0.10465387034E+02  0.11527386225E+02  0.17770000000E+01 0. -1.
         15    1    1    2    0    0 -0.72270915098E+01  0.12338210932E+01 -0.23130522378E+02  0.24329651881E+02  0.17770000000E+01 0.  1.
</event>
<event>
 6    1  0.1196607E-002  0.1836295E+03  0.7546771E-02  0.1067559E+00
        -11   -1    0    0    0    0  0.00000000000E+00  0.00000000000E+00  0.18250000000E+03  0.18250000000E+03  0.00000000000E+00 0.  1.
         11   -1    0    0    0    0 -0.00000000000E+00 -0.00000000000E+00 -0.18250000000E+03  0.18250000000E+03  0.00000000000E+00 0. -1.
        -11    1    1    2    0    0 -0.49885528968E+01  0.69477082950E+00  0.17153848729E+03  0.17161241502E+03  0.00000000000E+00 0.  1.
         11    1    1    2    0    0  0.19033039438E+01 -0.18238930423E+01 -0.18135133845E+03  0.18137049680E+03  0.00000000000E+00 0. -1.
        -15    1    1    2    0    0  0.37685770483E+01 -0.43233063185E+00  0.44248300391E+01  0.60931053346E+01  0.17770000000E+01 0. -1.
         15    1    1    2    0    0 -0.68332809527E+00  0.15614528447E+01  0.53880211141E+01  0.59239828492E+01  0.17770000000E+01 0.  1.
</event>
<event>
 6    1  0.1196607E-002  0.1855375E+03  0.7546771E-02  0.1066062E+00
        -11   -1    0    0    0    0  0.00000000000E+00  0.00000000000E+00  0.18250000000E+03  0.18250000000E+03  0.00000000000E+00 0. -1.
         11   -1    0    0    0    0 -0.00000000000E+00 -0.00000000000E+00 -0.18250000000E+03  0.18250000000E+03  0.00000000000E+00 0. -1.
        -11    1    1    2    0    0  0.31251520999E+01 -0.40273977066E+01  0.17939003852E+03  0.17946245409E+03  0.00000000000E+00 0. -1.
         11    1    1    2    0    0  0.38487725995E+01 -0.41239385446E+01 -0.12999027827E+03  0.13011261417E+03  0.00000000000E+00 0. -1.
        -15    1    1    2    0    0 -0.68748417779E+01 -0.18257516674E+01 -0.29841493168E+01  0.79157876909E+01  0.17770000000E+01 0.  1.
         15    1    1    2    0    0 -0.99082921516E-01  0.99770879187E+01 -0.46415610934E+02  0.47509144047E+02  0.17770000000E+01 0. -1.
</event>
<event>
 6    1  0.1196607E-002  0.1840702E+03  0.7546771E-02  0.1067212E+00
        -11   -1    0    0    0    0  0.00000000000E+00  0.00000000000E+00  0.18250000000E+03  0.18250000000E+03  0.00000000000E+00 0. -1.
         11   -1    0    0    0    0 -0.00000000000E+00 -0.00000000000E+00 -0.18250000000E+03  0.18250000000E+03  0.00000000000E+00 0. -1.
        -11    1    1    2    0    0 -0.78263037399E+00 -0.13873391828E+01  0.91086039031E+02  0.91099965569E+02  0.00000000000E+00 0. -1.
         11    1    1    2    0    0  0.17630736024E+02  0.21979695675E+00 -0.18006860133E+03  0.18092979950E+03  0.00000000000E+00 0. -1.
        -15    1    1    2    0    0 -0.68295092067E+01  0.10046054878E+02  0.29096765039E+02  0.31580767555E+02  0.17770000000E+01 0. -1.
         15    1    1    2    0    0 -0.10018596443E+02 -0.88785126515E+01  0.59885797261E+02  0.61389467372E+02  0.17770000000E+01 0.  1.
</event>
<event>
 6    1  0.1196607E-002  0.1862012E+03  0.7546771E-02  0.1065546E+00
        -11   -1    0    0    0    0  0.00000000000E+00  0.00000000000E+00  0.18250000000E+03  0.18250000000E+03  0.00000000000E+00 0. -1.
         11   -1    0    0    0    0 -0.00000000000E+00 -0.00000000000E+00 -0.18250000000E+03  0.18250000000E+03  0.00000000000E+00 0. -1.
        -11    1    1    2    0    0 -0.30546284293E+01  0.80777927480E+00  0.17877086271E+03  0.17879878248E+03  0.00000000000E+00 0. -1.
         11    1    1    2    0    0 -0.15834311255E+01  0.38271494667E+01 -0.16746923885E+03  0.16752044737E+03  0.00000000000E+00 0. -1.
        -15    1    1    2    0    0 -0.31474937173E+01 -0.25238637034E+01  0.32304818706E+00  0.44202594748E+01  0.17770000000E+01 0. -1.
         15    1    1    2    0    0  0.77855532720E+01 -0.21110650381E+01 -0.11624672052E+02  0.14260510673E+02  0.17770000000E+01 0.  1.
</event>
<event>
 6    1  0.1196607E-002  0.2051622E+03  0.7546771E-02  0.1051723E+00
        -11   -1    0    0    0    0  0.00000000000E+00  0.00000000000E+00  0.18250000000E+03  0.18250000000E+03  0.00000000000E+00 0.  1.
         11   -1    0    0    0    0 -0.00000000000E+00 -0.00000000000E+00 -0.18250000000E+03  0.18250000000E+03  0.00000000000E+00 0. -1.
        -11    1    1    2    0    0  0.29050753768E+02 -0.76717254456E+01  0.15698831529E+03  0.15983783283E+03  0.00000000000E+00 0.  1.
         11    1    1    2    0    0  0.68457596404E+01  0.32394242706E+02 -0.80298733944E+02  0.86856997752E+02  0.00000000000E+00 0. -1.
        -15    1    1    2    0    0 -0.55795279435E+02 -0.63328940064E+01 -0.71039509676E+02  0.90570350655E+02  0.17770000000E+01 0.  1.
         15    1    1    2    0    0  0.19898766026E+02 -0.18389623254E+02 -0.56500716726E+01  0.27734818761E+02  0.17770000000E+01 0. -1.
</event>
<event>
 6    1  0.1196607E-002  0.1829976E+03  0.7546771E-02  0.1068059E+00
        -11   -1    0    0    0    0  0.00000000000E+00  0.00000000000E+00  0.18250000000E+03  0.18250000000E+03  0.00000000000E+00 0.  1.
         11   -1    0    0    0    0 -0.00000000000E+00 -0.00000000000E+00 -0.18250000000E+03  0.18250000000E+03  0.00000000000E+00 0.  1.
        -11    1    1    2    0    0 -0.24360824468E+01 -0.28664572784E+01  0.13459375383E+03  0.13464631315E+03  0.00000000000E+00 0.  1.
         11    1    1    2    0    0 -0.23620643937E+01 -0.19382517154E+01 -0.18197679249E+03  0.18200244277E+03  0.00000000000E+00 0.  1.
        -15    1    1    2    0    0  0.21876045847E+01  0.39619417441E+01  0.39771769025E+02  0.40067866633E+02  0.17770000000E+01 0.  1.
         15    1    1    2    0    0  0.26105422558E+01  0.84276724978E+00  0.76112696396E+01  0.82833774532E+01  0.17770000000E+01 0. -1.
</event>
<event>
 6    1  0.1196607E-002  0.1833838E+03  0.7546771E-02  0.1067753E+00
        -11   -1    0    0    0    0  0.00000000000E+00  0.00000000000E+00  0.18250000000E+03  0.18250000000E+03  0.00000000000E+00 0. -1.
         11   -1    0    0    0    0 -0.00000000000E+00 -0.00000000000E+00 -0.18250000000E+03  0.18250000000E+03  0.00000000000E+00 0.  1.
        -11    1    1    2    0    0  0.44334062960E+01  0.78505062202E+00  0.18156041375E+03  0.18161623066E+03  0.00000000000E+00 0. -1.
         11    1    1    2    0    0  0.14406441466E+01 -0.20863238997E+01 -0.11945357062E+03  0.11948047429E+03  0.00000000000E+00 0.  1.
        -15    1    1    2    0    0 -0.36847342685E+01  0.47458470615E+01 -0.55982660862E+02  0.56332196630E+02  0.17770000000E+01 0.  1.
         15    1    1    2    0    0 -0.21893161740E+01 -0.34445737838E+01 -0.61241822702E+01  0.75710984236E+01  0.17770000000E+01 0. -1.
</event>
<event>
 6    1  0.1196607E-002  0.1828936E+03  0.7546771E-02  0.1068142E+00
        -11   -1    0    0    0    0  0.00000000000E+00  0.00000000000E+00  0.18250000000E+03  0.18250000000E+03  0.00000000000E+00 0. -1.
         11   -1    0    0    0    0 -0.00000000000E+00 -0.00000000000E+00 -0.18250000000E+03  0.18250000000E+03  0.00000000000E+00 0. -1.
        -11    1    1    2    0    0 -0.31369925112E+01 -0.51381892789E+01  0.18200683252E+03  0.18210636671E+03  0.00000000000E+00 0. -1.
         11    1    1    2    0    0  0.99972333014E+00  0.12100704454E+01 -0.10024177852E+03  0.10025406664E+03  0.00000000000E+00 0. -1.
        -15    1    1    2    0    0 -0.19797738676E+01 -0.18337095516E+01 -0.47270620775E+02  0.47380917179E+02  0.17770000000E+01 0. -1.
         15    1    1    2    0    0  0.41170430487E+01  0.57618283851E+01 -0.34494433225E+02  0.35258649468E+02  0.17770000000E+01 0. -1.
</event>
<event>
 6    1  0.1196607E-002  0.1835346E+03  0.7546771E-02  0.1067634E+00
        -11   -1    0    0    0    0  0.00000000000E+00  0.00000000000E+00  0.18250000000E+03  0.18250000000E+03  0.00000000000E+00 0.  1.
         11   -1    0    0    0    0 -0.00000000000E+00 -0.00000000000E+00 -0.18250000000E+03  0.18250000000E+03  0.00000000000E+00 0. -1.
        -11    1    1    2    0    0 -0.58833350939E+01  0.10155127355E+01  0.18136712577E+03  0.18146536641E+03  0.00000000000E+00 0.  1.
         11    1    1    2    0    0 -0.14446988941E+01  0.17599242536E+01 -0.12712076824E+03  0.12714115858E+03  0.00000000000E+00 0. -1.
        -15    1    1    2    0    0 -0.29354827698E+01 -0.35879816496E+01 -0.17639144399E+02  0.18324514060E+02  0.17770000000E+01 0.  1.
         15    1    1    2    0    0  0.10263516758E+02  0.81254466058E+00 -0.36607213133E+02  0.38068960945E+02  0.17770000000E+01 0. -1.
</event>
<event>
 6    1  0.1196607E-002  0.1839830E+03  0.7546771E-02  0.1067280E+00
        -11   -1    0    0    0    0  0.00000000000E+00  0.00000000000E+00  0.18250000000E+03  0.18250000000E+03  0.00000000000E+00 0.  1.
         11   -1    0    0    0    0 -0.00000000000E+00 -0.00000000000E+00 -0.18250000000E+03  0.18250000000E+03  0.00000000000E+00 0. -1.
        -11    1    1    2    0    0  0.11339004054E+01  0.25241242314E+01  0.18099586813E+03  0.18101701913E+03  0.00000000000E+00 0.  1.
         11    1    1    2    0    0 -0.29327697365E+01  0.43613982765E+00 -0.16884857622E+03  0.16887460747E+03  0.00000000000E+00 0. -1.
        -15    1    1    2    0    0 -0.46583155105E+00 -0.35199863594E+01 -0.11414914369E+02  0.12085747890E+02  0.17770000000E+01 0.  1.
         15    1    1    2    0    0  0.22647008821E+01  0.55972230033E+00 -0.73237753822E+00  0.30226255139E+01  0.17770000000E+01 0.  1.
</event>
<event>
 6    1  0.1196607E-002  0.1846593E+03  0.7546771E-02  0.1066749E+00
        -11   -1    0    0    0    0  0.00000000000E+00  0.00000000000E+00  0.18250000000E+03  0.18250000000E+03  0.00000000000E+00 0.  1.
         11   -1    0    0    0    0 -0.00000000000E+00 -0.00000000000E+00 -0.18250000000E+03  0.18250000000E+03  0.00000000000E+00 0. -1.
        -11    1    1    2    0    0  0.60825362384E+00 -0.25085202720E+01  0.18032222720E+03  0.18034070053E+03  0.00000000000E+00 0.  1.
         11    1    1    2    0    0  0.15726587654E+01  0.21440283443E+01 -0.12882747221E+03  0.12885490953E+03  0.00000000000E+00 0. -1.
        -15    1    1    2    0    0 -0.85959705845E+01  0.62845267470E+01 -0.16685647130E+02  0.19873463108E+02  0.17770000000E+01 0.  1.
         15    1    1    2    0    0  0.64150581952E+01 -0.59200348194E+01 -0.34809107856E+02  0.35930926827E+02  0.17770000000E+01 0. -1.
</event>
<event>
 6    1  0.1196607E-002  0.1901643E+03  0.7546771E-02  0.1062513E+00
        -11   -1    0    0    0    0  0.00000000000E+00  0.00000000000E+00  0.18250000000E+03  0.18250000000E+03  0.00000000000E+00 0. -1.
         11   -1    0    0    0    0 -0.00000000000E+00 -0.00000000000E+00 -0.18250000000E+03  0.18250000000E+03  0.00000000000E+00 0.  1.
        -11    1    1    2    0    0  0.17673415687E+01  0.18763172973E+02  0.17381694514E+03  0.17483566734E+03  0.00000000000E+00 0. -1.
         11    1    1    2    0    0 -0.13076647778E+01 -0.18307263023E+02 -0.19323687929E+02  0.26650905833E+02  0.00000000000E+00 0.  1.
        -15    1    1    2    0    0 -0.11884953951E+02 -0.21139957213E+01 -0.44066403395E+01  0.12972945556E+02  0.17770000000E+01 0. -1.
         15    1    1    2    0    0  0.11425277160E+02  0.16580857716E+01 -0.15008661687E+03  0.15054048127E+03  0.17770000000E+01 0.  1.
</event>
<event>
 6    1  0.1196607E-002  0.1752756E+03  0.7546771E-02  0.1074355E+00
        -11   -1    0    0    0    0  0.00000000000E+00  0.00000000000E+00  0.18250000000E+03  0.18250000000E+03  0.00000000000E+00 0. -1.
         11   -1    0    0    0    0 -0.00000000000E+00 -0.00000000000E+00 -0.18250000000E+03  0.18250000000E+03  0.00000000000E+00 0.  1.
        -11    1    1    2    0    0 -0.45700028350E+01  0.58050847200E+01  0.17511181485E+03  0.17526760007E+03  0.00000000000E+00 0. -1.
         11    1    1    2    0    0  0.21962651905E+01  0.19796509691E+01 -0.17535318570E+03  0.17537811247E+03  0.00000000000E+00 0.  1.
        -15    1    1    2    0    0  0.34582059159E+01 -0.74782885852E+01  0.45361376757E+01  0.95717429099E+01  0.17770000000E+01 0. -1.
         15    1    1    2    0    0 -0.10844682714E+01 -0.30644710382E+00 -0.42947668312E+01  0.47825445522E+01  0.17770000000E+01 0. -1.
</event>
<event>
 6    1  0.1196607E-002  0.1858119E+03  0.7546771E-02  0.1065849E+00
        -11   -1    0    0    0    0  0.00000000000E+00  0.00000000000E+00  0.18250000000E+03  0.18250000000E+03  0.00000000000E+00 0. -1.
         11   -1    0    0    0    0 -0.00000000000E+00 -0.00000000000E+00 -0.18250000000E+03  0.18250000000E+03  0.00000000000E+00 0. -1.
        -11    1    1    2    0    0  0.17255450492E+01 -0.71114551234E+01  0.97526930044E+02  0.97801085799E+02  0.00000000000E+00 0. -1.
         11    1    1    2    0    0 -0.27253600544E+01 -0.90031588073E+00 -0.17916512580E+03  0.17918811473E+03  0.00000000000E+00 0. -1.
        -15    1    1    2    0    0 -0.10738773788E+02  0.74780666762E+01  0.70488816686E+02  0.71715226769E+02  0.17770000000E+01 0. -1.
         15    1    1    2    0    0  0.11738588793E+02  0.53370432791E+00  0.11149379070E+02  0.16295572706E+02  0.17770000000E+01 0.  1.
</event>
<event>
 6    1  0.1196607E-002  0.1834198E+03  0.7546771E-02  0.1067725E+00
        -11   -1    0    0    0    0  0.00000000000E+00  0.00000000000E+00  0.18250000000E+03  0.18250000000E+03  0.00000000000E+00 0.  1.
         11   -1    0    0    0    0 -0.00000000000E+00 -0.00000000000E+00 -0.18250000000E+03  0.18250000000E+03  0.00000000000E+00 0. -1.
        -11    1    1    2    0    0 -0.17057181783E+01  0.11716798692E+01  0.91944744829E+02  0.91968029281E+02  0.00000000000E+00 0.  1.
         11    1    1    2    0    0 -0.36731540957E+01  0.47357556308E+01 -0.18148125914E+03  0.18158019403E+03  0.00000000000E+00 0. -1.
        -15    1    1    2    0    0  0.48603190979E+01  0.23198618092E+01  0.69256474704E+02  0.69488283027E+02  0.17770000000E+01 0.  1.
         15    1    1    2    0    0  0.51855317604E+00 -0.82272973092E+01  0.20280039610E+02  0.21963493666E+02  0.17770000000E+01 0.  1.
</event>
<event>
 6    1  0.1196607E-002  0.1835558E+03  0.7546771E-02  0.1067617E+00
        -11   -1    0    0    0    0  0.00000000000E+00  0.00000000000E+00  0.18250000000E+03  0.18250000000E+03  0.00000000000E+00 0.  1.
         11   -1    0    0    0    0 -0.00000000000E+00 -0.00000000000E+00 -0.18250000000E+03  0.18250000000E+03  0.00000000000E+00 0.  1.
        -11    1    1    2    0    0  0.27930019035E+01 -0.74703971105E+00  0.12791281841E+03  0.12794548856E+03  0.00000000000E+00 0.  1.
         11    1    1    2    0    0 -0.12367784382E+01  0.29129514416E+01 -0.18141661017E+03  0.18144421003E+03  0.00000000000E+00 0.  1.
        -15    1    1    2    0    0  0.15263945369E+01 -0.41179417425E+01  0.48230608645E+01  0.67606929807E+01  0.17770000000E+01 0.  1.
         15    1    1    2    0    0 -0.30826180022E+01  0.19520300120E+01  0.48680730895E+02  0.48849608436E+02  0.17770000000E+01 0.  1.
</event>
<event>
 6    1  0.1196607E-002  0.1956886E+03  0.7546771E-02  0.1058416E+00
        -11   -1    0    0    0    0  0.00000000000E+00  0.00000000000E+00  0.18250000000E+03  0.18250000000E+03  0.00000000000E+00 0. -1.
         11   -1    0    0    0    0 -0.00000000000E+00 -0.00000000000E+00 -0.18250000000E+03  0.18250000000E+03  0.00000000000E+00 0.  1.
        -11    1    1    2    0    0 -0.25085511829E+01  0.16100227889E+01  0.16928514051E+03  0.16931138119E+03  0.00000000000E+00 0. -1.
         11    1    1    2    0    0 -0.44688648577E+00 -0.53248735612E+01 -0.14236952143E+03  0.14246976738E+03  0.00000000000E+00 0.  1.
        -15    1    1    2    0    0  0.83179914678E+01  0.86261725961E+01 -0.37977107926E+02  0.39862492284E+02  0.17770000000E+01 0.  1.
         15    1    1    2    0    0 -0.53625537992E+01 -0.49113218238E+01  0.11061488839E+02  0.13356359146E+02  0.17770000000E+01 0. -1.
</event>
<event>
 6    1  0.1196607E-002  0.1840607E+03  0.7546771E-02  0.1067219E+00
        -11   -1    0    0    0    0  0.00000000000E+00  0.00000000000E+00  0.18250000000E+03  0.18250000000E+03  0.00000000000E+00 0.  1.
         11   -1    0    0    0    0 -0.00000000000E+00 -0.00000000000E+00 -0.18250000000E+03  0.18250000000E+03  0.00000000000E+00 0.  1.
        -11    1    1    2    0    0  0.42694829860E+01  0.11739599158E+01  0.17360046487E+03  0.17365692635E+03  0.00000000000E+00 0.  1.
         11    1    1    2    0    0  0.11468716575E+01 -0.21804693181E+01 -0.18092251234E+03  0.18093928604E+03  0.00000000000E+00 0.  1.
        -15    1    1    2    0    0 -0.44568549288E+01  0.19263127703E+01  0.50242024325E+01  0.72093394863E+01  0.17770000000E+01 0. -1.
         15    1    1    2    0    0 -0.95949971469E+00 -0.91980336798E+00  0.22978450426E+01  0.31944481179E+01  0.17770000000E+01 0.  1.
</event>
<event>
 6    1  0.1196607E-002  0.1923779E+03  0.7546771E-02  0.1060853E+00
        -11   -1    0    0    0    0  0.00000000000E+00  0.00000000000E+00  0.18250000000E+03  0.18250000000E+03  0.00000000000E+00 0. -1.
         11   -1    0    0    0    0 -0.00000000000E+00 -0.00000000000E+00 -0.18250000000E+03  0.18250000000E+03  0.00000000000E+00 0.  1.
        -11    1    1    2    0    0  0.68842888712E+01  0.15175232119E+01  0.17247809446E+03  0.17262209992E+03  0.00000000000E+00 0. -1.
         11    1    1    2    0    0  0.12324663174E+02  0.95332379446E+00 -0.14131808520E+03  0.14185770107E+03  0.00000000000E+00 0.  1.
        -15    1    1    2    0    0 -0.48125065947E+00 -0.93089524501E+01  0.38111240125E+01  0.10225976391E+02  0.17770000000E+01 0. -1.
         15    1    1    2    0    0 -0.18727701386E+02  0.68381054437E+01 -0.34971133275E+02  0.40294222623E+02  0.17770000000E+01 0.  1.
</event>
<event>
 6    1  0.1196607E-002  0.1844870E+03  0.7546771E-02  0.1066884E+00
        -11   -1    0    0    0    0  0.00000000000E+00  0.00000000000E+00  0.18250000000E+03  0.18250000000E+03  0.00000000000E+00 0. -1.
         11   -1    0    0    0    0 -0.00000000000E+00 -0.00000000000E+00 -0.18250000000E+03  0.18250000000E+03  0.00000000000E+00 0.  1.
        -11    1    1    2    0    0  0.58530308974E+01 -0.75967357346E+00  0.97073451988E+02  0.97252712844E+02  0.00000000000E+00 0. -1.
         11    1    1    2    0    0 -0.68087862390E+01 -0.42354989762E+01 -0.18033477549E+03  0.18051296428E+03  0.00000000000E+00 0.  1.
        -15    1    1    2    0    0  0.44122512704E+01  0.34802895106E+01  0.25609923962E+01  0.64262576516E+01  0.17770000000E+01 0.  1.
         15    1    1    2    0    0 -0.34564959288E+01  0.15148830391E+01  0.80700331110E+02  0.80808065222E+02  0.17770000000E+01 0. -1.
</event>
<event>
 6    1  0.1196607E-002  0.1843889E+03  0.7546771E-02  0.1066961E+00
        -11   -1    0    0    0    0  0.00000000000E+00  0.00000000000E+00  0.18250000000E+03  0.18250000000E+03  0.00000000000E+00 0.  1.
         11   -1    0    0    0    0 -0.00000000000E+00 -0.00000000000E+00 -0.18250000000E+03  0.18250000000E+03  0.00000000000E+00 0.  1.
        -11    1    1    2    0    0 -0.14503024517E+00 -0.17242675571E+01  0.10134523060E+03  0.10136000147E+03  0.00000000000E+00 0.  1.
         11    1    1    2    0    0  0.31431687326E+01 -0.27569084523E+01 -0.18056267998E+03  0.18061107789E+03  0.00000000000E+00 0.  1.
        -15    1    1    2    0    0 -0.61382625678E+01  0.46742033794E+01  0.65606377186E+01  0.10282321764E+02  0.17770000000E+01 0.  1.
         15    1    1    2    0    0  0.31401240804E+01 -0.19302736997E+00  0.72656811658E+02  0.72746598876E+02  0.17770000000E+01 0.  1.
</event>
<event>
 6    1  0.1196607E-002  0.1832840E+03  0.7546771E-02  0.1067832E+00
        -11   -1    0    0    0    0  0.00000000000E+00  0.00000000000E+00  0.18250000000E+03  0.18250000000E+03  0.00000000000E+00 0. -1.
         11   -1    0    0    0    0 -0.00000000000E+00 -0.00000000000E+00 -0.18250000000E+03  0.18250000000E+03  0.00000000000E+00 0.  1.
        -11    1    1    2    0    0  0.14872340377E+01  0.26754718594E+01  0.18169020173E+03  0.18171598559E+03  0.00000000000E+00 0. -1.
         11    1    1    2    0    0  0.12354247818E+01  0.63719379465E+00 -0.76553440015E+02  0.76566059508E+02  0.00000000000E+00 0.  1.
        -15    1    1    2    0    0 -0.82543467880E+01 -0.49770193022E+01 -0.35772640871E+02  0.37091030262E+02  0.17770000000E+01 0.  1.
         15    1    1    2    0    0  0.55316879685E+01  0.16643536482E+01 -0.69364120845E+02  0.69626924638E+02  0.17770000000E+01 0. -1.
</event>
<event>
 6    1  0.1196607E-002  0.1761734E+03  0.7546771E-02  0.1073605E+00
        -11   -1    0    0    0    0  0.00000000000E+00  0.00000000000E+00  0.18250000000E+03  0.18250000000E+03  0.00000000000E+00 0.  1.
         11   -1    0    0    0    0 -0.00000000000E+00 -0.00000000000E+00 -0.18250000000E+03  0.18250000000E+03  0.00000000000E+00 0.  1.
        -11    1    1    2    0    0  0.31051819828E+01  0.25922229939E+01  0.17771799675E+03  0.17776402376E+03  0.00000000000E+00 0.  1.
         11    1    1    2    0    0 -0.69087057756E+01  0.64900340491E+01 -0.17447792129E+03  0.17473521619E+03  0.00000000000E+00 0.  1.
        -15    1    1    2    0    0 -0.54214938136E+00 -0.35853588597E+01 -0.33866357786E+01  0.52702708661E+01  0.17770000000E+01 0.  1.
         15    1    1    2    0    0  0.43456731742E+01 -0.54968981832E+01  0.14656032597E+00  0.72304891883E+01  0.17770000000E+01 0. -1.
</event>
<event>
 6    1  0.1196607E-002  0.1866372E+03  0.7546771E-02  0.1065209E+00
        -11   -1    0    0    0    0  0.00000000000E+00  0.00000000000E+00  0.18250000000E+03  0.18250000000E+03  0.00000000000E+00 0. -1.
         11   -1    0    0    0    0 -0.00000000000E+00 -0.00000000000E+00 -0.18250000000E+03  0.18250000000E+03  0.00000000000E+00 0. -1.
        -11    1    1    2    0    0 -0.62673678464E+01  0.65578089196E+01  0.14640162409E+03  0.14668237895E+03  0.00000000000E+00 0. -1.
         11    1    1    2    0    0 -0.30163659479E+01 -0.87123099121E+01 -0.17812440389E+03  0.17836284946E+03  0.00000000000E+00 0. -1.
        -15    1    1    2    0    0 -0.81402329096E+00  0.47248193493E+01 -0.13047698464E+01  0.52769977406E+01  0.17770000000E+01 0.  1.
         15    1    1    2    0    0  0.10097757085E+02 -0.25703183568E+01  0.33027549644E+02  0.34677773849E+02  0.17770000000E+01 0.  1.
</event>
<event>
 6    1  0.1196607E-002  0.1945466E+03  0.7546771E-02  0.1059251E+00
        -11   -1    0    0    0    0  0.00000000000E+00  0.00000000000E+00  0.18250000000E+03  0.18250000000E+03  0.00000000000E+00 0. -1.
         11   -1    0    0    0    0 -0.00000000000E+00 -0.00000000000E+00 -0.18250000000E+03  0.18250000000E+03  0.00000000000E+00 0.  1.
        -11    1    1    2    0    0 -0.17509103201E+01 -0.28351279776E+01  0.11369039039E+03  0.11373921269E+03  0.00000000000E+00 0. -1.
         11    1    1    2    0    0 -0.13004453778E+00  0.29359786484E+01 -0.17042811059E+03  0.17045344749E+03  0.00000000000E+00 0.  1.
        -15    1    1    2    0    0 -0.63158705970E+01  0.95379892295E+01 -0.84796745299E+01  0.14350124357E+02  0.17770000000E+01 0.  1.
         15    1    1    2    0    0  0.81968254549E+01 -0.96388399003E+01  0.65217394733E+02  0.66457215461E+02  0.17770000000E+01 0. -1.
</event>
<event>
 6    1  0.1196607E-002  0.1826261E+03  0.7546771E-02  0.1068354E+00
        -11   -1    0    0    0    0  0.00000000000E+00  0.00000000000E+00  0.18250000000E+03  0.18250000000E+03  0.00000000000E+00 0.  1.
         11   -1    0    0    0    0 -0.00000000000E+00 -0.00000000000E+00 -0.18250000000E+03  0.18250000000E+03  0.00000000000E+00 0.  1.
        -11    1    1    2    0    0 -0.22626684792E+01  0.15931645593E+01  0.18235287473E+03  0.18237387084E+03  0.00000000000E+00 0.  1.
         11    1    1    2    0    0 -0.25134310252E+00 -0.20275489677E+01 -0.12994894709E+03  0.12996500674E+03  0.00000000000E+00 0.  1.
        -15    1    1    2    0    0  0.20701551615E+01 -0.24110324521E+00 -0.18566429370E+02  0.18767357346E+02  0.17770000000E+01 0. -1.
         15    1    1    2    0    0  0.44385642029E+00  0.67548765362E+00 -0.33837498276E+02  0.33893765071E+02  0.17770000000E+01 0.  1.
</event>
<event>
 6    1  0.1196607E-002  0.1845468E+03  0.7546771E-02  0.1066837E+00
        -11   -1    0    0    0    0  0.00000000000E+00  0.00000000000E+00  0.18250000000E+03  0.18250000000E+03  0.00000000000E+00 0. -1.
         11   -1    0    0    0    0 -0.00000000000E+00 -0.00000000000E+00 -0.18250000000E+03  0.18250000000E+03  0.00000000000E+00 0.  1.
        -11    1    1    2    0    0  0.38261722913E+01  0.21238503754E+01  0.12931471748E+03  0.12938874175E+03  0.00000000000E+00 0. -1.
         11    1    1    2    0    0  0.66460127708E+01 -0.88137526558E+00 -0.18032865143E+03  0.18045323171E+03  0.00000000000E+00 0.  1.
        -15    1    1    2    0    0 -0.36589667320E+00 -0.79097943540E+01  0.27187684880E+02  0.28372991827E+02  0.17770000000E+01 0.  1.
         15    1    1    2    0    0 -0.10106288389E+02  0.66673192442E+01  0.23826249069E+02  0.26785034714E+02  0.17770000000E+01 0. -1.
</event>
<event>
 6    1  0.1196607E-002  0.1770054E+03  0.7546771E-02  0.1072915E+00
        -11   -1    0    0    0    0  0.00000000000E+00  0.00000000000E+00  0.18250000000E+03  0.18250000000E+03  0.00000000000E+00 0.  1.
         11   -1    0    0    0    0 -0.00000000000E+00 -0.00000000000E+00 -0.18250000000E+03  0.18250000000E+03  0.00000000000E+00 0.  1.
        -11    1    1    2    0    0 -0.22023317354E+01  0.19438609129E+01  0.17679068946E+03  0.17681509194E+03  0.00000000000E+00 0.  1.
         11    1    1    2    0    0  0.17116807935E+01  0.36321425609E+01 -0.17719476095E+03  0.17724024830E+03  0.00000000000E+00 0.  1.
        -15    1    1    2    0    0 -0.15411354749E+01 -0.62922384510E+01  0.27877799797E+01  0.72730192830E+01  0.17770000000E+01 0.  1.
         15    1    1    2    0    0  0.20317864168E+01  0.71623497715E+00 -0.23837084916E+01  0.36716404724E+01  0.17770000000E+01 0. -1.
</event>
<event>
 6    1  0.1196607E-002  0.1892463E+03  0.7546771E-02  0.1063208E+00
        -11   -1    0    0    0    0  0.00000000000E+00  0.00000000000E+00  0.18250000000E+03  0.18250000000E+03  0.00000000000E+00 0.  1.
         11   -1    0    0    0    0 -0.00000000000E+00 -0.00000000000E+00 -0.18250000000E+03  0.18250000000E+03  0.00000000000E+00 0.  1.
        -11    1    1    2    0    0  0.12090393465E+01  0.29266547124E+01  0.16468481977E+03  0.16471526021E+03  0.00000000000E+00 0.  1.
         11    1    1    2    0    0  0.50883144873E+00  0.31380939474E+01 -0.17572491297E+03  0.17575366733E+03  0.00000000000E+00 0.  1.
        -15    1    1    2    0    0  0.51600827917E+01 -0.14838160783E+01 -0.42402283384E+01  0.70686229163E+01  0.17770000000E+01 0. -1.
         15    1    1    2    0    0 -0.68779535869E+01 -0.45809325815E+01  0.15280321530E+02  0.17462449540E+02  0.17770000000E+01 0.  1.
</event>
<event>
 6    1  0.1196607E-002  0.1470567E+03  0.7546771E-02  0.1100792E+00
        -11   -1    0    0    0    0  0.00000000000E+00  0.00000000000E+00  0.18250000000E+03  0.18250000000E+03  0.00000000000E+00 0. -1.
         11   -1    0    0    0    0 -0.00000000000E+00 -0.00000000000E+00 -0.18250000000E+03  0.18250000000E+03  0.00000000000E+00 0. -1.
        -11    1    1    2    0    0  0.20867956075E+01 -0.24847737361E+01  0.39170670837E+02  0.39304837746E+02  0.00000000000E+00 0. -1.
         11    1    1    2    0    0 -0.11621161325E+02 -0.50179575405E+01 -0.16533676763E+03  0.16582062000E+03  0.00000000000E+00 0. -1.
        -15    1    1    2    0    0  0.17209616345E+02  0.21933066432E+02 -0.43978959015E+01  0.28279489303E+02  0.17770000000E+01 0.  1.
         15    1    1    2    0    0 -0.76752506270E+01 -0.14430335156E+02  0.13056399269E+03  0.13159505295E+03  0.17770000000E+01 0. -1.
</event>
<event>
 6    1  0.1196607E-002  0.1583122E+03  0.7546771E-02  0.1089525E+00
        -11   -1    0    0    0    0  0.00000000000E+00  0.00000000000E+00  0.18250000000E+03  0.18250000000E+03  0.00000000000E+00 0.  1.
         11   -1    0    0    0    0 -0.00000000000E+00 -0.00000000000E+00 -0.18250000000E+03  0.18250000000E+03  0.00000000000E+00 0.  1.
        -11    1    1    2    0    0  0.13418147020E+01  0.39295427511E+01  0.16039191420E+03  0.16044565408E+03  0.00000000000E+00 0.  1.
         11    1    1    2    0    0 -0.53713717573E+00  0.40551019096E+00 -0.26123765479E+02  0.26132433443E+02  0.00000000000E+00 0.  1.
        -15    1    1    2    0    0  0.31267525855E+00 -0.31065494979E+01  0.21921201399E+02  0.22213626795E+02  0.17770000000E+01 0.  1.
         15    1    1    2    0    0 -0.11173527848E+01 -0.12285034442E+01 -0.15618935012E+03  0.15620828569E+03  0.17770000000E+01 0.  1.
</event>
<event>
 6    1  0.1196607E-002  0.1873428E+03  0.7546771E-02  0.1064664E+00
        -11   -1    0    0    0    0  0.00000000000E+00  0.00000000000E+00  0.18250000000E+03  0.18250000000E+03  0.00000000000E+00 0.  1.
         11   -1    0    0    0    0 -0.00000000000E+00 -0.00000000000E+00 -0.18250000000E+03  0.18250000000E+03  0.00000000000E+00 0.  1.
        -11    1    1    2    0    0  0.66875937539E+00 -0.59246644970E+00  0.59715220666E+02  0.59721904146E+02  0.00000000000E+00 0.  1.
         11    1    1    2    0    0 -0.28946303463E+01  0.22215458289E+01 -0.17761971017E+03  0.17765718559E+03  0.00000000000E+00 0.  1.
        -15    1    1    2    0    0 -0.25643793297E+01  0.48245496693E+01  0.11915654061E+03  0.11929497567E+03  0.17770000000E+01 0.  1.
         15    1    1    2    0    0  0.47902503006E+01 -0.64536290486E+01 -0.12520511048E+01  0.83259345906E+01  0.17770000000E+01 0. -1.
</event>
<event>
 6    1  0.1196607E-002  0.1852249E+03  0.7546771E-02  0.1066306E+00
        -11   -1    0    0    0    0  0.00000000000E+00  0.00000000000E+00  0.18250000000E+03  0.18250000000E+03  0.00000000000E+00 0. -1.
         11   -1    0    0    0    0 -0.00000000000E+00 -0.00000000000E+00 -0.18250000000E+03  0.18250000000E+03  0.00000000000E+00 0.  1.
        -11    1    1    2    0    0  0.34434909138E+01 -0.14817917890E+00  0.16125825604E+03  0.16129508587E+03  0.00000000000E+00 0. -1.
         11    1    1    2    0    0 -0.21802740725E+01  0.24356590354E+01 -0.17974541113E+03  0.17977513413E+03  0.00000000000E+00 0.  1.
        -15    1    1    2    0    0  0.17651247018E+01 -0.25147180140E+01 -0.13392949673E+01  0.37935355426E+01  0.17770000000E+01 0.  1.
         15    1    1    2    0    0 -0.30283415431E+01  0.22723815748E+00  0.19826450061E+02  0.20136244453E+02  0.17770000000E+01 0.  1.
</event>
<event>
 6    1  0.1196607E-002  0.1766473E+03  0.7546771E-02  0.1073211E+00
        -11   -1    0    0    0    0  0.00000000000E+00  0.00000000000E+00  0.18250000000E+03  0.18250000000E+03  0.00000000000E+00 0. -1.
         11   -1    0    0    0    0 -0.00000000000E+00 -0.00000000000E+00 -0.18250000000E+03  0.18250000000E+03  0.00000000000E+00 0.  1.
        -11    1    1    2    0    0 -0.19552368772E+01  0.29591109454E+01  0.17616687113E+03  0.17620257028E+03  0.00000000000E+00 0. -1.
         11    1    1    2    0    0 -0.33656864081E+01  0.51544202625E+00 -0.17711764257E+03  0.17715036787E+03  0.00000000000E+00 0.  1.
        -15    1    1    2    0    0  0.76316768524E-01 -0.24191677310E+01  0.41829124751E+01  0.51490467597E+01  0.17770000000E+01 0.  1.
         15    1    1    2    0    0  0.52446065168E+01 -0.10553852406E+01 -0.32321410352E+01  0.64980150964E+01  0.17770000000E+01 0. -1.
</event>
<event>
 6    1  0.1196607E-002  0.1856832E+03  0.7546771E-02  0.1065949E+00
        -11   -1    0    0    0    0  0.00000000000E+00  0.00000000000E+00  0.18250000000E+03  0.18250000000E+03  0.00000000000E+00 0. -1.
         11   -1    0    0    0    0 -0.00000000000E+00 -0.00000000000E+00 -0.18250000000E+03  0.18250000000E+03  0.00000000000E+00 0.  1.
        -11    1    1    2    0    0  0.49338677010E+01 -0.14436948586E+02  0.17866658190E+03  0.17931680351E+03  0.00000000000E+00 0. -1.
         11    1    1    2    0    0  0.28854480293E+01 -0.75396084244E+00 -0.12402430043E+03  0.12406015220E+03  0.00000000000E+00 0.  1.
        -15    1    1    2    0    0 -0.41086951737E+01  0.10982119215E+02 -0.73209075752E+01  0.13937063364E+02  0.17770000000E+01 0. -1.
         15    1    1    2    0    0 -0.37106205565E+01  0.42087902133E+01 -0.47321373893E+02  0.47685980918E+02  0.17770000000E+01 0.  1.
</event>
<event>
 6    1  0.1196607E-002  0.1987920E+03  0.7546771E-02  0.1056179E+00
        -11   -1    0    0    0    0  0.00000000000E+00  0.00000000000E+00  0.18250000000E+03  0.18250000000E+03  0.00000000000E+00 0.  1.
         11   -1    0    0    0    0 -0.00000000000E+00 -0.00000000000E+00 -0.18250000000E+03  0.18250000000E+03  0.00000000000E+00 0.  1.
        -11    1    1    2    0    0  0.10800078720E+01  0.68977096637E+01  0.14805840624E+03  0.14822292830E+03  0.00000000000E+00 0.  1.
         11    1    1    2    0    0  0.77596389009E+01 -0.60691912917E+00 -0.16602564268E+03  0.16620798529E+03  0.00000000000E+00 0.  1.
        -15    1    1    2    0    0  0.32595055853E+01 -0.12779668105E+02  0.29620997391E+02  0.32473150586E+02  0.17770000000E+01 0.  1.
         15    1    1    2    0    0 -0.12099152358E+02  0.64888775709E+01 -0.11653760956E+02  0.18095935824E+02  0.17770000000E+01 0. -1.
</event>
<event>
 6    1  0.1196607E-002  0.1898954E+03  0.7546771E-02  0.1062716E+00
        -11   -1    0    0    0    0  0.00000000000E+00  0.00000000000E+00  0.18250000000E+03  0.18250000000E+03  0.00000000000E+00 0.  1.
         11   -1    0    0    0    0 -0.00000000000E+00 -0.00000000000E+00 -0.18250000000E+03  0.18250000000E+03  0.00000000000E+00 0.  1.
        -11    1    1    2    0    0 -0.59070310543E+01 -0.18876319376E+01  0.13150233318E+03  0.13164847057E+03  0.00000000000E+00 0.  1.
         11    1    1    2    0    0  0.43306856616E+01 -0.46938442143E+01 -0.17498813182E+03  0.17510463526E+03  0.00000000000E+00 0.  1.
        -15    1    1    2    0    0 -0.14954098984E+02 -0.74762224449E+01  0.21645477207E+02  0.27408089882E+02  0.17770000000E+01 0. -1.
         15    1    1    2    0    0  0.16530444376E+02  0.14057698597E+02  0.21840321426E+02  0.30838804291E+02  0.17770000000E+01 0.  1.
</event>
<event>
 6    1  0.1196607E-002  0.1914279E+03  0.7546771E-02  0.1061562E+00
        -11   -1    0    0    0    0  0.00000000000E+00  0.00000000000E+00  0.18250000000E+03  0.18250000000E+03  0.00000000000E+00 0.  1.
         11   -1    0    0    0    0 -0.00000000000E+00 -0.00000000000E+00 -0.18250000000E+03  0.18250000000E+03  0.00000000000E+00 0.  1.
        -11    1    1    2    0    0  0.24000960187E+01 -0.19884110202E+00  0.17355540750E+03  0.17357211605E+03  0.00000000000E+00 0.  1.
         11    1    1    2    0    0 -0.12984820107E+02 -0.25114664002E+01 -0.16547049905E+03  0.16599818997E+03  0.00000000000E+00 0.  1.
        -15    1    1    2    0    0  0.18544288890E+01 -0.31128462056E+01  0.63325019750E+01  0.75091296611E+01  0.17770000000E+01 0.  1.
         15    1    1    2    0    0  0.87302951992E+01  0.58231537078E+01 -0.14417410419E+02  0.17920564321E+02  0.17770000000E+01 0. -1.
</event>
<event>
 6    1  0.1196607E-002  0.1827316E+03  0.7546771E-02  0.1068271E+00
        -11   -1    0    0    0    0  0.00000000000E+00  0.00000000000E+00  0.18250000000E+03  0.18250000000E+03  0.00000000000E+00 0.  1.
         11   -1    0    0    0    0 -0.00000000000E+00 -0.00000000000E+00 -0.18250000000E+03  0.18250000000E+03  0.00000000000E+00 0.  1.
        -11    1    1    2    0    0 -0.27740414968E+01 -0.26355850781E+01  0.18222825145E+03  0.18226842086E+03  0.00000000000E+00 0.  1.
         11    1    1    2    0    0 -0.23650618283E+01  0.11496352781E+01 -0.62117065394E+02  0.62172702948E+02  0.00000000000E+00 0.  1.
        -15    1    1    2    0    0  0.33914991697E+01  0.13513197409E+01 -0.19572771697E+02  0.19989483549E+02  0.17770000000E+01 0. -1.
         15    1    1    2    0    0  0.17476041553E+01  0.13463005910E+00 -0.10053841436E+03  0.10056939264E+03  0.17770000000E+01 0.  1.
</event>
<event>
 6    1  0.1196607E-002  0.1953747E+03  0.7546771E-02  0.1058645E+00
        -11   -1    0    0    0    0  0.00000000000E+00  0.00000000000E+00  0.18250000000E+03  0.18250000000E+03  0.00000000000E+00 0. -1.
         11   -1    0    0    0    0 -0.00000000000E+00 -0.00000000000E+00 -0.18250000000E+03  0.18250000000E+03  0.00000000000E+00 0. -1.
        -11    1    1    2    0    0 -0.84852042619E+00 -0.47221208630E+01  0.16955745710E+03  0.16962532143E+03  0.00000000000E+00 0. -1.
         11    1    1    2    0    0  0.69917370683E+01  0.19255142067E+02 -0.14925014354E+03  0.15064942824E+03  0.00000000000E+00 0. -1.
        -15    1    1    2    0    0 -0.12872273756E+02 -0.17408846387E+02 -0.26997369394E+02  0.34652258907E+02  0.17770000000E+01 0. -1.
         15    1    1    2    0    0  0.67290571141E+01  0.28758251830E+01  0.66900558312E+01  0.10072991420E+02  0.17770000000E+01 0.  1.
</event>
<event>
 6    1  0.1667188E-002  0.1837998E+03  0.7546771E-02  0.1067425E+00
        -11   -1    0    0    0    0  0.00000000000E+00  0.00000000000E+00  0.18250000000E+03  0.18250000000E+03  0.00000000000E+00 0. -1.
         11   -1    0    0    0    0 -0.00000000000E+00 -0.00000000000E+00 -0.18250000000E+03  0.18250000000E+03  0.00000000000E+00 0.  1.
        -11    1    1    2    0    0 -0.58747042363E+01 -0.10314100571E+01  0.18110203608E+03  0.18120023021E+03  0.00000000000E+00 0. -1.
         11    1    1    2    0    0  0.42881605904E+00  0.11648609336E+01 -0.64797110407E+02  0.64808998613E+02  0.00000000000E+00 0.  1.
        -15    1    1    2    0    0  0.47205361025E+01  0.19320690001E+01 -0.41785153872E+01  0.68289143762E+01  0.17770000000E+01 0. -1.
         15    1    1    2    0    0  0.72535207470E+00 -0.20655198765E+01 -0.11212641029E+03  0.11216185680E+03  0.17770000000E+01 0.  1.
</event>
<event>
 6    1  0.1196607E-002  0.1831763E+03  0.7546771E-02  0.1067918E+00
        -11   -1    0    0    0    0  0.00000000000E+00  0.00000000000E+00  0.18250000000E+03  0.18250000000E+03  0.00000000000E+00 0.  1.
         11   -1    0    0    0    0 -0.00000000000E+00 -0.00000000000E+00 -0.18250000000E+03  0.18250000000E+03  0.00000000000E+00 0.  1.
        -11    1    1    2    0    0  0.14518596694E+01 -0.28100154571E+01  0.18179614119E+03  0.18182365367E+03  0.00000000000E+00 0.  1.
         11    1    1    2    0    0  0.13388604987E+01 -0.27691176315E+01 -0.14737395739E+03  0.14740605102E+03  0.00000000000E+00 0.  1.
        -15    1    1    2    0    0  0.66191512771E+00  0.71646584285E+00 -0.23656967448E+01  0.31153980530E+01  0.17770000000E+01 0. -1.
         15    1    1    2    0    0 -0.34526352958E+01  0.48626672457E+01 -0.32056487058E+02  0.32654897255E+02  0.17770000000E+01 0.  1.
</event>
<event>
 6    1  0.1196607E-002  0.1853039E+03  0.7546771E-02  0.1066245E+00
        -11   -1    0    0    0    0  0.00000000000E+00  0.00000000000E+00  0.18250000000E+03  0.18250000000E+03  0.00000000000E+00 0.  1.
         11   -1    0    0    0    0 -0.00000000000E+00 -0.00000000000E+00 -0.18250000000E+03  0.18250000000E+03  0.00000000000E+00 0.  1.
        -11    1    1    2    0    0 -0.24800007929E+01  0.81788302293E+00  0.16755095471E+03  0.16757130352E+03  0.00000000000E+00 0.  1.
         11    1    1    2    0    0 -0.30631343410E+01 -0.15622454072E+01 -0.17966315871E+03  0.17969606006E+03  0.00000000000E+00 0.  1.
        -15    1    1    2    0    0  0.36248683223E+01  0.13247903486E+01  0.13885048556E+02  0.14520573068E+02  0.17770000000E+01 0. -1.
         15    1    1    2    0    0  0.19182668116E+01 -0.58042796434E+00 -0.17728445588E+01  0.32120633574E+01  0.17770000000E+01 0.  1.
</event>
<event>
 6    1  0.1196607E-002  0.1828009E+03  0.7546771E-02  0.1068216E+00
        -11   -1    0    0    0    0  0.00000000000E+00  0.00000000000E+00  0.18250000000E+03  0.18250000000E+03  0.00000000000E+00 0.  1.
         11   -1    0    0    0    0 -0.00000000000E+00 -0.00000000000E+00 -0.18250000000E+03  0.18250000000E+03  0.00000000000E+00 0.  1.
        -11    1    1    2    0    0  0.11358460355E+01 -0.23107644809E+01  0.13703536385E+03  0.13705955174E+03  0.00000000000E+00 0.  1.
         11    1    1    2    0    0  0.19453985142E+01  0.30025283300E+01 -0.18216394142E+03  0.18219907054E+03  0.00000000000E+00 0.  1.
        -15    1    1    2    0    0 -0.14256934068E+01 -0.88486404652E+00  0.52781618621E+01  0.58165546257E+01  0.17770000000E+01 0.  1.
         15    1    1    2    0    0 -0.16555511429E+01  0.19310019745E+00  0.39850415711E+02  0.39924823088E+02  0.17770000000E+01 0. -1.
</event>
<event>
 6    1  0.1196607E-002  0.1858334E+03  0.7546771E-02  0.1065832E+00
        -11   -1    0    0    0    0  0.00000000000E+00  0.00000000000E+00  0.18250000000E+03  0.18250000000E+03  0.00000000000E+00 0. -1.
         11   -1    0    0    0    0 -0.00000000000E+00 -0.00000000000E+00 -0.18250000000E+03  0.18250000000E+03  0.00000000000E+00 0. -1.
        -11    1    1    2    0    0 -0.26530480556E+00  0.30316880806E+01  0.17914074755E+03  0.17916659553E+03  0.00000000000E+00 0. -1.
         11    1    1    2    0    0 -0.16088699292E+00 -0.44335969736E+01 -0.17283506579E+03  0.17289199702E+03  0.00000000000E+00 0. -1.
        -15    1    1    2    0    0  0.14580527729E+00 -0.12151422234E+01  0.26628051637E+01  0.34272569413E+01  0.17770000000E+01 0.  1.
         15    1    1    2    0    0  0.28038652120E+00  0.26170511164E+01 -0.89684869250E+01  0.95141505070E+01  0.17770000000E+01 0. -1.
</event>
<event>
 6    1  0.1196607E-002  0.1858546E+03  0.7546771E-02  0.1065815E+00
        -11   -1    0    0    0    0  0.00000000000E+00  0.00000000000E+00  0.18250000000E+03  0.18250000000E+03  0.00000000000E+00 0. -1.
         11   -1    0    0    0    0 -0.00000000000E+00 -0.00000000000E+00 -0.18250000000E+03  0.18250000000E+03  0.00000000000E+00 0. -1.
        -11    1    1    2    0    0 -0.92065640019E+01  0.45094500753E+01  0.14303426210E+03  0.14340117188E+03  0.00000000000E+00 0. -1.
         11    1    1    2    0    0  0.18703884728E+01  0.29660647665E+01 -0.17911107371E+03  0.17914539520E+03  0.00000000000E+00 0. -1.
        -15    1    1    2    0    0  0.84686508916E+01  0.20080745651E+01  0.56844170616E+01  0.10546124298E+02  0.17770000000E+01 0.  1.
         15    1    1    2    0    0 -0.11324753625E+01 -0.94835894069E+01  0.30392394547E+02  0.31907308626E+02  0.17770000000E+01 0. -1.
</event>
<event>
 6    1  0.1196607E-002  0.1873564E+03  0.7546771E-02  0.1064653E+00
        -11   -1    0    0    0    0  0.00000000000E+00  0.00000000000E+00  0.18250000000E+03  0.18250000000E+03  0.00000000000E+00 0.  1.
         11   -1    0    0    0    0 -0.00000000000E+00 -0.00000000000E+00 -0.18250000000E+03  0.18250000000E+03  0.00000000000E+00 0. -1.
        -11    1    1    2    0    0  0.34793768427E+01 -0.54506135647E+00  0.13865641309E+03  0.13870113210E+03  0.00000000000E+00 0.  1.
         11    1    1    2    0    0  0.45928033912E+01  0.10386437980E+01 -0.17758115325E+03  0.17764357183E+03  0.00000000000E+00 0. -1.
        -15    1    1    2    0    0 -0.83970447810E+01 -0.98269412417E+01  0.36617727938E+02  0.38872803649E+02  0.17770000000E+01 0.  1.
         15    1    1    2    0    0  0.32486454708E+00  0.93333588002E+01  0.23070122208E+01  0.97824924153E+01  0.17770000000E+01 0. -1.
</event>
<event>
 6    1  0.1196607E-002  0.1827925E+03  0.7546771E-02  0.1068222E+00
        -11   -1    0    0    0    0  0.00000000000E+00  0.00000000000E+00  0.18250000000E+03  0.18250000000E+03  0.00000000000E+00 0. -1.
         11   -1    0    0    0    0 -0.00000000000E+00 -0.00000000000E+00 -0.18250000000E+03  0.18250000000E+03  0.00000000000E+00 0. -1.
        -11    1    1    2    0    0  0.37297161857E+00 -0.35278696090E+01  0.18217297433E+03  0.18220751233E+03  0.00000000000E+00 0. -1.
         11    1    1    2    0    0  0.13592135963E+01  0.11167967483E+01 -0.65794632549E+02  0.65818146197E+02  0.00000000000E+00 0. -1.
        -15    1    1    2    0    0  0.76468408824E+00  0.31841985100E+01 -0.12392241573E+02  0.12940218009E+02  0.17770000000E+01 0. -1.
         15    1    1    2    0    0 -0.24968693032E+01 -0.77312564928E+00 -0.10398610021E+03  0.10403412347E+03  0.17770000000E+01 0.  1.
</event>
<event>
 6    1  0.1196607E-002  0.1839672E+03  0.7546771E-02  0.1067293E+00
        -11   -1    0    0    0    0  0.00000000000E+00  0.00000000000E+00  0.18250000000E+03  0.18250000000E+03  0.00000000000E+00 0.  1.
         11   -1    0    0    0    0 -0.00000000000E+00 -0.00000000000E+00 -0.18250000000E+03  0.18250000000E+03  0.00000000000E+00 0. -1.
        -11    1    1    2    0    0  0.41986751784E+01  0.43504991190E+01  0.14567848772E+03  0.14580390084E+03  0.00000000000E+00 0.  1.
         11    1    1    2    0    0 -0.35377846778E+01 -0.48327419422E+00 -0.18099760886E+03  0.18103282545E+03  0.00000000000E+00 0. -1.
        -15    1    1    2    0    0 -0.47071639889E+01 -0.72695868789E+01  0.20280807785E+02  0.22124040762E+02  0.17770000000E+01 0. -1.
         15    1    1    2    0    0  0.40462734883E+01  0.34023619541E+01  0.15038313356E+02  0.16039232950E+02  0.17770000000E+01 0.  1.
</event>
<event>
 6    1  0.1196607E-002  0.1833834E+03  0.7546771E-02  0.1067754E+00
        -11   -1    0    0    0    0  0.00000000000E+00  0.00000000000E+00  0.18250000000E+03  0.18250000000E+03  0.00000000000E+00 0.  1.
         11   -1    0    0    0    0 -0.00000000000E+00 -0.00000000000E+00 -0.18250000000E+03  0.18250000000E+03  0.00000000000E+00 0.  1.
        -11    1    1    2    0    0 -0.22446421487E+01 -0.26233681230E+01  0.17122645596E+03  0.17126126153E+03  0.00000000000E+00 0.  1.
         11    1    1    2    0    0  0.28177481892E+01 -0.10606923037E+01 -0.18159161250E+03  0.18161657001E+03  0.00000000000E+00 0.  1.
        -15    1    1    2    0    0  0.10970206605E+01  0.20665859308E+01  0.30096860466E+01  0.42059684780E+01  0.17770000000E+01 0.  1.
         15    1    1    2    0    0 -0.16701267009E+01  0.16174744960E+01  0.73554704939E+01  0.79161999803E+01  0.17770000000E+01 0. -1.
</event>
<event>
 6    1  0.1196607E-002  0.1847302E+03  0.7546771E-02  0.1066693E+00
        -11   -1    0    0    0    0  0.00000000000E+00  0.00000000000E+00  0.18250000000E+03  0.18250000000E+03  0.00000000000E+00 0.  1.
         11   -1    0    0    0    0 -0.00000000000E+00 -0.00000000000E+00 -0.18250000000E+03  0.18250000000E+03  0.00000000000E+00 0. -1.
        -11    1    1    2    0    0 -0.21949224711E+01  0.15792834597E+01  0.18024951829E+03  0.18026979965E+03  0.00000000000E+00 0.  1.
         11    1    1    2    0    0  0.39711042163E+01  0.26784163292E+01 -0.17182886740E+03  0.17189561732E+03  0.00000000000E+00 0. -1.
        -15    1    1    2    0    0 -0.28848703771E+01 -0.24706196546E+01 -0.90816838947E+01  0.10003057029E+02  0.17770000000E+01 0. -1.
         15    1    1    2    0    0  0.11086886319E+01 -0.17870801343E+01  0.66103300268E+00  0.28315260054E+01  0.17770000000E+01 0. -1.
</event>
<event>
 6    1  0.1196607E-002  0.1832668E+03  0.7546771E-02  0.1067846E+00
        -11   -1    0    0    0    0  0.00000000000E+00  0.00000000000E+00  0.18250000000E+03  0.18250000000E+03  0.00000000000E+00 0.  1.
         11   -1    0    0    0    0 -0.00000000000E+00 -0.00000000000E+00 -0.18250000000E+03  0.18250000000E+03  0.00000000000E+00 0. -1.
        -11    1    1    2    0    0 -0.23757536912E+01 -0.18593896929E+01  0.18170817994E+03  0.18173322259E+03  0.00000000000E+00 0.  1.
         11    1    1    2    0    0  0.16997204007E+01 -0.23192539704E+01 -0.16364986426E+03  0.16367512353E+03  0.00000000000E+00 0. -1.
        -15    1    1    2    0    0  0.25052042835E+01  0.26355864321E+01 -0.65154800251E+01  0.76701742680E+01  0.17770000000E+01 0.  1.
         15    1    1    2    0    0 -0.18291709930E+01  0.15430572312E+01 -0.11542835658E+02  0.11921479613E+02  0.17770000000E+01 0.  1.
</event>
<event>
 6    1  0.1196607E-002  0.1829027E+03  0.7546771E-02  0.1068135E+00
        -11   -1    0    0    0    0  0.00000000000E+00  0.00000000000E+00  0.18250000000E+03  0.18250000000E+03  0.00000000000E+00 0. -1.
         11   -1    0    0    0    0 -0.00000000000E+00 -0.00000000000E+00 -0.18250000000E+03  0.18250000000E+03  0.00000000000E+00 0. -1.
        -11    1    1    2    0    0  0.16471117572E+00  0.94628572685E+00  0.16546823494E+02  0.16574678102E+02  0.00000000000E+00 0. -1.
         11    1    1    2    0    0 -0.41603155102E+01  0.19044287078E+01 -0.18203981110E+03  0.18209730338E+03  0.00000000000E+00 0. -1.
        -15    1    1    2    0    0  0.21161307837E+01 -0.57542930163E+01  0.25697718806E+02  0.26478677808E+02  0.17770000000E+01 0.  1.
         15    1    1    2    0    0  0.18794735508E+01  0.29035785817E+01  0.13979526880E+03  0.13984934071E+03  0.17770000000E+01 0. -1.
</event>
<event>
 6    1  0.1196607E-002  0.1898423E+03  0.7546771E-02  0.1062756E+00
        -11   -1    0    0    0    0  0.00000000000E+00  0.00000000000E+00  0.18250000000E+03  0.18250000000E+03  0.00000000000E+00 0. -1.
         11   -1    0    0    0    0 -0.00000000000E+00 -0.00000000000E+00 -0.18250000000E+03  0.18250000000E+03  0.00000000000E+00 0. -1.
        -11    1    1    2    0    0  0.18335062164E+01  0.44301054785E+01  0.17509210096E+03  0.17515773291E+03  0.00000000000E+00 0. -1.
         11    1    1    2    0    0 -0.33498237570E+01 -0.33068344813E+00 -0.16600366879E+03  0.16603779306E+03  0.00000000000E+00 0. -1.
        -15    1    1    2    0    0 -0.29285108628E+01 -0.10681589208E+02 -0.10706151156E+02  0.15506512357E+02  0.17770000000E+01 0. -1.
         15    1    1    2    0    0  0.44448284034E+01  0.65821671777E+01  0.16177189951E+01  0.82979616797E+01  0.17770000000E+01 0.  1.
</event>
<event>
 6    1  0.1196607E-002  0.1827415E+03  0.7546771E-02  0.1068263E+00
        -11   -1    0    0    0    0  0.00000000000E+00  0.00000000000E+00  0.18250000000E+03  0.18250000000E+03  0.00000000000E+00 0.  1.
         11   -1    0    0    0    0 -0.00000000000E+00 -0.00000000000E+00 -0.18250000000E+03  0.18250000000E+03  0.00000000000E+00 0. -1.
        -11    1    1    2    0    0 -0.55762519476E-01  0.36477568474E+01  0.18222202565E+03  0.18225854129E+03  0.00000000000E+00 0.  1.
         11    1    1    2    0    0  0.23497283281E+01 -0.89130168387E+00 -0.13783627752E+03  0.13785918556E+03  0.00000000000E+00 0. -1.
        -15    1    1    2    0    0 -0.26637381625E+01  0.12980785488E+00 -0.24070728709E+02  0.24283122959E+02  0.17770000000E+01 0.  1.
         15    1    1    2    0    0  0.36977235392E+00 -0.28862630184E+01 -0.20315019420E+02  0.20599150197E+02  0.17770000000E+01 0. -1.
</event>
<event>
 6    1  0.1196607E-002  0.1845284E+03  0.7546771E-02  0.1066852E+00
        -11   -1    0    0    0    0  0.00000000000E+00  0.00000000000E+00  0.18250000000E+03  0.18250000000E+03  0.00000000000E+00 0. -1.
         11   -1    0    0    0    0 -0.00000000000E+00 -0.00000000000E+00 -0.18250000000E+03  0.18250000000E+03  0.00000000000E+00 0.  1.
        -11    1    1    2    0    0  0.23014821502E+00  0.30608925177E+01  0.18044547240E+03  0.18047157821E+03  0.00000000000E+00 0. -1.
         11    1    1    2    0    0  0.13039063877E+00 -0.40467288994E+01 -0.16839548398E+03  0.16844415110E+03  0.00000000000E+00 0.  1.
        -15    1    1    2    0    0 -0.11639944730E+01  0.20120246025E+01 -0.13253992009E+02  0.13573104262E+02  0.17770000000E+01 0.  1.
         15    1    1    2    0    0  0.80345561918E+00 -0.10261882208E+01  0.12040035841E+01  0.25111664276E+01  0.17770000000E+01 0.  1.
</event>
<event>
 6    1  0.1196607E-002  0.1833234E+03  0.7546771E-02  0.1067801E+00
        -11   -1    0    0    0    0  0.00000000000E+00  0.00000000000E+00  0.18250000000E+03  0.18250000000E+03  0.00000000000E+00 0. -1.
         11   -1    0    0    0    0 -0.00000000000E+00 -0.00000000000E+00 -0.18250000000E+03  0.18250000000E+03  0.00000000000E+00 0.  1.
        -11    1    1    2    0    0  0.12798915538E+01 -0.10114190691E+01  0.10742342247E+03  0.10743580775E+03  0.00000000000E+00 0. -1.
         11    1    1    2    0    0 -0.29095421623E+01  0.31788265310E+00 -0.18165307134E+03  0.18167664905E+03  0.00000000000E+00 0.  1.
        -15    1    1    2    0    0 -0.53738724752E+00  0.30795375667E+01  0.70688984245E+02  0.70780382588E+02  0.17770000000E+01 0. -1.
         15    1    1    2    0    0  0.21670378561E+01 -0.23860011507E+01  0.35406646184E+01  0.51071606104E+01  0.17770000000E+01 0.  1.
</event>
<event>
 6    1  0.1196607E-002  0.1836207E+03  0.7546771E-02  0.1067566E+00
        -11   -1    0    0    0    0  0.00000000000E+00  0.00000000000E+00  0.18250000000E+03  0.18250000000E+03  0.00000000000E+00 0. -1.
         11   -1    0    0    0    0 -0.00000000000E+00 -0.00000000000E+00 -0.18250000000E+03  0.18250000000E+03  0.00000000000E+00 0. -1.
        -11    1    1    2    0    0  0.84632121536E+00 -0.53304381747E+01  0.15954982102E+03  0.15964108248E+03  0.00000000000E+00 0. -1.
         11    1    1    2    0    0 -0.27452565903E+01  0.11657210700E+01 -0.18135480687E+03  0.18137932990E+03  0.00000000000E+00 0. -1.
        -15    1    1    2    0    0 -0.15423442461E+01  0.43759693009E+01  0.17469361623E+02  0.18162165554E+02  0.17770000000E+01 0. -1.
         15    1    1    2    0    0  0.34412796210E+01 -0.21125219621E+00  0.43356242350E+01  0.58174220602E+01  0.17770000000E+01 0. -1.
</event>
<event>
 6    1  0.1196607E-002  0.1830542E+03  0.7546771E-02  0.1068014E+00
        -11   -1    0    0    0    0  0.00000000000E+00  0.00000000000E+00  0.18250000000E+03  0.18250000000E+03  0.00000000000E+00 0.  1.
         11   -1    0    0    0    0 -0.00000000000E+00 -0.00000000000E+00 -0.18250000000E+03  0.18250000000E+03  0.00000000000E+00 0. -1.
        -11    1    1    2    0    0 -0.24704216563E+01 -0.40361280378E+01  0.18188420837E+03  0.18194575721E+03  0.00000000000E+00 0.  1.
         11    1    1    2    0    0 -0.12814051467E+00  0.10686388197E+01 -0.19120762731E+02  0.19151030686E+02  0.00000000000E+00 0. -1.
        -15    1    1    2    0    0  0.48285780398E+01  0.62230110121E+01 -0.15312517267E+03  0.15333791855E+03  0.17770000000E+01 0. -1.
         15    1    1    2    0    0 -0.22300158688E+01 -0.32555217941E+01 -0.96382729753E+01  0.10565293554E+02  0.17770000000E+01 0. -1.
</event>
<event>
 6    1  0.1196607E-002  0.1850176E+03  0.7546771E-02  0.1066468E+00
        -11   -1    0    0    0    0  0.00000000000E+00  0.00000000000E+00  0.18250000000E+03  0.18250000000E+03  0.00000000000E+00 0.  1.
         11   -1    0    0    0    0 -0.00000000000E+00 -0.00000000000E+00 -0.18250000000E+03  0.18250000000E+03  0.00000000000E+00 0. -1.
        -11    1    1    2    0    0 -0.69910494794E+01  0.41882652373E+01  0.16583503115E+03  0.16603515862E+03  0.00000000000E+00 0.  1.
         11    1    1    2    0    0  0.29155156519E+01  0.25091354895E+01 -0.17994131160E+03  0.17998242029E+03  0.00000000000E+00 0. -1.
        -15    1    1    2    0    0 -0.43044634686E+00 -0.37489889550E+01  0.44955981655E+00  0.41952395964E+01  0.17770000000E+01 0. -1.
         15    1    1    2    0    0  0.45059801743E+01 -0.29484117718E+01  0.13656720631E+02  0.14787181499E+02  0.17770000000E+01 0.  1.
</event>
<event>
 6    1  0.1196607E-002  0.1854994E+03  0.7546771E-02  0.1066092E+00
        -11   -1    0    0    0    0  0.00000000000E+00  0.00000000000E+00  0.18250000000E+03  0.18250000000E+03  0.00000000000E+00 0. -1.
         11   -1    0    0    0    0 -0.00000000000E+00 -0.00000000000E+00 -0.18250000000E+03  0.18250000000E+03  0.00000000000E+00 0. -1.
        -11    1    1    2    0    0 -0.20535792084E+01  0.12651328971E+01  0.16595203002E+03  0.16596955750E+03  0.00000000000E+00 0. -1.
         11    1    1    2    0    0 -0.94039415607E+01  0.39824250808E+00 -0.17925365432E+03  0.17950059972E+03  0.00000000000E+00 0. -1.
        -15    1    1    2    0    0  0.13212960272E+01  0.53280087117E+00  0.67749394167E+01  0.71475333549E+01  0.17770000000E+01 0.  1.
         15    1    1    2    0    0  0.10136224742E+02 -0.21961762763E+01  0.65266848822E+01  0.12382309429E+02  0.17770000000E+01 0. -1.
</event>
<event>
 6    1  0.1196607E-002  0.1829923E+03  0.7546771E-02  0.1068064E+00
        -11   -1    0    0    0    0  0.00000000000E+00  0.00000000000E+00  0.18250000000E+03  0.18250000000E+03  0.00000000000E+00 0. -1.
         11   -1    0    0    0    0 -0.00000000000E+00 -0.00000000000E+00 -0.18250000000E+03  0.18250000000E+03  0.00000000000E+00 0. -1.
        -11    1    1    2    0    0  0.17893179133E+00  0.38691253825E+01  0.16243922656E+03  0.16248539773E+03  0.00000000000E+00 0. -1.
         11    1    1    2    0    0  0.19363661880E+01 -0.55392175125E+01 -0.18191308562E+03  0.18200770084E+03  0.00000000000E+00 0. -1.
        -15    1    1    2    0    0 -0.64607242782E+00  0.56081655114E+00  0.18691924995E+01  0.27172659763E+01  0.17770000000E+01 0. -1.
         15    1    1    2    0    0 -0.14692255515E+01  0.11092755789E+01  0.17604666558E+02  0.17789635456E+02  0.17770000000E+01 0. -1.
</event>
<event>
 6    1  0.1196607E-002  0.1838059E+03  0.7546771E-02  0.1067420E+00
        -11   -1    0    0    0    0  0.00000000000E+00  0.00000000000E+00  0.18250000000E+03  0.18250000000E+03  0.00000000000E+00 0.  1.
         11   -1    0    0    0    0 -0.00000000000E+00 -0.00000000000E+00 -0.18250000000E+03  0.18250000000E+03  0.00000000000E+00 0.  1.
        -11    1    1    2    0    0 -0.79806994428E+00 -0.43757934432E-01  0.30954030935E+02  0.30964348233E+02  0.00000000000E+00 0.  1.
         11    1    1    2    0    0  0.28701234815E+01  0.89629135508E+01 -0.18094953978E+03  0.18119411518E+03  0.00000000000E+00 0.  1.
        -15    1    1    2    0    0 -0.23876567405E+01 -0.56519670269E+01  0.58934689640E+01  0.86911645603E+01  0.17770000000E+01 0. -1.
         15    1    1    2    0    0  0.31560320325E+00 -0.32671885895E+01  0.14410203989E+03  0.14415037202E+03  0.17770000000E+01 0.  1.
</event>
<event>
 6    1  0.1196607E-002  0.1989947E+03  0.7546771E-02  0.1056034E+00
        -11   -1    0    0    0    0  0.00000000000E+00  0.00000000000E+00  0.18250000000E+03  0.18250000000E+03  0.00000000000E+00 0.  1.
         11   -1    0    0    0    0 -0.00000000000E+00 -0.00000000000E+00 -0.18250000000E+03  0.18250000000E+03  0.00000000000E+00 0. -1.
        -11    1    1    2    0    0  0.38301671597E+01 -0.10250810066E+01  0.16595792203E+03  0.16600527961E+03  0.00000000000E+00 0.  1.
         11    1    1    2    0    0 -0.74690785447E+01  0.17601958247E+01 -0.15865797769E+03  0.15884344276E+03  0.00000000000E+00 0. -1.
        -15    1    1    2    0    0  0.19254360598E+02  0.48385820356E+01 -0.11423314209E+02  0.22973726617E+02  0.17770000000E+01 0.  1.
         15    1    1    2    0    0 -0.15615449213E+02 -0.55736968537E+01  0.41233698673E+01  0.17177551013E+02  0.17770000000E+01 0. -1.
</event>
<event>
 6    1  0.1196607E-002  0.1695999E+03  0.7546771E-02  0.1079214E+00
        -11   -1    0    0    0    0  0.00000000000E+00  0.00000000000E+00  0.18250000000E+03  0.18250000000E+03  0.00000000000E+00 0. -1.
         11   -1    0    0    0    0 -0.00000000000E+00 -0.00000000000E+00 -0.18250000000E+03  0.18250000000E+03  0.00000000000E+00 0.  1.
        -11    1    1    2    0    0 -0.16008961800E+01  0.23565287021E+01  0.16988786687E+03  0.16991175182E+03  0.00000000000E+00 0. -1.
         11    1    1    2    0    0 -0.10581773839E+02 -0.54415393437E+01 -0.16910357521E+03  0.16952169017E+03  0.00000000000E+00 0.  1.
        -15    1    1    2    0    0  0.15842849886E+02  0.44691138952E+01 -0.70280437689E+01  0.17986661718E+02  0.17770000000E+01 0.  1.
         15    1    1    2    0    0 -0.36601798674E+01 -0.13841032536E+01  0.62437521110E+01  0.75798962989E+01  0.17770000000E+01 0. -1.
</event>
<event>
 6    1  0.1196607E-002  0.1865566E+03  0.7546771E-02  0.1065271E+00
        -11   -1    0    0    0    0  0.00000000000E+00  0.00000000000E+00  0.18250000000E+03  0.18250000000E+03  0.00000000000E+00 0. -1.
         11   -1    0    0    0    0 -0.00000000000E+00 -0.00000000000E+00 -0.18250000000E+03  0.18250000000E+03  0.00000000000E+00 0. -1.
        -11    1    1    2    0    0 -0.27012696232E+01  0.62661712135E+00  0.17842180858E+03  0.17844335596E+03  0.00000000000E+00 0. -1.
         11    1    1    2    0    0 -0.11085520794E+01 -0.23250761758E+01 -0.15729720771E+03  0.15731829652E+03  0.00000000000E+00 0. -1.
        -15    1    1    2    0    0  0.87454160408E+01 -0.26387856668E+01 -0.28428737040E+01  0.97306295490E+01  0.17770000000E+01 0.  1.
         15    1    1    2    0    0 -0.49355943381E+01  0.43372447213E+01 -0.18281727167E+02  0.19507717971E+02  0.17770000000E+01 0. -1.
</event>
<event>
 6    1  0.1196607E-002  0.1828502E+03  0.7546771E-02  0.1068176E+00
        -11   -1    0    0    0    0  0.00000000000E+00  0.00000000000E+00  0.18250000000E+03  0.18250000000E+03  0.00000000000E+00 0.  1.
         11   -1    0    0    0    0 -0.00000000000E+00 -0.00000000000E+00 -0.18250000000E+03  0.18250000000E+03  0.00000000000E+00 0. -1.
        -11    1    1    2    0    0 -0.98298116293E+00  0.24816228370E+01  0.18213020301E+03  0.18214976133E+03  0.00000000000E+00 0.  1.
         11    1    1    2    0    0 -0.91945407690E+00  0.92195542473E+00 -0.39955937399E+02  0.39977147611E+02  0.00000000000E+00 0. -1.
        -15    1    1    2    0    0  0.14678003528E+01 -0.39732485434E+01 -0.15072294452E+02  0.15756678930E+02  0.17770000000E+01 0.  1.
         15    1    1    2    0    0  0.43463488699E+00  0.56967028169E+00 -0.12710197116E+03  0.12711641213E+03  0.17770000000E+01 0. -1.
</event>
<event>
 6    1  0.1196607E-002  0.1850682E+03  0.7546771E-02  0.1066429E+00
        -11   -1    0    0    0    0  0.00000000000E+00  0.00000000000E+00  0.18250000000E+03  0.18250000000E+03  0.00000000000E+00 0.  1.
         11   -1    0    0    0    0 -0.00000000000E+00 -0.00000000000E+00 -0.18250000000E+03  0.18250000000E+03  0.00000000000E+00 0.  1.
        -11    1    1    2    0    0 -0.13042968642E+00  0.30467594358E+01  0.17990599252E+03  0.17993183681E+03  0.00000000000E+00 0.  1.
         11    1    1    2    0    0 -0.53895861232E+01  0.21660027353E+01 -0.16985392042E+03  0.16995320971E+03  0.00000000000E+00 0.  1.
        -15    1    1    2    0    0  0.17624994455E+01 -0.21178372235E+01  0.54031127515E+00  0.33228457796E+01  0.17770000000E+01 0.  1.
         15    1    1    2    0    0  0.37575163641E+01 -0.30949249475E+01 -0.10592383369E+02  0.11792107703E+02  0.17770000000E+01 0. -1.
</event>
<event>
 6    1  0.1196607E-002  0.1843124E+03  0.7546771E-02  0.1067021E+00
        -11   -1    0    0    0    0  0.00000000000E+00  0.00000000000E+00  0.18250000000E+03  0.18250000000E+03  0.00000000000E+00 0. -1.
         11   -1    0    0    0    0 -0.00000000000E+00 -0.00000000000E+00 -0.18250000000E+03  0.18250000000E+03  0.00000000000E+00 0. -1.
        -11    1    1    2    0    0 -0.10599304293E+02  0.56299637664E-01  0.13588887771E+03  0.13630163427E+03  0.00000000000E+00 0. -1.
         11    1    1    2    0    0 -0.58514955938E-01  0.33808880573E+01 -0.18065599674E+03  0.18068763928E+03  0.00000000000E+00 0. -1.
        -15    1    1    2    0    0  0.10687917153E+02 -0.12009247786E+01  0.43570936809E+02  0.44913896033E+02  0.17770000000E+01 0.  1.
         15    1    1    2    0    0 -0.30097903977E-01 -0.22362629164E+01  0.11961822281E+01  0.30968304180E+01  0.17770000000E+01 0. -1.
</event>
<event>
 6    1  0.1196607E-002  0.1827430E+03  0.7546771E-02  0.1068262E+00
        -11   -1    0    0    0    0  0.00000000000E+00  0.00000000000E+00  0.18250000000E+03  0.18250000000E+03  0.00000000000E+00 0.  1.
         11   -1    0    0    0    0 -0.00000000000E+00 -0.00000000000E+00 -0.18250000000E+03  0.18250000000E+03  0.00000000000E+00 0. -1.
        -11    1    1    2    0    0 -0.61999176446E+01  0.36136487080E+01  0.18211564145E+03  0.18225697324E+03  0.00000000000E+00 0.  1.
         11    1    1    2    0    0  0.35686626294E+01 -0.69765818337E+01 -0.10327803692E+03  0.10357490505E+03  0.00000000000E+00 0. -1.
        -15    1    1    2    0    0  0.19530330537E+01  0.38995587325E+01 -0.39301540404E+02  0.39582694495E+02  0.17770000000E+01 0. -1.
         15    1    1    2    0    0  0.67822196150E+00 -0.53662560675E+00 -0.39536064122E+02  0.39585427209E+02  0.17770000000E+01 0.  1.
</event>
<event>
 6    1  0.1196607E-002  0.1827239E+03  0.7546771E-02  0.1068277E+00
        -11   -1    0    0    0    0  0.00000000000E+00  0.00000000000E+00  0.18250000000E+03  0.18250000000E+03  0.00000000000E+00 0.  1.
         11   -1    0    0    0    0 -0.00000000000E+00 -0.00000000000E+00 -0.18250000000E+03  0.18250000000E+03  0.00000000000E+00 0. -1.
        -11    1    1    2    0    0  0.18219039294E+01 -0.74583545849E+00  0.11418364182E+03  0.11420061149E+03  0.00000000000E+00 0.  1.
         11    1    1    2    0    0 -0.55830008284E+00  0.44822955514E+01 -0.18222007602E+03  0.18227605102E+03  0.00000000000E+00 0. -1.
        -15    1    1    2    0    0  0.13181285561E+01 -0.39410927744E+01  0.27850601501E+02  0.28214950082E+02  0.17770000000E+01 0.  1.
         15    1    1    2    0    0 -0.25817324027E+01  0.20463268152E+00  0.40185832698E+02  0.40308387407E+02  0.17770000000E+01 0. -1.
</event>
<event>
 6    1  0.1196607E-002  0.1885466E+03  0.7546771E-02  0.1063741E+00
        -11   -1    0    0    0    0  0.00000000000E+00  0.00000000000E+00  0.18250000000E+03  0.18250000000E+03  0.00000000000E+00 0. -1.
         11   -1    0    0    0    0 -0.00000000000E+00 -0.00000000000E+00 -0.18250000000E+03  0.18250000000E+03  0.00000000000E+00 0.  1.
        -11    1    1    2    0    0 -0.12550847255E+02 -0.48646329795E+00  0.17600580177E+03  0.17645340085E+03  0.00000000000E+00 0. -1.
         11    1    1    2    0    0 -0.15647571536E+01 -0.18273081586E+01 -0.15681140839E+03  0.15682986107E+03  0.00000000000E+00 0.  1.
        -15    1    1    2    0    0 -0.29451731420E+01  0.34294968914E+01 -0.12249663729E+02  0.13177537108E+02  0.17770000000E+01 0.  1.
         15    1    1    2    0    0  0.17060777551E+02 -0.11157254348E+01 -0.69447296529E+01  0.18539200976E+02  0.17770000000E+01 0. -1.
</event>
<event>
 6    1  0.1196607E-002  0.1832200E+03  0.7546771E-02  0.1067883E+00
        -11   -1    0    0    0    0  0.00000000000E+00  0.00000000000E+00  0.18250000000E+03  0.18250000000E+03  0.00000000000E+00 0.  1.
         11   -1    0    0    0    0 -0.00000000000E+00 -0.00000000000E+00 -0.18250000000E+03  0.18250000000E+03  0.00000000000E+00 0. -1.
        -11    1    1    2    0    0 -0.33915546848E+01  0.52848514234E+01  0.97602166320E+02  0.97803962947E+02  0.00000000000E+00 0.  1.
         11    1    1    2    0    0 -0.49836148971E+01  0.20502993023E+01 -0.18170010142E+03  0.18177999615E+03  0.00000000000E+00 0. -1.
        -15    1    1    2    0    0  0.56006866030E+01 -0.92993617151E+01  0.66628176334E+02  0.67530122385E+02  0.17770000000E+01 0.  1.
         15    1    1    2    0    0  0.27744829788E+01  0.19642109894E+01  0.17469758769E+02  0.17885918513E+02  0.17770000000E+01 0. -1.
</event>
<event>
 6    1  0.1196607E-002  0.1877776E+03  0.7546771E-02  0.1064330E+00
        -11   -1    0    0    0    0  0.00000000000E+00  0.00000000000E+00  0.18250000000E+03  0.18250000000E+03  0.00000000000E+00 0. -1.
         11   -1    0    0    0    0 -0.00000000000E+00 -0.00000000000E+00 -0.18250000000E+03  0.18250000000E+03  0.00000000000E+00 0. -1.
        -11    1    1    2    0    0  0.48659366369E+01 -0.10517346397E+02  0.16461035839E+03  0.16501776269E+03  0.00000000000E+00 0. -1.
         11    1    1    2    0    0 -0.47393662608E+01  0.14122007887E+01 -0.17715333923E+03  0.17722235046E+03  0.00000000000E+00 0. -1.
        -15    1    1    2    0    0  0.16293650646E+01  0.69779875875E+01 -0.21623938150E+01  0.76929069470E+01  0.17770000000E+01 0.  1.
         15    1    1    2    0    0 -0.17559354407E+01  0.21271580212E+01  0.14705374654E+02  0.15066979898E+02  0.17770000000E+01 0. -1.
</event>
<event>
 6    1  0.1196607E-002  0.1831861E+03  0.7546771E-02  0.1067910E+00
        -11   -1    0    0    0    0  0.00000000000E+00  0.00000000000E+00  0.18250000000E+03  0.18250000000E+03  0.00000000000E+00 0.  1.
         11   -1    0    0    0    0 -0.00000000000E+00 -0.00000000000E+00 -0.18250000000E+03  0.18250000000E+03  0.00000000000E+00 0.  1.
        -11    1    1    2    0    0  0.44879658195E+00 -0.30399030870E+01  0.12069439083E+03  0.12073350159E+03  0.00000000000E+00 0.  1.
         11    1    1    2    0    0 -0.55288809429E+01 -0.10242155097E+01 -0.18172696419E+03  0.18181393526E+03  0.00000000000E+00 0.  1.
        -15    1    1    2    0    0  0.23396612842E+01 -0.11383585874E+01  0.47345779802E+02  0.47450505469E+02  0.17770000000E+01 0. -1.
         15    1    1    2    0    0  0.27404230767E+01  0.52024771841E+01  0.13686793564E+02  0.15002057677E+02  0.17770000000E+01 0.  1.
</event>
<event>
 6    1  0.1196607E-002  0.1789254E+03  0.7546771E-02  0.1071336E+00
        -11   -1    0    0    0    0  0.00000000000E+00  0.00000000000E+00  0.18250000000E+03  0.18250000000E+03  0.00000000000E+00 0. -1.
         11   -1    0    0    0    0 -0.00000000000E+00 -0.00000000000E+00 -0.18250000000E+03  0.18250000000E+03  0.00000000000E+00 0.  1.
        -11    1    1    2    0    0  0.22398803617E+01  0.10864839548E+01  0.17764938748E+03  0.17766682972E+03  0.00000000000E+00 0. -1.
         11    1    1    2    0    0  0.22286282308E+01  0.12350965406E+01 -0.18021050989E+03  0.18022852195E+03  0.00000000000E+00 0.  1.
        -15    1    1    2    0    0 -0.38557793515E+01 -0.12846878913E+01  0.21059943613E+01  0.49102340714E+01  0.17770000000E+01 0.  1.
         15    1    1    2    0    0 -0.61272924090E+00 -0.10368926040E+01  0.45512805262E+00  0.21944142588E+01  0.17770000000E+01 0. -1.
</event>
<event>
 6    1  0.1196607E-002  0.1839194E+03  0.7546771E-02  0.1067331E+00
        -11   -1    0    0    0    0  0.00000000000E+00  0.00000000000E+00  0.18250000000E+03  0.18250000000E+03  0.00000000000E+00 0.  1.
         11   -1    0    0    0    0 -0.00000000000E+00 -0.00000000000E+00 -0.18250000000E+03  0.18250000000E+03  0.00000000000E+00 0.  1.
        -11    1    1    2    0    0  0.30824776740E+01 -0.40441921117E+00  0.18105391354E+03  0.18108060313E+03  0.00000000000E+00 0.  1.
         11    1    1    2    0    0 -0.42916855004E+00  0.31688557519E+01 -0.16294510929E+03  0.16297648442E+03  0.00000000000E+00 0.  1.
        -15    1    1    2    0    0  0.27618716405E+01 -0.12015858991E+01 -0.11761510797E+02  0.12270395627E+02  0.17770000000E+01 0.  1.
         15    1    1    2    0    0 -0.54151807645E+01 -0.15628506416E+01 -0.63472934520E+01  0.86725168208E+01  0.17770000000E+01 0.  1.
</event>
<event>
 6    1  0.1196607E-002  0.1838743E+03  0.7546771E-02  0.1067366E+00
        -11   -1    0    0    0    0  0.00000000000E+00  0.00000000000E+00  0.18250000000E+03  0.18250000000E+03  0.00000000000E+00 0. -1.
         11   -1    0    0    0    0 -0.00000000000E+00 -0.00000000000E+00 -0.18250000000E+03  0.18250000000E+03  0.00000000000E+00 0.  1.
        -11    1    1    2    0    0  0.23100467476E+01 -0.28759476229E+00  0.16077744344E+03  0.16079429513E+03  0.00000000000E+00 0. -1.
         11    1    1    2    0    0  0.14604011766E+00  0.42937606610E+01 -0.18107473912E+03  0.18112569905E+03  0.00000000000E+00 0.  1.
        -15    1    1    2    0    0 -0.27259236891E+01  0.23491621885E+00  0.17252842121E+02  0.17558591511E+02  0.17770000000E+01 0. -1.
         15    1    1    2    0    0  0.26983682383E+00 -0.42410821175E+01  0.30444535585E+01  0.55214143033E+01  0.17770000000E+01 0. -1.
</event>
<event>
 6    1  0.1196607E-002  0.1835045E+03  0.7546771E-02  0.1067658E+00
        -11   -1    0    0    0    0  0.00000000000E+00  0.00000000000E+00  0.18250000000E+03  0.18250000000E+03  0.00000000000E+00 0.  1.
         11   -1    0    0    0    0 -0.00000000000E+00 -0.00000000000E+00 -0.18250000000E+03  0.18250000000E+03  0.00000000000E+00 0. -1.
        -11    1    1    2    0    0 -0.29145643224E+01  0.35995169024E+01  0.18143641707E+03  0.18149552238E+03  0.00000000000E+00 0.  1.
         11    1    1    2    0    0 -0.30381996990E+01 -0.86691888795E+00 -0.16319043642E+03  0.16322101809E+03  0.00000000000E+00 0. -1.
        -15    1    1    2    0    0  0.54473219139E+01 -0.36497837358E+01 -0.13733182166E+02  0.15321627157E+02  0.17770000000E+01 0.  1.
         15    1    1    2    0    0  0.50544210748E+00  0.91718572132E+00 -0.45127984778E+01  0.49618323704E+01  0.17770000000E+01 0.  1.
</event>
<event>
 6    1  0.1196607E-002  0.1829698E+03  0.7546771E-02  0.1068081E+00
        -11   -1    0    0    0    0  0.00000000000E+00  0.00000000000E+00  0.18250000000E+03  0.18250000000E+03  0.00000000000E+00 0.  1.
         11   -1    0    0    0    0 -0.00000000000E+00 -0.00000000000E+00 -0.18250000000E+03  0.18250000000E+03  0.00000000000E+00 0.  1.
        -11    1    1    2    0    0  0.33382955888E+01 -0.19402778398E+01  0.18198923880E+03  0.18203019512E+03  0.00000000000E+00 0.  1.
         11    1    1    2    0    0 -0.19296100735E+01  0.14742209678E+01 -0.15841413575E+03  0.15843274639E+03  0.00000000000E+00 0.  1.
        -15    1    1    2    0    0  0.19675073530E+01 -0.27993397440E+00 -0.12987828477E+02  0.13258614775E+02  0.17770000000E+01 0.  1.
         15    1    1    2    0    0 -0.33761928683E+01  0.74599084640E+00 -0.10587274573E+02  0.11278443710E+02  0.17770000000E+01 0.  1.
</event>
<event>
 6    1  0.1196607E-002  0.1934244E+03  0.7546771E-02  0.1060077E+00
        -11   -1    0    0    0    0  0.00000000000E+00  0.00000000000E+00  0.18250000000E+03  0.18250000000E+03  0.00000000000E+00 0.  1.
         11   -1    0    0    0    0 -0.00000000000E+00 -0.00000000000E+00 -0.18250000000E+03  0.18250000000E+03  0.00000000000E+00 0.  1.
        -11    1    1    2    0    0  0.12625724350E+01  0.31469514516E+01  0.16103270017E+03  0.16106839516E+03  0.00000000000E+00 0.  1.
         11    1    1    2    0    0  0.70158541693E+00 -0.42964525959E+01 -0.17152040706E+03  0.17157564444E+03  0.00000000000E+00 0.  1.
        -15    1    1    2    0    0 -0.11904140343E+01 -0.49885164800E+01 -0.97282708327E+01  0.11139989436E+02  0.17770000000E+01 0. -1.
         15    1    1    2    0    0 -0.77374381771E+00  0.61380176244E+01  0.20215977720E+02  0.21215970966E+02  0.17770000000E+01 0.  1.
</event>
<event>
 6    1  0.1196607E-002  0.1839531E+03  0.7546771E-02  0.1067304E+00
        -11   -1    0    0    0    0  0.00000000000E+00  0.00000000000E+00  0.18250000000E+03  0.18250000000E+03  0.00000000000E+00 0.  1.
         11   -1    0    0    0    0 -0.00000000000E+00 -0.00000000000E+00 -0.18250000000E+03  0.18250000000E+03  0.00000000000E+00 0. -1.
        -11    1    1    2    0    0  0.22396248224E+01  0.14991948012E+01  0.12189652998E+03  0.12192632007E+03  0.00000000000E+00 0.  1.
         11    1    1    2    0    0  0.64596956558E+01 -0.51302463106E+00 -0.18093090109E+03  0.18104690506E+03  0.00000000000E+00 0. -1.
        -15    1    1    2    0    0 -0.35695018889E+01  0.37620430333E+01  0.50739640500E+02  0.51034920972E+02  0.17770000000E+01 0. -1.
         15    1    1    2    0    0 -0.51298185892E+01 -0.47482132034E+01  0.82947306117E+01  0.10991853907E+02  0.17770000000E+01 0.  1.
</event>
<event>
 6    1  0.1196607E-002  0.1848034E+03  0.7546771E-02  0.1066636E+00
        -11   -1    0    0    0    0  0.00000000000E+00  0.00000000000E+00  0.18250000000E+03  0.18250000000E+03  0.00000000000E+00 0. -1.
         11   -1    0    0    0    0 -0.00000000000E+00 -0.00000000000E+00 -0.18250000000E+03  0.18250000000E+03  0.00000000000E+00 0. -1.
        -11    1    1    2    0    0  0.20357413816E+01  0.16733961324E+01  0.18017737211E+03  0.18019664236E+03  0.00000000000E+00 0. -1.
         11    1    1    2    0    0  0.18712453782E+01 -0.43873951459E+01 -0.17626541090E+03  0.17632993471E+03  0.00000000000E+00 0. -1.
        -15    1    1    2    0    0 -0.39908330158E+01  0.91545285632E+00 -0.92347898891E+00  0.45579978647E+01  0.17770000000E+01 0. -1.
         15    1    1    2    0    0  0.83846255990E-01  0.17985461572E+01 -0.29884822189E+01  0.39154250659E+01  0.17770000000E+01 0.  1.
</event>
<event>
 6    1  0.1196607E-002  0.1833057E+03  0.7546771E-02  0.1067815E+00
        -11   -1    0    0    0    0  0.00000000000E+00  0.00000000000E+00  0.18250000000E+03  0.18250000000E+03  0.00000000000E+00 0.  1.
         11   -1    0    0    0    0 -0.00000000000E+00 -0.00000000000E+00 -0.18250000000E+03  0.18250000000E+03  0.00000000000E+00 0.  1.
        -11    1    1    2    0    0 -0.21829634480E+01 -0.15310851477E+01  0.18167473227E+03  0.18169429792E+03  0.00000000000E+00 0.  1.
         11    1    1    2    0    0 -0.10209305935E+01  0.20089209093E+01 -0.14497655397E+03  0.14499406630E+03  0.00000000000E+00 0.  1.
        -15    1    1    2    0    0  0.34871172969E+01  0.10973117850E-01 -0.41291102367E+01  0.56892343772E+01  0.17770000000E+01 0.  1.
         15    1    1    2    0    0 -0.28322325537E+00 -0.48880887939E+00 -0.32569068067E+02  0.32622401403E+02  0.17770000000E+01 0. -1.
</event>
<event>
 6    1  0.1196607E-002  0.1849207E+03  0.7546771E-02  0.1066544E+00
        -11   -1    0    0    0    0  0.00000000000E+00  0.00000000000E+00  0.18250000000E+03  0.18250000000E+03  0.00000000000E+00 0.  1.
         11   -1    0    0    0    0 -0.00000000000E+00 -0.00000000000E+00 -0.18250000000E+03  0.18250000000E+03  0.00000000000E+00 0. -1.
        -11    1    1    2    0    0 -0.44930865196E+01 -0.91533588989E+00  0.16976984468E+03  0.16983175742E+03  0.00000000000E+00 0.  1.
         11    1    1    2    0    0 -0.31862023651E+01  0.38525435302E+00 -0.18005074180E+03  0.18007934343E+03  0.00000000000E+00 0. -1.
        -15    1    1    2    0    0  0.52325898258E+01  0.53354594426E+00  0.10681912752E+02  0.12038507241E+02  0.17770000000E+01 0.  1.
         15    1    1    2    0    0  0.24466990588E+01 -0.34644073820E-02 -0.40101562699E+00  0.30503919125E+01  0.17770000000E+01 0.  1.
</event>
<event>
 6    1  0.1196607E-002  0.1905160E+03  0.7546771E-02  0.1062247E+00
        -11   -1    0    0    0    0  0.00000000000E+00  0.00000000000E+00  0.18250000000E+03  0.18250000000E+03  0.00000000000E+00 0.  1.
         11   -1    0    0    0    0 -0.00000000000E+00 -0.00000000000E+00 -0.18250000000E+03  0.18250000000E+03  0.00000000000E+00 0. -1.
        -11    1    1    2    0    0 -0.40478032785E+01 -0.33118995644E+01  0.17440557673E+03  0.17448397802E+03  0.00000000000E+00 0.  1.
         11    1    1    2    0    0  0.50319437035E+01 -0.14246567948E+02 -0.16162388544E+03  0.16232857266E+03  0.00000000000E+00 0. -1.
        -15    1    1    2    0    0 -0.47054452237E+01  0.16973372956E+02 -0.15232917818E+02  0.23354573824E+02  0.17770000000E+01 0.  1.
         15    1    1    2    0    0  0.37213047987E+01  0.58509455697E+00  0.24512265280E+01  0.48328754937E+01  0.17770000000E+01 0. -1.
</event>
<event>
 6    1  0.1196607E-002  0.1907508E+03  0.7546771E-02  0.1062070E+00
        -11   -1    0    0    0    0  0.00000000000E+00  0.00000000000E+00  0.18250000000E+03  0.18250000000E+03  0.00000000000E+00 0.  1.
         11   -1    0    0    0    0 -0.00000000000E+00 -0.00000000000E+00 -0.18250000000E+03  0.18250000000E+03  0.00000000000E+00 0. -1.
        -11    1    1    2    0    0  0.12639411545E+02 -0.16710381825E+02  0.17298492480E+03  0.17424917731E+03  0.00000000000E+00 0.  1.
         11    1    1    2    0    0  0.71657477162E+01 -0.52329618136E+01 -0.12132826365E+03  0.12165228888E+03  0.00000000000E+00 0. -1.
        -15    1    1    2    0    0 -0.13904357294E+02  0.25985217019E+02 -0.53846891774E+02  0.61410163149E+02  0.17770000000E+01 0.  1.
         15    1    1    2    0    0 -0.59008019667E+01 -0.40418733809E+01  0.21902306186E+01  0.76883706622E+01  0.17770000000E+01 0. -1.
</event>
<event>
 6    1  0.1196607E-002  0.1831731E+03  0.7546771E-02  0.1067920E+00
        -11   -1    0    0    0    0  0.00000000000E+00  0.00000000000E+00  0.18250000000E+03  0.18250000000E+03  0.00000000000E+00 0.  1.
         11   -1    0    0    0    0 -0.00000000000E+00 -0.00000000000E+00 -0.18250000000E+03  0.18250000000E+03  0.00000000000E+00 0. -1.
        -11    1    1    2    0    0 -0.50560211211E+01  0.53728485320E+01  0.18167715731E+03  0.18182689663E+03  0.00000000000E+00 0.  1.
         11    1    1    2    0    0  0.20719333946E+01  0.48941452507E+01 -0.12468235202E+03  0.12479557072E+03  0.00000000000E+00 0. -1.
        -15    1    1    2    0    0 -0.13044711027E+01 -0.20798154539E+01 -0.18646159036E+02  0.18890851039E+02  0.17770000000E+01 0. -1.
         15    1    1    2    0    0  0.42885588291E+01 -0.81871783287E+01 -0.38348646257E+02  0.39486681609E+02  0.17770000000E+01 0. -1.
</event>
<event>
 6    1  0.1196607E-002  0.1827319E+03  0.7546771E-02  0.1068270E+00
        -11   -1    0    0    0    0  0.00000000000E+00  0.00000000000E+00  0.18250000000E+03  0.18250000000E+03  0.00000000000E+00 0.  1.
         11   -1    0    0    0    0 -0.00000000000E+00 -0.00000000000E+00 -0.18250000000E+03  0.18250000000E+03  0.00000000000E+00 0. -1.
        -11    1    1    2    0    0 -0.81043207582E+00 -0.19711891491E+01  0.12552921446E+03  0.12554730610E+03  0.00000000000E+00 0.  1.
         11    1    1    2    0    0  0.35612949007E+01  0.11071346605E+01 -0.18222996025E+03  0.18226811839E+03  0.00000000000E+00 0. -1.
        -15    1    1    2    0    0  0.10965189877E+01 -0.60813321118E-01  0.34551025802E+02  0.34614118003E+02  0.17770000000E+01 0.  1.
         15    1    1    2    0    0 -0.38473818126E+01  0.92486780968E+00  0.22149719992E+02  0.22570457505E+02  0.17770000000E+01 0. -1.
</event>
<event>
 6    1  0.1196607E-002  0.1836970E+03  0.7546771E-02  0.1067506E+00
        -11   -1    0    0    0    0  0.00000000000E+00  0.00000000000E+00  0.18250000000E+03  0.18250000000E+03  0.00000000000E+00 0.  1.
         11   -1    0    0    0    0 -0.00000000000E+00 -0.00000000000E+00 -0.18250000000E+03  0.18250000000E+03  0.00000000000E+00 0.  1.
        -11    1    1    2    0    0 -0.78420371427E+00  0.50196544605E+01  0.18123184130E+03  0.18130303971E+03  0.00000000000E+00 0.  1.
         11    1    1    2    0    0  0.29144267422E+01  0.38818344286E+00 -0.15854978998E+03  0.15857704901E+03  0.00000000000E+00 0.  1.
        -15    1    1    2    0    0 -0.52677403603E+01 -0.42389324303E+01 -0.15298879490E+02  0.16820555262E+02  0.17770000000E+01 0. -1.
         15    1    1    2    0    0  0.31375173323E+01 -0.11689054731E+01 -0.73831718281E+01  0.82993560147E+01  0.17770000000E+01 0.  1.
</event>
<event>
 6    1  0.1196607E-002  0.1842663E+03  0.7546771E-02  0.1067057E+00
        -11   -1    0    0    0    0  0.00000000000E+00  0.00000000000E+00  0.18250000000E+03  0.18250000000E+03  0.00000000000E+00 0. -1.
         11   -1    0    0    0    0 -0.00000000000E+00 -0.00000000000E+00 -0.18250000000E+03  0.18250000000E+03  0.00000000000E+00 0. -1.
        -11    1    1    2    0    0  0.24945714824E+01 -0.52195758159E+00  0.17764463009E+03  0.17766291095E+03  0.00000000000E+00 0. -1.
         11    1    1    2    0    0 -0.11150405386E+01  0.30173280240E+01 -0.18070506059E+03  0.18073368946E+03  0.00000000000E+00 0. -1.
        -15    1    1    2    0    0  0.91299875070E+00 -0.55225774992E+00  0.21689173116E+01  0.30000811065E+01  0.17770000000E+01 0.  1.
         15    1    1    2    0    0 -0.22925296945E+01 -0.19431126925E+01  0.89151319083E+00  0.36033184852E+01  0.17770000000E+01 0. -1.
</event>
<event>
 6    1  0.1196607E-002  0.1830395E+03  0.7546771E-02  0.1068026E+00
        -11   -1    0    0    0    0  0.00000000000E+00  0.00000000000E+00  0.18250000000E+03  0.18250000000E+03  0.00000000000E+00 0. -1.
         11   -1    0    0    0    0 -0.00000000000E+00 -0.00000000000E+00 -0.18250000000E+03  0.18250000000E+03  0.00000000000E+00 0. -1.
        -11    1    1    2    0    0 -0.41518358728E+01 -0.57006866841E+01  0.18182381171E+03  0.18196052889E+03  0.00000000000E+00 0. -1.
         11    1    1    2    0    0 -0.41850996551E+00 -0.28518490003E+01 -0.10686153010E+03  0.10690039667E+03  0.00000000000E+00 0. -1.
        -15    1    1    2    0    0  0.11730486807E+01  0.89139123658E+01 -0.59651956288E+02  0.60351864054E+02  0.17770000000E+01 0. -1.
         15    1    1    2    0    0  0.33972971577E+01 -0.36137668135E+00 -0.15310325326E+02  0.15787210382E+02  0.17770000000E+01 0. -1.
</event>
<event>
 6    1  0.1196607E-002  0.1836881E+03  0.7546771E-02  0.1067513E+00
        -11   -1    0    0    0    0  0.00000000000E+00  0.00000000000E+00  0.18250000000E+03  0.18250000000E+03  0.00000000000E+00 0.  1.
         11   -1    0    0    0    0 -0.00000000000E+00 -0.00000000000E+00 -0.18250000000E+03  0.18250000000E+03  0.00000000000E+00 0.  1.
        -11    1    1    2    0    0 -0.42296243202E+01 -0.19047652194E+01  0.16814789449E+03  0.16821186722E+03  0.00000000000E+00 0.  1.
         11    1    1    2    0    0  0.20668833849E+01 -0.14282818324E+01 -0.18129444889E+03  0.18131185619E+03  0.00000000000E+00 0.  1.
        -15    1    1    2    0    0  0.27071010929E+01 -0.87753801652E+00  0.73115699594E+01  0.80445791418E+01  0.17770000000E+01 0.  1.
         15    1    1    2    0    0 -0.54436015757E+00  0.42105850683E+01  0.58349844433E+01  0.74316974543E+01  0.17770000000E+01 0. -1.
</event>
<event>
 6    1  0.1196607E-002  0.1842235E+03  0.7546771E-02  0.1067091E+00
        -11   -1    0    0    0    0  0.00000000000E+00  0.00000000000E+00  0.18250000000E+03  0.18250000000E+03  0.00000000000E+00 0.  1.
         11   -1    0    0    0    0 -0.00000000000E+00 -0.00000000000E+00 -0.18250000000E+03  0.18250000000E+03  0.00000000000E+00 0.  1.
        -11    1    1    2    0    0  0.42533679834E+01 -0.22534181488E+01  0.12564555163E+03  0.12573771780E+03  0.00000000000E+00 0.  1.
         11    1    1    2    0    0 -0.12321670830E+02 -0.12186485543E+00 -0.18035604483E+03  0.18077649551E+03  0.00000000000E+00 0.  1.
        -15    1    1    2    0    0  0.10874483854E+02 -0.37189876619E+01  0.20414808642E+02  0.23494837927E+02  0.17770000000E+01 0.  1.
         15    1    1    2    0    0 -0.28061810079E+01  0.60942706662E+01  0.34295684555E+02  0.34990948757E+02  0.17770000000E+01 0. -1.
</event>
<event>
 6    1  0.1196607E-002  0.1854086E+03  0.7546771E-02  0.1066163E+00
        -11   -1    0    0    0    0  0.00000000000E+00  0.00000000000E+00  0.18250000000E+03  0.18250000000E+03  0.00000000000E+00 0. -1.
         11   -1    0    0    0    0 -0.00000000000E+00 -0.00000000000E+00 -0.18250000000E+03  0.18250000000E+03  0.00000000000E+00 0. -1.
        -11    1    1    2    0    0  0.94351485043E+01  0.21520164724E+01  0.91339728651E+02  0.91850962065E+02  0.00000000000E+00 0. -1.
         11    1    1    2    0    0 -0.33562700309E+01 -0.10308765128E+01 -0.17955712574E+03  0.17959144929E+03  0.00000000000E+00 0. -1.
        -15    1    1    2    0    0 -0.82019000691E+01 -0.24027414175E+01  0.89729142141E+02  0.90152764846E+02  0.17770000000E+01 0.  1.
         15    1    1    2    0    0  0.21230215957E+01  0.12816014579E+01 -0.15117450532E+01  0.34048237985E+01  0.17770000000E+01 0.  1.
</event>
<event>
 6    1  0.1196607E-002  0.1829898E+03  0.7546771E-02  0.1068066E+00
        -11   -1    0    0    0    0  0.00000000000E+00  0.00000000000E+00  0.18250000000E+03  0.18250000000E+03  0.00000000000E+00 0. -1.
         11   -1    0    0    0    0 -0.00000000000E+00 -0.00000000000E+00 -0.18250000000E+03  0.18250000000E+03  0.00000000000E+00 0.  1.
        -11    1    1    2    0    0  0.73970153041E+00 -0.26045749202E+01  0.14907355027E+03  0.14909813667E+03  0.00000000000E+00 0. -1.
         11    1    1    2    0    0 -0.32599155150E+00 -0.38793953102E+01 -0.18196851535E+03  0.18201015509E+03  0.00000000000E+00 0.  1.
        -15    1    1    2    0    0 -0.84016969984E+00  0.84256143334E+00  0.66616811047E+01  0.69965362168E+01  0.17770000000E+01 0. -1.
         15    1    1    2    0    0  0.42645972094E+00  0.56414087970E+01  0.26233283973E+02  0.26895172022E+02  0.17770000000E+01 0.  1.
</event>
<event>
 6    1  0.1196607E-002  0.1853411E+03  0.7546771E-02  0.1066216E+00
        -11   -1    0    0    0    0  0.00000000000E+00  0.00000000000E+00  0.18250000000E+03  0.18250000000E+03  0.00000000000E+00 0.  1.
         11   -1    0    0    0    0 -0.00000000000E+00 -0.00000000000E+00 -0.18250000000E+03  0.18250000000E+03  0.00000000000E+00 0.  1.
        -11    1    1    2    0    0 -0.45289058668E+01 -0.17028121637E+01  0.17959373820E+03  0.17965890281E+03  0.00000000000E+00 0.  1.
         11    1    1    2    0    0  0.60568695519E+01  0.31128932412E+01 -0.14281569783E+03  0.14297796796E+03  0.00000000000E+00 0.  1.
        -15    1    1    2    0    0 -0.42784331319E+01 -0.50559907953E+01 -0.36829314188E+02  0.37462302993E+02  0.17770000000E+01 0.  1.
         15    1    1    2    0    0  0.27504694468E+01  0.36459097179E+01  0.51273821950E-01  0.49008262419E+01  0.17770000000E+01 0. -1.
</event>
<event>
 6    1  0.1196607E-002  0.1894297E+03  0.7546771E-02  0.1063069E+00
        -11   -1    0    0    0    0  0.00000000000E+00  0.00000000000E+00  0.18250000000E+03  0.18250000000E+03  0.00000000000E+00 0.  1.
         11   -1    0    0    0    0 -0.00000000000E+00 -0.00000000000E+00 -0.18250000000E+03  0.18250000000E+03  0.00000000000E+00 0.  1.
        -11    1    1    2    0    0  0.36162011035E+01  0.89470724374E+00  0.16385502840E+03  0.16389736954E+03  0.00000000000E+00 0.  1.
         11    1    1    2    0    0 -0.12134538851E+01 -0.45956397763E+01 -0.17550595103E+03  0.17557030279E+03  0.00000000000E+00 0.  1.
        -15    1    1    2    0    0 -0.29501025551E+01 -0.19770230473E+01  0.17033728210E+02  0.17490493159E+02  0.17770000000E+01 0.  1.
         15    1    1    2    0    0  0.54735533669E+00  0.56779555799E+01 -0.53828055751E+01  0.80418345103E+01  0.17770000000E+01 0.  1.
</event>
<event>
 6    1  0.1196607E-002  0.1876096E+03  0.7546771E-02  0.1064459E+00
        -11   -1    0    0    0    0  0.00000000000E+00  0.00000000000E+00  0.18250000000E+03  0.18250000000E+03  0.00000000000E+00 0. -1.
         11   -1    0    0    0    0 -0.00000000000E+00 -0.00000000000E+00 -0.18250000000E+03  0.18250000000E+03  0.00000000000E+00 0. -1.
        -11    1    1    2    0    0 -0.22666873513E+01 -0.33712608899E+01  0.17734387129E+03  0.17739039420E+03  0.00000000000E+00 0. -1.
         11    1    1    2    0    0  0.78806050869E-01  0.10420932440E+02 -0.17199766093E+03  0.17231307963E+03  0.00000000000E+00 0. -1.
        -15    1    1    2    0    0  0.28865152595E+01  0.21841088693E-01  0.27599676472E+01  0.43712238321E+01  0.17770000000E+01 0. -1.
         15    1    1    2    0    0 -0.69863395902E+00 -0.70715126384E+01 -0.81061780015E+01  0.10925302339E+02  0.17770000000E+01 0.  1.
</event>
<event>
 6    1  0.1196607E-002  0.1847831E+03  0.7546771E-02  0.1066652E+00
        -11   -1    0    0    0    0  0.00000000000E+00  0.00000000000E+00  0.18250000000E+03  0.18250000000E+03  0.00000000000E+00 0.  1.
         11   -1    0    0    0    0 -0.00000000000E+00 -0.00000000000E+00 -0.18250000000E+03  0.18250000000E+03  0.00000000000E+00 0. -1.
        -11    1    1    2    0    0 -0.30100524048E+01  0.53159946247E+00  0.18019095801E+03  0.18021688146E+03  0.00000000000E+00 0.  1.
         11    1    1    2    0    0 -0.48462753829E+01 -0.82206922993E+00 -0.16581430154E+03  0.16588714470E+03  0.00000000000E+00 0. -1.
        -15    1    1    2    0    0  0.24487604434E+01  0.14842842547E+01 -0.12247326051E+02  0.12702529349E+02  0.17770000000E+01 0.  1.
         15    1    1    2    0    0  0.54075673442E+01 -0.11938144873E+01 -0.21293304220E+01  0.61934444906E+01  0.17770000000E+01 0. -1.
</event>
<event>
 6    1  0.1196607E-002  0.1895275E+03  0.7546771E-02  0.1062995E+00
        -11   -1    0    0    0    0  0.00000000000E+00  0.00000000000E+00  0.18250000000E+03  0.18250000000E+03  0.00000000000E+00 0.  1.
         11   -1    0    0    0    0 -0.00000000000E+00 -0.00000000000E+00 -0.18250000000E+03  0.18250000000E+03  0.00000000000E+00 0. -1.
        -11    1    1    2    0    0 -0.52395350440E+01  0.86104293447E+01  0.17518281597E+03  0.17547253697E+03  0.00000000000E+00 0.  1.
         11    1    1    2    0    0 -0.74178585344E+01  0.94888820992E+01 -0.15108267733E+03  0.15156199688E+03  0.00000000000E+00 0. -1.
        -15    1    1    2    0    0  0.14682482326E+02 -0.13583605834E+02 -0.90555405337E+01  0.22028394813E+02  0.17770000000E+01 0. -1.
         15    1    1    2    0    0 -0.20250887474E+01 -0.45157056102E+01 -0.15044598103E+02  0.15937071333E+02  0.17770000000E+01 0.  1.
</event>
<event>
 6    1  0.1196607E-002  0.1849065E+03  0.7546771E-02  0.1066555E+00
        -11   -1    0    0    0    0  0.00000000000E+00  0.00000000000E+00  0.18250000000E+03  0.18250000000E+03  0.00000000000E+00 0. -1.
         11   -1    0    0    0    0 -0.00000000000E+00 -0.00000000000E+00 -0.18250000000E+03  0.18250000000E+03  0.00000000000E+00 0.  1.
        -11    1    1    2    0    0 -0.93399184143E+00  0.22815746058E+01  0.17717423563E+03  0.17719138719E+03  0.00000000000E+00 0. -1.
         11    1    1    2    0    0  0.14036941804E+01 -0.56265846603E+01 -0.18000015147E+03  0.18009354053E+03  0.00000000000E+00 0.  1.
        -15    1    1    2    0    0  0.82285546661E+00  0.83220163933E+00 -0.12335038400E+01  0.24594534781E+01  0.17770000000E+01 0.  1.
         15    1    1    2    0    0 -0.12925578056E+01  0.25128084151E+01  0.40594196802E+01  0.52556187982E+01  0.17770000000E+01 0. -1.
</event>
<event>
 6    1  0.1196607E-002  0.1832301E+03  0.7546771E-02  0.1067875E+00
        -11   -1    0    0    0    0  0.00000000000E+00  0.00000000000E+00  0.18250000000E+03  0.18250000000E+03  0.00000000000E+00 0.  1.
         11   -1    0    0    0    0 -0.00000000000E+00 -0.00000000000E+00 -0.18250000000E+03  0.18250000000E+03  0.00000000000E+00 0.  1.
        -11    1    1    2    0    0 -0.10317721128E+01 -0.26111466316E+01  0.18174825442E+03  0.18176993873E+03  0.00000000000E+00 0.  1.
         11    1    1    2    0    0  0.56082444641E+01 -0.80625088658E-01 -0.16332511435E+03  0.16342139359E+03  0.00000000000E+00 0.  1.
        -15    1    1    2    0    0 -0.15359121383E+01  0.27686755524E+01 -0.75200607664E+01  0.83506666406E+01  0.17770000000E+01 0.  1.
         15    1    1    2    0    0 -0.30405602130E+01 -0.76903832159E-01 -0.10903079303E+02  0.11458001043E+02  0.17770000000E+01 0. -1.
</event>
<event>
 6    1  0.1337475E-002  0.1842940E+03  0.7546771E-02  0.1067036E+00
        -11   -1    0    0    0    0  0.00000000000E+00  0.00000000000E+00  0.18250000000E+03  0.18250000000E+03  0.00000000000E+00 0.  1.
         11   -1    0    0    0    0 -0.00000000000E+00 -0.00000000000E+00 -0.18250000000E+03  0.18250000000E+03  0.00000000000E+00 0.  1.
        -11    1    1    2    0    0  0.66009836076E+01 -0.12886902633E+02  0.18012500439E+03  0.18070601111E+03  0.00000000000E+00 0.  1.
         11    1    1    2    0    0  0.67743521230E+00  0.43154077218E+00 -0.57257647256E+02  0.57263280688E+02  0.00000000000E+00 0.  1.
        -15    1    1    2    0    0 -0.44253059256E+01 -0.12146550423E+01 -0.10038007986E+03  0.10050063125E+03  0.17770000000E+01 0.  1.
         15    1    1    2    0    0 -0.28531128943E+01  0.13670016903E+02 -0.22487277267E+02  0.26530076954E+02  0.17770000000E+01 0. -1.
</event>
<event>
 6    1  0.1196607E-002  0.1853787E+03  0.7546771E-02  0.1066186E+00
        -11   -1    0    0    0    0  0.00000000000E+00  0.00000000000E+00  0.18250000000E+03  0.18250000000E+03  0.00000000000E+00 0.  1.
         11   -1    0    0    0    0 -0.00000000000E+00 -0.00000000000E+00 -0.18250000000E+03  0.18250000000E+03  0.00000000000E+00 0.  1.
        -11    1    1    2    0    0 -0.17560900083E+01  0.16578438908E+01  0.16533725550E+03  0.16535489214E+03  0.00000000000E+00 0.  1.
         11    1    1    2    0    0 -0.15566397665E+01 -0.25298687928E+01 -0.17959670676E+03  0.17962126946E+03  0.00000000000E+00 0.  1.
        -15    1    1    2    0    0  0.22675627605E+00 -0.43589841250E+01  0.12642698262E+02  0.13492505673E+02  0.17770000000E+01 0.  1.
         15    1    1    2    0    0  0.30859734987E+01  0.52310090269E+01  0.16167530047E+01  0.65313327241E+01  0.17770000000E+01 0. -1.
</event>
<event>
 6    1  0.1196607E-002  0.1837609E+03  0.7546771E-02  0.1067456E+00
        -11   -1    0    0    0    0  0.00000000000E+00  0.00000000000E+00  0.18250000000E+03  0.18250000000E+03  0.00000000000E+00 0. -1.
         11   -1    0    0    0    0 -0.00000000000E+00 -0.00000000000E+00 -0.18250000000E+03  0.18250000000E+03  0.00000000000E+00 0.  1.
        -11    1    1    2    0    0 -0.48519093163E+00 -0.28086614723E+01  0.18121673609E+03  0.18123914982E+03  0.00000000000E+00 0. -1.
         11    1    1    2    0    0  0.10861379956E+01 -0.29713249002E+01 -0.33011202759E+02  0.33162448266E+02  0.00000000000E+00 0.  1.
        -15    1    1    2    0    0 -0.46727840156E+01  0.45140268263E+01 -0.86346251232E+01  0.10951065184E+02  0.17770000000E+01 0. -1.
         15    1    1    2    0    0  0.40718369516E+01  0.12659595461E+01 -0.13957090820E+03  0.13964733673E+03  0.17770000000E+01 0.  1.
</event>
<event>
 6    1  0.1196607E-002  0.1831718E+03  0.7546771E-02  0.1067921E+00
        -11   -1    0    0    0    0  0.00000000000E+00  0.00000000000E+00  0.18250000000E+03  0.18250000000E+03  0.00000000000E+00 0. -1.
         11   -1    0    0    0    0 -0.00000000000E+00 -0.00000000000E+00 -0.18250000000E+03  0.18250000000E+03  0.00000000000E+00 0. -1.
        -11    1    1    2    0    0  0.50160662555E+00  0.14997405370E+00  0.21184213168E+02  0.21190681654E+02  0.00000000000E+00 0. -1.
         11    1    1    2    0    0  0.44118710327E+01  0.51129926368E+01 -0.18170272221E+03  0.18182817867E+03  0.00000000000E+00 0. -1.
        -15    1    1    2    0    0 -0.83908299455E+01 -0.10905138239E+02  0.82200282026E+02  0.83362894391E+02  0.17770000000E+01 0. -1.
         15    1    1    2    0    0  0.34773522873E+01  0.56421715486E+01  0.78318227019E+02  0.78618245282E+02  0.17770000000E+01 0. -1.
</event>
<event>
 6    1  0.1196607E-002  0.1830731E+03  0.7546771E-02  0.1068000E+00
        -11   -1    0    0    0    0  0.00000000000E+00  0.00000000000E+00  0.18250000000E+03  0.18250000000E+03  0.00000000000E+00 0. -1.
         11   -1    0    0    0    0 -0.00000000000E+00 -0.00000000000E+00 -0.18250000000E+03  0.18250000000E+03  0.00000000000E+00 0. -1.
        -11    1    1    2    0    0  0.19255250979E+01 -0.18958824187E+01  0.18190680396E+03  0.18192687362E+03  0.00000000000E+00 0. -1.
         11    1    1    2    0    0 -0.15376314011E+01 -0.20265560506E+01 -0.15322120889E+03  0.15324232475E+03  0.00000000000E+00 0. -1.
        -15    1    1    2    0    0  0.22467508164E+01  0.28217915854E+01 -0.21800605210E+02  0.22168322297E+02  0.17770000000E+01 0.  1.
         15    1    1    2    0    0 -0.26346445132E+01  0.11006468839E+01 -0.68849898577E+01  0.76624793386E+01  0.17770000000E+01 0. -1.
</event>
<event>
 6    1  0.1196607E-002  0.1854548E+03  0.7546771E-02  0.1066127E+00
        -11   -1    0    0    0    0  0.00000000000E+00  0.00000000000E+00  0.18250000000E+03  0.18250000000E+03  0.00000000000E+00 0.  1.
         11   -1    0    0    0    0 -0.00000000000E+00 -0.00000000000E+00 -0.18250000000E+03  0.18250000000E+03  0.00000000000E+00 0.  1.
        -11    1    1    2    0    0  0.33217840394E+00  0.51415864739E+01  0.15911167080E+03  0.15919506915E+03  0.00000000000E+00 0.  1.
         11    1    1    2    0    0 -0.97218537898E+00  0.24503841896E+01 -0.17952589055E+03  0.17954524473E+03  0.00000000000E+00 0.  1.
        -15    1    1    2    0    0  0.50790013378E+01 -0.27582862238E+01  0.18090881026E+02  0.19074645548E+02  0.17770000000E+01 0.  1.
         15    1    1    2    0    0 -0.44389943628E+01 -0.48336844396E+01  0.23233387244E+01  0.71850405735E+01  0.17770000000E+01 0. -1.
</event>
<event>
 6    1  0.1196607E-002  0.1917150E+03  0.7546771E-02  0.1061347E+00
        -11   -1    0    0    0    0  0.00000000000E+00  0.00000000000E+00  0.18250000000E+03  0.18250000000E+03  0.00000000000E+00 0. -1.
         11   -1    0    0    0    0 -0.00000000000E+00 -0.00000000000E+00 -0.18250000000E+03  0.18250000000E+03  0.00000000000E+00 0. -1.
        -11    1    1    2    0    0 -0.59940880237E+01 -0.20427752134E+00  0.17318122419E+03  0.17328504619E+03  0.00000000000E+00 0. -1.
         11    1    1    2    0    0  0.74001231549E+01 -0.20955641109E+00 -0.14674851446E+03  0.14693512934E+03  0.00000000000E+00 0. -1.
        -15    1    1    2    0    0 -0.10164184367E+02  0.15461091072E+02 -0.12354465854E+02  0.22319196593E+02  0.17770000000E+01 0.  1.
         15    1    1    2    0    0  0.87581492357E+01 -0.15047257140E+02 -0.14078243871E+02  0.22460627885E+02  0.17770000000E+01 0. -1.
</event>
<event>
 6    1  0.1196607E-002  0.1846292E+03  0.7546771E-02  0.1066773E+00
        -11   -1    0    0    0    0  0.00000000000E+00  0.00000000000E+00  0.18250000000E+03  0.18250000000E+03  0.00000000000E+00 0. -1.
         11   -1    0    0    0    0 -0.00000000000E+00 -0.00000000000E+00 -0.18250000000E+03  0.18250000000E+03  0.00000000000E+00 0. -1.
        -11    1    1    2    0    0  0.73853613930E+01  0.89785596220E+01  0.37734175446E+02  0.39484504459E+02  0.00000000000E+00 0. -1.
         11    1    1    2    0    0 -0.15150297889E+02  0.16356052184E+02 -0.17898765309E+03  0.18037081784E+03  0.00000000000E+00 0. -1.
        -15    1    1    2    0    0  0.89507191783E+01 -0.22054545348E+02  0.13801692650E+03  0.14006551351E+03  0.17770000000E+01 0. -1.
         15    1    1    2    0    0 -0.11857826822E+01 -0.32800664586E+01  0.32365511473E+01  0.50791641902E+01  0.17770000000E+01 0.  1.
</event>
<event>
 6    1  0.1196607E-002  0.1827218E+03  0.7546771E-02  0.1068278E+00
        -11   -1    0    0    0    0  0.00000000000E+00  0.00000000000E+00  0.18250000000E+03  0.18250000000E+03  0.00000000000E+00 0. -1.
         11   -1    0    0    0    0 -0.00000000000E+00 -0.00000000000E+00 -0.18250000000E+03  0.18250000000E+03  0.00000000000E+00 0.  1.
        -11    1    1    2    0    0 -0.15202077002E+01 -0.26381187414E+01  0.18225274039E+03  0.18227817226E+03  0.00000000000E+00 0. -1.
         11    1    1    2    0    0 -0.28452473220E+01 -0.17190171912E+00 -0.13290124323E+03  0.13293180746E+03  0.00000000000E+00 0.  1.
        -15    1    1    2    0    0  0.15819746404E+01  0.19335243816E+01 -0.18838746259E+02  0.19086572503E+02  0.17770000000E+01 0.  1.
         15    1    1    2    0    0  0.27834803818E+01  0.87649607889E+00 -0.30512750902E+02  0.30703447771E+02  0.17770000000E+01 0. -1.
</event>
<event>
 6    1  0.1196607E-002  0.1741908E+03  0.7546771E-02  0.1075268E+00
        -11   -1    0    0    0    0  0.00000000000E+00  0.00000000000E+00  0.18250000000E+03  0.18250000000E+03  0.00000000000E+00 0. -1.
         11   -1    0    0    0    0 -0.00000000000E+00 -0.00000000000E+00 -0.18250000000E+03  0.18250000000E+03  0.00000000000E+00 0. -1.
        -11    1    1    2    0    0 -0.57155310503E+01  0.23048076166E+01  0.17448976243E+03  0.17459855849E+03  0.00000000000E+00 0. -1.
         11    1    1    2    0    0 -0.10479205053E+01  0.37081376589E+01 -0.17385849601E+03  0.17390119338E+03  0.00000000000E+00 0. -1.
        -15    1    1    2    0    0  0.19189882952E+01 -0.97507638611E+01 -0.79327193974E+00  0.10126545380E+02  0.17770000000E+01 0.  1.
         15    1    1    2    0    0  0.48444632604E+01  0.37378185856E+01  0.16200552160E+00  0.63737027582E+01  0.17770000000E+01 0. -1.
</event>
<event>
 6    1  0.1196607E-002  0.1834557E+03  0.7546771E-02  0.1067697E+00
        -11   -1    0    0    0    0  0.00000000000E+00  0.00000000000E+00  0.18250000000E+03  0.18250000000E+03  0.00000000000E+00 0.  1.
         11   -1    0    0    0    0 -0.00000000000E+00 -0.00000000000E+00 -0.18250000000E+03  0.18250000000E+03  0.00000000000E+00 0. -1.
        -11    1    1    2    0    0  0.41209928679E+01 -0.34133732763E+00  0.86190412308E+02  0.86289549003E+02  0.00000000000E+00 0.  1.
         11    1    1    2    0    0  0.68089440407E+01  0.10512120652E+02 -0.18111177636E+03  0.18154432499E+03  0.00000000000E+00 0. -1.
        -15    1    1    2    0    0 -0.34217309756E+01 -0.17007751476E+01  0.64838158294E+02  0.64974959630E+02  0.17770000000E+01 0. -1.
         15    1    1    2    0    0 -0.75082059330E+01 -0.84700081766E+01  0.30083205760E+02  0.32191166376E+02  0.17770000000E+01 0.  1.
</event>
<event>
 6    1  0.1196607E-002  0.1835094E+03  0.7546771E-02  0.1067654E+00
        -11   -1    0    0    0    0  0.00000000000E+00  0.00000000000E+00  0.18250000000E+03  0.18250000000E+03  0.00000000000E+00 0.  1.
         11   -1    0    0    0    0 -0.00000000000E+00 -0.00000000000E+00 -0.18250000000E+03  0.18250000000E+03  0.00000000000E+00 0.  1.
        -11    1    1    2    0    0  0.11600005363E+01  0.32777000633E+01  0.18145726335E+03  0.18149057094E+03  0.00000000000E+00 0.  1.
         11    1    1    2    0    0 -0.62345564013E+00 -0.30008657136E+01 -0.17187047769E+03  0.17189780392E+03  0.00000000000E+00 0.  1.
        -15    1    1    2    0    0 -0.11301614712E+01 -0.26419437056E+01 -0.37949920278E+01  0.50810259777E+01  0.17770000000E+01 0.  1.
         15    1    1    2    0    0  0.59361657504E+00  0.23651093559E+01 -0.57917936286E+01  0.65305991562E+01  0.17770000000E+01 0.  1.
</event>
<event>
 6    1  0.1196607E-002  0.1899630E+03  0.7546771E-02  0.1062665E+00
        -11   -1    0    0    0    0  0.00000000000E+00  0.00000000000E+00  0.18250000000E+03  0.18250000000E+03  0.00000000000E+00 0.  1.
         11   -1    0    0    0    0 -0.00000000000E+00 -0.00000000000E+00 -0.18250000000E+03  0.18250000000E+03  0.00000000000E+00 0.  1.
        -11    1    1    2    0    0  0.22729356992E+00 -0.20231118495E+01  0.11408199541E+03  0.11410015916E+03  0.00000000000E+00 0.  1.
         11    1    1    2    0    0 -0.15066916273E+01  0.77315891817E+01 -0.17485968392E+03  0.17503701509E+03  0.00000000000E+00 0.  1.
        -15    1    1    2    0    0  0.75489651228E+01 -0.76102051109E+00  0.65801771321E+02  0.66261579099E+02  0.17770000000E+01 0.  1.
         15    1    1    2    0    0 -0.62695670655E+01 -0.49474568211E+01 -0.50240828044E+01  0.96012466488E+01  0.17770000000E+01 0.  1.
</event>
<event>
 6    1  0.1196607E-002  0.1839553E+03  0.7546771E-02  0.1067302E+00
        -11   -1    0    0    0    0  0.00000000000E+00  0.00000000000E+00  0.18250000000E+03  0.18250000000E+03  0.00000000000E+00 0.  1.
         11   -1    0    0    0    0 -0.00000000000E+00 -0.00000000000E+00 -0.18250000000E+03  0.18250000000E+03  0.00000000000E+00 0.  1.
        -11    1    1    2    0    0 -0.47287415494E-01  0.66998148148E+00  0.48238308202E+02  0.48242983837E+02  0.00000000000E+00 0.  1.
         11    1    1    2    0    0 -0.18914607712E+02 -0.90056560411E+00 -0.18005165917E+03  0.18104467232E+03  0.00000000000E+00 0.  1.
        -15    1    1    2    0    0  0.10391288072E+02 -0.50669603547E+01  0.18169199771E+02  0.21608574788E+02  0.17770000000E+01 0. -1.
         15    1    1    2    0    0  0.85706070553E+01  0.52975444773E+01  0.11364415120E+03  0.11410376906E+03  0.17770000000E+01 0.  1.
</event>
<event>
 6    1  0.1196607E-002  0.1834887E+03  0.7546771E-02  0.1067671E+00
        -11   -1    0    0    0    0  0.00000000000E+00  0.00000000000E+00  0.18250000000E+03  0.18250000000E+03  0.00000000000E+00 0.  1.
         11   -1    0    0    0    0 -0.00000000000E+00 -0.00000000000E+00 -0.18250000000E+03  0.18250000000E+03  0.00000000000E+00 0. -1.
        -11    1    1    2    0    0  0.19055870005E+01  0.22803449613E+01  0.18148697595E+03  0.18151130454E+03  0.00000000000E+00 0.  1.
         11    1    1    2    0    0 -0.17476556462E+01  0.32355624738E+01 -0.13738182582E+03  0.13743103445E+03  0.00000000000E+00 0. -1.
        -15    1    1    2    0    0  0.87591364275E+00 -0.64210064034E+01 -0.11095544031E+02  0.12971714393E+02  0.17770000000E+01 0. -1.
         15    1    1    2    0    0 -0.10338449971E+01  0.90509896829E+00 -0.33009606100E+02  0.33085946616E+02  0.17770000000E+01 0. -1.
</event>
<event>
 6    1  0.1196607E-002  0.1836146E+03  0.7546771E-02  0.1067571E+00
        -11   -1    0    0    0    0  0.00000000000E+00  0.00000000000E+00  0.18250000000E+03  0.18250000000E+03  0.00000000000E+00 0. -1.
         11   -1    0    0    0    0 -0.00000000000E+00 -0.00000000000E+00 -0.18250000000E+03  0.18250000000E+03  0.00000000000E+00 0. -1.
        -11    1    1    2    0    0  0.13506336427E+01  0.45077972938E+01  0.16147759631E+03  0.16154614994E+03  0.00000000000E+00 0. -1.
         11    1    1    2    0    0 -0.13681516528E+01 -0.26143927806E+01 -0.18136140528E+03  0.18138540794E+03  0.00000000000E+00 0. -1.
        -15    1    1    2    0    0 -0.24332762476E+01 -0.32657023351E+01  0.44788551611E+01  0.63090029000E+01  0.17770000000E+01 0.  1.
         15    1    1    2    0    0  0.24507942577E+01  0.13722978218E+01  0.15404953807E+02  0.15759439222E+02  0.17770000000E+01 0. -1.
</event>
<event>
 6    1  0.1196607E-002  0.1888980E+03  0.7546771E-02  0.1063473E+00
        -11   -1    0    0    0    0  0.00000000000E+00  0.00000000000E+00  0.18250000000E+03  0.18250000000E+03  0.00000000000E+00 0.  1.
         11   -1    0    0    0    0 -0.00000000000E+00 -0.00000000000E+00 -0.18250000000E+03  0.18250000000E+03  0.00000000000E+00 0.  1.
        -11    1    1    2    0    0 -0.18139463637E+01 -0.18820631767E+00  0.11326049055E+03  0.11327517179E+03  0.00000000000E+00 0.  1.
         11    1    1    2    0    0  0.61628757184E+01 -0.50671493727E+01 -0.17592118911E+03  0.17610202105E+03  0.00000000000E+00 0.  1.
        -15    1    1    2    0    0 -0.87999921803E+01 -0.83803272006E+01  0.59595708157E+02  0.60847973722E+02  0.17770000000E+01 0.  1.
         15    1    1    2    0    0  0.44510628257E+01  0.13635682891E+02  0.30649903973E+01  0.14774833445E+02  0.17770000000E+01 0. -1.
</event>
<event>
 6    1  0.1196607E-002  0.1863192E+03  0.7546771E-02  0.1065455E+00
        -11   -1    0    0    0    0  0.00000000000E+00  0.00000000000E+00  0.18250000000E+03  0.18250000000E+03  0.00000000000E+00 0. -1.
         11   -1    0    0    0    0 -0.00000000000E+00 -0.00000000000E+00 -0.18250000000E+03  0.18250000000E+03  0.00000000000E+00 0.  1.
        -11    1    1    2    0    0 -0.31323968899E+01 -0.81410713371E-01  0.17865332757E+03  0.17868080476E+03  0.00000000000E+00 0. -1.
         11    1    1    2    0    0 -0.12120519683E-01 -0.43549274194E+01 -0.17517865302E+03  0.17523277665E+03  0.00000000000E+00 0.  1.
        -15    1    1    2    0    0  0.50432344623E+01  0.39854998280E+00 -0.38523943666E+00  0.53757970901E+01  0.17770000000E+01 0.  1.
         15    1    1    2    0    0 -0.18987170526E+01  0.40377881500E+01 -0.30894351162E+01  0.57106215010E+01  0.17770000000E+01 0. -1.
</event>
<event>
 6    1  0.1196607E-002  0.1826193E+03  0.7546771E-02  0.1068360E+00
        -11   -1    0    0    0    0  0.00000000000E+00  0.00000000000E+00  0.18250000000E+03  0.18250000000E+03  0.00000000000E+00 0.  1.
         11   -1    0    0    0    0 -0.00000000000E+00 -0.00000000000E+00 -0.18250000000E+03  0.18250000000E+03  0.00000000000E+00 0. -1.
        -11    1    1    2    0    0 -0.97205900600E+00 -0.14777869179E+01  0.86997975278E+02  0.87015955176E+02  0.00000000000E+00 0.  1.
         11    1    1    2    0    0 -0.19866684285E+01  0.27109652214E+01 -0.18234970927E+03  0.18238068059E+03  0.00000000000E+00 0. -1.
        -15    1    1    2    0    0  0.18074559215E+01  0.90011594636E+00  0.73109732981E+02  0.73159195534E+02  0.17770000000E+01 0.  1.
         15    1    1    2    0    0  0.11512715130E+01 -0.21332942499E+01  0.22242001011E+02  0.22444168695E+02  0.17770000000E+01 0. -1.
</event>
<event>
 6    1  0.1196607E-002  0.1851043E+03  0.7546771E-02  0.1066400E+00
        -11   -1    0    0    0    0  0.00000000000E+00  0.00000000000E+00  0.18250000000E+03  0.18250000000E+03  0.00000000000E+00 0. -1.
         11   -1    0    0    0    0 -0.00000000000E+00 -0.00000000000E+00 -0.18250000000E+03  0.18250000000E+03  0.00000000000E+00 0. -1.
        -11    1    1    2    0    0  0.65418106275E+01  0.13747050322E+01  0.16352937058E+03  0.16366594069E+03  0.00000000000E+00 0. -1.
         11    1    1    2    0    0 -0.56194854212E+01  0.38923440868E+01 -0.17976579310E+03  0.17989571792E+03  0.00000000000E+00 0. -1.
        -15    1    1    2    0    0  0.10147876938E+01  0.32812332717E+01  0.94532173939E+01  0.10213585753E+02  0.17770000000E+01 0. -1.
         15    1    1    2    0    0 -0.19371129001E+01 -0.85482823907E+01  0.67832051262E+01  0.11224755632E+02  0.17770000000E+01 0.  1.
</event>
<event>
 6    1  0.1196607E-002  0.1766101E+03  0.7546771E-02  0.1073242E+00
        -11   -1    0    0    0    0  0.00000000000E+00  0.00000000000E+00  0.18250000000E+03  0.18250000000E+03  0.00000000000E+00 0.  1.
         11   -1    0    0    0    0 -0.00000000000E+00 -0.00000000000E+00 -0.18250000000E+03  0.18250000000E+03  0.00000000000E+00 0. -1.
        -11    1    1    2    0    0 -0.36106425747E+01 -0.41774997893E+01  0.17596369506E+03  0.17605030595E+03  0.00000000000E+00 0.  1.
         11    1    1    2    0    0 -0.40632548562E+01 -0.11742017989E+01 -0.17724571864E+03  0.17729617471E+03  0.00000000000E+00 0. -1.
        -15    1    1    2    0    0  0.18658934393E+01  0.74427522684E+00  0.28032766047E+01  0.38796382128E+01  0.17770000000E+01 0. -1.
         15    1    1    2    0    0  0.58080039916E+01  0.46074263613E+01 -0.15212530236E+01  0.77738811287E+01  0.17770000000E+01 0.  1.
</event>
<event>
 6    1  0.1196607E-002  0.1833580E+03  0.7546771E-02  0.1067774E+00
        -11   -1    0    0    0    0  0.00000000000E+00  0.00000000000E+00  0.18250000000E+03  0.18250000000E+03  0.00000000000E+00 0. -1.
         11   -1    0    0    0    0 -0.00000000000E+00 -0.00000000000E+00 -0.18250000000E+03  0.18250000000E+03  0.00000000000E+00 0.  1.
        -11    1    1    2    0    0 -0.62895937570E+00 -0.19077361289E+01  0.98958425550E+02  0.98978811038E+02  0.00000000000E+00 0. -1.
         11    1    1    2    0    0  0.98161815724E+01 -0.33082409123E+01 -0.18134637794E+03  0.18164198488E+03  0.00000000000E+00 0.  1.
        -15    1    1    2    0    0 -0.63218983363E+01  0.55726850485E+01  0.79382757858E+02  0.79848614211E+02  0.17770000000E+01 0.  1.
         15    1    1    2    0    0 -0.28653238605E+01 -0.35670800728E+00  0.30051945320E+01  0.45305898736E+01  0.17770000000E+01 0. -1.
</event>
<event>
 6    1  0.1196607E-002  0.2005883E+03  0.7546771E-02  0.1054904E+00
        -11   -1    0    0    0    0  0.00000000000E+00  0.00000000000E+00  0.18250000000E+03  0.18250000000E+03  0.00000000000E+00 0.  1.
         11   -1    0    0    0    0 -0.00000000000E+00 -0.00000000000E+00 -0.18250000000E+03  0.18250000000E+03  0.00000000000E+00 0.  1.
        -11    1    1    2    0    0 -0.12195679891E+01 -0.19220340989E+01  0.16439596927E+03  0.16441172791E+03  0.00000000000E+00 0.  1.
         11    1    1    2    0    0 -0.17795274037E+02 -0.27928753388E+02 -0.64725696001E+02  0.72705589653E+02  0.00000000000E+00 0.  1.
        -15    1    1    2    0    0 -0.15220526102E+02  0.38488127610E+02 -0.35226951884E+02  0.54379189492E+02  0.17770000000E+01 0.  1.
         15    1    1    2    0    0  0.34235368128E+02 -0.86373401232E+01 -0.64443321386E+02  0.73503492947E+02  0.17770000000E+01 0. -1.
</event>
<event>
 6    1  0.1196607E-002  0.1760330E+03  0.7546771E-02  0.1073722E+00
        -11   -1    0    0    0    0  0.00000000000E+00  0.00000000000E+00  0.18250000000E+03  0.18250000000E+03  0.00000000000E+00 0.  1.
         11   -1    0    0    0    0 -0.00000000000E+00 -0.00000000000E+00 -0.18250000000E+03  0.18250000000E+03  0.00000000000E+00 0.  1.
        -11    1    1    2    0    0  0.29898862134E+01 -0.21837003112E+01  0.17702917142E+03  0.17706788388E+03  0.00000000000E+00 0.  1.
         11    1    1    2    0    0  0.96235408450E-01 -0.30115226080E+01 -0.17502971916E+03  0.17505565149E+03  0.00000000000E+00 0.  1.
        -15    1    1    2    0    0 -0.16669039017E+01  0.56848765715E+01 -0.57618371015E+01  0.84529808964E+01  0.17770000000E+01 0.  1.
         15    1    1    2    0    0 -0.14192177202E+01 -0.48965365223E+00  0.37623848403E+01  0.44234837315E+01  0.17770000000E+01 0. -1.
</event>
<event>
 6    1  0.1196607E-002  0.1835708E+03  0.7546771E-02  0.1067606E+00
        -11   -1    0    0    0    0  0.00000000000E+00  0.00000000000E+00  0.18250000000E+03  0.18250000000E+03  0.00000000000E+00 0.  1.
         11   -1    0    0    0    0 -0.00000000000E+00 -0.00000000000E+00 -0.18250000000E+03  0.18250000000E+03  0.00000000000E+00 0.  1.
        -11    1    1    2    0    0  0.33442020253E+00 -0.42071551634E+01  0.18138011247E+03  0.18142920710E+03  0.00000000000E+00 0.  1.
         11    1    1    2    0    0 -0.15143327913E+01  0.29444820432E+01 -0.15301257685E+03  0.15304839710E+03  0.00000000000E+00 0.  1.
        -15    1    1    2    0    0 -0.40601072940E-01 -0.44527013386E+01 -0.16394887978E+02  0.17081518623E+02  0.17770000000E+01 0. -1.
         15    1    1    2    0    0  0.12205136617E+01  0.57153744588E+01 -0.11972647636E+02  0.13440877175E+02  0.17770000000E+01 0.  1.
</event>
<event>
 6    1  0.1196607E-002  0.1867059E+03  0.7546771E-02  0.1065155E+00
        -11   -1    0    0    0    0  0.00000000000E+00  0.00000000000E+00  0.18250000000E+03  0.18250000000E+03  0.00000000000E+00 0.  1.
         11   -1    0    0    0    0 -0.00000000000E+00 -0.00000000000E+00 -0.18250000000E+03  0.18250000000E+03  0.00000000000E+00 0.  1.
        -11    1    1    2    0    0 -0.22135132398E+02  0.36979312344E+01  0.17687608201E+03  0.17829410302E+03  0.00000000000E+00 0.  1.
         11    1    1    2    0    0  0.48646773857E+01  0.12396913340E+02 -0.10140242065E+03  0.10227316100E+03  0.00000000000E+00 0.  1.
        -15    1    1    2    0    0 -0.36154937250E+01 -0.63592957656E+01 -0.25720165238E+01  0.79552143597E+01  0.17770000000E+01 0.  1.
         15    1    1    2    0    0  0.20885948738E+02 -0.97355488084E+01 -0.72901644836E+02  0.76477521626E+02  0.17770000000E+01 0. -1.
</event>
<event>
 6    1  0.1196607E-002  0.1040853E+03  0.7546771E-02  0.1156931E+00
        -11   -1    0    0    0    0  0.00000000000E+00  0.00000000000E+00  0.18250000000E+03  0.18250000000E+03  0.00000000000E+00 0. -1.
         11   -1    0    0    0    0 -0.00000000000E+00 -0.00000000000E+00 -0.18250000000E+03  0.18250000000E+03  0.00000000000E+00 0.  1.
        -11    1    1    2    0    0 -0.34716799738E+01  0.66765682262E+01  0.13209761075E+03  0.13231178289E+03  0.00000000000E+00 0. -1.
         11    1    1    2    0    0 -0.11560207948E+02  0.29126971236E+01 -0.95566611045E+02  0.96307317266E+02  0.00000000000E+00 0.  1.
        -15    1    1    2    0    0 -0.13006225240E+02 -0.21926970450E+02 -0.79542000804E+02  0.83546642955E+02  0.17770000000E+01 0. -1.
         15    1    1    2    0    0  0.28038113161E+02  0.12337705100E+02  0.43011001097E+02  0.52834256891E+02  0.17770000000E+01 0.  1.
</event>
<event>
 6    1  0.1196607E-002  0.2009241E+03  0.7546771E-02  0.1054667E+00
        -11   -1    0    0    0    0  0.00000000000E+00  0.00000000000E+00  0.18250000000E+03  0.18250000000E+03  0.00000000000E+00 0.  1.
         11   -1    0    0    0    0 -0.00000000000E+00 -0.00000000000E+00 -0.18250000000E+03  0.18250000000E+03  0.00000000000E+00 0.  1.
        -11    1    1    2    0    0 -0.74290739726E+01 -0.10120723383E+02  0.16359483366E+03  0.16407586593E+03  0.00000000000E+00 0.  1.
         11    1    1    2    0    0 -0.18717609798E+01 -0.34582919532E+00 -0.81064981038E+02  0.81087324766E+02  0.00000000000E+00 0.  1.
        -15    1    1    2    0    0  0.37612323259E+01  0.17584225256E+02 -0.99182638507E+02  0.10081520400E+03  0.17770000000E+01 0.  1.
         15    1    1    2    0    0  0.55396026264E+01 -0.71176726781E+01  0.16652785888E+02  0.19021605306E+02  0.17770000000E+01 0. -1.
</event>
<event>
 6    1  0.1196607E-002  0.1859241E+03  0.7546771E-02  0.1065761E+00
        -11   -1    0    0    0    0  0.00000000000E+00  0.00000000000E+00  0.18250000000E+03  0.18250000000E+03  0.00000000000E+00 0. -1.
         11   -1    0    0    0    0 -0.00000000000E+00 -0.00000000000E+00 -0.18250000000E+03  0.18250000000E+03  0.00000000000E+00 0. -1.
        -11    1    1    2    0    0 -0.19730598756E+01 -0.49867978828E+01  0.16297876108E+03  0.16306697299E+03  0.00000000000E+00 0. -1.
         11    1    1    2    0    0  0.61150560709E+01 -0.70513012323E+00 -0.17897003122E+03  0.17907585877E+03  0.00000000000E+00 0. -1.
        -15    1    1    2    0    0  0.28727905502E+00  0.25331429094E+01  0.16793045116E+02  0.17078156678E+02  0.17770000000E+01 0. -1.
         15    1    1    2    0    0 -0.44292752504E+01  0.31587850966E+01 -0.80177497943E+00  0.57790115632E+01  0.17770000000E+01 0.  1.
</event>
<event>
 6    1  0.1196607E-002  0.1841142E+03  0.7546771E-02  0.1067177E+00
        -11   -1    0    0    0    0  0.00000000000E+00  0.00000000000E+00  0.18250000000E+03  0.18250000000E+03  0.00000000000E+00 0.  1.
         11   -1    0    0    0    0 -0.00000000000E+00 -0.00000000000E+00 -0.18250000000E+03  0.18250000000E+03  0.00000000000E+00 0.  1.
        -11    1    1    2    0    0  0.24043223984E+01 -0.20460466712E+01  0.17100989328E+03  0.17103903260E+03  0.00000000000E+00 0.  1.
         11    1    1    2    0    0  0.41654871194E+01  0.94111071826E+00 -0.18083541199E+03  0.18088582919E+03  0.00000000000E+00 0.  1.
        -15    1    1    2    0    0 -0.15590721546E+01  0.21554533602E+00  0.69716894704E+00  0.24740532161E+01  0.17770000000E+01 0. -1.
         15    1    1    2    0    0 -0.50107373632E+01  0.88939061691E+00  0.91283497634E+01  0.10601084991E+02  0.17770000000E+01 0.  1.
</event>
<event>
 6    1  0.1196607E-002  0.1884070E+03  0.7546771E-02  0.1063848E+00
        -11   -1    0    0    0    0  0.00000000000E+00  0.00000000000E+00  0.18250000000E+03  0.18250000000E+03  0.00000000000E+00 0.  1.
         11   -1    0    0    0    0 -0.00000000000E+00 -0.00000000000E+00 -0.18250000000E+03  0.18250000000E+03  0.00000000000E+00 0. -1.
        -11    1    1    2    0    0 -0.18455520025E+00  0.15034857467E+02  0.15810007134E+03  0.15881345521E+03  0.00000000000E+00 0.  1.
         11    1    1    2    0    0  0.13323381149E+01 -0.66376529557E+01 -0.17646319055E+03  0.17659301000E+03  0.00000000000E+00 0. -1.
        -15    1    1    2    0    0  0.45539285240E+01 -0.13987474644E+02  0.13685531585E+02  0.20170255717E+02  0.17770000000E+01 0. -1.
         15    1    1    2    0    0 -0.57017114386E+01  0.55902701325E+01  0.46775876236E+01  0.94232790715E+01  0.17770000000E+01 0.  1.
</event>
<event>
 6    1  0.1196607E-002  0.1837923E+03  0.7546771E-02  0.1067431E+00
        -11   -1    0    0    0    0  0.00000000000E+00  0.00000000000E+00  0.18250000000E+03  0.18250000000E+03  0.00000000000E+00 0.  1.
         11   -1    0    0    0    0 -0.00000000000E+00 -0.00000000000E+00 -0.18250000000E+03  0.18250000000E+03  0.00000000000E+00 0.  1.
        -11    1    1    2    0    0 -0.30421181597E+01 -0.26430064923E+01  0.18116289586E+03  0.18120771176E+03  0.00000000000E+00 0.  1.
         11    1    1    2    0    0  0.71983738305E-02  0.22772829950E+01 -0.16878394385E+03  0.16879930620E+03  0.00000000000E+00 0.  1.
        -15    1    1    2    0    0 -0.16573248454E-01  0.33244524685E+01 -0.45448244365E+01  0.59046944922E+01  0.17770000000E+01 0. -1.
         15    1    1    2    0    0  0.30514930343E+01 -0.29587289711E+01 -0.78341275669E+01  0.90882875503E+01  0.17770000000E+01 0.  1.
</event>
<event>
 6    1  0.1196607E-002  0.1871707E+03  0.7546771E-02  0.1064797E+00
        -11   -1    0    0    0    0  0.00000000000E+00  0.00000000000E+00  0.18250000000E+03  0.18250000000E+03  0.00000000000E+00 0. -1.
         11   -1    0    0    0    0 -0.00000000000E+00 -0.00000000000E+00 -0.18250000000E+03  0.18250000000E+03  0.00000000000E+00 0.  1.
        -11    1    1    2    0    0  0.37745135036E+01  0.78694801072E+01  0.17761494168E+03  0.17782925287E+03  0.00000000000E+00 0. -1.
         11    1    1    2    0    0 -0.44108991165E+01 -0.12569882907E-01 -0.16146175361E+03  0.16152199252E+03  0.00000000000E+00 0.  1.
        -15    1    1    2    0    0 -0.60813520063E+01 -0.34908253844E+01  0.32402851092E+00  0.72409548793E+01  0.17770000000E+01 0. -1.
         15    1    1    2    0    0  0.67177376192E+01 -0.43660848399E+01 -0.16477216579E+02  0.18407799726E+02  0.17770000000E+01 0.  1.
</event>
<event>
 6    1  0.1196607E-002  0.1825980E+03  0.7546771E-02  0.1068377E+00
        -11   -1    0    0    0    0  0.00000000000E+00  0.00000000000E+00  0.18250000000E+03  0.18250000000E+03  0.00000000000E+00 0. -1.
         11   -1    0    0    0    0 -0.00000000000E+00 -0.00000000000E+00 -0.18250000000E+03  0.18250000000E+03  0.00000000000E+00 0. -1.
        -11    1    1    2    0    0 -0.15987294970E+01  0.18759833197E+01  0.18238538436E+03  0.18240203858E+03  0.00000000000E+00 0. -1.
         11    1    1    2    0    0 -0.11149090282E+01  0.34459689389E+00 -0.44194831325E+02  0.44210235071E+02  0.00000000000E+00 0. -1.
        -15    1    1    2    0    0  0.36253579438E+00  0.36827159626E+00 -0.95349926257E+02  0.95367883601E+02  0.17770000000E+01 0.  1.
         15    1    1    2    0    0  0.23511027308E+01 -0.25888518098E+01 -0.42840626782E+02  0.43019842746E+02  0.17770000000E+01 0. -1.
</event>
<event>
 6    1  0.1196607E-002  0.1860710E+03  0.7546771E-02  0.1065647E+00
        -11   -1    0    0    0    0  0.00000000000E+00  0.00000000000E+00  0.18250000000E+03  0.18250000000E+03  0.00000000000E+00 0. -1.
         11   -1    0    0    0    0 -0.00000000000E+00 -0.00000000000E+00 -0.18250000000E+03  0.18250000000E+03  0.00000000000E+00 0.  1.
        -11    1    1    2    0    0  0.30365324167E+01  0.26217300544E+01  0.17035039996E+03  0.17039763133E+03  0.00000000000E+00 0. -1.
         11    1    1    2    0    0  0.24455070421E+01 -0.57771067050E+01 -0.17881896095E+03  0.17892896988E+03  0.00000000000E+00 0.  1.
        -15    1    1    2    0    0  0.10389223638E+01 -0.29167278975E+01  0.45379726964E+01  0.57738710151E+01  0.17770000000E+01 0.  1.
         15    1    1    2    0    0 -0.65209618226E+01  0.60721045481E+01  0.39305882960E+01  0.98995277709E+01  0.17770000000E+01 0. -1.
</event>
<event>
 6    1  0.1196607E-002  0.1829188E+03  0.7546771E-02  0.1068122E+00
        -11   -1    0    0    0    0  0.00000000000E+00  0.00000000000E+00  0.18250000000E+03  0.18250000000E+03  0.00000000000E+00 0. -1.
         11   -1    0    0    0    0 -0.00000000000E+00 -0.00000000000E+00 -0.18250000000E+03  0.18250000000E+03  0.00000000000E+00 0.  1.
        -11    1    1    2    0    0  0.25100779966E+01  0.19649598367E+01  0.18205326666E+03  0.18208117272E+03  0.00000000000E+00 0. -1.
         11    1    1    2    0    0 -0.24527422371E+01  0.37532080166E+01 -0.73552938386E+02  0.73689465055E+02  0.00000000000E+00 0.  1.
        -15    1    1    2    0    0 -0.34875427112E+01 -0.14673819121E+01 -0.15560397164E+02  0.16112102679E+02  0.17770000000E+01 0. -1.
         15    1    1    2    0    0  0.34302069518E+01 -0.42507859411E+01 -0.92939931110E+02  0.93117259542E+02  0.17770000000E+01 0.  1.
</event>
<event>
 6    1  0.1196607E-002  0.1817596E+03  0.7546771E-02  0.1069046E+00
        -11   -1    0    0    0    0  0.00000000000E+00  0.00000000000E+00  0.18250000000E+03  0.18250000000E+03  0.00000000000E+00 0. -1.
         11   -1    0    0    0    0 -0.00000000000E+00 -0.00000000000E+00 -0.18250000000E+03  0.18250000000E+03  0.00000000000E+00 0. -1.
        -11    1    1    2    0    0  0.80084537579E+01 -0.97975039845E+00  0.14733743606E+01  0.82015897509E+01  0.00000000000E+00 0. -1.
         11    1    1    2    0    0 -0.99582843885E+01  0.32505142950E+01 -0.17554336093E+03  0.17585563635E+03  0.00000000000E+00 0. -1.
        -15    1    1    2    0    0  0.22783139158E+02 -0.46966818738E+00  0.13160339334E+03  0.13357358603E+03  0.17770000000E+01 0. -1.
         15    1    1    2    0    0 -0.20833308527E+02 -0.18010957092E+01  0.42466593224E+02  0.47369187865E+02  0.17770000000E+01 0.  1.
</event>
<event>
 6    1  0.1196607E-002  0.1844859E+03  0.7546771E-02  0.1066885E+00
        -11   -1    0    0    0    0  0.00000000000E+00  0.00000000000E+00  0.18250000000E+03  0.18250000000E+03  0.00000000000E+00 0. -1.
         11   -1    0    0    0    0 -0.00000000000E+00 -0.00000000000E+00 -0.18250000000E+03  0.18250000000E+03  0.00000000000E+00 0.  1.
        -11    1    1    2    0    0  0.46792387928E+01  0.40679550332E+00  0.18045300307E+03  0.18051411877E+03  0.00000000000E+00 0. -1.
         11    1    1    2    0    0 -0.15492682087E+01  0.29321459536E+01 -0.12960137151E+03  0.12964379357E+03  0.00000000000E+00 0.  1.
        -15    1    1    2    0    0  0.76832984555E+00  0.12763775925E+01 -0.47778901389E+02  0.47835139986E+02  0.17770000000E+01 0.  1.
         15    1    1    2    0    0 -0.38983004296E+01 -0.46153190495E+01 -0.30727301639E+01  0.70069476827E+01  0.17770000000E+01 0. -1.
</event>
<event>
 6    1  0.1196607E-002  0.1827708E+03  0.7546771E-02  0.1068239E+00
        -11   -1    0    0    0    0  0.00000000000E+00  0.00000000000E+00  0.18250000000E+03  0.18250000000E+03  0.00000000000E+00 0. -1.
         11   -1    0    0    0    0 -0.00000000000E+00 -0.00000000000E+00 -0.18250000000E+03  0.18250000000E+03  0.00000000000E+00 0. -1.
        -11    1    1    2    0    0 -0.16233107339E+01 -0.21088886923E+01  0.18220972017E+03  0.18222915429E+03  0.00000000000E+00 0. -1.
         11    1    1    2    0    0 -0.22969110244E+01  0.28813069235E+01 -0.40505506120E+02  0.40672764301E+02  0.00000000000E+00 0. -1.
        -15    1    1    2    0    0  0.15095679607E+01  0.37258217187E+01 -0.38034333227E+02  0.38287449327E+02  0.17770000000E+01 0.  1.
         15    1    1    2    0    0  0.24106537977E+01 -0.44982399499E+01 -0.10366988082E+03  0.10381063208E+03  0.17770000000E+01 0. -1.
</event>
<event>
 6    1  0.1196607E-002  0.1828762E+03  0.7546771E-02  0.1068156E+00
        -11   -1    0    0    0    0  0.00000000000E+00  0.00000000000E+00  0.18250000000E+03  0.18250000000E+03  0.00000000000E+00 0.  1.
         11   -1    0    0    0    0 -0.00000000000E+00 -0.00000000000E+00 -0.18250000000E+03  0.18250000000E+03  0.00000000000E+00 0.  1.
        -11    1    1    2    0    0  0.19300104554E+01 -0.36355153959E+01  0.18207733100E+03  0.18212384900E+03  0.00000000000E+00 0.  1.
         11    1    1    2    0    0 -0.10799028221E+01 -0.21231047085E+01 -0.10387983818E+03  0.10390714386E+03  0.00000000000E+00 0.  1.
        -15    1    1    2    0    0  0.85901144615E+00  0.36117473088E+01 -0.70316260629E+02  0.70436615884E+02  0.17770000000E+01 0.  1.
         15    1    1    2    0    0 -0.17091190794E+01  0.21468727956E+01 -0.78812321855E+01  0.85323912586E+01  0.17770000000E+01 0. -1.
</event>
<event>
 6    1  0.1196607E-002  0.1857867E+03  0.7546771E-02  0.1065868E+00
        -11   -1    0    0    0    0  0.00000000000E+00  0.00000000000E+00  0.18250000000E+03  0.18250000000E+03  0.00000000000E+00 0.  1.
         11   -1    0    0    0    0 -0.00000000000E+00 -0.00000000000E+00 -0.18250000000E+03  0.18250000000E+03  0.00000000000E+00 0.  1.
        -11    1    1    2    0    0 -0.24523368178E+00 -0.51739956036E+01  0.17381429455E+03  0.17389145856E+03  0.00000000000E+00 0.  1.
         11    1    1    2    0    0  0.16134059689E+01 -0.29228389965E+01 -0.17918218101E+03  0.17921328092E+03  0.00000000000E+00 0.  1.
        -15    1    1    2    0    0 -0.47198391773E+00  0.79028490549E+01  0.56338168330E+01  0.98780267822E+01  0.17770000000E+01 0.  1.
         15    1    1    2    0    0 -0.89618836935E+00  0.19398554523E+00 -0.26593037251E+00  0.20172337366E+01  0.17770000000E+01 0.  1.
</event>
<event>
 6    1  0.1196607E-002  0.1835761E+03  0.7546771E-02  0.1067601E+00
        -11   -1    0    0    0    0  0.00000000000E+00  0.00000000000E+00  0.18250000000E+03  0.18250000000E+03  0.00000000000E+00 0. -1.
         11   -1    0    0    0    0 -0.00000000000E+00 -0.00000000000E+00 -0.18250000000E+03  0.18250000000E+03  0.00000000000E+00 0.  1.
        -11    1    1    2    0    0  0.21399756797E+01  0.32165879901E+01  0.18138275819E+03  0.18142389838E+03  0.00000000000E+00 0. -1.
         11    1    1    2    0    0 -0.14849540638E+01  0.23135683793E+01 -0.17114372077E+03  0.17116579929E+03  0.00000000000E+00 0.  1.
        -15    1    1    2    0    0 -0.51396289581E+00 -0.17863098707E+01 -0.57521070221E+01  0.63007559075E+01  0.17770000000E+01 0. -1.
         15    1    1    2    0    0 -0.14105872011E+00 -0.37438464986E+01 -0.44869303910E+01  0.61095464236E+01  0.17770000000E+01 0.  1.
</event>
<event>
 6    1  0.1196607E-002  0.1826413E+03  0.7546771E-02  0.1068342E+00
        -11   -1    0    0    0    0  0.00000000000E+00  0.00000000000E+00  0.18250000000E+03  0.18250000000E+03  0.00000000000E+00 0.  1.
         11   -1    0    0    0    0 -0.00000000000E+00 -0.00000000000E+00 -0.18250000000E+03  0.18250000000E+03  0.00000000000E+00 0. -1.
        -11    1    1    2    0    0 -0.30956032785E+01 -0.36559946028E-01  0.18233238004E+03  0.18235866008E+03  0.00000000000E+00 0.  1.
         11    1    1    2    0    0  0.13619178457E+01  0.59877861055E+00 -0.60125314505E+02  0.60143717880E+02  0.00000000000E+00 0. -1.
        -15    1    1    2    0    0 -0.20699751981E+01 -0.21075509056E+01 -0.74960770980E+02  0.75039999221E+02  0.17770000000E+01 0.  1.
         15    1    1    2    0    0  0.38036606310E+01  0.15453322411E+01 -0.47246294551E+02  0.47457622820E+02  0.17770000000E+01 0. -1.
</event>
<event>
 6    1  0.1196607E-002  0.2228398E+03  0.7546771E-02  0.1040226E+00
        -11   -1    0    0    0    0  0.00000000000E+00  0.00000000000E+00  0.18250000000E+03  0.18250000000E+03  0.00000000000E+00 0. -1.
         11   -1    0    0    0    0 -0.00000000000E+00 -0.00000000000E+00 -0.18250000000E+03  0.18250000000E+03  0.00000000000E+00 0.  1.
        -11    1    1    2    0    0  0.48509272854E+01  0.19886768115E+01  0.14206351117E+03  0.14216021785E+03  0.00000000000E+00 0. -1.
         11    1    1    2    0    0  0.16612889030E+01  0.79224741160E+00 -0.92560405447E+02  0.92578702698E+02  0.00000000000E+00 0.  1.
        -15    1    1    2    0    0 -0.78372196911E+01  0.18840208361E+01 -0.89526311263E+02  0.89906004718E+02  0.17770000000E+01 0.  1.
         15    1    1    2    0    0  0.13250035027E+01 -0.46649450592E+01  0.40023205536E+02  0.40355074738E+02  0.17770000000E+01 0. -1.
</event>
<event>
 6    1  0.1196607E-002  0.1828982E+03  0.7546771E-02  0.1068138E+00
        -11   -1    0    0    0    0  0.00000000000E+00  0.00000000000E+00  0.18250000000E+03  0.18250000000E+03  0.00000000000E+00 0.  1.
         11   -1    0    0    0    0 -0.00000000000E+00 -0.00000000000E+00 -0.18250000000E+03  0.18250000000E+03  0.00000000000E+00 0. -1.
        -11    1    1    2    0    0  0.17949537889E+01  0.93084668036E+00  0.14604042533E+03  0.14605442193E+03  0.00000000000E+00 0.  1.
         11    1    1    2    0    0 -0.35505915725E+01  0.10879780975E+01 -0.18206396226E+03  0.18210183072E+03  0.00000000000E+00 0. -1.
        -15    1    1    2    0    0  0.38690942600E+01  0.65456085734E-01  0.18800970090E+02  0.19277146579E+02  0.17770000000E+01 0.  1.
         15    1    1    2    0    0 -0.21134564763E+01 -0.20842808636E+01  0.17222566840E+02  0.17566600769E+02  0.17770000000E+01 0. -1.
</event>
<event>
 6    1  0.1196607E-002  0.1909192E+03  0.7546771E-02  0.1061944E+00
        -11   -1    0    0    0    0  0.00000000000E+00  0.00000000000E+00  0.18250000000E+03  0.18250000000E+03  0.00000000000E+00 0. -1.
         11   -1    0    0    0    0 -0.00000000000E+00 -0.00000000000E+00 -0.18250000000E+03  0.18250000000E+03  0.00000000000E+00 0.  1.
        -11    1    1    2    0    0 -0.37371087408E+00  0.17735139531E+01  0.13291185753E+03  0.13292421481E+03  0.00000000000E+00 0. -1.
         11    1    1    2    0    0 -0.67702988269E+00  0.26437407126E+01 -0.17405939438E+03  0.17408078730E+03  0.00000000000E+00 0.  1.
        -15    1    1    2    0    0 -0.16157777027E+01 -0.34497534424E+01  0.49145452769E+02  0.49324890200E+02  0.17770000000E+01 0.  1.
         15    1    1    2    0    0  0.26665184595E+01 -0.96750122325E+00 -0.79979159200E+01  0.86701076911E+01  0.17770000000E+01 0. -1.
</event>
<event>
 6    1  0.1196607E-002  0.1832096E+03  0.7546771E-02  0.1067891E+00
        -11   -1    0    0    0    0  0.00000000000E+00  0.00000000000E+00  0.18250000000E+03  0.18250000000E+03  0.00000000000E+00 0.  1.
         11   -1    0    0    0    0 -0.00000000000E+00 -0.00000000000E+00 -0.18250000000E+03  0.18250000000E+03  0.00000000000E+00 0.  1.
        -11    1    1    2    0    0  0.52414793431E+01 -0.24443388080E+00  0.18171469662E+03  0.18179043930E+03  0.00000000000E+00 0.  1.
         11    1    1    2    0    0 -0.32874049854E+01 -0.30899224958E+01 -0.10161045024E+03  0.10171056116E+03  0.00000000000E+00 0.  1.
        -15    1    1    2    0    0 -0.13498764966E+01  0.43347700340E+00 -0.12993915569E+01  0.26184377569E+01  0.17770000000E+01 0. -1.
         15    1    1    2    0    0 -0.60419786111E+00  0.29008793732E+01 -0.78804854815E+02  0.78880561786E+02  0.17770000000E+01 0.  1.
</event>
<event>
 6    1  0.1196607E-002  0.1827768E+03  0.7546771E-02  0.1068235E+00
        -11   -1    0    0    0    0  0.00000000000E+00  0.00000000000E+00  0.18250000000E+03  0.18250000000E+03  0.00000000000E+00 0.  1.
         11   -1    0    0    0    0 -0.00000000000E+00 -0.00000000000E+00 -0.18250000000E+03  0.18250000000E+03  0.00000000000E+00 0.  1.
        -11    1    1    2    0    0 -0.68837498721E+00  0.13109686864E+01  0.35892870016E+02  0.35923399296E+02  0.00000000000E+00 0.  1.
         11    1    1    2    0    0 -0.28269759909E+01  0.11832465618E+01 -0.18219747280E+03  0.18222324484E+03  0.00000000000E+00 0.  1.
        -15    1    1    2    0    0  0.12781780927E+01 -0.40040365867E+01  0.20269077078E+02  0.20776411211E+02  0.17770000000E+01 0. -1.
         15    1    1    2    0    0  0.22371728854E+01  0.15098213385E+01  0.12603552571E+03  0.12607694465E+03  0.17770000000E+01 0.  1.
</event>
<event>
 6    1  0.1196607E-002  0.1848970E+03  0.7546771E-02  0.1066563E+00
        -11   -1    0    0    0    0  0.00000000000E+00  0.00000000000E+00  0.18250000000E+03  0.18250000000E+03  0.00000000000E+00 0.  1.
         11   -1    0    0    0    0 -0.00000000000E+00 -0.00000000000E+00 -0.18250000000E+03  0.18250000000E+03  0.00000000000E+00 0.  1.
        -11    1    1    2    0    0  0.40551768113E-01  0.30835501571E+01  0.18007659025E+03  0.18010299354E+03  0.00000000000E+00 0.  1.
         11    1    1    2    0    0  0.50092606658E+01  0.50659184982E+01 -0.16712548926E+03  0.16727727097E+03  0.00000000000E+00 0.  1.
        -15    1    1    2    0    0 -0.48710428441E+01 -0.55564127981E+01 -0.50776941019E+01  0.91401032797E+01  0.17770000000E+01 0.  1.
         15    1    1    2    0    0 -0.17876958981E+00 -0.25930558573E+01 -0.78734068962E+01  0.84796322089E+01  0.17770000000E+01 0. -1.
</event>
<event>
 6    1  0.1196607E-002  0.1828292E+03  0.7546771E-02  0.1068193E+00
        -11   -1    0    0    0    0  0.00000000000E+00  0.00000000000E+00  0.18250000000E+03  0.18250000000E+03  0.00000000000E+00 0.  1.
         11   -1    0    0    0    0 -0.00000000000E+00 -0.00000000000E+00 -0.18250000000E+03  0.18250000000E+03  0.00000000000E+00 0. -1.
        -11    1    1    2    0    0  0.20212815060E+01 -0.81250066413E+00  0.10600724316E+03  0.10602962482E+03  0.00000000000E+00 0.  1.
         11    1    1    2    0    0 -0.41266031817E+00 -0.68186453733E+01 -0.18204270756E+03  0.18217083079E+03  0.00000000000E+00 0. -1.
        -15    1    1    2    0    0  0.20862049505E+01  0.15184936150E+01  0.32021643868E+02  0.32174547067E+02  0.17770000000E+01 0. -1.
         15    1    1    2    0    0 -0.36948261383E+01  0.61126524224E+01  0.44013820532E+02  0.44624997329E+02  0.17770000000E+01 0.  1.
</event>
<event>
 6    1  0.1196607E-002  0.1852326E+03  0.7546771E-02  0.1066300E+00
        -11   -1    0    0    0    0  0.00000000000E+00  0.00000000000E+00  0.18250000000E+03  0.18250000000E+03  0.00000000000E+00 0. -1.
         11   -1    0    0    0    0 -0.00000000000E+00 -0.00000000000E+00 -0.18250000000E+03  0.18250000000E+03  0.00000000000E+00 0. -1.
        -11    1    1    2    0    0 -0.99567354384E+01 -0.77100502911E+01  0.17932578305E+03  0.17976739950E+03  0.00000000000E+00 0. -1.
         11    1    1    2    0    0  0.22786113161E-01  0.70855513169E+01 -0.11051665413E+03  0.11074356142E+03  0.00000000000E+00 0. -1.
        -15    1    1    2    0    0  0.70330661551E+01 -0.12782387654E+02 -0.35595025458E+02  0.38509960010E+02  0.17770000000E+01 0. -1.
         15    1    1    2    0    0  0.29008831702E+01  0.13406886628E+02 -0.33214103471E+02  0.35979079068E+02  0.17770000000E+01 0.  1.
</event>
<event>
 6    1  0.1196607E-002  0.1837938E+03  0.7546771E-02  0.1067430E+00
        -11   -1    0    0    0    0  0.00000000000E+00  0.00000000000E+00  0.18250000000E+03  0.18250000000E+03  0.00000000000E+00 0.  1.
         11   -1    0    0    0    0 -0.00000000000E+00 -0.00000000000E+00 -0.18250000000E+03  0.18250000000E+03  0.00000000000E+00 0. -1.
        -11    1    1    2    0    0 -0.17728684407E+01 -0.12529648410E+01  0.48110602098E+02  0.48159557906E+02  0.00000000000E+00 0.  1.
         11    1    1    2    0    0 -0.28204383183E+01 -0.30144066263E+01 -0.18115920636E+03  0.18120623491E+03  0.00000000000E+00 0. -1.
        -15    1    1    2    0    0 -0.45618664793E+00 -0.31238689727E+01  0.17579553489E+01  0.40267604380E+01  0.17770000000E+01 0. -1.
         15    1    1    2    0    0  0.50494934070E+01  0.73912404400E+01  0.13129064891E+03  0.13160744675E+03  0.17770000000E+01 0.  1.
</event>
<event>
 6    1  0.1196607E-002  0.1837037E+03  0.7546771E-02  0.1067501E+00
        -11   -1    0    0    0    0  0.00000000000E+00  0.00000000000E+00  0.18250000000E+03  0.18250000000E+03  0.00000000000E+00 0.  1.
         11   -1    0    0    0    0 -0.00000000000E+00 -0.00000000000E+00 -0.18250000000E+03  0.18250000000E+03  0.00000000000E+00 0. -1.
        -11    1    1    2    0    0  0.45046023811E+01  0.18613073822E+01  0.13656492958E+03  0.13665187851E+03  0.00000000000E+00 0.  1.
         11    1    1    2    0    0 -0.95497513250E+01 -0.15556731698E+01 -0.18103790636E+03  0.18129628073E+03  0.00000000000E+00 0. -1.
        -15    1    1    2    0    0 -0.36400782083E+01 -0.37664278442E+01  0.12006316081E+02  0.13219133969E+02  0.17770000000E+01 0. -1.
         15    1    1    2    0    0  0.86852271523E+01  0.34607936318E+01  0.32466660691E+02  0.33832706789E+02  0.17770000000E+01 0.  1.
</event>
<event>
 6    1  0.1196607E-002  0.1847682E+03  0.7546771E-02  0.1066664E+00
        -11   -1    0    0    0    0  0.00000000000E+00  0.00000000000E+00  0.18250000000E+03  0.18250000000E+03  0.00000000000E+00 0.  1.
         11   -1    0    0    0    0 -0.00000000000E+00 -0.00000000000E+00 -0.18250000000E+03  0.18250000000E+03  0.00000000000E+00 0.  1.
        -11    1    1    2    0    0  0.46489398035E+01 -0.20208117614E+01  0.16340160921E+03  0.16348021964E+03  0.00000000000E+00 0.  1.
         11    1    1    2    0    0 -0.22471063188E+01 -0.27237713872E+01 -0.18019720301E+03  0.18023179628E+03  0.00000000000E+00 0.  1.
        -15    1    1    2    0    0 -0.58201437528E+01  0.62249738441E+01  0.93511318489E+01  0.12775984053E+02  0.17770000000E+01 0.  1.
         15    1    1    2    0    0  0.34183102681E+01 -0.14803906955E+01  0.74444619540E+01  0.85120000285E+01  0.17770000000E+01 0. -1.
</event>
<event>
 6    1  0.1196607E-002  0.1852131E+03  0.7546771E-02  0.1066315E+00
        -11   -1    0    0    0    0  0.00000000000E+00  0.00000000000E+00  0.18250000000E+03  0.18250000000E+03  0.00000000000E+00 0.  1.
         11   -1    0    0    0    0 -0.00000000000E+00 -0.00000000000E+00 -0.18250000000E+03  0.18250000000E+03  0.00000000000E+00 0. -1.
        -11    1    1    2    0    0  0.31089673219E+01  0.36969242210E+00  0.15588086103E+03  0.15591229966E+03  0.00000000000E+00 0.  1.
         11    1    1    2    0    0  0.76836883908E+00  0.24121746204E+01 -0.17976910582E+03  0.17978693052E+03  0.00000000000E+00 0. -1.
        -15    1    1    2    0    0 -0.90685495756E+01 -0.17029459347E+00  0.20143861688E+02  0.22163043211E+02  0.17770000000E+01 0.  1.
         15    1    1    2    0    0  0.51912134146E+01 -0.26115724490E+01  0.37443831004E+01  0.71377266111E+01  0.17770000000E+01 0. -1.
</event>
<event>
 6    1  0.1196607E-002  0.1830015E+03  0.7546771E-02  0.1068056E+00
        -11   -1    0    0    0    0  0.00000000000E+00  0.00000000000E+00  0.18250000000E+03  0.18250000000E+03  0.00000000000E+00 0. -1.
         11   -1    0    0    0    0 -0.00000000000E+00 -0.00000000000E+00 -0.18250000000E+03  0.18250000000E+03  0.00000000000E+00 0. -1.
        -11    1    1    2    0    0  0.22894998641E+01  0.49871844010E+01  0.18191578746E+03  0.18199853721E+03  0.00000000000E+00 0. -1.
         11    1    1    2    0    0 -0.77176092351E+00 -0.56639847016E+01 -0.70681117268E+02  0.70911893754E+02  0.00000000000E+00 0. -1.
        -15    1    1    2    0    0 -0.36196617905E+01  0.52448253320E+01 -0.88103810823E+02  0.88351849753E+02  0.17770000000E+01 0. -1.
         15    1    1    2    0    0  0.21019228499E+01 -0.45680250314E+01 -0.23130859374E+02  0.23737719283E+02  0.17770000000E+01 0.  1.
</event>
<event>
 6    1  0.1196607E-002  0.1847758E+03  0.7546771E-02  0.1066658E+00
        -11   -1    0    0    0    0  0.00000000000E+00  0.00000000000E+00  0.18250000000E+03  0.18250000000E+03  0.00000000000E+00 0.  1.
         11   -1    0    0    0    0 -0.00000000000E+00 -0.00000000000E+00 -0.18250000000E+03  0.18250000000E+03  0.00000000000E+00 0.  1.
        -11    1    1    2    0    0  0.33348138333E+01 -0.18371366267E+01  0.13277465423E+03  0.13282923195E+03  0.00000000000E+00 0.  1.
         11    1    1    2    0    0  0.49340070639E+01 -0.60448297361E+01 -0.18005522554E+03  0.18022421768E+03  0.00000000000E+00 0.  1.
        -15    1    1    2    0    0 -0.19143900641E+01 -0.55281419815E+01  0.19002539676E+02  0.19961950963E+02  0.17770000000E+01 0. -1.
         15    1    1    2    0    0 -0.63544308331E+01  0.13410108344E+02  0.28278031634E+02  0.31984599405E+02  0.17770000000E+01 0.  1.
</event>
<event>
 6    1  0.1196607E-002  0.1927893E+03  0.7546771E-02  0.1060547E+00
        -11   -1    0    0    0    0  0.00000000000E+00  0.00000000000E+00  0.18250000000E+03  0.18250000000E+03  0.00000000000E+00 0. -1.
         11   -1    0    0    0    0 -0.00000000000E+00 -0.00000000000E+00 -0.18250000000E+03  0.18250000000E+03  0.00000000000E+00 0.  1.
        -11    1    1    2    0    0  0.39405382454E+01 -0.12684827633E+01  0.16518987610E+03  0.16524173823E+03  0.00000000000E+00 0. -1.
         11    1    1    2    0    0 -0.19861740093E+01 -0.12978368972E+01 -0.17219437807E+03  0.17221072298E+03  0.00000000000E+00 0.  1.
        -15    1    1    2    0    0  0.10365572090E+02 -0.20818595613E+01  0.91423051223E+01  0.14089666282E+02  0.17770000000E+01 0.  1.
         15    1    1    2    0    0 -0.12319936326E+02  0.46481792219E+01 -0.21378031456E+01  0.13457872508E+02  0.17770000000E+01 0. -1.
</event>
<event>
 6    1  0.1196607E-002  0.1835070E+03  0.7546771E-02  0.1067656E+00
        -11   -1    0    0    0    0  0.00000000000E+00  0.00000000000E+00  0.18250000000E+03  0.18250000000E+03  0.00000000000E+00 0. -1.
         11   -1    0    0    0    0 -0.00000000000E+00 -0.00000000000E+00 -0.18250000000E+03  0.18250000000E+03  0.00000000000E+00 0. -1.
        -11    1    1    2    0    0 -0.24775899591E+01  0.11149362855E+01  0.18147267901E+03  0.18149301574E+03  0.00000000000E+00 0. -1.
         11    1    1    2    0    0 -0.17035003102E+01  0.46108734405E+01 -0.14989197123E+03  0.14997254785E+03  0.00000000000E+00 0. -1.
        -15    1    1    2    0    0  0.20485952601E+01 -0.55891872484E+01 -0.29264423129E+02  0.29916549712E+02  0.17770000000E+01 0.  1.
         15    1    1    2    0    0  0.21324950093E+01 -0.13662247764E+00 -0.23162846426E+01  0.36178867052E+01  0.17770000000E+01 0. -1.
</event>
<event>
 6    1  0.1196607E-002  0.1835697E+03  0.7546771E-02  0.1067606E+00
        -11   -1    0    0    0    0  0.00000000000E+00  0.00000000000E+00  0.18250000000E+03  0.18250000000E+03  0.00000000000E+00 0.  1.
         11   -1    0    0    0    0 -0.00000000000E+00 -0.00000000000E+00 -0.18250000000E+03  0.18250000000E+03  0.00000000000E+00 0. -1.
        -11    1    1    2    0    0 -0.18070782797E+01  0.20814820046E+01  0.18140932539E+03  0.18143026605E+03  0.00000000000E+00 0.  1.
         11    1    1    2    0    0 -0.27549488469E+01 -0.25945813925E+00 -0.16947672403E+03  0.16949931283E+03  0.00000000000E+00 0. -1.
        -15    1    1    2    0    0  0.25297322741E+01 -0.23430463168E+01 -0.99537729335E+01  0.10682917955E+02  0.17770000000E+01 0. -1.
         15    1    1    2    0    0  0.20322948525E+01  0.52102245150E+00 -0.19788284291E+01  0.33875031682E+01  0.17770000000E+01 0.  1.
</event>
<event>
 6    1  0.1196607E-002  0.1862143E+03  0.7546771E-02  0.1065536E+00
        -11   -1    0    0    0    0  0.00000000000E+00  0.00000000000E+00  0.18250000000E+03  0.18250000000E+03  0.00000000000E+00 0. -1.
         11   -1    0    0    0    0 -0.00000000000E+00 -0.00000000000E+00 -0.18250000000E+03  0.18250000000E+03  0.00000000000E+00 0.  1.
        -11    1    1    2    0    0  0.80390000374E+00 -0.23376497734E+01  0.79895471431E+02  0.79933705136E+02  0.00000000000E+00 0. -1.
         11    1    1    2    0    0 -0.18295135331E+01  0.80788628747E+01 -0.17859370313E+03  0.17878569838E+03  0.00000000000E+00 0.  1.
        -15    1    1    2    0    0 -0.22276558982E+01  0.24292770449E+01  0.97094042702E+02  0.97166221986E+02  0.17770000000E+01 0.  1.
         15    1    1    2    0    0  0.32532694275E+01 -0.81704901462E+01  0.16041890010E+01  0.91143745012E+01  0.17770000000E+01 0.  1.
</event>
<event>
 6    1  0.1196607E-002  0.1827485E+03  0.7546771E-02  0.1068257E+00
        -11   -1    0    0    0    0  0.00000000000E+00  0.00000000000E+00  0.18250000000E+03  0.18250000000E+03  0.00000000000E+00 0.  1.
         11   -1    0    0    0    0 -0.00000000000E+00 -0.00000000000E+00 -0.18250000000E+03  0.18250000000E+03  0.00000000000E+00 0. -1.
        -11    1    1    2    0    0  0.11851410498E+00 -0.24545331375E+01  0.18223489505E+03  0.18225146297E+03  0.00000000000E+00 0.  1.
         11    1    1    2    0    0 -0.84708463281E+00 -0.13060631463E+01 -0.88160941231E+02  0.88174684077E+02  0.00000000000E+00 0. -1.
        -15    1    1    2    0    0 -0.66072480393E-01  0.55709163811E+01 -0.82117402817E+02  0.82325360912E+02  0.17770000000E+01 0. -1.
         15    1    1    2    0    0  0.79464300822E+00 -0.18103200973E+01 -0.11956551007E+02  0.12248492044E+02  0.17770000000E+01 0. -1.
</event>
<event>
 6    1  0.1196607E-002  0.1945541E+03  0.7546771E-02  0.1059245E+00
        -11   -1    0    0    0    0  0.00000000000E+00  0.00000000000E+00  0.18250000000E+03  0.18250000000E+03  0.00000000000E+00 0.  1.
         11   -1    0    0    0    0 -0.00000000000E+00 -0.00000000000E+00 -0.18250000000E+03  0.18250000000E+03  0.00000000000E+00 0. -1.
        -11    1    1    2    0    0 -0.12168900634E+01 -0.24103251172E+01  0.17042453325E+03  0.17044592111E+03  0.00000000000E+00 0.  1.
         11    1    1    2    0    0  0.84439774509E+00  0.10107052051E+01 -0.70714493161E+02  0.70726756433E+02  0.00000000000E+00 0. -1.
        -15    1    1    2    0    0 -0.58041426589E+01  0.55768299525E+01  0.10501117693E+02  0.13349917833E+02  0.17770000000E+01 0. -1.
         15    1    1    2    0    0  0.61766349772E+01 -0.41772100404E+01 -0.11021115778E+03  0.11047740462E+03  0.17770000000E+01 0.  1.
</event>
<event>
 6    1  0.1196607E-002  0.1910058E+03  0.7546771E-02  0.1061879E+00
        -11   -1    0    0    0    0  0.00000000000E+00  0.00000000000E+00  0.18250000000E+03  0.18250000000E+03  0.00000000000E+00 0. -1.
         11   -1    0    0    0    0 -0.00000000000E+00 -0.00000000000E+00 -0.18250000000E+03  0.18250000000E+03  0.00000000000E+00 0. -1.
        -11    1    1    2    0    0 -0.82767021911E+01 -0.10193497132E+01  0.17379428858E+03  0.17399424593E+03  0.00000000000E+00 0. -1.
         11    1    1    2    0    0  0.22732827948E+01  0.10890505201E+01 -0.14626667626E+03  0.14628839472E+03  0.00000000000E+00 0. -1.
        -15    1    1    2    0    0  0.53963238868E+01  0.30697581070E+01  0.72723410356E+01  0.97256567627E+01  0.17770000000E+01 0. -1.
         15    1    1    2    0    0  0.60709550948E+00 -0.31394589139E+01 -0.34799953354E+02  0.34991702583E+02  0.17770000000E+01 0.  1.
</event>
<event>
 6    1  0.1196607E-002  0.1838109E+03  0.7546771E-02  0.1067416E+00
        -11   -1    0    0    0    0  0.00000000000E+00  0.00000000000E+00  0.18250000000E+03  0.18250000000E+03  0.00000000000E+00 0. -1.
         11   -1    0    0    0    0 -0.00000000000E+00 -0.00000000000E+00 -0.18250000000E+03  0.18250000000E+03  0.00000000000E+00 0.  1.
        -11    1    1    2    0    0 -0.12466737379E+01 -0.29615973484E+01  0.18116056815E+03  0.18118906343E+03  0.00000000000E+00 0. -1.
         11    1    1    2    0    0  0.26074185603E+01  0.21636581888E+01 -0.16424264448E+03  0.16427758921E+03  0.00000000000E+00 0.  1.
        -15    1    1    2    0    0 -0.32842261161E+01 -0.13666244622E+01 -0.15228359226E+02  0.15738947148E+02  0.17770000000E+01 0.  1.
         15    1    1    2    0    0  0.19234812936E+01  0.21645636218E+01 -0.16895644441E+01  0.37944002122E+01  0.17770000000E+01 0.  1.
</event>
<event>
 6    1  0.1196607E-002  0.1889668E+03  0.7546771E-02  0.1063421E+00
        -11   -1    0    0    0    0  0.00000000000E+00  0.00000000000E+00  0.18250000000E+03  0.18250000000E+03  0.00000000000E+00 0. -1.
         11   -1    0    0    0    0 -0.00000000000E+00 -0.00000000000E+00 -0.18250000000E+03  0.18250000000E+03  0.00000000000E+00 0.  1.
        -11    1    1    2    0    0  0.86837001683E+01 -0.74448052838E+01  0.17566116833E+03  0.17603317254E+03  0.00000000000E+00 0. -1.
         11    1    1    2    0    0 -0.46553590487E+01 -0.17984920638E+02 -0.90084228381E+02  0.91979877915E+02  0.00000000000E+00 0.  1.
        -15    1    1    2    0    0 -0.82796414852E+01  0.14223545478E+02 -0.78486586825E+01  0.18319958548E+02  0.17770000000E+01 0.  1.
         15    1    1    2    0    0  0.42513003655E+01  0.11206180444E+02 -0.77728281268E+02  0.78666990999E+02  0.17770000000E+01 0. -1.
</event>
<event>
 6    1  0.1196607E-002  0.1854484E+03  0.7546771E-02  0.1066132E+00
        -11   -1    0    0    0    0  0.00000000000E+00  0.00000000000E+00  0.18250000000E+03  0.18250000000E+03  0.00000000000E+00 0. -1.
         11   -1    0    0    0    0 -0.00000000000E+00 -0.00000000000E+00 -0.18250000000E+03  0.18250000000E+03  0.00000000000E+00 0. -1.
        -11    1    1    2    0    0 -0.24803378000E+01 -0.86278081604E+00  0.17953244245E+03  0.17955164816E+03  0.00000000000E+00 0. -1.
         11    1    1    2    0    0 -0.15639999320E+00 -0.25683165053E+01 -0.17690915928E+03  0.17692787047E+03  0.00000000000E+00 0. -1.
        -15    1    1    2    0    0  0.13688094481E+01  0.49557813540E+01 -0.16332061337E+01  0.56796566278E+01  0.17770000000E+01 0. -1.
         15    1    1    2    0    0  0.12679283451E+01 -0.15246840327E+01 -0.99007702925E+00  0.28408247415E+01  0.17770000000E+01 0.  1.
</event>
<event>
 6    1  0.1196607E-002  0.1922724E+03  0.7546771E-02  0.1060932E+00
        -11   -1    0    0    0    0  0.00000000000E+00  0.00000000000E+00  0.18250000000E+03  0.18250000000E+03  0.00000000000E+00 0.  1.
         11   -1    0    0    0    0 -0.00000000000E+00 -0.00000000000E+00 -0.18250000000E+03  0.18250000000E+03  0.00000000000E+00 0.  1.
        -11    1    1    2    0    0 -0.79663109857E+01  0.19433522847E+00  0.17254369783E+03  0.17272761081E+03  0.00000000000E+00 0.  1.
         11    1    1    2    0    0 -0.68001038365E+01  0.95070680456E+01 -0.14746928273E+03  0.14793179207E+03  0.00000000000E+00 0.  1.
        -15    1    1    2    0    0  0.18186215844E+02 -0.18760971700E+02 -0.14676327888E+02  0.30021073184E+02  0.17770000000E+01 0.  1.
         15    1    1    2    0    0 -0.34198010217E+01  0.90595684256E+01 -0.10398087210E+02  0.14319523934E+02  0.17770000000E+01 0. -1.
</event>
<event>
 6    1  0.1196607E-002  0.1839841E+03  0.7546771E-02  0.1067280E+00
        -11   -1    0    0    0    0  0.00000000000E+00  0.00000000000E+00  0.18250000000E+03  0.18250000000E+03  0.00000000000E+00 0.  1.
         11   -1    0    0    0    0 -0.00000000000E+00 -0.00000000000E+00 -0.18250000000E+03  0.18250000000E+03  0.00000000000E+00 0.  1.
        -11    1    1    2    0    0 -0.35545529153E+01  0.20698318626E+01  0.18096914086E+03  0.18101588050E+03  0.00000000000E+00 0.  1.
         11    1    1    2    0    0  0.92225112700E-02  0.49182179757E+01 -0.11850054491E+03  0.11860256362E+03  0.00000000000E+00 0.  1.
        -15    1    1    2    0    0  0.57610548417E+01 -0.11294978104E+02 -0.31776440306E+02  0.34258811578E+02  0.17770000000E+01 0.  1.
         15    1    1    2    0    0 -0.22157244376E+01  0.43069282656E+01 -0.30692155638E+02  0.31122744297E+02  0.17770000000E+01 0. -1.
</event>
<event>
 6    1  0.1196607E-002  0.1828192E+03  0.7546771E-02  0.1068201E+00
        -11   -1    0    0    0    0  0.00000000000E+00  0.00000000000E+00  0.18250000000E+03  0.18250000000E+03  0.00000000000E+00 0. -1.
         11   -1    0    0    0    0 -0.00000000000E+00 -0.00000000000E+00 -0.18250000000E+03  0.18250000000E+03  0.00000000000E+00 0.  1.
        -11    1    1    2    0    0  0.17752342924E+01 -0.22828018534E+01  0.10170804531E+03  0.10174914801E+03  0.00000000000E+00 0. -1.
         11    1    1    2    0    0 -0.22043541240E+01 -0.30201686840E+01 -0.18214243229E+03  0.18218080644E+03  0.00000000000E+00 0.  1.
        -15    1    1    2    0    0 -0.19399716505E+01 -0.26103544403E-01  0.47716574198E+02  0.47789050562E+02  0.17770000000E+01 0. -1.
         15    1    1    2    0    0  0.23690914822E+01  0.53290740819E+01  0.32717812779E+02  0.33280994983E+02  0.17770000000E+01 0. -1.
</event>
<event>
 6    1  0.1196607E-002  0.1833775E+03  0.7546771E-02  0.1067758E+00
        -11   -1    0    0    0    0  0.00000000000E+00  0.00000000000E+00  0.18250000000E+03  0.18250000000E+03  0.00000000000E+00 0. -1.
         11   -1    0    0    0    0 -0.00000000000E+00 -0.00000000000E+00 -0.18250000000E+03  0.18250000000E+03  0.00000000000E+00 0. -1.
        -11    1    1    2    0    0 -0.39745872414E+01 -0.13026456353E+01  0.10083565577E+03  0.10092236474E+03  0.00000000000E+00 0. -1.
         11    1    1    2    0    0  0.24315076547E+00 -0.45590980721E+01 -0.18156512421E+03  0.18162251740E+03  0.00000000000E+00 0. -1.
        -15    1    1    2    0    0 -0.63769045089E+00  0.36432014849E+01  0.46673674590E+01  0.62146290451E+01  0.17770000000E+01 0.  1.
         15    1    1    2    0    0  0.43691269269E+01  0.22185422225E+01  0.76062100985E+02  0.76240488816E+02  0.17770000000E+01 0. -1.
</event>
<event>
 6    1  0.1196607E-002  0.1895167E+03  0.7546771E-02  0.1063003E+00
        -11   -1    0    0    0    0  0.00000000000E+00  0.00000000000E+00  0.18250000000E+03  0.18250000000E+03  0.00000000000E+00 0. -1.
         11   -1    0    0    0    0 -0.00000000000E+00 -0.00000000000E+00 -0.18250000000E+03  0.18250000000E+03  0.00000000000E+00 0. -1.
        -11    1    1    2    0    0  0.60830486125E+01  0.20133161004E+02  0.13662478453E+03  0.13823414701E+03  0.00000000000E+00 0. -1.
         11    1    1    2    0    0 -0.17539663354E+01 -0.32910227755E+01 -0.17544367419E+03  0.17548330417E+03  0.00000000000E+00 0. -1.
        -15    1    1    2    0    0 -0.89155563340E+01  0.23165844592E+01  0.21587282267E+01  0.96266060924E+01  0.17770000000E+01 0.  1.
         15    1    1    2    0    0  0.45864740570E+01 -0.19158722688E+02  0.36660161431E+02  0.41655942727E+02  0.17770000000E+01 0. -1.
</event>
<event>
 6    1  0.1196607E-002  0.1696928E+03  0.7546771E-02  0.1079133E+00
        -11   -1    0    0    0    0  0.00000000000E+00  0.00000000000E+00  0.18250000000E+03  0.18250000000E+03  0.00000000000E+00 0. -1.
         11   -1    0    0    0    0 -0.00000000000E+00 -0.00000000000E+00 -0.18250000000E+03  0.18250000000E+03  0.00000000000E+00 0.  1.
        -11    1    1    2    0    0 -0.16815211708E+01  0.15592751696E+02  0.16743296085E+03  0.16816586395E+03  0.00000000000E+00 0. -1.
         11    1    1    2    0    0  0.18981514715E+01  0.31432954471E+01 -0.17172435716E+03  0.17176361118E+03  0.00000000000E+00 0.  1.
        -15    1    1    2    0    0  0.42173503933E+01 -0.31931295344E+01  0.66046028648E+01  0.86464228769E+01  0.17770000000E+01 0.  1.
         15    1    1    2    0    0 -0.44339806941E+01 -0.15542917608E+02 -0.23132065614E+01  0.16424101990E+02  0.17770000000E+01 0. -1.
</event>
<event>
 6    1  0.1196607E-002  0.1953340E+03  0.7546771E-02  0.1058674E+00
        -11   -1    0    0    0    0  0.00000000000E+00  0.00000000000E+00  0.18250000000E+03  0.18250000000E+03  0.00000000000E+00 0.  1.
         11   -1    0    0    0    0 -0.00000000000E+00 -0.00000000000E+00 -0.18250000000E+03  0.18250000000E+03  0.00000000000E+00 0.  1.
        -11    1    1    2    0    0  0.22115186505E+01 -0.40508418446E-01  0.16339097669E+03  0.16340594762E+03  0.00000000000E+00 0.  1.
         11    1    1    2    0    0  0.56536107556E+01 -0.13200376350E+01 -0.16956665826E+03  0.16966601725E+03  0.00000000000E+00 0.  1.
        -15    1    1    2    0    0 -0.51412230366E+01 -0.28198873214E+00  0.18391119998E+02  0.19180790279E+02  0.17770000000E+01 0.  1.
         15    1    1    2    0    0 -0.27239063695E+01  0.16425347856E+01 -0.12215438422E+02  0.12747244850E+02  0.17770000000E+01 0. -1.
</event>
<event>
 6    1  0.1196607E-002  0.1266875E+03  0.7546771E-02  0.1124313E+00
        -11   -1    0    0    0    0  0.00000000000E+00  0.00000000000E+00  0.18250000000E+03  0.18250000000E+03  0.00000000000E+00 0. -1.
         11   -1    0    0    0    0 -0.00000000000E+00 -0.00000000000E+00 -0.18250000000E+03  0.18250000000E+03  0.00000000000E+00 0.  1.
        -11    1    1    2    0    0 -0.50517823344E+01  0.46623736341E+01  0.12400564901E+03  0.12419605154E+03  0.00000000000E+00 0. -1.
         11    1    1    2    0    0 -0.10244106362E+01  0.35829930721E+01 -0.12938944779E+03  0.12944310123E+03  0.00000000000E+00 0.  1.
        -15    1    1    2    0    0  0.10593167268E+02  0.12349974304E+02 -0.49714340852E+02  0.52339377847E+02  0.17770000000E+01 0.  1.
         15    1    1    2    0    0 -0.45169742976E+01 -0.20595341010E+02  0.55098139633E+02  0.59021469384E+02  0.17770000000E+01 0. -1.
</event>
<event>
 6    1  0.1196607E-002  0.1885343E+03  0.7546771E-02  0.1063750E+00
        -11   -1    0    0    0    0  0.00000000000E+00  0.00000000000E+00  0.18250000000E+03  0.18250000000E+03  0.00000000000E+00 0. -1.
         11   -1    0    0    0    0 -0.00000000000E+00 -0.00000000000E+00 -0.18250000000E+03  0.18250000000E+03  0.00000000000E+00 0.  1.
        -11    1    1    2    0    0  0.31703316350E+01  0.24779980830E+01  0.12268390829E+03  0.12274987914E+03  0.00000000000E+00 0. -1.
         11    1    1    2    0    0  0.20580091835E+01 -0.34557511433E+01 -0.17641983383E+03  0.17646567764E+03  0.00000000000E+00 0.  1.
        -15    1    1    2    0    0 -0.12295298404E+02  0.16535491290E+02  0.31545323204E+02  0.37720842780E+02  0.17770000000E+01 0. -1.
         15    1    1    2    0    0  0.70669575853E+01 -0.15557738229E+02  0.22190602336E+02  0.28063600435E+02  0.17770000000E+01 0.  1.
</event>
<event>
 6    1  0.1225863E-002  0.1719865E+03  0.7546771E-02  0.1077146E+00
        -11   -1    0    0    0    0  0.00000000000E+00  0.00000000000E+00  0.18250000000E+03  0.18250000000E+03  0.00000000000E+00 0. -1.
         11   -1    0    0    0    0 -0.00000000000E+00 -0.00000000000E+00 -0.18250000000E+03  0.18250000000E+03  0.00000000000E+00 0.  1.
        -11    1    1    2    0    0  0.20003901852E+01  0.20380794742E+01  0.17317818103E+03  0.17320172550E+03  0.00000000000E+00 0. -1.
         11    1    1    2    0    0  0.37058098612E+01  0.64856754387E+01 -0.17076941658E+03  0.17093270797E+03  0.00000000000E+00 0.  1.
        -15    1    1    2    0    0 -0.48827743048E+01 -0.69972582906E+01 -0.97725343013E+01  0.13094398198E+02  0.17770000000E+01 0. -1.
         15    1    1    2    0    0 -0.82342574165E+00 -0.15264966224E+01  0.73637698525E+01  0.77711683376E+01  0.17770000000E+01 0. -1.
</event>
<event>
 6    1  0.1196607E-002  0.1829034E+03  0.7546771E-02  0.1068134E+00
        -11   -1    0    0    0    0  0.00000000000E+00  0.00000000000E+00  0.18250000000E+03  0.18250000000E+03  0.00000000000E+00 0.  1.
         11   -1    0    0    0    0 -0.00000000000E+00 -0.00000000000E+00 -0.18250000000E+03  0.18250000000E+03  0.00000000000E+00 0. -1.
        -11    1    1    2    0    0  0.30122800190E+01  0.21836259041E+01  0.13063739054E+03  0.13069035871E+03  0.00000000000E+00 0.  1.
         11    1    1    2    0    0  0.36755536602E+01 -0.19141745004E+00 -0.18205940358E+03  0.18209660284E+03  0.00000000000E+00 0. -1.
        -15    1    1    2    0    0 -0.31203535695E+01 -0.31083541504E+01  0.22448774207E+02  0.22945667659E+02  0.17770000000E+01 0.  1.
         15    1    1    2    0    0 -0.35674801097E+01  0.11161456964E+01  0.28973238829E+02  0.29267370787E+02  0.17770000000E+01 0. -1.
</event>
<event>
 6    1  0.1196607E-002  0.1876223E+03  0.7546771E-02  0.1064449E+00
        -11   -1    0    0    0    0  0.00000000000E+00  0.00000000000E+00  0.18250000000E+03  0.18250000000E+03  0.00000000000E+00 0.  1.
         11   -1    0    0    0    0 -0.00000000000E+00 -0.00000000000E+00 -0.18250000000E+03  0.18250000000E+03  0.00000000000E+00 0.  1.
        -11    1    1    2    0    0  0.26036503542E-01 -0.64754303362E+01  0.17101741260E+03  0.17113996403E+03  0.00000000000E+00 0.  1.
         11    1    1    2    0    0 -0.31536697537E+01  0.13718171536E-02 -0.17734962043E+03  0.17737765784E+03  0.00000000000E+00 0.  1.
        -15    1    1    2    0    0  0.33753277162E+01  0.37904807250E+00  0.88527754973E+01  0.96470657528E+01  0.17770000000E+01 0.  1.
         15    1    1    2    0    0 -0.24769446604E+00  0.60950104466E+01 -0.25205676718E+01  0.68353123762E+01  0.17770000000E+01 0. -1.
</event>
<event>
 6    1  0.1196607E-002  0.1833010E+03  0.7546771E-02  0.1067819E+00
        -11   -1    0    0    0    0  0.00000000000E+00  0.00000000000E+00  0.18250000000E+03  0.18250000000E+03  0.00000000000E+00 0. -1.
         11   -1    0    0    0    0 -0.00000000000E+00 -0.00000000000E+00 -0.18250000000E+03  0.18250000000E+03  0.00000000000E+00 0. -1.
        -11    1    1    2    0    0  0.19182568665E+01  0.35340839507E+01  0.18165445645E+03  0.18169895709E+03  0.00000000000E+00 0. -1.
         11    1    1    2    0    0  0.38449875812E+01  0.10052669813E+01 -0.13187735493E+03  0.13193722460E+03  0.00000000000E+00 0. -1.
        -15    1    1    2    0    0 -0.49069530120E+01 -0.74822308195E+01 -0.36337731566E+02  0.37465323036E+02  0.17770000000E+01 0. -1.
         15    1    1    2    0    0 -0.85629143563E+00  0.29428798875E+01 -0.13439369956E+02  0.13898495274E+02  0.17770000000E+01 0.  1.
</event>
<event>
 6    1  0.1196607E-002  0.1831560E+03  0.7546771E-02  0.1067934E+00
        -11   -1    0    0    0    0  0.00000000000E+00  0.00000000000E+00  0.18250000000E+03  0.18250000000E+03  0.00000000000E+00 0. -1.
         11   -1    0    0    0    0 -0.00000000000E+00 -0.00000000000E+00 -0.18250000000E+03  0.18250000000E+03  0.00000000000E+00 0.  1.
        -11    1    1    2    0    0 -0.24028624751E+01 -0.24212379774E+01  0.31821578609E+02  0.32003890491E+02  0.00000000000E+00 0. -1.
         11    1    1    2    0    0  0.10495132685E+02  0.10844991379E+02 -0.18121667955E+03  0.18184401721E+03  0.00000000000E+00 0.  1.
        -15    1    1    2    0    0 -0.13638779920E+02 -0.52040295228E+01  0.72924648034E+02  0.74392608913E+02  0.17770000000E+01 0.  1.
         15    1    1    2    0    0  0.55465097101E+01 -0.32197238791E+01  0.76470452910E+02  0.76759483382E+02  0.17770000000E+01 0. -1.
</event>
<event>
 6    1  0.1196607E-002  0.1787219E+03  0.7546771E-02  0.1071503E+00
        -11   -1    0    0    0    0  0.00000000000E+00  0.00000000000E+00  0.18250000000E+03  0.18250000000E+03  0.00000000000E+00 0. -1.
         11   -1    0    0    0    0 -0.00000000000E+00 -0.00000000000E+00 -0.18250000000E+03  0.18250000000E+03  0.00000000000E+00 0.  1.
        -11    1    1    2    0    0  0.37615922221E+00  0.29689694822E+01  0.80096088258E+01  0.85504449644E+01  0.00000000000E+00 0. -1.
         11    1    1    2    0    0  0.24410557762E+01 -0.60772460923E+01 -0.18158423674E+03  0.18170230242E+03  0.00000000000E+00 0.  1.
        -15    1    1    2    0    0  0.43155443157E+01  0.70007343723E+01  0.38120720361E+02  0.39038202499E+02  0.17770000000E+01 0.  1.
         15    1    1    2    0    0 -0.71327593142E+01 -0.38924577623E+01  0.13545390755E+03  0.13570905011E+03  0.17770000000E+01 0. -1.
</event>
<event>
 6    1  0.1196607E-002  0.1839358E+03  0.7546771E-02  0.1067318E+00
        -11   -1    0    0    0    0  0.00000000000E+00  0.00000000000E+00  0.18250000000E+03  0.18250000000E+03  0.00000000000E+00 0.  1.
         11   -1    0    0    0    0 -0.00000000000E+00 -0.00000000000E+00 -0.18250000000E+03  0.18250000000E+03  0.00000000000E+00 0. -1.
        -11    1    1    2    0    0  0.23154199514E+01 -0.26745385177E+01  0.18102965848E+03  0.18106421947E+03  0.00000000000E+00 0.  1.
         11    1    1    2    0    0 -0.28704111615E+01 -0.67527294770E+00 -0.17506912533E+03  0.17509395734E+03  0.00000000000E+00 0. -1.
        -15    1    1    2    0    0 -0.10632538416E+01  0.15744384555E+01 -0.51116999551E+01  0.57355532090E+01  0.17770000000E+01 0. -1.
         15    1    1    2    0    0  0.16182450517E+01  0.17753730099E+01 -0.84883318970E+00  0.31062699746E+01  0.17770000000E+01 0.  1.
</event>
<event>
 6    1  0.1196607E-002  0.1867446E+03  0.7546771E-02  0.1065125E+00
        -11   -1    0    0    0    0  0.00000000000E+00  0.00000000000E+00  0.18250000000E+03  0.18250000000E+03  0.00000000000E+00 0. -1.
         11   -1    0    0    0    0 -0.00000000000E+00 -0.00000000000E+00 -0.18250000000E+03  0.18250000000E+03  0.00000000000E+00 0. -1.
        -11    1    1    2    0    0  0.38348598615E+01  0.57238370614E+01  0.17481062624E+03  0.17494634465E+03  0.00000000000E+00 0. -1.
         11    1    1    2    0    0 -0.15618090165E+01 -0.63457243901E+01 -0.17813557292E+03  0.17825540610E+03  0.00000000000E+00 0. -1.
        -15    1    1    2    0    0 -0.40437990622E+01 -0.40651419940E+01  0.18390976045E+01  0.62783516376E+01  0.17770000000E+01 0. -1.
         15    1    1    2    0    0  0.17707482172E+01  0.46870293227E+01  0.14858490761E+01  0.55198976076E+01  0.17770000000E+01 0. -1.
</event>
<event>
 6    1  0.1196607E-002  0.1421591E+03  0.7546771E-02  0.1106047E+00
        -11   -1    0    0    0    0  0.00000000000E+00  0.00000000000E+00  0.18250000000E+03  0.18250000000E+03  0.00000000000E+00 0. -1.
         11   -1    0    0    0    0 -0.00000000000E+00 -0.00000000000E+00 -0.18250000000E+03  0.18250000000E+03  0.00000000000E+00 0.  1.
        -11    1    1    2    0    0  0.22468980981E+02 -0.15203759511E+02  0.13657467627E+03  0.13924313846E+03  0.00000000000E+00 0. -1.
         11    1    1    2    0    0  0.17180813750E+02  0.95435348847E+00 -0.14738182992E+03  0.14838293346E+03  0.00000000000E+00 0.  1.
        -15    1    1    2    0    0  0.28602757032E+01 -0.80597365156E+01  0.25646373874E+02  0.27093075715E+02  0.17770000000E+01 0. -1.
         15    1    1    2    0    0 -0.42510070434E+02  0.22309142538E+02 -0.14839220228E+02  0.50280852371E+02  0.17770000000E+01 0.  1.
</event>
<event>
 6    1  0.1196607E-002  0.1832212E+03  0.7546771E-02  0.1067882E+00
        -11   -1    0    0    0    0  0.00000000000E+00  0.00000000000E+00  0.18250000000E+03  0.18250000000E+03  0.00000000000E+00 0. -1.
         11   -1    0    0    0    0 -0.00000000000E+00 -0.00000000000E+00 -0.18250000000E+03  0.18250000000E+03  0.00000000000E+00 0.  1.
        -11    1    1    2    0    0  0.16691947997E+01  0.22102813050E+01  0.96990698983E+02  0.97030238812E+02  0.00000000000E+00 0. -1.
         11    1    1    2    0    0 -0.60139981921E+01 -0.71258932820E+01 -0.18153948023E+03  0.18177879253E+03  0.00000000000E+00 0.  1.
        -15    1    1    2    0    0  0.67594893092E+01  0.43655615234E+01  0.20851308611E+02  0.22420607105E+02  0.17770000000E+01 0. -1.
         15    1    1    2    0    0 -0.24146859168E+01  0.55005045353E+00  0.63697472638E+02  0.63770361556E+02  0.17770000000E+01 0.  1.
</event>
<event>
 6    1  0.1196607E-002  0.1857936E+03  0.7546771E-02  0.1065863E+00
        -11   -1    0    0    0    0  0.00000000000E+00  0.00000000000E+00  0.18250000000E+03  0.18250000000E+03  0.00000000000E+00 0.  1.
         11   -1    0    0    0    0 -0.00000000000E+00 -0.00000000000E+00 -0.18250000000E+03  0.18250000000E+03  0.00000000000E+00 0.  1.
        -11    1    1    2    0    0  0.25463960220E+01 -0.13834037331E+01  0.17494879813E+03  0.17497279762E+03  0.00000000000E+00 0.  1.
         11    1    1    2    0    0  0.20697939552E+01 -0.25705499743E+01 -0.17917598391E+03  0.17920637540E+03  0.00000000000E+00 0.  1.
        -15    1    1    2    0    0 -0.49827419652E+01  0.52535807310E+01  0.21193251809E+01  0.77509416339E+01  0.17770000000E+01 0.  1.
         15    1    1    2    0    0  0.36655198798E+00 -0.12996270236E+01  0.21078605980E+01  0.30698853498E+01  0.17770000000E+01 0. -1.
</event>
<event>
 6    1  0.1196607E-002  0.1828608E+03  0.7546771E-02  0.1068168E+00
        -11   -1    0    0    0    0  0.00000000000E+00  0.00000000000E+00  0.18250000000E+03  0.18250000000E+03  0.00000000000E+00 0. -1.
         11   -1    0    0    0    0 -0.00000000000E+00 -0.00000000000E+00 -0.18250000000E+03  0.18250000000E+03  0.00000000000E+00 0. -1.
        -11    1    1    2    0    0  0.13049580001E+01  0.35813459811E+01  0.18209928558E+03  0.18213917416E+03  0.00000000000E+00 0. -1.
         11    1    1    2    0    0  0.23361075198E+01  0.12653734262E+01 -0.41453517460E+02  0.41538568561E+02  0.00000000000E+00 0. -1.
        -15    1    1    2    0    0 -0.29254165138E+01  0.64793654528E+00 -0.11378919681E+03  0.11384250930E+03  0.17770000000E+01 0. -1.
         15    1    1    2    0    0 -0.71564900608E+00 -0.54946559526E+01 -0.26856571311E+02  0.27479747982E+02  0.17770000000E+01 0.  1.
</event>
<event>
 6    1  0.1196607E-002  0.1852377E+03  0.7546771E-02  0.1066296E+00
        -11   -1    0    0    0    0  0.00000000000E+00  0.00000000000E+00  0.18250000000E+03  0.18250000000E+03  0.00000000000E+00 0.  1.
         11   -1    0    0    0    0 -0.00000000000E+00 -0.00000000000E+00 -0.18250000000E+03  0.18250000000E+03  0.00000000000E+00 0.  1.
        -11    1    1    2    0    0  0.88795343568E-01 -0.25406629586E+01  0.17974436395E+03  0.17976234095E+03  0.00000000000E+00 0.  1.
         11    1    1    2    0    0 -0.14714725801E+01 -0.44939558859E+01 -0.15965609239E+03  0.15972610528E+03  0.00000000000E+00 0.  1.
        -15    1    1    2    0    0 -0.38649017502E+01  0.10825356268E+01 -0.15636994755E+02  0.16241387961E+02  0.17770000000E+01 0. -1.
         15    1    1    2    0    0  0.52475789867E+01  0.59520832177E+01 -0.44512768050E+01  0.92701658048E+01  0.17770000000E+01 0.  1.
</event>
<event>
 6    1  0.1196607E-002  0.1835913E+03  0.7546771E-02  0.1067589E+00
        -11   -1    0    0    0    0  0.00000000000E+00  0.00000000000E+00  0.18250000000E+03  0.18250000000E+03  0.00000000000E+00 0.  1.
         11   -1    0    0    0    0 -0.00000000000E+00 -0.00000000000E+00 -0.18250000000E+03  0.18250000000E+03  0.00000000000E+00 0. -1.
        -11    1    1    2    0    0  0.27231255449E+01  0.46641884173E+01  0.18132828126E+03  0.18140869783E+03  0.00000000000E+00 0.  1.
         11    1    1    2    0    0 -0.74184436743E+00 -0.34475945294E+01 -0.14667427411E+03  0.14671666206E+03  0.00000000000E+00 0. -1.
        -15    1    1    2    0    0 -0.55958655643E+01 -0.39657611818E+01 -0.14491534043E+02  0.16130817124E+02  0.17770000000E+01 0.  1.
         15    1    1    2    0    0  0.36145843868E+01  0.27491672939E+01 -0.20162473104E+02  0.20743822979E+02  0.17770000000E+01 0.  1.
</event>
<event>
 6    1  0.1196607E-002  0.1905249E+03  0.7546771E-02  0.1062241E+00
        -11   -1    0    0    0    0  0.00000000000E+00  0.00000000000E+00  0.18250000000E+03  0.18250000000E+03  0.00000000000E+00 0.  1.
         11   -1    0    0    0    0 -0.00000000000E+00 -0.00000000000E+00 -0.18250000000E+03  0.18250000000E+03  0.00000000000E+00 0. -1.
        -11    1    1    2    0    0  0.53819831398E+01 -0.94884525837E+01  0.15229545340E+03  0.15268562998E+03  0.00000000000E+00 0.  1.
         11    1    1    2    0    0  0.15262182667E+02 -0.36701937323E+01 -0.17376751224E+03  0.17447507803E+03  0.00000000000E+00 0. -1.
        -15    1    1    2    0    0 -0.14494330003E+02 -0.19370491626E+00  0.16913195596E+02  0.22345850579E+02  0.17770000000E+01 0. -1.
         15    1    1    2    0    0 -0.61498358035E+01  0.13352351232E+02  0.45588632442E+01  0.15493441416E+02  0.17770000000E+01 0.  1.
</event>
<event>
 6    1  0.1196607E-002  0.1831329E+03  0.7546771E-02  0.1067952E+00
        -11   -1    0    0    0    0  0.00000000000E+00  0.00000000000E+00  0.18250000000E+03  0.18250000000E+03  0.00000000000E+00 0. -1.
         11   -1    0    0    0    0 -0.00000000000E+00 -0.00000000000E+00 -0.18250000000E+03  0.18250000000E+03  0.00000000000E+00 0. -1.
        -11    1    1    2    0    0  0.30266898387E+01  0.13237935012E+01  0.13376532323E+03  0.13380610965E+03  0.00000000000E+00 0. -1.
         11    1    1    2    0    0 -0.23858464359E+01 -0.15939295916E+01 -0.18184443247E+03  0.18186706820E+03  0.00000000000E+00 0. -1.
        -15    1    1    2    0    0 -0.22222868092E+01  0.42788283847E+01  0.36250416816E+02  0.36612803490E+02  0.17770000000E+01 0.  1.
         15    1    1    2    0    0  0.15814434064E+01 -0.40086922943E+01  0.11828692420E+02  0.12714018661E+02  0.17770000000E+01 0.  1.
</event>
<event>
 6    1  0.1196607E-002  0.1843196E+03  0.7546771E-02  0.1067016E+00
        -11   -1    0    0    0    0  0.00000000000E+00  0.00000000000E+00  0.18250000000E+03  0.18250000000E+03  0.00000000000E+00 0.  1.
         11   -1    0    0    0    0 -0.00000000000E+00 -0.00000000000E+00 -0.18250000000E+03  0.18250000000E+03  0.00000000000E+00 0. -1.
        -11    1    1    2    0    0 -0.20477670115E+00 -0.38669041376E+01  0.18063886535E+03  0.18068036572E+03  0.00000000000E+00 0.  1.
         11    1    1    2    0    0  0.53052792836E+01  0.59225134091E+01 -0.12330274782E+03  0.12355885146E+03  0.00000000000E+00 0. -1.
        -15    1    1    2    0    0  0.52399033108E+01  0.36774141582E+01 -0.10520983246E+02  0.12443021300E+02  0.17770000000E+01 0.  1.
         15    1    1    2    0    0 -0.10340405893E+02 -0.57330234297E+01 -0.46815134282E+02  0.48317761522E+02  0.17770000000E+01 0. -1.
</event>
<event>
 6    1  0.1196607E-002  0.1835159E+03  0.7546771E-02  0.1067649E+00
        -11   -1    0    0    0    0  0.00000000000E+00  0.00000000000E+00  0.18250000000E+03  0.18250000000E+03  0.00000000000E+00 0. -1.
         11   -1    0    0    0    0 -0.00000000000E+00 -0.00000000000E+00 -0.18250000000E+03  0.18250000000E+03  0.00000000000E+00 0. -1.
        -11    1    1    2    0    0  0.55534090694E+01 -0.37614219774E+01  0.15279264952E+03  0.15293979990E+03  0.00000000000E+00 0. -1.
         11    1    1    2    0    0 -0.27080116323E+01  0.88045403586E+00 -0.18146173021E+03  0.18148407108E+03  0.00000000000E+00 0. -1.
        -15    1    1    2    0    0  0.22631019826E+01  0.66905251186E+00  0.28527862212E+01  0.41067481139E+01  0.17770000000E+01 0. -1.
         15    1    1    2    0    0 -0.51084994197E+01  0.22119154297E+01  0.25816294470E+02  0.26469380902E+02  0.17770000000E+01 0.  1.
</event>
<event>
 6    1  0.1196607E-002  0.1872104E+03  0.7546771E-02  0.1064766E+00
        -11   -1    0    0    0    0  0.00000000000E+00  0.00000000000E+00  0.18250000000E+03  0.18250000000E+03  0.00000000000E+00 0. -1.
         11   -1    0    0    0    0 -0.00000000000E+00 -0.00000000000E+00 -0.18250000000E+03  0.18250000000E+03  0.00000000000E+00 0.  1.
        -11    1    1    2    0    0 -0.64792825982E+00  0.27399498456E+01  0.17776733704E+03  0.17778963202E+03  0.00000000000E+00 0. -1.
         11    1    1    2    0    0 -0.33457574287E+01 -0.47658014894E+01 -0.15312743022E+03  0.15323810506E+03  0.00000000000E+00 0.  1.
        -15    1    1    2    0    0  0.24132849347E+01 -0.39009235244E+01  0.28940702696E+01  0.57074092411E+01  0.17770000000E+01 0. -1.
         15    1    1    2    0    0  0.15804007538E+01  0.59267751682E+01 -0.27533977088E+02  0.28264853683E+02  0.17770000000E+01 0.  1.
</event>
<event>
 6    1  0.1196607E-002  0.1840927E+03  0.7546771E-02  0.1067194E+00
        -11   -1    0    0    0    0  0.00000000000E+00  0.00000000000E+00  0.18250000000E+03  0.18250000000E+03  0.00000000000E+00 0.  1.
         11   -1    0    0    0    0 -0.00000000000E+00 -0.00000000000E+00 -0.18250000000E+03  0.18250000000E+03  0.00000000000E+00 0. -1.
        -11    1    1    2    0    0  0.29810046164E+01 -0.36671807153E+01  0.18084556570E+03  0.18090730564E+03  0.00000000000E+00 0.  1.
         11    1    1    2    0    0  0.25213806531E+01  0.30845796252E+01 -0.16706114392E+03  0.16710864071E+03  0.00000000000E+00 0. -1.
        -15    1    1    2    0    0  0.14165024011E+01  0.13772337235E+01 -0.47113247516E+01  0.54090259471E+01  0.17770000000E+01 0.  1.
         15    1    1    2    0    0 -0.69188876706E+01 -0.79463263341E+00 -0.90730970258E+01  0.11575027700E+02  0.17770000000E+01 0. -1.
</event>
<event>
 6    1  0.1196607E-002  0.1841130E+03  0.7546771E-02  0.1067178E+00
        -11   -1    0    0    0    0  0.00000000000E+00  0.00000000000E+00  0.18250000000E+03  0.18250000000E+03  0.00000000000E+00 0.  1.
         11   -1    0    0    0    0 -0.00000000000E+00 -0.00000000000E+00 -0.18250000000E+03  0.18250000000E+03  0.00000000000E+00 0.  1.
        -11    1    1    2    0    0  0.22088898872E+01 -0.12805424808E+01  0.18086895683E+03  0.18088697722E+03  0.00000000000E+00 0.  1.
         11    1    1    2    0    0  0.68127165415E+01 -0.16493308257E+01 -0.15198088887E+03  0.15214244635E+03  0.00000000000E+00 0.  1.
        -15    1    1    2    0    0 -0.21440487467E+01 -0.10411333474E+01 -0.13682896156E+01  0.32727433672E+01  0.17770000000E+01 0.  1.
         15    1    1    2    0    0 -0.68775576820E+01  0.39710066539E+01 -0.27519778345E+02  0.28697833065E+02  0.17770000000E+01 0. -1.
</event>
<event>
 6    1  0.1196607E-002  0.1867793E+03  0.7546771E-02  0.1065099E+00
        -11   -1    0    0    0    0  0.00000000000E+00  0.00000000000E+00  0.18250000000E+03  0.18250000000E+03  0.00000000000E+00 0.  1.
         11   -1    0    0    0    0 -0.00000000000E+00 -0.00000000000E+00 -0.18250000000E+03  0.18250000000E+03  0.00000000000E+00 0. -1.
        -11    1    1    2    0    0  0.14534764115E+01 -0.17477665460E+01  0.16448984995E+03  0.16450555619E+03  0.00000000000E+00 0.  1.
         11    1    1    2    0    0  0.19181562641E+01 -0.17109256426E+01 -0.17820220908E+03  0.17822074490E+03  0.00000000000E+00 0. -1.
        -15    1    1    2    0    0 -0.74697462703E+01  0.27881963202E+01  0.35850940720E+00  0.81766378211E+01  0.17770000000E+01 0. -1.
         15    1    1    2    0    0  0.40981135948E+01  0.67049586848E+00  0.13353849728E+02  0.14097061088E+02  0.17770000000E+01 0.  1.
</event>
<event>
 6    1  0.1196607E-002  0.1872310E+03  0.7546771E-02  0.1064750E+00
        -11   -1    0    0    0    0  0.00000000000E+00  0.00000000000E+00  0.18250000000E+03  0.18250000000E+03  0.00000000000E+00 0. -1.
         11   -1    0    0    0    0 -0.00000000000E+00 -0.00000000000E+00 -0.18250000000E+03  0.18250000000E+03  0.00000000000E+00 0.  1.
        -11    1    1    2    0    0  0.24560174340E+00 -0.29134178189E+01  0.16059824996E+03  0.16062486176E+03  0.00000000000E+00 0. -1.
         11    1    1    2    0    0 -0.54282603643E+01 -0.16701213236E+01 -0.17767825210E+03  0.17776899782E+03  0.00000000000E+00 0.  1.
        -15    1    1    2    0    0  0.43288117787E+01 -0.97631074920E+00 -0.30227992719E+01  0.56556908095E+01  0.17770000000E+01 0. -1.
         15    1    1    2    0    0  0.85384684227E+00  0.55598498917E+01  0.20102801416E+02  0.20950449614E+02  0.17770000000E+01 0.  1.
</event>
<event>
 6    1  0.1196607E-002  0.1893598E+03  0.7546771E-02  0.1063122E+00
        -11   -1    0    0    0    0  0.00000000000E+00  0.00000000000E+00  0.18250000000E+03  0.18250000000E+03  0.00000000000E+00 0. -1.
         11   -1    0    0    0    0 -0.00000000000E+00 -0.00000000000E+00 -0.18250000000E+03  0.18250000000E+03  0.00000000000E+00 0. -1.
        -11    1    1    2    0    0 -0.15025187164E+01  0.37117077939E+01  0.17559451998E+03  0.17564017133E+03  0.00000000000E+00 0. -1.
         11    1    1    2    0    0 -0.60926996169E+00 -0.39829618100E+01 -0.16495423610E+03  0.16500343997E+03  0.00000000000E+00 0. -1.
        -15    1    1    2    0    0  0.15192461683E+01  0.30054694067E+01 -0.16872966512E+02  0.17297273866E+02  0.17770000000E+01 0.  1.
         15    1    1    2    0    0  0.59254250976E+00 -0.27342153907E+01  0.62326826295E+01  0.70591148304E+01  0.17770000000E+01 0.  1.
</event>
<event>
 6    1  0.1196607E-002  0.1864104E+03  0.7546771E-02  0.1065384E+00
        -11   -1    0    0    0    0  0.00000000000E+00  0.00000000000E+00  0.18250000000E+03  0.18250000000E+03  0.00000000000E+00 0. -1.
         11   -1    0    0    0    0 -0.00000000000E+00 -0.00000000000E+00 -0.18250000000E+03  0.18250000000E+03  0.00000000000E+00 0. -1.
        -11    1    1    2    0    0  0.27149919575E+01 -0.23915178714E+01  0.17855293820E+03  0.17858959174E+03  0.00000000000E+00 0. -1.
         11    1    1    2    0    0  0.48345233080E+01 -0.25550194486E+01 -0.16193167788E+03  0.16202397675E+03  0.00000000000E+00 0. -1.
        -15    1    1    2    0    0 -0.55930843547E+01  0.27658282552E+01 -0.19090602352E+02  0.20162867497E+02  0.17770000000E+01 0. -1.
         15    1    1    2    0    0 -0.19564309108E+01  0.21807090648E+01  0.24693420334E+01  0.42235640177E+01  0.17770000000E+01 0. -1.
</event>
<event>
 6    1  0.1196607E-002  0.1838935E+03  0.7546771E-02  0.1067351E+00
        -11   -1    0    0    0    0  0.00000000000E+00  0.00000000000E+00  0.18250000000E+03  0.18250000000E+03  0.00000000000E+00 0.  1.
         11   -1    0    0    0    0 -0.00000000000E+00 -0.00000000000E+00 -0.18250000000E+03  0.18250000000E+03  0.00000000000E+00 0.  1.
        -11    1    1    2    0    0 -0.12950333772E+01 -0.16600498916E+01  0.15550480661E+03  0.15551905914E+03  0.00000000000E+00 0.  1.
         11    1    1    2    0    0  0.18419107889E+01 -0.57943987429E+01 -0.18100439653E+03  0.18110648596E+03  0.00000000000E+00 0.  1.
        -15    1    1    2    0    0  0.37000335822E+01  0.28940104733E+01  0.16748696399E+02  0.17485482698E+02  0.17770000000E+01 0.  1.
         15    1    1    2    0    0 -0.42469109938E+01  0.45604381613E+01  0.87508935226E+01  0.10888972204E+02  0.17770000000E+01 0.  1.
</event>
<event>
 6    1  0.1196607E-002  0.1851442E+03  0.7546771E-02  0.1066369E+00
        -11   -1    0    0    0    0  0.00000000000E+00  0.00000000000E+00  0.18250000000E+03  0.18250000000E+03  0.00000000000E+00 0. -1.
         11   -1    0    0    0    0 -0.00000000000E+00 -0.00000000000E+00 -0.18250000000E+03  0.18250000000E+03  0.00000000000E+00 0. -1.
        -11    1    1    2    0    0 -0.12657648351E+01  0.46526600646E+01  0.70057370834E+02  0.70223105987E+02  0.00000000000E+00 0. -1.
         11    1    1    2    0    0  0.40703184203E+01  0.11621273977E+01 -0.17980599984E+03  0.17985581895E+03  0.00000000000E+00 0. -1.
        -15    1    1    2    0    0 -0.39213727729E+01  0.12582156744E+01 -0.42068789221E+00  0.45049948291E+01  0.17770000000E+01 0.  1.
         15    1    1    2    0    0  0.11168191876E+01 -0.70730031367E+01  0.11016931690E+03  0.11041608023E+03  0.17770000000E+01 0. -1.
</event>
<event>
 6    1  0.1196607E-002  0.1835954E+03  0.7546771E-02  0.1067586E+00
        -11   -1    0    0    0    0  0.00000000000E+00  0.00000000000E+00  0.18250000000E+03  0.18250000000E+03  0.00000000000E+00 0. -1.
         11   -1    0    0    0    0 -0.00000000000E+00 -0.00000000000E+00 -0.18250000000E+03  0.18250000000E+03  0.00000000000E+00 0.  1.
        -11    1    1    2    0    0  0.24215838538E+01 -0.15532341794E+01  0.18138177018E+03  0.18140458417E+03  0.00000000000E+00 0. -1.
         11    1    1    2    0    0  0.17290496541E+01  0.32952772561E-01 -0.12167576557E+03  0.12168805457E+03  0.00000000000E+00 0.  1.
        -15    1    1    2    0    0 -0.54070380128E+01  0.76268105426E+01 -0.41635325093E+02  0.42709042646E+02  0.17770000000E+01 0. -1.
         15    1    1    2    0    0  0.12564045049E+01 -0.61065291357E+01 -0.18070679518E+02  0.19198318614E+02  0.17770000000E+01 0.  1.
</event>
<event>
 6    1  0.1196607E-002  0.1925008E+03  0.7546771E-02  0.1060762E+00
        -11   -1    0    0    0    0  0.00000000000E+00  0.00000000000E+00  0.18250000000E+03  0.18250000000E+03  0.00000000000E+00 0. -1.
         11   -1    0    0    0    0 -0.00000000000E+00 -0.00000000000E+00 -0.18250000000E+03  0.18250000000E+03  0.00000000000E+00 0.  1.
        -11    1    1    2    0    0 -0.11913927936E+01 -0.49611755050E+01  0.16515172074E+03  0.16523051638E+03  0.00000000000E+00 0. -1.
         11    1    1    2    0    0 -0.35506859646E+00 -0.28927688097E+01 -0.17247459737E+03  0.17249922007E+03  0.00000000000E+00 0.  1.
        -15    1    1    2    0    0  0.51887622006E+01 -0.44862361221E+01  0.11602256568E+02  0.13594839249E+02  0.17770000000E+01 0. -1.
         15    1    1    2    0    0 -0.36423008105E+01  0.12340180437E+02 -0.42793799359E+01  0.13675424310E+02  0.17770000000E+01 0.  1.
</event>
<event>
 6    1  0.1196607E-002  0.1840276E+03  0.7546771E-02  0.1067245E+00
        -11   -1    0    0    0    0  0.00000000000E+00  0.00000000000E+00  0.18250000000E+03  0.18250000000E+03  0.00000000000E+00 0. -1.
         11   -1    0    0    0    0 -0.00000000000E+00 -0.00000000000E+00 -0.18250000000E+03  0.18250000000E+03  0.00000000000E+00 0. -1.
        -11    1    1    2    0    0  0.21112878741E+01 -0.30759278467E+01  0.15757241071E+03  0.15761657110E+03  0.00000000000E+00 0. -1.
         11    1    1    2    0    0  0.18264030267E+01  0.16510298600E+01 -0.18095565116E+03  0.18097239937E+03  0.00000000000E+00 0. -1.
        -15    1    1    2    0    0  0.67998982137E-01  0.11289093897E+01  0.21548289046E+02  0.21650994205E+02  0.17770000000E+01 0. -1.
         15    1    1    2    0    0 -0.40056898830E+01  0.29598859699E+00  0.18349514054E+01  0.47600353306E+01  0.17770000000E+01 0.  1.
</event>
<event>
 6    1  0.1196607E-002  0.1910730E+03  0.7546771E-02  0.1061828E+00
        -11   -1    0    0    0    0  0.00000000000E+00  0.00000000000E+00  0.18250000000E+03  0.18250000000E+03  0.00000000000E+00 0. -1.
         11   -1    0    0    0    0 -0.00000000000E+00 -0.00000000000E+00 -0.18250000000E+03  0.18250000000E+03  0.00000000000E+00 0. -1.
        -11    1    1    2    0    0 -0.56224572148E+01  0.48320480561E+01  0.16820763433E+03  0.16837092671E+03  0.00000000000E+00 0. -1.
         11    1    1    2    0    0  0.81662195870E+00 -0.43914773698E+01 -0.17386961483E+03  0.17392698154E+03  0.00000000000E+00 0. -1.
        -15    1    1    2    0    0 -0.37428763228E+00 -0.10246987054E+02  0.47310805466E+01  0.11431609119E+02  0.17770000000E+01 0. -1.
         15    1    1    2    0    0  0.51801228883E+01  0.98064163672E+01  0.93089995195E+00  0.11270482635E+02  0.17770000000E+01 0.  1.
</event>
<event>
 6    1  0.1196607E-002  0.1764805E+03  0.7546771E-02  0.1073350E+00
        -11   -1    0    0    0    0  0.00000000000E+00  0.00000000000E+00  0.18250000000E+03  0.18250000000E+03  0.00000000000E+00 0. -1.
         11   -1    0    0    0    0 -0.00000000000E+00 -0.00000000000E+00 -0.18250000000E+03  0.18250000000E+03  0.00000000000E+00 0.  1.
        -11    1    1    2    0    0 -0.40142421406E+01  0.11657843332E+01  0.17603032677E+03  0.17607995098E+03  0.00000000000E+00 0. -1.
         11    1    1    2    0    0 -0.18541728736E+01  0.32065369958E+01 -0.17691928673E+03  0.17695805677E+03  0.00000000000E+00 0.  1.
        -15    1    1    2    0    0 -0.13483485717E+01 -0.24326302692E+01 -0.18781819923E+01  0.37975031921E+01  0.17770000000E+01 0. -1.
         15    1    1    2    0    0  0.72167635859E+01 -0.19396910598E+01  0.27671419507E+01  0.81644890616E+01  0.17770000000E+01 0.  1.
</event>
<event>
 6    1  0.1196607E-002  0.1744291E+03  0.7546771E-02  0.1075067E+00
        -11   -1    0    0    0    0  0.00000000000E+00  0.00000000000E+00  0.18250000000E+03  0.18250000000E+03  0.00000000000E+00 0.  1.
         11   -1    0    0    0    0 -0.00000000000E+00 -0.00000000000E+00 -0.18250000000E+03  0.18250000000E+03  0.00000000000E+00 0. -1.
        -11    1    1    2    0    0 -0.18933457843E+01  0.67783890696E+00  0.70754830393E+01  0.73557245790E+01  0.00000000000E+00 0.  1.
         11    1    1    2    0    0  0.77018253207E+01 -0.37478587181E+01 -0.17653151646E+03  0.17673918882E+03  0.00000000000E+00 0. -1.
        -15    1    1    2    0    0 -0.74276990531E+01  0.28661179675E+01 -0.28057326057E+01  0.86264250928E+01  0.17770000000E+01 0. -1.
         15    1    1    2    0    0  0.16192195167E+01  0.20390184358E+00  0.17226176603E+03  0.17227866151E+03  0.17770000000E+01 0.  1.
</event>
<event>
 6    1  0.1196607E-002  0.1845504E+03  0.7546771E-02  0.1066834E+00
        -11   -1    0    0    0    0  0.00000000000E+00  0.00000000000E+00  0.18250000000E+03  0.18250000000E+03  0.00000000000E+00 0. -1.
         11   -1    0    0    0    0 -0.00000000000E+00 -0.00000000000E+00 -0.18250000000E+03  0.18250000000E+03  0.00000000000E+00 0.  1.
        -11    1    1    2    0    0 -0.58772103781E+01 -0.41635776048E+01  0.99052640249E+02  0.99314160725E+02  0.00000000000E+00 0. -1.
         11    1    1    2    0    0  0.16500825930E+01  0.39502571837E+01 -0.18039880044E+03  0.18044958993E+03  0.00000000000E+00 0.  1.
        -15    1    1    2    0    0  0.17720390839E+01 -0.80180762898E+00 -0.10074896385E+01  0.28205996455E+01  0.17770000000E+01 0.  1.
         15    1    1    2    0    0  0.24550887012E+01  0.10151280501E+01  0.82353649833E+02  0.82415649699E+02  0.17770000000E+01 0. -1.
</event>
<event>
 6    1  0.1196607E-002  0.1847100E+03  0.7546771E-02  0.1066709E+00
        -11   -1    0    0    0    0  0.00000000000E+00  0.00000000000E+00  0.18250000000E+03  0.18250000000E+03  0.00000000000E+00 0.  1.
         11   -1    0    0    0    0 -0.00000000000E+00 -0.00000000000E+00 -0.18250000000E+03  0.18250000000E+03  0.00000000000E+00 0.  1.
        -11    1    1    2    0    0  0.14595631469E+00  0.26948616845E+01  0.17411330655E+03  0.17413422151E+03  0.00000000000E+00 0.  1.
         11    1    1    2    0    0  0.16204213565E+01 -0.26331389973E+01 -0.18026350517E+03  0.18029001770E+03  0.00000000000E+00 0.  1.
        -15    1    1    2    0    0 -0.13238858280E+00  0.18253094692E+01  0.69547643583E+01  0.74078173354E+01  0.17770000000E+01 0.  1.
         15    1    1    2    0    0 -0.16339890884E+01 -0.18870321564E+01 -0.80456573316E+00  0.31679434527E+01  0.17770000000E+01 0. -1.
</event>
<event>
 6    1  0.1196607E-002  0.1921971E+03  0.7546771E-02  0.1060988E+00
        -11   -1    0    0    0    0  0.00000000000E+00  0.00000000000E+00  0.18250000000E+03  0.18250000000E+03  0.00000000000E+00 0.  1.
         11   -1    0    0    0    0 -0.00000000000E+00 -0.00000000000E+00 -0.18250000000E+03  0.18250000000E+03  0.00000000000E+00 0. -1.
        -11    1    1    2    0    0 -0.19400355798E+01  0.48261674666E+01  0.17272459927E+03  0.17280290166E+03  0.00000000000E+00 0.  1.
         11    1    1    2    0    0 -0.16633236110E+01 -0.93095096873E+01 -0.14307017132E+03  0.14338238224E+03  0.00000000000E+00 0. -1.
        -15    1    1    2    0    0 -0.48595138898E+01  0.12191846423E+02  0.34963860634E+01  0.13698118081E+02  0.17770000000E+01 0.  1.
         15    1    1    2    0    0  0.84628730806E+01 -0.77085042024E+01 -0.33150814007E+02  0.35116598015E+02  0.17770000000E+01 0. -1.
</event>
<event>
 6    1  0.1196607E-002  0.1871077E+03  0.7546771E-02  0.1064845E+00
        -11   -1    0    0    0    0  0.00000000000E+00  0.00000000000E+00  0.18250000000E+03  0.18250000000E+03  0.00000000000E+00 0. -1.
         11   -1    0    0    0    0 -0.00000000000E+00 -0.00000000000E+00 -0.18250000000E+03  0.18250000000E+03  0.00000000000E+00 0. -1.
        -11    1    1    2    0    0  0.19070615969E+01  0.78198597172E+00  0.71807780219E+02  0.71837355783E+02  0.00000000000E+00 0. -1.
         11    1    1    2    0    0  0.66646818940E+01  0.17564249071E+02 -0.17689753975E+03  0.17789227190E+03  0.00000000000E+00 0. -1.
        -15    1    1    2    0    0 -0.46959983029E+01 -0.16341373764E+02  0.10825359370E+03  0.10959512386E+03  0.17770000000E+01 0. -1.
         15    1    1    2    0    0 -0.38757451881E+01 -0.20048612790E+01 -0.31638341625E+01  0.56752484632E+01  0.17770000000E+01 0.  1.
</event>
<event>
 6    1  0.1196607E-002  0.1862534E+03  0.7546771E-02  0.1065506E+00
        -11   -1    0    0    0    0  0.00000000000E+00  0.00000000000E+00  0.18250000000E+03  0.18250000000E+03  0.00000000000E+00 0. -1.
         11   -1    0    0    0    0 -0.00000000000E+00 -0.00000000000E+00 -0.18250000000E+03  0.18250000000E+03  0.00000000000E+00 0.  1.
        -11    1    1    2    0    0 -0.69656067783E+00  0.25050152451E+01  0.17872764361E+03  0.17874655490E+03  0.00000000000E+00 0. -1.
         11    1    1    2    0    0  0.27433472486E+01  0.13762264675E+01 -0.13513169845E+03  0.13516654867E+03  0.00000000000E+00 0.  1.
        -15    1    1    2    0    0 -0.24331891899E+01 -0.19232115098E+01  0.28454098420E+01  0.45687239263E+01  0.17770000000E+01 0.  1.
         15    1    1    2    0    0  0.38640261914E+00 -0.19580302028E+01 -0.46441355003E+02  0.46518172501E+02  0.17770000000E+01 0. -1.
</event>
<event>
 6    1  0.1196607E-002  0.1631229E+03  0.7546771E-02  0.1085019E+00
        -11   -1    0    0    0    0  0.00000000000E+00  0.00000000000E+00  0.18250000000E+03  0.18250000000E+03  0.00000000000E+00 0.  1.
         11   -1    0    0    0    0 -0.00000000000E+00 -0.00000000000E+00 -0.18250000000E+03  0.18250000000E+03  0.00000000000E+00 0. -1.
        -11    1    1    2    0    0 -0.62352775139E+01 -0.33994983884E+01  0.16190173994E+03  0.16205742399E+03  0.00000000000E+00 0.  1.
         11    1    1    2    0    0  0.10008170480E+02 -0.18333801082E+02 -0.16360980545E+03  0.16493774637E+03  0.00000000000E+00 0. -1.
        -15    1    1    2    0    0  0.14155380457E+01 -0.90768099991E+00 -0.11136923622E+02  0.11402474710E+02  0.17770000000E+01 0.  1.
         15    1    1    2    0    0 -0.51884310117E+01  0.22640980471E+02  0.12844989126E+02  0.26602354927E+02  0.17770000000E+01 0. -1.
</event>
<event>
 6    1  0.1196607E-002  0.1327208E+03  0.7546771E-02  0.1116864E+00
        -11   -1    0    0    0    0  0.00000000000E+00  0.00000000000E+00  0.18250000000E+03  0.18250000000E+03  0.00000000000E+00 0. -1.
         11   -1    0    0    0    0 -0.00000000000E+00 -0.00000000000E+00 -0.18250000000E+03  0.18250000000E+03  0.00000000000E+00 0. -1.
        -11    1    1    2    0    0 -0.91405107472E+01 -0.26676385294E+02  0.12061904038E+03  0.12387143081E+03  0.00000000000E+00 0. -1.
         11    1    1    2    0    0 -0.35297118097E+01 -0.43441097018E+01 -0.14464504755E+03  0.14475330716E+03  0.00000000000E+00 0. -1.
        -15    1    1    2    0    0 -0.12357557540E+02  0.22450018404E+02 -0.27990343214E+02  0.37991177883E+02  0.17770000000E+01 0.  1.
         15    1    1    2    0    0  0.25027780097E+02  0.85704765921E+01  0.52016350380E+02  0.58384084145E+02  0.17770000000E+01 0. -1.
</event>
<event>
 6    1  0.1196607E-002  0.1973706E+03  0.7546771E-02  0.1057198E+00
        -11   -1    0    0    0    0  0.00000000000E+00  0.00000000000E+00  0.18250000000E+03  0.18250000000E+03  0.00000000000E+00 0. -1.
         11   -1    0    0    0    0 -0.00000000000E+00 -0.00000000000E+00 -0.18250000000E+03  0.18250000000E+03  0.00000000000E+00 0.  1.
        -11    1    1    2    0    0 -0.12021257235E+02  0.12472726858E+02  0.15196331107E+03  0.15294746632E+03  0.00000000000E+00 0. -1.
         11    1    1    2    0    0  0.18180410724E+01  0.13917856919E+01 -0.16761381090E+03  0.16762944833E+03  0.00000000000E+00 0.  1.
        -15    1    1    2    0    0  0.14741961629E+02 -0.47068333653E+01  0.25653254601E+02  0.30012112781E+02  0.17770000000E+01 0. -1.
         15    1    1    2    0    0 -0.45387454657E+01 -0.91576791846E+01 -0.10002754773E+02  0.14410972573E+02  0.17770000000E+01 0.  1.
</event>
<event>
 6    1  0.1196607E-002  0.1854190E+03  0.7546771E-02  0.1066155E+00
        -11   -1    0    0    0    0  0.00000000000E+00  0.00000000000E+00  0.18250000000E+03  0.18250000000E+03  0.00000000000E+00 0. -1.
         11   -1    0    0    0    0 -0.00000000000E+00 -0.00000000000E+00 -0.18250000000E+03  0.18250000000E+03  0.00000000000E+00 0.  1.
        -11    1    1    2    0    0  0.33582800231E+01 -0.22426765724E+01  0.17042815413E+03  0.17047599058E+03  0.00000000000E+00 0. -1.
         11    1    1    2    0    0  0.40782083138E+01 -0.10094818724E+01 -0.17953182596E+03  0.17958097719E+03  0.00000000000E+00 0.  1.
        -15    1    1    2    0    0 -0.51983737953E+01  0.40096010371E+01  0.97778653140E+01  0.11910683007E+02  0.17770000000E+01 0. -1.
         15    1    1    2    0    0 -0.22381145416E+01 -0.75744259231E+00 -0.67419348479E+00  0.30323492274E+01  0.17770000000E+01 0.  1.
</event>
<event>
 6    1  0.1196607E-002  0.1792491E+03  0.7546771E-02  0.1071072E+00
        -11   -1    0    0    0    0  0.00000000000E+00  0.00000000000E+00  0.18250000000E+03  0.18250000000E+03  0.00000000000E+00 0. -1.
         11   -1    0    0    0    0 -0.00000000000E+00 -0.00000000000E+00 -0.18250000000E+03  0.18250000000E+03  0.00000000000E+00 0.  1.
        -11    1    1    2    0    0 -0.22229503682E+01  0.40454008923E+01  0.17940443879E+03  0.17946381093E+03  0.00000000000E+00 0. -1.
         11    1    1    2    0    0  0.28183362885E+01 -0.12193632593E+01 -0.17901991497E+03  0.17904625051E+03  0.00000000000E+00 0.  1.
        -15    1    1    2    0    0 -0.21982964659E+01 -0.58288067774E+00 -0.11746493314E+01  0.31160531588E+01  0.17770000000E+01 0. -1.
         15    1    1    2    0    0  0.16029105456E+01 -0.22431569552E+01  0.79012551830E+00  0.33738853978E+01  0.17770000000E+01 0. -1.
</event>
<event>
 6    1  0.1196607E-002  0.1828748E+03  0.7546771E-02  0.1068157E+00
        -11   -1    0    0    0    0  0.00000000000E+00  0.00000000000E+00  0.18250000000E+03  0.18250000000E+03  0.00000000000E+00 0.  1.
         11   -1    0    0    0    0 -0.00000000000E+00 -0.00000000000E+00 -0.18250000000E+03  0.18250000000E+03  0.00000000000E+00 0. -1.
        -11    1    1    2    0    0 -0.47645171495E+00  0.25627368302E+01  0.18210656788E+03  0.18212522256E+03  0.00000000000E+00 0.  1.
         11    1    1    2    0    0  0.31130650372E+01 -0.26086634129E+01 -0.13607981644E+03  0.13614041553E+03  0.00000000000E+00 0. -1.
        -15    1    1    2    0    0 -0.40877918987E+01  0.17959154077E+01 -0.35327378608E+02  0.35652724483E+02  0.17770000000E+01 0.  1.
         15    1    1    2    0    0  0.14511785764E+01 -0.17499888251E+01 -0.10699372831E+02  0.11081637430E+02  0.17770000000E+01 0. -1.
</event>
<event>
 6    1  0.1196607E-002  0.1839007E+03  0.7546771E-02  0.1067345E+00
        -11   -1    0    0    0    0  0.00000000000E+00  0.00000000000E+00  0.18250000000E+03  0.18250000000E+03  0.00000000000E+00 0.  1.
         11   -1    0    0    0    0 -0.00000000000E+00 -0.00000000000E+00 -0.18250000000E+03  0.18250000000E+03  0.00000000000E+00 0. -1.
        -11    1    1    2    0    0  0.28475459822E+01  0.22255443704E+01  0.18106323451E+03  0.18109929999E+03  0.00000000000E+00 0.  1.
         11    1    1    2    0    0 -0.57426516002E+01 -0.28488165283E+01 -0.15226033243E+03  0.15239521854E+03  0.00000000000E+00 0. -1.
        -15    1    1    2    0    0  0.41275156860E+01  0.41400027652E+01 -0.25490185268E+02  0.26212273511E+02  0.17770000000E+01 0.  1.
         15    1    1    2    0    0 -0.12324100679E+01 -0.35167306073E+01 -0.33127168178E+01  0.52932079550E+01  0.17770000000E+01 0.  1.
</event>
<event>
 6    1  0.1196607E-002  0.2094056E+03  0.7546771E-02  0.1048851E+00
        -11   -1    0    0    0    0  0.00000000000E+00  0.00000000000E+00  0.18250000000E+03  0.18250000000E+03  0.00000000000E+00 0. -1.
         11   -1    0    0    0    0 -0.00000000000E+00 -0.00000000000E+00 -0.18250000000E+03  0.18250000000E+03  0.00000000000E+00 0. -1.
        -11    1    1    2    0    0 -0.25634775618E+01 -0.42127350965E+01  0.11447607281E+03  0.11458224033E+03  0.00000000000E+00 0. -1.
         11    1    1    2    0    0  0.59835915156E+01  0.52412855839E+01 -0.15539095247E+03  0.15559441684E+03  0.00000000000E+00 0. -1.
        -15    1    1    2    0    0 -0.64480420356E+01 -0.12518219154E+02 -0.24500115488E+02  0.28314244556E+02  0.17770000000E+01 0. -1.
         15    1    1    2    0    0  0.30279280818E+01  0.11489668666E+02  0.65414995146E+02  0.66509098276E+02  0.17770000000E+01 0.  1.
</event>
<event>
 6    1  0.1196607E-002  0.1775291E+03  0.7546771E-02  0.1072482E+00
        -11   -1    0    0    0    0  0.00000000000E+00  0.00000000000E+00  0.18250000000E+03  0.18250000000E+03  0.00000000000E+00 0. -1.
         11   -1    0    0    0    0 -0.00000000000E+00 -0.00000000000E+00 -0.18250000000E+03  0.18250000000E+03  0.00000000000E+00 0. -1.
        -11    1    1    2    0    0 -0.22598388100E+01  0.91642658899E+00  0.17751545268E+03  0.17753220172E+03  0.00000000000E+00 0. -1.
         11    1    1    2    0    0 -0.40241984965E+01  0.12064980356E+01 -0.17753822597E+03  0.17758792609E+03  0.00000000000E+00 0. -1.
        -15    1    1    2    0    0  0.50395392201E+01 -0.39319153193E+01 -0.13004346369E+01  0.67606044755E+01  0.17770000000E+01 0.  1.
         15    1    1    2    0    0  0.12444980864E+01  0.18089906947E+01  0.13232079309E+01  0.31192677103E+01  0.17770000000E+01 0. -1.
</event>
<event>
 6    1  0.1196607E-002  0.1838451E+03  0.7546771E-02  0.1067389E+00
        -11   -1    0    0    0    0  0.00000000000E+00  0.00000000000E+00  0.18250000000E+03  0.18250000000E+03  0.00000000000E+00 0.  1.
         11   -1    0    0    0    0 -0.00000000000E+00 -0.00000000000E+00 -0.18250000000E+03  0.18250000000E+03  0.00000000000E+00 0.  1.
        -11    1    1    2    0    0  0.16235688223E+01  0.48774394770E+01  0.12172022895E+03  0.12182873031E+03  0.00000000000E+00 0.  1.
         11    1    1    2    0    0  0.37685211901E+01 -0.36002416101E+01 -0.18107992953E+03  0.18115491815E+03  0.00000000000E+00 0.  1.
        -15    1    1    2    0    0 -0.39450290741E+01 -0.10454535753E+01  0.59539810136E+02  0.59705970787E+02  0.17770000000E+01 0. -1.
         15    1    1    2    0    0 -0.14470609382E+01 -0.23174429161E+00 -0.18010955559E+00  0.23103807538E+01  0.17770000000E+01 0.  1.
</event>
<event>
 6    1  0.1196607E-002  0.1844241E+03  0.7546771E-02  0.1066933E+00
        -11   -1    0    0    0    0  0.00000000000E+00  0.00000000000E+00  0.18250000000E+03  0.18250000000E+03  0.00000000000E+00 0.  1.
         11   -1    0    0    0    0 -0.00000000000E+00 -0.00000000000E+00 -0.18250000000E+03  0.18250000000E+03  0.00000000000E+00 0. -1.
        -11    1    1    2    0    0 -0.44307493892E+01 -0.17691278456E+00  0.18052143438E+03  0.18057588739E+03  0.00000000000E+00 0.  1.
         11    1    1    2    0    0  0.20301218549E+01 -0.25438103055E+01 -0.17464599165E+03  0.17467631426E+03  0.00000000000E+00 0. -1.
        -15    1    1    2    0    0  0.42317619830E+01  0.18314170733E+01 -0.46326063237E+01  0.67735270227E+01  0.17770000000E+01 0. -1.
         15    1    1    2    0    0 -0.18311344487E+01  0.88930601678E+00 -0.12428364077E+01  0.29742713220E+01  0.17770000000E+01 0.  1.
</event>
<event>
 6    1  0.1196607E-002  0.1825954E+03  0.7546771E-02  0.1068379E+00
        -11   -1    0    0    0    0  0.00000000000E+00  0.00000000000E+00  0.18250000000E+03  0.18250000000E+03  0.00000000000E+00 0. -1.
         11   -1    0    0    0    0 -0.00000000000E+00 -0.00000000000E+00 -0.18250000000E+03  0.18250000000E+03  0.00000000000E+00 0.  1.
        -11    1    1    2    0    0  0.84002062163E+00 -0.15373868962E+01  0.23689089405E+02  0.23753781803E+02  0.00000000000E+00 0. -1.
         11    1    1    2    0    0  0.12044250358E+01  0.31356134899E+01 -0.18237369668E+03  0.18240462701E+03  0.00000000000E+00 0.  1.
        -15    1    1    2    0    0 -0.16325021760E+01  0.18546590399E+01  0.83775812474E+02  0.83831076029E+02  0.17770000000E+01 0. -1.
         15    1    1    2    0    0 -0.41194348145E+00 -0.34528856336E+01  0.74908794805E+02  0.75010515161E+02  0.17770000000E+01 0.  1.
</event>
<event>
 6    1  0.1196607E-002  0.1892394E+03  0.7546771E-02  0.1063213E+00
        -11   -1    0    0    0    0  0.00000000000E+00  0.00000000000E+00  0.18250000000E+03  0.18250000000E+03  0.00000000000E+00 0. -1.
         11   -1    0    0    0    0 -0.00000000000E+00 -0.00000000000E+00 -0.18250000000E+03  0.18250000000E+03  0.00000000000E+00 0. -1.
        -11    1    1    2    0    0  0.16844734532E+01 -0.16189393260E+01  0.16687643294E+03  0.16689278680E+03  0.00000000000E+00 0. -1.
         11    1    1    2    0    0 -0.63285576845E+01  0.58131986469E+01 -0.17555036275E+03  0.17576055810E+03  0.00000000000E+00 0. -1.
        -15    1    1    2    0    0 -0.51504802482E+01 -0.82974627483E+00  0.10331015910E+02  0.11709122273E+02  0.17770000000E+01 0.  1.
         15    1    1    2    0    0  0.97945644795E+01 -0.33645130460E+01 -0.16570860977E+01  0.10637532830E+02  0.17770000000E+01 0.  1.
</event>
<event>
 6    1  0.1196607E-002  0.1872862E+03  0.7546771E-02  0.1064708E+00
        -11   -1    0    0    0    0  0.00000000000E+00  0.00000000000E+00  0.18250000000E+03  0.18250000000E+03  0.00000000000E+00 0. -1.
         11   -1    0    0    0    0 -0.00000000000E+00 -0.00000000000E+00 -0.18250000000E+03  0.18250000000E+03  0.00000000000E+00 0.  1.
        -11    1    1    2    0    0 -0.13746635543E+02  0.27219535380E+01  0.17716046246E+03  0.17771383874E+03  0.00000000000E+00 0. -1.
         11    1    1    2    0    0 -0.71024963489E+01  0.16356771216E+02 -0.96885864903E+02  0.98513249043E+02  0.00000000000E+00 0.  1.
        -15    1    1    2    0    0  0.66450372276E+01 -0.78278160657E+01 -0.54396394022E+01  0.11754940661E+02  0.17770000000E+01 0. -1.
         15    1    1    2    0    0  0.14204094665E+02 -0.11250908688E+02 -0.74834958157E+02  0.77017971558E+02  0.17770000000E+01 0.  1.
</event>
<event>
 6    1  0.1196607E-002  0.1784401E+03  0.7546771E-02  0.1071733E+00
        -11   -1    0    0    0    0  0.00000000000E+00  0.00000000000E+00  0.18250000000E+03  0.18250000000E+03  0.00000000000E+00 0.  1.
         11   -1    0    0    0    0 -0.00000000000E+00 -0.00000000000E+00 -0.18250000000E+03  0.18250000000E+03  0.00000000000E+00 0. -1.
        -11    1    1    2    0    0 -0.83398517772E+00  0.23013561718E+01  0.17885862717E+03  0.17887537640E+03  0.00000000000E+00 0.  1.
         11    1    1    2    0    0 -0.43125657622E+01 -0.40327373401E+01 -0.17794937327E+03  0.17804729889E+03  0.00000000000E+00 0. -1.
        -15    1    1    2    0    0  0.39689850373E+01  0.99498913586E-01 -0.24395192717E+01  0.49871560570E+01  0.17770000000E+01 0.  1.
         15    1    1    2    0    0  0.11775659026E+01  0.16318822547E+01  0.15302653780E+01  0.30901686483E+01  0.17770000000E+01 0. -1.
</event>
<event>
 6    1  0.1196607E-002  0.1729781E+03  0.7546771E-02  0.1076297E+00
        -11   -1    0    0    0    0  0.00000000000E+00  0.00000000000E+00  0.18250000000E+03  0.18250000000E+03  0.00000000000E+00 0. -1.
         11   -1    0    0    0    0 -0.00000000000E+00 -0.00000000000E+00 -0.18250000000E+03  0.18250000000E+03  0.00000000000E+00 0. -1.
        -11    1    1    2    0    0  0.10566025486E+02  0.13973429087E+01  0.17155508242E+03  0.17188583352E+03  0.00000000000E+00 0. -1.
         11    1    1    2    0    0 -0.21298506234E+01  0.29790860999E+01 -0.17417225658E+03  0.17421075220E+03  0.00000000000E+00 0. -1.
        -15    1    1    2    0    0 -0.25255218890E+01 -0.78227368065E+01 -0.39165304118E+01  0.92774140482E+01  0.17770000000E+01 0. -1.
         15    1    1    2    0    0 -0.59106529735E+01  0.34463077979E+01  0.65337045738E+01  0.96260002321E+01  0.17770000000E+01 0.  1.
</event>
<event>
 6    1  0.1196607E-002  0.1829165E+03  0.7546771E-02  0.1068124E+00
        -11   -1    0    0    0    0  0.00000000000E+00  0.00000000000E+00  0.18250000000E+03  0.18250000000E+03  0.00000000000E+00 0. -1.
         11   -1    0    0    0    0 -0.00000000000E+00 -0.00000000000E+00 -0.18250000000E+03  0.18250000000E+03  0.00000000000E+00 0. -1.
        -11    1    1    2    0    0 -0.16654105492E+01  0.14047672648E+01  0.35515810521E+02  0.35582576640E+02  0.00000000000E+00 0. -1.
         11    1    1    2    0    0  0.13756033151E+00  0.14800886855E+02 -0.18148087872E+03  0.18208348227E+03  0.00000000000E+00 0. -1.
        -15    1    1    2    0    0  0.71271846372E+00 -0.29726748484E+01  0.77140521476E+02  0.77221516082E+02  0.17770000000E+01 0.  1.
         15    1    1    2    0    0  0.81513175396E+00 -0.13232979271E+02  0.68824546722E+02  0.70112425009E+02  0.17770000000E+01 0. -1.
</event>
<event>
 6    1  0.1196607E-002  0.1847768E+03  0.7546771E-02  0.1066657E+00
        -11   -1    0    0    0    0  0.00000000000E+00  0.00000000000E+00  0.18250000000E+03  0.18250000000E+03  0.00000000000E+00 0.  1.
         11   -1    0    0    0    0 -0.00000000000E+00 -0.00000000000E+00 -0.18250000000E+03  0.18250000000E+03  0.00000000000E+00 0.  1.
        -11    1    1    2    0    0 -0.11125578631E+01 -0.49394192122E+01  0.65252886139E+02  0.65449024413E+02  0.00000000000E+00 0.  1.
         11    1    1    2    0    0  0.52552564218E+01 -0.74027549835E+01 -0.17999442549E+03  0.18022322744E+03  0.00000000000E+00 0.  1.
        -15    1    1    2    0    0  0.28328963173E+01  0.56531205872E+01  0.10591699043E+03  0.10612044885E+03  0.17770000000E+01 0.  1.
         15    1    1    2    0    0 -0.69755948761E+01  0.66890536085E+01  0.88245489231E+01  0.13207299298E+02  0.17770000000E+01 0.  1.
</event>
<event>
 6    1  0.1196607E-002  0.1830907E+03  0.7546771E-02  0.1067986E+00
        -11   -1    0    0    0    0  0.00000000000E+00  0.00000000000E+00  0.18250000000E+03  0.18250000000E+03  0.00000000000E+00 0.  1.
         11   -1    0    0    0    0 -0.00000000000E+00 -0.00000000000E+00 -0.18250000000E+03  0.18250000000E+03  0.00000000000E+00 0. -1.
        -11    1    1    2    0    0 -0.32860188376E+01  0.31904913077E+01  0.90778252032E+02  0.90893719236E+02  0.00000000000E+00 0.  1.
         11    1    1    2    0    0 -0.32613235015E+01 -0.15674808534E+01 -0.18187331545E+03  0.18190930734E+03  0.00000000000E+00 0. -1.
        -15    1    1    2    0    0  0.15588092715E+01 -0.18508465590E+01  0.78165252058E+02  0.78222885895E+02  0.17770000000E+01 0.  1.
         15    1    1    2    0    0  0.49885330676E+01  0.22783610464E+00  0.12929811356E+02  0.13974087525E+02  0.17770000000E+01 0. -1.
</event>
<event>
 6    1  0.1196607E-002  0.1837226E+03  0.7546771E-02  0.1067486E+00
        -11   -1    0    0    0    0  0.00000000000E+00  0.00000000000E+00  0.18250000000E+03  0.18250000000E+03  0.00000000000E+00 0. -1.
         11   -1    0    0    0    0 -0.00000000000E+00 -0.00000000000E+00 -0.18250000000E+03  0.18250000000E+03  0.00000000000E+00 0. -1.
        -11    1    1    2    0    0  0.75119303550E+01  0.27206783763E+01  0.18110123684E+03  0.18127738185E+03  0.00000000000E+00 0. -1.
         11    1    1    2    0    0  0.18834177071E+01  0.33251692063E+01 -0.13302393330E+03  0.13307881440E+03  0.00000000000E+00 0. -1.
        -15    1    1    2    0    0 -0.94296000940E+01 -0.48495589360E+01 -0.22081277701E+02  0.24559644413E+02  0.17770000000E+01 0. -1.
         15    1    1    2    0    0  0.34252031922E-01 -0.11962886466E+01 -0.25996025839E+02  0.26084159334E+02  0.17770000000E+01 0.  1.
</event>
<event>
 6    1  0.1196607E-002  0.1841487E+03  0.7546771E-02  0.1067150E+00
        -11   -1    0    0    0    0  0.00000000000E+00  0.00000000000E+00  0.18250000000E+03  0.18250000000E+03  0.00000000000E+00 0.  1.
         11   -1    0    0    0    0 -0.00000000000E+00 -0.00000000000E+00 -0.18250000000E+03  0.18250000000E+03  0.00000000000E+00 0. -1.
        -11    1    1    2    0    0 -0.21019313512E+01  0.36974427315E+01  0.18080128495E+03  0.18085130312E+03  0.00000000000E+00 0.  1.
         11    1    1    2    0    0 -0.38398413817E+01  0.26751496294E+01 -0.14067088339E+03  0.14074870600E+03  0.00000000000E+00 0. -1.
        -15    1    1    2    0    0 -0.35285203199E+00 -0.10635039120E+01  0.28134845554E+00  0.21195355814E+01  0.17770000000E+01 0.  1.
         15    1    1    2    0    0  0.62946247648E+01 -0.53090884489E+01 -0.40411750021E+02  0.41280455301E+02  0.17770000000E+01 0. -1.
</event>
<event>
 6    1  0.1196607E-002  0.1831644E+03  0.7546771E-02  0.1067927E+00
        -11   -1    0    0    0    0  0.00000000000E+00  0.00000000000E+00  0.18250000000E+03  0.18250000000E+03  0.00000000000E+00 0.  1.
         11   -1    0    0    0    0 -0.00000000000E+00 -0.00000000000E+00 -0.18250000000E+03  0.18250000000E+03  0.00000000000E+00 0. -1.
        -11    1    1    2    0    0  0.56574863619E+00 -0.84068805455E+00  0.59902573987E+02  0.59911144191E+02  0.00000000000E+00 0.  1.
         11    1    1    2    0    0  0.24087993812E+00  0.49345325020E+01 -0.18176842752E+03  0.18183555449E+03  0.00000000000E+00 0. -1.
        -15    1    1    2    0    0 -0.72740619328E-01  0.16119710204E+01  0.17110603680E+01  0.29477446211E+01  0.17770000000E+01 0. -1.
         15    1    1    2    0    0 -0.73388795498E+00 -0.57058154678E+01  0.12015479317E+03  0.12030555669E+03  0.17770000000E+01 0.  1.
</event>
<event>
 6    1  0.1196607E-002  0.1835426E+03  0.7546771E-02  0.1067628E+00
        -11   -1    0    0    0    0  0.00000000000E+00  0.00000000000E+00  0.18250000000E+03  0.18250000000E+03  0.00000000000E+00 0. -1.
         11   -1    0    0    0    0 -0.00000000000E+00 -0.00000000000E+00 -0.18250000000E+03  0.18250000000E+03  0.00000000000E+00 0.  1.
        -11    1    1    2    0    0 -0.24535220410E+01  0.94422859726E-01  0.18144077145E+03  0.18145738406E+03  0.00000000000E+00 0. -1.
         11    1    1    2    0    0  0.46328748037E+00  0.30043481037E+01 -0.13496001942E+03  0.13499425019E+03  0.00000000000E+00 0.  1.
        -15    1    1    2    0    0  0.41397594691E+01 -0.68004931115E+01 -0.18963937397E+02  0.20643957121E+02  0.17770000000E+01 0.  1.
         15    1    1    2    0    0 -0.21495249084E+01  0.37017221481E+01 -0.27516814631E+02  0.27904408624E+02  0.17770000000E+01 0. -1.
</event>
<event>
 6    1  0.1196607E-002  0.1833821E+03  0.7546771E-02  0.1067755E+00
        -11   -1    0    0    0    0  0.00000000000E+00  0.00000000000E+00  0.18250000000E+03  0.18250000000E+03  0.00000000000E+00 0.  1.
         11   -1    0    0    0    0 -0.00000000000E+00 -0.00000000000E+00 -0.18250000000E+03  0.18250000000E+03  0.00000000000E+00 0.  1.
        -11    1    1    2    0    0 -0.53240500000E+01  0.22121626679E+01  0.18152640668E+03  0.18161793825E+03  0.00000000000E+00 0.  1.
         11    1    1    2    0    0  0.94725287016E+00  0.59621335508E+00 -0.69580193089E+02  0.69589194770E+02  0.00000000000E+00 0.  1.
        -15    1    1    2    0    0  0.19328276037E+01 -0.38039914994E+01 -0.10992819889E+03  0.11002532805E+03  0.17770000000E+01 0.  1.
         15    1    1    2    0    0  0.24439695261E+01  0.99561547642E+00 -0.20180147042E+01  0.37675389272E+01  0.17770000000E+01 0. -1.
</event>
<event>
 6    1  0.1196607E-002  0.1686948E+03  0.7546771E-02  0.1080008E+00
        -11   -1    0    0    0    0  0.00000000000E+00  0.00000000000E+00  0.18250000000E+03  0.18250000000E+03  0.00000000000E+00 0. -1.
         11   -1    0    0    0    0 -0.00000000000E+00 -0.00000000000E+00 -0.18250000000E+03  0.18250000000E+03  0.00000000000E+00 0. -1.
        -11    1    1    2    0    0 -0.84486451069E+01  0.13613399904E+02  0.16393111905E+03  0.16471222193E+03  0.00000000000E+00 0. -1.
         11    1    1    2    0    0 -0.84409730268E+00 -0.26854312608E+01 -0.17308321964E+03  0.17310610897E+03  0.00000000000E+00 0. -1.
        -15    1    1    2    0    0  0.10858799895E+02 -0.13973960414E+02  0.12767416155E+02  0.21894057392E+02  0.17770000000E+01 0.  1.
         15    1    1    2    0    0 -0.15660574850E+01  0.30459917705E+01 -0.36153155626E+01  0.52876117037E+01  0.17770000000E+01 0. -1.
</event>
<event>
 6    1  0.1196607E-002  0.1878516E+03  0.7546771E-02  0.1064273E+00
        -11   -1    0    0    0    0  0.00000000000E+00  0.00000000000E+00  0.18250000000E+03  0.18250000000E+03  0.00000000000E+00 0. -1.
         11   -1    0    0    0    0 -0.00000000000E+00 -0.00000000000E+00 -0.18250000000E+03  0.18250000000E+03  0.00000000000E+00 0. -1.
        -11    1    1    2    0    0  0.10059358564E+01 -0.27065060037E+01  0.17712485231E+03  0.17714838522E+03  0.00000000000E+00 0. -1.
         11    1    1    2    0    0  0.20135526386E+01  0.21336381287E+01 -0.17227797361E+03  0.17230295121E+03  0.00000000000E+00 0. -1.
        -15    1    1    2    0    0 -0.59586286897E+01 -0.48222773477E+01 -0.46708295542E+01  0.91506279787E+01  0.17770000000E+01 0. -1.
         15    1    1    2    0    0  0.29391401948E+01  0.53951452227E+01 -0.17604914889E+00  0.63980355862E+01  0.17770000000E+01 0.  1.
</event>
<event>
 6    1  0.1196607E-002  0.1843086E+03  0.7546771E-02  0.1067024E+00
        -11   -1    0    0    0    0  0.00000000000E+00  0.00000000000E+00  0.18250000000E+03  0.18250000000E+03  0.00000000000E+00 0. -1.
         11   -1    0    0    0    0 -0.00000000000E+00 -0.00000000000E+00 -0.18250000000E+03  0.18250000000E+03  0.00000000000E+00 0.  1.
        -11    1    1    2    0    0 -0.17180492618E+00  0.37471268367E+01  0.18065246388E+03  0.18069140318E+03  0.00000000000E+00 0. -1.
         11    1    1    2    0    0  0.72896303748E+01  0.14321832854E+01 -0.15570889298E+03  0.15588601353E+03  0.00000000000E+00 0.  1.
        -15    1    1    2    0    0 -0.89789647191E+01 -0.18921156140E+01 -0.15543993034E+02  0.18137677838E+02  0.17770000000E+01 0. -1.
         15    1    1    2    0    0  0.18611392706E+01 -0.32871945082E+01 -0.93995778688E+01  0.10284905456E+02  0.17770000000E+01 0.  1.
</event>
<event>
 6    1  0.1196607E-002  0.1832995E+03  0.7546771E-02  0.1067820E+00
        -11   -1    0    0    0    0  0.00000000000E+00  0.00000000000E+00  0.18250000000E+03  0.18250000000E+03  0.00000000000E+00 0. -1.
         11   -1    0    0    0    0 -0.00000000000E+00 -0.00000000000E+00 -0.18250000000E+03  0.18250000000E+03  0.00000000000E+00 0. -1.
        -11    1    1    2    0    0 -0.15825394211E+01  0.26303279109E+01  0.10798899511E+03  0.10803261600E+03  0.00000000000E+00 0. -1.
         11    1    1    2    0    0 -0.30571464170E+00 -0.80372845286E+01 -0.18152239894E+03  0.18170050281E+03  0.00000000000E+00 0. -1.
        -15    1    1    2    0    0  0.92870276018E+00  0.40337389551E+01  0.72458896531E+02  0.72598780667E+02  0.17770000000E+01 0. -1.
         15    1    1    2    0    0  0.95955130265E+00  0.13732176627E+01  0.10745073004E+01  0.26681005210E+01  0.17770000000E+01 0.  1.
</event>
<event>
 6    1  0.1196607E-002  0.1828249E+03  0.7546771E-02  0.1068196E+00
        -11   -1    0    0    0    0  0.00000000000E+00  0.00000000000E+00  0.18250000000E+03  0.18250000000E+03  0.00000000000E+00 0. -1.
         11   -1    0    0    0    0 -0.00000000000E+00 -0.00000000000E+00 -0.18250000000E+03  0.18250000000E+03  0.00000000000E+00 0. -1.
        -11    1    1    2    0    0 -0.17552047544E+01 -0.10756360385E+01  0.10601022083E+03  0.10603020635E+03  0.00000000000E+00 0. -1.
         11    1    1    2    0    0 -0.87175695369E+00  0.63954078386E+01 -0.18206067662E+03  0.18217505639E+03  0.00000000000E+00 0. -1.
        -15    1    1    2    0    0 -0.17370670898E+01 -0.23712382795E+01  0.11411348719E+02  0.11917079409E+02  0.17770000000E+01 0. -1.
         15    1    1    2    0    0  0.43640287979E+01 -0.29485335206E+01  0.64639107063E+02  0.64877657850E+02  0.17770000000E+01 0.  1.
</event>
<event>
 6    1  0.1196607E-002  0.1874461E+03  0.7546771E-02  0.1064584E+00
        -11   -1    0    0    0    0  0.00000000000E+00  0.00000000000E+00  0.18250000000E+03  0.18250000000E+03  0.00000000000E+00 0.  1.
         11   -1    0    0    0    0 -0.00000000000E+00 -0.00000000000E+00 -0.18250000000E+03  0.18250000000E+03  0.00000000000E+00 0.  1.
        -11    1    1    2    0    0  0.92872453578E+01  0.56552645112E+00  0.17730993882E+03  0.17755389928E+03  0.00000000000E+00 0.  1.
         11    1    1    2    0    0 -0.84879215055E+00  0.30277027420E+01 -0.16889136906E+03  0.16892063809E+03  0.00000000000E+00 0.  1.
        -15    1    1    2    0    0 -0.83923601010E+01 -0.13632445690E+01  0.94492606711E+00  0.87373198460E+01  0.17770000000E+01 0. -1.
         15    1    1    2    0    0 -0.46093106231E-01 -0.22299846241E+01 -0.93634958283E+01  0.97881427822E+01  0.17770000000E+01 0.  1.
</event>
<event>
 6    1  0.1196607E-002  0.1834448E+03  0.7546771E-02  0.1067705E+00
        -11   -1    0    0    0    0  0.00000000000E+00  0.00000000000E+00  0.18250000000E+03  0.18250000000E+03  0.00000000000E+00 0. -1.
         11   -1    0    0    0    0 -0.00000000000E+00 -0.00000000000E+00 -0.18250000000E+03  0.18250000000E+03  0.00000000000E+00 0. -1.
        -11    1    1    2    0    0 -0.23129277335E+01 -0.83278937299E+00  0.18153852921E+03  0.18155517277E+03  0.00000000000E+00 0. -1.
         11    1    1    2    0    0  0.21916697171E+01 -0.60633692167E+00 -0.13952014623E+03  0.13953867659E+03  0.00000000000E+00 0. -1.
        -15    1    1    2    0    0  0.31671057714E+01  0.10363519653E+01 -0.32698907834E+01  0.49954478376E+01  0.17770000000E+01 0. -1.
         15    1    1    2    0    0 -0.30458477550E+01  0.40277432939E+00 -0.38748492198E+02  0.38910702799E+02  0.17770000000E+01 0. -1.
</event>
<event>
 6    1  0.1196607E-002  0.1828437E+03  0.7546771E-02  0.1068182E+00
        -11   -1    0    0    0    0  0.00000000000E+00  0.00000000000E+00  0.18250000000E+03  0.18250000000E+03  0.00000000000E+00 0.  1.
         11   -1    0    0    0    0 -0.00000000000E+00 -0.00000000000E+00 -0.18250000000E+03  0.18250000000E+03  0.00000000000E+00 0.  1.
        -11    1    1    2    0    0 -0.26139246066E+01 -0.31916130459E+01  0.18210961607E+03  0.18215633741E+03  0.00000000000E+00 0.  1.
         11    1    1    2    0    0 -0.34130380763E+01 -0.11427265105E+00 -0.28244545646E+02  0.28450241579E+02  0.00000000000E+00 0.  1.
        -15    1    1    2    0    0  0.57363572289E+01  0.13591910298E+01 -0.14522757841E+03  0.14535804227E+03  0.17770000000E+01 0.  1.
         15    1    1    2    0    0  0.29060545404E+00  0.19466946672E+01 -0.86374920106E+01  0.90353787353E+01  0.17770000000E+01 0. -1.
</event>
<event>
 6    1  0.1196607E-002  0.1831828E+03  0.7546771E-02  0.1067913E+00
        -11   -1    0    0    0    0  0.00000000000E+00  0.00000000000E+00  0.18250000000E+03  0.18250000000E+03  0.00000000000E+00 0.  1.
         11   -1    0    0    0    0 -0.00000000000E+00 -0.00000000000E+00 -0.18250000000E+03  0.18250000000E+03  0.00000000000E+00 0.  1.
        -11    1    1    2    0    0 -0.11928132727E+01  0.21873500949E+01  0.15286393770E+03  0.15288423972E+03  0.00000000000E+00 0.  1.
         11    1    1    2    0    0 -0.36894582655E+01  0.27226641131E+01 -0.18175933366E+03  0.18181716194E+03  0.00000000000E+00 0.  1.
        -15    1    1    2    0    0 -0.27984893896E+00 -0.49620214249E+00  0.37078717840E+01  0.41509726765E+01  0.17770000000E+01 0.  1.
         15    1    1    2    0    0  0.51621204772E+01 -0.44138120655E+01  0.25187524179E+02  0.26147625667E+02  0.17770000000E+01 0. -1.
</event>
<event>
 6    1  0.1196607E-002  0.1831751E+03  0.7546771E-02  0.1067919E+00
        -11   -1    0    0    0    0  0.00000000000E+00  0.00000000000E+00  0.18250000000E+03  0.18250000000E+03  0.00000000000E+00 0.  1.
         11   -1    0    0    0    0 -0.00000000000E+00 -0.00000000000E+00 -0.18250000000E+03  0.18250000000E+03  0.00000000000E+00 0.  1.
        -11    1    1    2    0    0  0.66981929653E+01 -0.10929124032E+01  0.10878191674E+03  0.10899342024E+03  0.00000000000E+00 0.  1.
         11    1    1    2    0    0  0.27807837676E+00 -0.28609793148E+01 -0.18180219470E+03  0.18182491724E+03  0.00000000000E+00 0.  1.
        -15    1    1    2    0    0 -0.16332364009E+01  0.17474336564E+01  0.45128787283E+01  0.54078451292E+01  0.17770000000E+01 0. -1.
         15    1    1    2    0    0 -0.53430349412E+01  0.22064580615E+01  0.68507399236E+02  0.68773817392E+02  0.17770000000E+01 0.  1.
</event>
<event>
 6    1  0.1196607E-002  0.1899532E+03  0.7546771E-02  0.1062672E+00
        -11   -1    0    0    0    0  0.00000000000E+00  0.00000000000E+00  0.18250000000E+03  0.18250000000E+03  0.00000000000E+00 0.  1.
         11   -1    0    0    0    0 -0.00000000000E+00 -0.00000000000E+00 -0.18250000000E+03  0.18250000000E+03  0.00000000000E+00 0. -1.
        -11    1    1    2    0    0 -0.48684278206E+01  0.17315440759E+01  0.16253048601E+03  0.16261260319E+03  0.00000000000E+00 0.  1.
         11    1    1    2    0    0 -0.24699188466E+01 -0.67191453599E+01 -0.17490031277E+03  0.17504675610E+03  0.00000000000E+00 0. -1.
        -15    1    1    2    0    0  0.74192245991E+01  0.10600841959E+02 -0.62329467998E+00  0.13075510283E+02  0.17770000000E+01 0. -1.
         15    1    1    2    0    0 -0.80877931791E-01 -0.56132406752E+01  0.12993121446E+02  0.14265130425E+02  0.17770000000E+01 0.  1.
</event>
<event>
 6    1  0.1196607E-002  0.1744338E+03  0.7546771E-02  0.1075063E+00
        -11   -1    0    0    0    0  0.00000000000E+00  0.00000000000E+00  0.18250000000E+03  0.18250000000E+03  0.00000000000E+00 0. -1.
         11   -1    0    0    0    0 -0.00000000000E+00 -0.00000000000E+00 -0.18250000000E+03  0.18250000000E+03  0.00000000000E+00 0.  1.
        -11    1    1    2    0    0  0.18185410841E-01 -0.30739063037E+01  0.18103602645E+03  0.18106212222E+03  0.00000000000E+00 0. -1.
         11    1    1    2    0    0  0.28046119845E+01  0.33182074146E+01 -0.17363125253E+02  0.17898448743E+02  0.00000000000E+00 0.  1.
        -15    1    1    2    0    0 -0.13631481290E+02  0.43021018122E+01 -0.60693841497E+02  0.62379688095E+02  0.17770000000E+01 0. -1.
         15    1    1    2    0    0  0.10808683895E+02 -0.45464029231E+01 -0.10297905970E+03  0.10365974094E+03  0.17770000000E+01 0.  1.
</event>
<event>
 6    1  0.1196607E-002  0.1895657E+03  0.7546771E-02  0.1062966E+00
        -11   -1    0    0    0    0  0.00000000000E+00  0.00000000000E+00  0.18250000000E+03  0.18250000000E+03  0.00000000000E+00 0.  1.
         11   -1    0    0    0    0 -0.00000000000E+00 -0.00000000000E+00 -0.18250000000E+03  0.18250000000E+03  0.00000000000E+00 0. -1.
        -11    1    1    2    0    0 -0.13049406839E+01  0.21320044621E+01  0.17419580463E+03  0.17421373845E+03  0.00000000000E+00 0.  1.
         11    1    1    2    0    0 -0.14283277382E+00 -0.31744512017E+01 -0.17540548017E+03  0.17543426124E+03  0.00000000000E+00 0. -1.
        -15    1    1    2    0    0  0.52771683315E+01 -0.43748294753E+01  0.37699569673E+01  0.80223402491E+01  0.17770000000E+01 0.  1.
         15    1    1    2    0    0 -0.38293948738E+01  0.54172762149E+01 -0.25602814250E+01  0.73296600646E+01  0.17770000000E+01 0. -1.
</event>
<event>
 6    1  0.1196607E-002  0.1833958E+03  0.7546771E-02  0.1067744E+00
        -11   -1    0    0    0    0  0.00000000000E+00  0.00000000000E+00  0.18250000000E+03  0.18250000000E+03  0.00000000000E+00 0. -1.
         11   -1    0    0    0    0 -0.00000000000E+00 -0.00000000000E+00 -0.18250000000E+03  0.18250000000E+03  0.00000000000E+00 0.  1.
        -11    1    1    2    0    0  0.51015050274E+01  0.12828232398E+01  0.18152797129E+03  0.18160417217E+03  0.00000000000E+00 0. -1.
         11    1    1    2    0    0  0.20555319795E+01 -0.51950856902E+00 -0.43194248397E+02  0.43246250652E+02  0.00000000000E+00 0.  1.
        -15    1    1    2    0    0 -0.31590503370E+01 -0.39104051235E+01 -0.13068007223E+03  0.13078879874E+03  0.17770000000E+01 0.  1.
         15    1    1    2    0    0 -0.39979866699E+01  0.31470904527E+01 -0.76536506563E+01  0.93607784452E+01  0.17770000000E+01 0. -1.
</event>
<event>
 6    1  0.1196607E-002  0.1710505E+03  0.7546771E-02  0.1077952E+00
        -11   -1    0    0    0    0  0.00000000000E+00  0.00000000000E+00  0.18250000000E+03  0.18250000000E+03  0.00000000000E+00 0.  1.
         11   -1    0    0    0    0 -0.00000000000E+00 -0.00000000000E+00 -0.18250000000E+03  0.18250000000E+03  0.00000000000E+00 0. -1.
        -11    1    1    2    0    0 -0.13971913821E+01  0.22934370118E+01  0.16805084629E+03  0.16807230270E+03  0.00000000000E+00 0.  1.
         11    1    1    2    0    0  0.31107198681E+01  0.80705104599E+01 -0.17402727746E+03  0.17424208165E+03  0.00000000000E+00 0. -1.
        -15    1    1    2    0    0  0.52174052365E+00 -0.45600948588E+00  0.11036237545E+02  0.11199840444E+02  0.17770000000E+01 0.  1.
         15    1    1    2    0    0 -0.22352690096E+01 -0.99079379859E+01 -0.50598063734E+01  0.11485775212E+02  0.17770000000E+01 0. -1.
</event>
<event>
 6    1  0.1196607E-002  0.1832890E+03  0.7546771E-02  0.1067829E+00
        -11   -1    0    0    0    0  0.00000000000E+00  0.00000000000E+00  0.18250000000E+03  0.18250000000E+03  0.00000000000E+00 0.  1.
         11   -1    0    0    0    0 -0.00000000000E+00 -0.00000000000E+00 -0.18250000000E+03  0.18250000000E+03  0.00000000000E+00 0.  1.
        -11    1    1    2    0    0  0.47758126811E+01 -0.34704793573E+01  0.95280785882E+02  0.95463504922E+02  0.00000000000E+00 0.  1.
         11    1    1    2    0    0  0.82102471103E+00 -0.62815364190E+01 -0.18160056309E+03  0.18171102415E+03  0.00000000000E+00 0.  1.
        -15    1    1    2    0    0 -0.64509689565E+01  0.46638953494E+01  0.72656117012E+02  0.73112488595E+02  0.17770000000E+01 0. -1.
         15    1    1    2    0    0  0.85413156438E+00  0.50881204269E+01  0.13663660198E+02  0.14712982336E+02  0.17770000000E+01 0.  1.
</event>
<event>
 6    1  0.1196607E-002  0.1846798E+03  0.7546771E-02  0.1066733E+00
        -11   -1    0    0    0    0  0.00000000000E+00  0.00000000000E+00  0.18250000000E+03  0.18250000000E+03  0.00000000000E+00 0. -1.
         11   -1    0    0    0    0 -0.00000000000E+00 -0.00000000000E+00 -0.18250000000E+03  0.18250000000E+03  0.00000000000E+00 0. -1.
        -11    1    1    2    0    0  0.20621295494E+01 -0.49213581990E+01  0.16223084521E+03  0.16231857344E+03  0.00000000000E+00 0. -1.
         11    1    1    2    0    0  0.19737619618E+01  0.26806367700E+01 -0.18028948541E+03  0.18032021544E+03  0.00000000000E+00 0. -1.
        -15    1    1    2    0    0 -0.18149879307E+01  0.95873904113E+00  0.18928598485E+02  0.19122315010E+02  0.17770000000E+01 0. -1.
         15    1    1    2    0    0 -0.22209035805E+01  0.12819823879E+01 -0.86995829139E+00  0.32388961060E+01  0.17770000000E+01 0.  1.
</event>
<event>
 6    1  0.1196607E-002  0.1754062E+03  0.7546771E-02  0.1074246E+00
        -11   -1    0    0    0    0  0.00000000000E+00  0.00000000000E+00  0.18250000000E+03  0.18250000000E+03  0.00000000000E+00 0.  1.
         11   -1    0    0    0    0 -0.00000000000E+00 -0.00000000000E+00 -0.18250000000E+03  0.18250000000E+03  0.00000000000E+00 0.  1.
        -11    1    1    2    0    0  0.85124397338E+00  0.30173828027E+01  0.17583101249E+03  0.17585896101E+03  0.00000000000E+00 0.  1.
         11    1    1    2    0    0 -0.16342381917E+01  0.33932843332E+01 -0.17497344101E+03  0.17501397136E+03  0.00000000000E+00 0.  1.
        -15    1    1    2    0    0 -0.37144514300E+00  0.11623299842E+01  0.42393130359E+01  0.47558896647E+01  0.17770000000E+01 0. -1.
         15    1    1    2    0    0  0.11544393613E+01 -0.75729971201E+01 -0.50968845155E+01  0.93711779614E+01  0.17770000000E+01 0.  1.
</event>
<event>
 6    1  0.1196607E-002  0.1855088E+03  0.7546771E-02  0.1066085E+00
        -11   -1    0    0    0    0  0.00000000000E+00  0.00000000000E+00  0.18250000000E+03  0.18250000000E+03  0.00000000000E+00 0.  1.
         11   -1    0    0    0    0 -0.00000000000E+00 -0.00000000000E+00 -0.18250000000E+03  0.18250000000E+03  0.00000000000E+00 0. -1.
        -11    1    1    2    0    0 -0.16177566422E+01 -0.16817809284E+01  0.17263305900E+03  0.17264883024E+03  0.00000000000E+00 0.  1.
         11    1    1    2    0    0  0.37737226327E+01 -0.80878365649E+00 -0.17944971947E+03  0.17949121687E+03  0.00000000000E+00 0. -1.
        -15    1    1    2    0    0  0.19166658224E+01  0.88890656055E-01  0.73304127073E+01  0.77829421740E+01  0.17770000000E+01 0. -1.
         15    1    1    2    0    0 -0.40726318129E+01  0.24016739288E+01 -0.51375223143E+00  0.50770107247E+01  0.17770000000E+01 0. -1.
</event>
<event>
 6    1  0.1196607E-002  0.1851302E+03  0.7546771E-02  0.1066380E+00
        -11   -1    0    0    0    0  0.00000000000E+00  0.00000000000E+00  0.18250000000E+03  0.18250000000E+03  0.00000000000E+00 0. -1.
         11   -1    0    0    0    0 -0.00000000000E+00 -0.00000000000E+00 -0.18250000000E+03  0.18250000000E+03  0.00000000000E+00 0. -1.
        -11    1    1    2    0    0  0.10606023153E+01  0.12255620908E+01  0.10764943255E+03  0.10766163294E+03  0.00000000000E+00 0. -1.
         11    1    1    2    0    0  0.18688853495E+02  0.19159500093E+01 -0.17888596644E+03  0.17986976705E+03  0.00000000000E+00 0. -1.
        -15    1    1    2    0    0 -0.63126429360E+01 -0.23659859611E+01  0.25034316869E+01  0.74075805508E+01  0.17770000000E+01 0.  1.
         15    1    1    2    0    0 -0.13436812874E+02 -0.77552613897E+00  0.68733102198E+02  0.70061019460E+02  0.17770000000E+01 0. -1.
</event>
<event>
 6    1  0.1196607E-002  0.1834303E+03  0.7546771E-02  0.1067717E+00
        -11   -1    0    0    0    0  0.00000000000E+00  0.00000000000E+00  0.18250000000E+03  0.18250000000E+03  0.00000000000E+00 0.  1.
         11   -1    0    0    0    0 -0.00000000000E+00 -0.00000000000E+00 -0.18250000000E+03  0.18250000000E+03  0.00000000000E+00 0. -1.
        -11    1    1    2    0    0  0.58648399085E+01 -0.60989749036E+01  0.18137248008E+03  0.18156973970E+03  0.00000000000E+00 0.  1.
         11    1    1    2    0    0  0.52162175595E+00 -0.21796522363E+01 -0.95778010505E+02  0.95804228871E+02  0.00000000000E+00 0. -1.
        -15    1    1    2    0    0 -0.41902063130E+01  0.27442404909E+00 -0.57825538838E+01  0.73640203642E+01  0.17770000000E+01 0. -1.
         15    1    1    2    0    0 -0.21962553514E+01  0.80042030908E+01 -0.79811915695E+02  0.80262011067E+02  0.17770000000E+01 0.  1.
</event>
<event>
 6    1  0.1196607E-002  0.1831947E+03  0.7546771E-02  0.1067903E+00
        -11   -1    0    0    0    0  0.00000000000E+00  0.00000000000E+00  0.18250000000E+03  0.18250000000E+03  0.00000000000E+00 0.  1.
         11   -1    0    0    0    0 -0.00000000000E+00 -0.00000000000E+00 -0.18250000000E+03  0.18250000000E+03  0.00000000000E+00 0.  1.
        -11    1    1    2    0    0  0.52294221739E+00  0.68658342165E+00  0.63532960276E+02  0.63538822044E+02  0.00000000000E+00 0.  1.
         11    1    1    2    0    0 -0.19944921103E-01  0.24994010502E+01 -0.18178807748E+03  0.18180525988E+03  0.00000000000E+00 0.  1.
        -15    1    1    2    0    0  0.37075123377E+01 -0.51345955675E+01  0.16263171135E+02  0.17543038042E+02  0.17770000000E+01 0. -1.
         15    1    1    2    0    0 -0.42105096340E+01  0.19486110957E+01  0.10199194607E+03  0.10211288004E+03  0.17770000000E+01 0.  1.
</event>
<event>
 6    1  0.1196607E-002  0.1882748E+03  0.7546771E-02  0.1063949E+00
        -11   -1    0    0    0    0  0.00000000000E+00  0.00000000000E+00  0.18250000000E+03  0.18250000000E+03  0.00000000000E+00 0.  1.
         11   -1    0    0    0    0 -0.00000000000E+00 -0.00000000000E+00 -0.18250000000E+03  0.18250000000E+03  0.00000000000E+00 0.  1.
        -11    1    1    2    0    0 -0.37950722613E+01 -0.21732403718E+01  0.17667112970E+03  0.17672524895E+03  0.00000000000E+00 0.  1.
         11    1    1    2    0    0 -0.22498638226E+01  0.28795852150E+01 -0.16336399883E+03  0.16340486533E+03  0.00000000000E+00 0.  1.
        -15    1    1    2    0    0  0.23433543603E+01 -0.54438171051E+00 -0.18220682316E+02  0.18464524207E+02  0.17770000000E+01 0. -1.
         15    1    1    2    0    0  0.37015817237E+01 -0.16196313263E+00  0.49135514514E+01  0.64053615182E+01  0.17770000000E+01 0.  1.
</event>
<event>
 6    1  0.1196607E-002  0.1949115E+03  0.7546771E-02  0.1058983E+00
        -11   -1    0    0    0    0  0.00000000000E+00  0.00000000000E+00  0.18250000000E+03  0.18250000000E+03  0.00000000000E+00 0.  1.
         11   -1    0    0    0    0 -0.00000000000E+00 -0.00000000000E+00 -0.18250000000E+03  0.18250000000E+03  0.00000000000E+00 0.  1.
        -11    1    1    2    0    0  0.16633055517E+01 -0.47422488419E+00  0.65894898438E+02  0.65917593363E+02  0.00000000000E+00 0.  1.
         11    1    1    2    0    0 -0.31558134435E+01 -0.30560681486E+01 -0.17003175648E+03  0.17008849733E+03  0.00000000000E+00 0.  1.
        -15    1    1    2    0    0  0.20355286838E+02  0.30119774796E+02  0.81520961351E+02  0.89276891773E+02  0.17770000000E+01 0.  1.
         15    1    1    2    0    0 -0.18862778947E+02 -0.26589481763E+02  0.22615896690E+02  0.39717017538E+02  0.17770000000E+01 0. -1.
</event>
<event>
 6    1  0.1196607E-002  0.1837874E+03  0.7546771E-02  0.1067435E+00
        -11   -1    0    0    0    0  0.00000000000E+00  0.00000000000E+00  0.18250000000E+03  0.18250000000E+03  0.00000000000E+00 0. -1.
         11   -1    0    0    0    0 -0.00000000000E+00 -0.00000000000E+00 -0.18250000000E+03  0.18250000000E+03  0.00000000000E+00 0.  1.
        -11    1    1    2    0    0 -0.46380980726E+01 -0.11865167025E+01  0.18114939826E+03  0.18121264930E+03  0.00000000000E+00 0. -1.
         11    1    1    2    0    0 -0.31397667393E+00 -0.42987381811E+01 -0.98147879580E+02  0.98242475525E+02  0.00000000000E+00 0.  1.
        -15    1    1    2    0    0  0.93160603136E+00 -0.26548833233E+01 -0.17338887647E+01  0.37523851757E+01  0.17770000000E+01 0.  1.
         15    1    1    2    0    0  0.40204687152E+01  0.81401382069E+01 -0.81267629918E+02  0.81792489999E+02  0.17770000000E+01 0. -1.
</event>
<event>
 6    1  0.1196607E-002  0.1849834E+03  0.7546771E-02  0.1066495E+00
        -11   -1    0    0    0    0  0.00000000000E+00  0.00000000000E+00  0.18250000000E+03  0.18250000000E+03  0.00000000000E+00 0.  1.
         11   -1    0    0    0    0 -0.00000000000E+00 -0.00000000000E+00 -0.18250000000E+03  0.18250000000E+03  0.00000000000E+00 0.  1.
        -11    1    1    2    0    0  0.28958374367E+01 -0.30470702898E+01  0.17996752135E+03  0.18001660827E+03  0.00000000000E+00 0.  1.
         11    1    1    2    0    0  0.84156236364E+01 -0.10274136787E+01 -0.10891693079E+03  0.10924640092E+03  0.00000000000E+00 0.  1.
        -15    1    1    2    0    0 -0.12294194894E+02 -0.25245758092E+01 -0.65938991397E+02  0.67146325488E+02  0.17770000000E+01 0. -1.
         15    1    1    2    0    0  0.98273382038E+00  0.65990597777E+01 -0.51115991641E+01  0.85906653250E+01  0.17770000000E+01 0.  1.
</event>
<event>
 6    1  0.1196607E-002  0.1829659E+03  0.7546771E-02  0.1068085E+00
        -11   -1    0    0    0    0  0.00000000000E+00  0.00000000000E+00  0.18250000000E+03  0.18250000000E+03  0.00000000000E+00 0.  1.
         11   -1    0    0    0    0 -0.00000000000E+00 -0.00000000000E+00 -0.18250000000E+03  0.18250000000E+03  0.00000000000E+00 0. -1.
        -11    1    1    2    0    0 -0.84386562957E+00 -0.53512038492E+01  0.18195344513E+03  0.18203407287E+03  0.00000000000E+00 0.  1.
         11    1    1    2    0    0  0.20515418421E+01 -0.15499030805E+01 -0.14280835815E+03  0.14283150276E+03  0.00000000000E+00 0. -1.
        -15    1    1    2    0    0  0.86516411042E+00  0.25021202164E+01 -0.90040071261E+01  0.95519101672E+01  0.17770000000E+01 0.  1.
         15    1    1    2    0    0 -0.20728403230E+01  0.43989867132E+01 -0.30141079853E+02  0.30582514200E+02  0.17770000000E+01 0. -1.
</event>
<event>
 6    1  0.1196607E-002  0.1852866E+03  0.7546771E-02  0.1066258E+00
        -11   -1    0    0    0    0  0.00000000000E+00  0.00000000000E+00  0.18250000000E+03  0.18250000000E+03  0.00000000000E+00 0.  1.
         11   -1    0    0    0    0 -0.00000000000E+00 -0.00000000000E+00 -0.18250000000E+03  0.18250000000E+03  0.00000000000E+00 0.  1.
        -11    1    1    2    0    0  0.52164733821E-01 -0.25530494904E+01  0.17969523018E+03  0.17971337327E+03  0.00000000000E+00 0.  1.
         11    1    1    2    0    0  0.10953727208E+02  0.24408285340E+01 -0.13596520380E+03  0.13642755744E+03  0.00000000000E+00 0.  1.
        -15    1    1    2    0    0  0.39534908567E+01 -0.56215456406E+00 -0.26802019044E+01  0.51271160467E+01  0.17770000000E+01 0.  1.
         15    1    1    2    0    0 -0.14959382799E+02  0.67437552040E+00 -0.41049824478E+02  0.43731953246E+02  0.17770000000E+01 0. -1.
</event>
<event>
 6    1  0.1196607E-002  0.1827958E+03  0.7546771E-02  0.1068220E+00
        -11   -1    0    0    0    0  0.00000000000E+00  0.00000000000E+00  0.18250000000E+03  0.18250000000E+03  0.00000000000E+00 0. -1.
         11   -1    0    0    0    0 -0.00000000000E+00 -0.00000000000E+00 -0.18250000000E+03  0.18250000000E+03  0.00000000000E+00 0. -1.
        -11    1    1    2    0    0  0.49835372983E+01 -0.46261181482E+01  0.18207724860E+03  0.18220417413E+03  0.00000000000E+00 0. -1.
         11    1    1    2    0    0 -0.99751435117E+00 -0.32671774760E+01 -0.95283076972E+02  0.95344293174E+02  0.00000000000E+00 0. -1.
        -15    1    1    2    0    0  0.85649900768E+00  0.17314430106E+01 -0.24871322286E+02  0.25009435954E+02  0.17770000000E+01 0.  1.
         15    1    1    2    0    0 -0.48425219549E+01  0.61618526136E+01 -0.61922849339E+02  0.62442096744E+02  0.17770000000E+01 0. -1.
</event>
<event>
 6    1  0.1196607E-002  0.1878847E+03  0.7546771E-02  0.1064248E+00
        -11   -1    0    0    0    0  0.00000000000E+00  0.00000000000E+00  0.18250000000E+03  0.18250000000E+03  0.00000000000E+00 0.  1.
         11   -1    0    0    0    0 -0.00000000000E+00 -0.00000000000E+00 -0.18250000000E+03  0.18250000000E+03  0.00000000000E+00 0.  1.
        -11    1    1    2    0    0  0.71823290601E+01  0.26795429018E+01  0.97629504028E+02  0.97930004889E+02  0.00000000000E+00 0.  1.
         11    1    1    2    0    0 -0.20795979588E+02 -0.91873008501E+00 -0.17588782448E+03  0.17711533992E+03  0.00000000000E+00 0.  1.
        -15    1    1    2    0    0  0.12926217919E+02  0.89694134854E+01  0.60837438469E+01  0.16961932560E+02  0.17770000000E+01 0.  1.
         15    1    1    2    0    0  0.68743260920E+00 -0.10730226302E+02  0.72174576609E+02  0.72992722635E+02  0.17770000000E+01 0. -1.
</event>
<event>
 6    1  0.1196607E-002  0.1834260E+03  0.7546771E-02  0.1067720E+00
        -11   -1    0    0    0    0  0.00000000000E+00  0.00000000000E+00  0.18250000000E+03  0.18250000000E+03  0.00000000000E+00 0. -1.
         11   -1    0    0    0    0 -0.00000000000E+00 -0.00000000000E+00 -0.18250000000E+03  0.18250000000E+03  0.00000000000E+00 0.  1.
        -11    1    1    2    0    0 -0.67237283712E+00  0.21466107179E+01  0.15453066462E+03  0.15454703599E+03  0.00000000000E+00 0. -1.
         11    1    1    2    0    0 -0.27053885481E+01  0.53300641887E+01 -0.18147553994E+03  0.18157395273E+03  0.00000000000E+00 0.  1.
        -15    1    1    2    0    0  0.35273486024E+01 -0.60143280112E+01  0.24426561950E+02  0.25464268835E+02  0.17770000000E+01 0.  1.
         15    1    1    2    0    0 -0.14958721715E+00 -0.14623468954E+01  0.25183133689E+01  0.34147424503E+01  0.17770000000E+01 0. -1.
</event>
<event>
 6    1  0.1196607E-002  0.1828155E+03  0.7546771E-02  0.1068204E+00
        -11   -1    0    0    0    0  0.00000000000E+00  0.00000000000E+00  0.18250000000E+03  0.18250000000E+03  0.00000000000E+00 0. -1.
         11   -1    0    0    0    0 -0.00000000000E+00 -0.00000000000E+00 -0.18250000000E+03  0.18250000000E+03  0.00000000000E+00 0. -1.
        -11    1    1    2    0    0 -0.25278351281E+01 -0.36844047870E+01  0.83860565788E+02  0.83979517046E+02  0.00000000000E+00 0. -1.
         11    1    1    2    0    0 -0.45676403729E+01  0.37995782883E+01 -0.18208757822E+03  0.18218448418E+03  0.00000000000E+00 0. -1.
        -15    1    1    2    0    0  0.28614076304E+01  0.36649999615E+01  0.41168644336E+02  0.41468480607E+02  0.17770000000E+01 0.  1.
         15    1    1    2    0    0  0.42340678706E+01 -0.37801734628E+01  0.57058368095E+02  0.57367518169E+02  0.17770000000E+01 0. -1.
</event>
<event>
 6    1  0.1196607E-002  0.1838004E+03  0.7546771E-02  0.1067424E+00
        -11   -1    0    0    0    0  0.00000000000E+00  0.00000000000E+00  0.18250000000E+03  0.18250000000E+03  0.00000000000E+00 0. -1.
         11   -1    0    0    0    0 -0.00000000000E+00 -0.00000000000E+00 -0.18250000000E+03  0.18250000000E+03  0.00000000000E+00 0. -1.
        -11    1    1    2    0    0 -0.23002252118E+01 -0.88490519326E+00  0.18118284856E+03  0.18119961012E+03  0.00000000000E+00 0. -1.
         11    1    1    2    0    0  0.26117786756E+00  0.30666169701E+01 -0.17639579835E+03  0.17642264602E+03  0.00000000000E+00 0. -1.
        -15    1    1    2    0    0  0.18165180636E+00 -0.12058685201E+01 -0.38759631028E+00  0.21897662355E+01  0.17770000000E+01 0.  1.
         15    1    1    2    0    0  0.18573955378E+01 -0.97584325676E+00 -0.43994539059E+01  0.51879776326E+01  0.17770000000E+01 0.  1.
</event>
<event>
 6    1  0.1196607E-002  0.1825411E+03  0.7546771E-02  0.1068422E+00
        -11   -1    0    0    0    0  0.00000000000E+00  0.00000000000E+00  0.18250000000E+03  0.18250000000E+03  0.00000000000E+00 0.  1.
         11   -1    0    0    0    0 -0.00000000000E+00 -0.00000000000E+00 -0.18250000000E+03  0.18250000000E+03  0.00000000000E+00 0. -1.
        -11    1    1    2    0    0  0.21845525777E+01  0.11660731364E+01  0.18244206850E+03  0.18245887305E+03  0.00000000000E+00 0.  1.
         11    1    1    2    0    0  0.21618428999E+00 -0.49673737755E+00 -0.29801894457E+02  0.29806817960E+02  0.00000000000E+00 0. -1.
        -15    1    1    2    0    0 -0.23041070680E+01 -0.16159139236E+01 -0.10092562386E+03  0.10098049003E+03  0.17770000000E+01 0. -1.
         15    1    1    2    0    0 -0.96629799692E-01  0.94657816473E+00 -0.51714550182E+02  0.51753818961E+02  0.17770000000E+01 0. -1.
</event>
<event>
 6    1  0.1196607E-002  0.1894796E+03  0.7546771E-02  0.1063031E+00
        -11   -1    0    0    0    0  0.00000000000E+00  0.00000000000E+00  0.18250000000E+03  0.18250000000E+03  0.00000000000E+00 0.  1.
         11   -1    0    0    0    0 -0.00000000000E+00 -0.00000000000E+00 -0.18250000000E+03  0.18250000000E+03  0.00000000000E+00 0. -1.
        -11    1    1    2    0    0  0.63249133132E+00  0.41082677124E+01  0.17547113211E+03  0.17552035812E+03  0.00000000000E+00 0.  1.
         11    1    1    2    0    0 -0.59350564620E+00 -0.43932337033E+01 -0.17349043094E+03  0.17354706099E+03  0.00000000000E+00 0. -1.
        -15    1    1    2    0    0  0.91985643535E+00 -0.21493924822E+01  0.63638596284E+01  0.70087418467E+01  0.17770000000E+01 0.  1.
         15    1    1    2    0    0 -0.95884212048E+00  0.24343584731E+01 -0.83445607964E+01  0.89238390434E+01  0.17770000000E+01 0. -1.
</event>
<event>
 6    1  0.1196607E-002  0.1854465E+03  0.7546771E-02  0.1066133E+00
        -11   -1    0    0    0    0  0.00000000000E+00  0.00000000000E+00  0.18250000000E+03  0.18250000000E+03  0.00000000000E+00 0.  1.
         11   -1    0    0    0    0 -0.00000000000E+00 -0.00000000000E+00 -0.18250000000E+03  0.18250000000E+03  0.00000000000E+00 0. -1.
        -11    1    1    2    0    0  0.30363008937E+01 -0.22120283199E+01  0.14845472918E+03  0.14850225186E+03  0.00000000000E+00 0.  1.
         11    1    1    2    0    0  0.25497040049E+01  0.61481734177E+01 -0.17943005396E+03  0.17955346082E+03  0.00000000000E+00 0. -1.
        -15    1    1    2    0    0 -0.18784311946E+01 -0.55118626003E+01  0.45198482826E+00  0.61050104310E+01  0.17770000000E+01 0.  1.
         15    1    1    2    0    0 -0.37075737040E+01  0.15757175025E+01  0.30523339955E+02  0.30839276895E+02  0.17770000000E+01 0. -1.
</event>
<event>
 6    1  0.1196607E-002  0.1781234E+03  0.7546771E-02  0.1071993E+00
        -11   -1    0    0    0    0  0.00000000000E+00  0.00000000000E+00  0.18250000000E+03  0.18250000000E+03  0.00000000000E+00 0. -1.
         11   -1    0    0    0    0 -0.00000000000E+00 -0.00000000000E+00 -0.18250000000E+03  0.18250000000E+03  0.00000000000E+00 0. -1.
        -11    1    1    2    0    0 -0.91592314520E+00  0.25773736081E+01  0.17809227881E+03  0.17811328289E+03  0.00000000000E+00 0. -1.
         11    1    1    2    0    0 -0.27263603528E+01  0.63494118592E+00 -0.17814455438E+03  0.17816654693E+03  0.00000000000E+00 0. -1.
        -15    1    1    2    0    0  0.31857774724E+01  0.10329053864E+01  0.11597512657E+01  0.39646971687E+01  0.17770000000E+01 0. -1.
         15    1    1    2    0    0  0.45650602557E+00 -0.42452201804E+01 -0.11074756956E+01  0.47554730099E+01  0.17770000000E+01 0.  1.
</event>
<event>
 6    1  0.1196607E-002  0.1838158E+03  0.7546771E-02  0.1067412E+00
        -11   -1    0    0    0    0  0.00000000000E+00  0.00000000000E+00  0.18250000000E+03  0.18250000000E+03  0.00000000000E+00 0.  1.
         11   -1    0    0    0    0 -0.00000000000E+00 -0.00000000000E+00 -0.18250000000E+03  0.18250000000E+03  0.00000000000E+00 0.  1.
        -11    1    1    2    0    0 -0.20329210808E+01 -0.15684666168E+01  0.14157344584E+03  0.14159672815E+03  0.00000000000E+00 0.  1.
         11    1    1    2    0    0  0.43928036876E+01  0.52457112651E+01 -0.18105496700E+03  0.18118420264E+03  0.00000000000E+00 0.  1.
        -15    1    1    2    0    0 -0.17330964695E+01  0.47543779497E+01  0.22923787951E+02  0.23542844265E+02  0.17770000000E+01 0. -1.
         15    1    1    2    0    0 -0.62678613734E+00 -0.84316225980E+01  0.16557733206E+02  0.18676224951E+02  0.17770000000E+01 0.  1.
</event>
<event>
 6    1  0.1196607E-002  0.1829636E+03  0.7546771E-02  0.1068086E+00
        -11   -1    0    0    0    0  0.00000000000E+00  0.00000000000E+00  0.18250000000E+03  0.18250000000E+03  0.00000000000E+00 0.  1.
         11   -1    0    0    0    0 -0.00000000000E+00 -0.00000000000E+00 -0.18250000000E+03  0.18250000000E+03  0.00000000000E+00 0. -1.
        -11    1    1    2    0    0  0.21371265456E+01 -0.17656515708E+01  0.18201525239E+03  0.18203636158E+03  0.00000000000E+00 0.  1.
         11    1    1    2    0    0  0.12751663678E+01 -0.15708336334E+01 -0.14958434758E+03  0.14959803010E+03  0.00000000000E+00 0. -1.
        -15    1    1    2    0    0 -0.15056259661E+01  0.89654919359E+00 -0.24970812502E+02  0.25095216995E+02  0.17770000000E+01 0.  1.
         15    1    1    2    0    0 -0.19066669473E+01  0.24399360106E+01 -0.74600923024E+01  0.82703913295E+01  0.17770000000E+01 0.  1.
</event>
<event>
 6    1  0.1196607E-002  0.1683821E+03  0.7546771E-02  0.1080283E+00
        -11   -1    0    0    0    0  0.00000000000E+00  0.00000000000E+00  0.18250000000E+03  0.18250000000E+03  0.00000000000E+00 0.  1.
         11   -1    0    0    0    0 -0.00000000000E+00 -0.00000000000E+00 -0.18250000000E+03  0.18250000000E+03  0.00000000000E+00 0.  1.
        -11    1    1    2    0    0  0.25327655279E+01 -0.80133504766E+00  0.16989260538E+03  0.16991337323E+03  0.00000000000E+00 0.  1.
         11    1    1    2    0    0  0.45327067873E-01 -0.44009418655E+01 -0.16685659320E+03  0.16691462799E+03  0.00000000000E+00 0.  1.
        -15    1    1    2    0    0  0.18566672414E+01  0.22336766102E+01 -0.14771138079E+02  0.15158521485E+02  0.17770000000E+01 0.  1.
         15    1    1    2    0    0 -0.44347598371E+01  0.29686003029E+01  0.11735125892E+02  0.13013477294E+02  0.17770000000E+01 0.  1.
</event>
<event>
 6    1  0.1196607E-002  0.1834505E+03  0.7546771E-02  0.1067701E+00
        -11   -1    0    0    0    0  0.00000000000E+00  0.00000000000E+00  0.18250000000E+03  0.18250000000E+03  0.00000000000E+00 0.  1.
         11   -1    0    0    0    0 -0.00000000000E+00 -0.00000000000E+00 -0.18250000000E+03  0.18250000000E+03  0.00000000000E+00 0. -1.
        -11    1    1    2    0    0  0.98725953173E+00  0.36622696562E+01  0.16998236939E+03  0.17002468293E+03  0.00000000000E+00 0.  1.
         11    1    1    2    0    0 -0.66729858491E+00 -0.45944788202E+01 -0.18149011244E+03  0.18154948482E+03  0.00000000000E+00 0. -1.
        -15    1    1    2    0    0 -0.95159192679E+00  0.30713933137E+01  0.41926255855E+01  0.55744795616E+01  0.17770000000E+01 0.  1.
         15    1    1    2    0    0  0.63163097998E+00 -0.21391841497E+01  0.73151174655E+01  0.78513526896E+01  0.17770000000E+01 0.  1.
</event>
<event>
 6    1  0.1196607E-002  0.1826190E+03  0.7546771E-02  0.1068360E+00
        -11   -1    0    0    0    0  0.00000000000E+00  0.00000000000E+00  0.18250000000E+03  0.18250000000E+03  0.00000000000E+00 0.  1.
         11   -1    0    0    0    0 -0.00000000000E+00 -0.00000000000E+00 -0.18250000000E+03  0.18250000000E+03  0.00000000000E+00 0.  1.
        -11    1    1    2    0    0  0.22154767488E+01 -0.97851358464E+00  0.10924575274E+03  0.10927259637E+03  0.00000000000E+00 0.  1.
         11    1    1    2    0    0 -0.29323456919E-01 -0.27538848405E+01 -0.18236024324E+03  0.18238103810E+03  0.00000000000E+00 0.  1.
        -15    1    1    2    0    0 -0.13911712777E+01  0.13581348191E+01  0.26394166905E+02  0.26525264623E+02  0.17770000000E+01 0. -1.
         15    1    1    2    0    0 -0.79498201418E+00  0.23742636060E+01  0.46720323603E+02  0.46821100912E+02  0.17770000000E+01 0.  1.
</event>
<event>
 6    1  0.1196607E-002  0.1840882E+03  0.7546771E-02  0.1067198E+00
        -11   -1    0    0    0    0  0.00000000000E+00  0.00000000000E+00  0.18250000000E+03  0.18250000000E+03  0.00000000000E+00 0.  1.
         11   -1    0    0    0    0 -0.00000000000E+00 -0.00000000000E+00 -0.18250000000E+03  0.18250000000E+03  0.00000000000E+00 0.  1.
        -11    1    1    2    0    0  0.10919345923E+01 -0.18925845613E+01  0.67278286779E+02  0.67313758396E+02  0.00000000000E+00 0.  1.
         11    1    1    2    0    0  0.36955126714E+00  0.46534637442E+01 -0.18085157624E+03  0.18091181256E+03  0.00000000000E+00 0.  1.
        -15    1    1    2    0    0  0.59583381620E+01  0.82230308743E+01  0.79580073925E+02  0.80245036765E+02  0.17770000000E+01 0.  1.
         15    1    1    2    0    0 -0.74198240215E+01 -0.10983910057E+02  0.33993215540E+02  0.36529392281E+02  0.17770000000E+01 0. -1.
</event>
<event>
 6    1  0.1196607E-002  0.1850473E+03  0.7546771E-02  0.1066445E+00
        -11   -1    0    0    0    0  0.00000000000E+00  0.00000000000E+00  0.18250000000E+03  0.18250000000E+03  0.00000000000E+00 0. -1.
         11   -1    0    0    0    0 -0.00000000000E+00 -0.00000000000E+00 -0.18250000000E+03  0.18250000000E+03  0.00000000000E+00 0.  1.
        -11    1    1    2    0    0 -0.43676664428E+01  0.80614328983E+01  0.17971901785E+03  0.17995273987E+03  0.00000000000E+00 0. -1.
         11    1    1    2    0    0  0.97183004689E+00 -0.25322310522E+01 -0.17205079666E+03  0.17207217462E+03  0.00000000000E+00 0.  1.
        -15    1    1    2    0    0  0.51938344961E+01 -0.38653311966E+01 -0.73137583168E+01  0.99280154990E+01  0.17770000000E+01 0.  1.
         15    1    1    2    0    0 -0.17979981002E+01 -0.16638706494E+01 -0.35446287360E+00  0.30470700082E+01  0.17770000000E+01 0. -1.
</event>
<event>
 6    1  0.1196607E-002  0.1829773E+03  0.7546771E-02  0.1068075E+00
        -11   -1    0    0    0    0  0.00000000000E+00  0.00000000000E+00  0.18250000000E+03  0.18250000000E+03  0.00000000000E+00 0.  1.
         11   -1    0    0    0    0 -0.00000000000E+00 -0.00000000000E+00 -0.18250000000E+03  0.18250000000E+03  0.00000000000E+00 0.  1.
        -11    1    1    2    0    0 -0.91086695724E+00  0.19369662117E+01  0.15195019812E+03  0.15196527309E+03  0.00000000000E+00 0.  1.
         11    1    1    2    0    0 -0.26032858085E+01  0.66099759619E+00 -0.18200286021E+03  0.18202267754E+03  0.00000000000E+00 0.  1.
        -15    1    1    2    0    0  0.34096337674E+01 -0.12590701094E+01  0.93223877592E+01  0.10162455535E+02  0.17770000000E+01 0.  1.
         15    1    1    2    0    0  0.10451899828E+00 -0.13388936985E+01  0.20730274329E+02  0.20849593840E+02  0.17770000000E+01 0.  1.
</event>
<event>
 6    1  0.1196607E-002  0.1766324E+03  0.7546771E-02  0.1073224E+00
        -11   -1    0    0    0    0  0.00000000000E+00  0.00000000000E+00  0.18250000000E+03  0.18250000000E+03  0.00000000000E+00 0.  1.
         11   -1    0    0    0    0 -0.00000000000E+00 -0.00000000000E+00 -0.18250000000E+03  0.18250000000E+03  0.00000000000E+00 0.  1.
        -11    1    1    2    0    0 -0.25873581333E+00  0.38770780242E+01  0.17777120472E+03  0.17781366625E+03  0.00000000000E+00 0.  1.
         11    1    1    2    0    0 -0.43850949141E+01  0.50750681093E+00 -0.17546082144E+03  0.17551634249E+03  0.00000000000E+00 0.  1.
        -15    1    1    2    0    0  0.62820227962E+01 -0.42787892988E+01 -0.39492508680E+01  0.87479231646E+01  0.17770000000E+01 0. -1.
         15    1    1    2    0    0 -0.16381920688E+01 -0.10579553635E+00  0.16388675950E+01  0.29220680936E+01  0.17770000000E+01 0.  1.
</event>
<event>
 6    1  0.1196607E-002  0.1840242E+03  0.7546771E-02  0.1067248E+00
        -11   -1    0    0    0    0  0.00000000000E+00  0.00000000000E+00  0.18250000000E+03  0.18250000000E+03  0.00000000000E+00 0. -1.
         11   -1    0    0    0    0 -0.00000000000E+00 -0.00000000000E+00 -0.18250000000E+03  0.18250000000E+03  0.00000000000E+00 0. -1.
        -11    1    1    2    0    0 -0.17828656272E+01  0.61014653706E+01  0.15392611885E+03  0.15405731581E+03  0.00000000000E+00 0. -1.
         11    1    1    2    0    0 -0.48074759726E+01 -0.38023033446E+01 -0.18087197843E+03  0.18097580479E+03  0.00000000000E+00 0. -1.
        -15    1    1    2    0    0  0.14080118698E+01  0.41016473510E+01  0.94949358622E+01  0.10588557241E+02  0.17770000000E+01 0.  1.
         15    1    1    2    0    0  0.51823297300E+01 -0.64008093770E+01  0.17450923724E+02  0.19378322165E+02  0.17770000000E+01 0. -1.
</event>
<event>
 6    1  0.1196607E-002  0.1876168E+03  0.7546771E-02  0.1064453E+00
        -11   -1    0    0    0    0  0.00000000000E+00  0.00000000000E+00  0.18250000000E+03  0.18250000000E+03  0.00000000000E+00 0.  1.
         11   -1    0    0    0    0 -0.00000000000E+00 -0.00000000000E+00 -0.18250000000E+03  0.18250000000E+03  0.00000000000E+00 0.  1.
        -11    1    1    2    0    0  0.13808005379E+01 -0.24419717793E+01  0.16221979221E+03  0.16224404710E+03  0.00000000000E+00 0.  1.
         11    1    1    2    0    0 -0.98858326606E+01  0.86010750806E+01 -0.17689853167E+03  0.17738319731E+03  0.00000000000E+00 0.  1.
        -15    1    1    2    0    0  0.42499217952E+01 -0.91531125509E+01  0.60674658884E+00  0.10264851439E+02  0.17770000000E+01 0.  1.
         15    1    1    2    0    0  0.42551103275E+01  0.29940092496E+01  0.14071992878E+02  0.15107904151E+02  0.17770000000E+01 0. -1.
</event>
<event>
 6    1  0.1196607E-002  0.1745703E+03  0.7546771E-02  0.1074948E+00
        -11   -1    0    0    0    0  0.00000000000E+00  0.00000000000E+00  0.18250000000E+03  0.18250000000E+03  0.00000000000E+00 0. -1.
         11   -1    0    0    0    0 -0.00000000000E+00 -0.00000000000E+00 -0.18250000000E+03  0.18250000000E+03  0.00000000000E+00 0. -1.
        -11    1    1    2    0    0  0.50282354190E+01 -0.56468411261E+01  0.17122744455E+03  0.17139430484E+03  0.00000000000E+00 0. -1.
         11    1    1    2    0    0  0.15837240933E+01 -0.26029558559E+01 -0.17794485527E+03  0.17797093886E+03  0.00000000000E+00 0. -1.
        -15    1    1    2    0    0 -0.28186653412E+01 -0.59268633392E+00  0.44504172213E+01  0.55910726914E+01  0.17770000000E+01 0.  1.
         15    1    1    2    0    0 -0.37932941711E+01  0.88424833160E+01  0.22669935004E+01  0.10043683607E+02  0.17770000000E+01 0. -1.
</event>
<event>
 6    1  0.1196607E-002  0.1864822E+03  0.7546771E-02  0.1065328E+00
        -11   -1    0    0    0    0  0.00000000000E+00  0.00000000000E+00  0.18250000000E+03  0.18250000000E+03  0.00000000000E+00 0. -1.
         11   -1    0    0    0    0 -0.00000000000E+00 -0.00000000000E+00 -0.18250000000E+03  0.18250000000E+03  0.00000000000E+00 0.  1.
        -11    1    1    2    0    0 -0.64231543398E+01  0.68844704564E+01  0.17826928319E+03  0.17851775871E+03  0.00000000000E+00 0. -1.
         11    1    1    2    0    0 -0.60891228710E+00 -0.39317910931E+01 -0.16970141547E+03  0.16974804909E+03  0.00000000000E+00 0.  1.
        -15    1    1    2    0    0  0.91309392801E+01 -0.21921469328E+01 -0.97434845093E+01  0.13648178622E+02  0.17770000000E+01 0.  1.
         15    1    1    2    0    0 -0.20988726532E+01 -0.76053243051E+00  0.11756167910E+01  0.30860135825E+01  0.17770000000E+01 0. -1.
</event>
<event>
 6    1  0.1196607E-002  0.1828905E+03  0.7546771E-02  0.1068144E+00
        -11   -1    0    0    0    0  0.00000000000E+00  0.00000000000E+00  0.18250000000E+03  0.18250000000E+03  0.00000000000E+00 0. -1.
         11   -1    0    0    0    0 -0.00000000000E+00 -0.00000000000E+00 -0.18250000000E+03  0.18250000000E+03  0.00000000000E+00 0.  1.
        -11    1    1    2    0    0 -0.20349105732E+01  0.68708113421E+00  0.10112137322E+03  0.10114417958E+03  0.00000000000E+00 0. -1.
         11    1    1    2    0    0  0.31867212013E+01  0.25208818280E+01 -0.18206419831E+03  0.18210953392E+03  0.00000000000E+00 0.  1.
        -15    1    1    2    0    0  0.17381343884E+01 -0.43010949398E+01  0.71180232508E+02  0.71353372434E+02  0.17770000000E+01 0.  1.
         15    1    1    2    0    0 -0.28899450165E+01  0.10931319776E+01  0.97625925851E+01  0.10392914062E+02  0.17770000000E+01 0. -1.
</event>
<event>
 6    1  0.1196607E-002  0.1703356E+03  0.7546771E-02  0.1078572E+00
        -11   -1    0    0    0    0  0.00000000000E+00  0.00000000000E+00  0.18250000000E+03  0.18250000000E+03  0.00000000000E+00 0.  1.
         11   -1    0    0    0    0 -0.00000000000E+00 -0.00000000000E+00 -0.18250000000E+03  0.18250000000E+03  0.00000000000E+00 0.  1.
        -11    1    1    2    0    0 -0.82812722146E+00 -0.11501288646E+02  0.16954989041E+03  0.16994155105E+03  0.00000000000E+00 0.  1.
         11    1    1    2    0    0 -0.71654202775E+01  0.62347180457E+01 -0.17060150666E+03  0.17086570466E+03  0.00000000000E+00 0.  1.
        -15    1    1    2    0    0  0.30462244665E+00  0.80029527020E+01  0.93362864140E+01  0.12428355474E+02  0.17770000000E+01 0. -1.
         15    1    1    2    0    0  0.76889250523E+01 -0.27363821022E+01 -0.82846701645E+01  0.11764388816E+02  0.17770000000E+01 0.  1.
</event>
<event>
 6    1  0.1196607E-002  0.1922586E+03  0.7546771E-02  0.1060942E+00
        -11   -1    0    0    0    0  0.00000000000E+00  0.00000000000E+00  0.18250000000E+03  0.18250000000E+03  0.00000000000E+00 0. -1.
         11   -1    0    0    0    0 -0.00000000000E+00 -0.00000000000E+00 -0.18250000000E+03  0.18250000000E+03  0.00000000000E+00 0. -1.
        -11    1    1    2    0    0  0.16238179825E+01  0.17509747668E+01  0.17272492311E+03  0.17274143036E+03  0.00000000000E+00 0. -1.
         11    1    1    2    0    0  0.56600454277E+00 -0.25121035491E+01 -0.15399784444E+03  0.15401937254E+03  0.00000000000E+00 0. -1.
        -15    1    1    2    0    0  0.12551142073E+02 -0.87610354990E+01 -0.11260733857E+02  0.19085302365E+02  0.17770000000E+01 0. -1.
         15    1    1    2    0    0 -0.14740964598E+02  0.95221642813E+01 -0.74663448179E+01  0.19153894743E+02  0.17770000000E+01 0.  1.
</event>
<event>
 6    1  0.1196607E-002  0.1833226E+03  0.7546771E-02  0.1067802E+00
        -11   -1    0    0    0    0  0.00000000000E+00  0.00000000000E+00  0.18250000000E+03  0.18250000000E+03  0.00000000000E+00 0. -1.
         11   -1    0    0    0    0 -0.00000000000E+00 -0.00000000000E+00 -0.18250000000E+03  0.18250000000E+03  0.00000000000E+00 0.  1.
        -11    1    1    2    0    0 -0.28424295392E+01 -0.14458468005E+01  0.12098722117E+03  0.12102924260E+03  0.00000000000E+00 0. -1.
         11    1    1    2    0    0  0.77210412964E+01  0.50235426927E+01 -0.18144377131E+03  0.18167744110E+03  0.00000000000E+00 0.  1.
        -15    1    1    2    0    0 -0.84264251457E+01 -0.12575462209E+01  0.51457891787E+02  0.52188680951E+02  0.17770000000E+01 0. -1.
         15    1    1    2    0    0  0.35478133885E+01 -0.23201496713E+01  0.89986583541E+01  0.10104635348E+02  0.17770000000E+01 0.  1.
</event>
<event>
 6    1  0.1196607E-002  0.1848887E+03  0.7546771E-02  0.1066569E+00
        -11   -1    0    0    0    0  0.00000000000E+00  0.00000000000E+00  0.18250000000E+03  0.18250000000E+03  0.00000000000E+00 0.  1.
         11   -1    0    0    0    0 -0.00000000000E+00 -0.00000000000E+00 -0.18250000000E+03  0.18250000000E+03  0.00000000000E+00 0.  1.
        -11    1    1    2    0    0 -0.49739320531E+01  0.41784480360E+01  0.17999411956E+03  0.18011130588E+03  0.00000000000E+00 0.  1.
         11    1    1    2    0    0 -0.11543882256E+01  0.49312357941E+01 -0.14977993886E+03  0.14986553901E+03  0.00000000000E+00 0.  1.
        -15    1    1    2    0    0  0.12813966140E+01 -0.15394677801E+01  0.70990297026E+00  0.27701316856E+01  0.17770000000E+01 0. -1.
         15    1    1    2    0    0  0.48469236647E+01 -0.75702160499E+01 -0.30924083675E+02  0.32253023427E+02  0.17770000000E+01 0.  1.
</event>
<event>
 6    1  0.1196607E-002  0.1833039E+03  0.7546771E-02  0.1067817E+00
        -11   -1    0    0    0    0  0.00000000000E+00  0.00000000000E+00  0.18250000000E+03  0.18250000000E+03  0.00000000000E+00 0. -1.
         11   -1    0    0    0    0 -0.00000000000E+00 -0.00000000000E+00 -0.18250000000E+03  0.18250000000E+03  0.00000000000E+00 0. -1.
        -11    1    1    2    0    0 -0.70680827312E+00  0.26255507733E+01  0.16697127863E+03  0.16699341599E+03  0.00000000000E+00 0. -1.
         11    1    1    2    0    0 -0.21573274906E+01  0.13379223335E+01 -0.18167838883E+03  0.18169612287E+03  0.00000000000E+00 0. -1.
        -15    1    1    2    0    0  0.24441554620E+01 -0.31607226989E+01  0.12892565012E+02  0.13613964356E+02  0.17770000000E+01 0. -1.
         15    1    1    2    0    0  0.41998030174E+00 -0.80275040789E+00  0.18145451878E+01  0.26964967847E+01  0.17770000000E+01 0.  1.
</event>
<event>
 6    1  0.1196607E-002  0.1829654E+03  0.7546771E-02  0.1068085E+00
        -11   -1    0    0    0    0  0.00000000000E+00  0.00000000000E+00  0.18250000000E+03  0.18250000000E+03  0.00000000000E+00 0.  1.
         11   -1    0    0    0    0 -0.00000000000E+00 -0.00000000000E+00 -0.18250000000E+03  0.18250000000E+03  0.00000000000E+00 0. -1.
        -11    1    1    2    0    0 -0.50174473508E+00  0.24523955367E+01  0.18201741352E+03  0.18203462532E+03  0.00000000000E+00 0.  1.
         11    1    1    2    0    0 -0.26179521145E+01 -0.33505675799E+01 -0.75738830669E+02  0.75858094146E+02  0.00000000000E+00 0. -1.
        -15    1    1    2    0    0 -0.22259163162E+00 -0.25113182265E+01 -0.64581593610E+01  0.71569419169E+01  0.17770000000E+01 0.  1.
         15    1    1    2    0    0  0.33422884812E+01  0.34094902697E+01 -0.99820423486E+02  0.99950338619E+02  0.17770000000E+01 0. -1.
</event>
<event>
 6    1  0.1196607E-002  0.1863920E+03  0.7546771E-02  0.1065398E+00
        -11   -1    0    0    0    0  0.00000000000E+00  0.00000000000E+00  0.18250000000E+03  0.18250000000E+03  0.00000000000E+00 0. -1.
         11   -1    0    0    0    0 -0.00000000000E+00 -0.00000000000E+00 -0.18250000000E+03  0.18250000000E+03  0.00000000000E+00 0.  1.
        -11    1    1    2    0    0  0.32270571598E+01 -0.23658257957E+00  0.17857871625E+03  0.17860802829E+03  0.00000000000E+00 0. -1.
         11    1    1    2    0    0  0.35937753613E+01  0.26904239450E+01 -0.12017304995E+03  0.12025687314E+03  0.00000000000E+00 0.  1.
        -15    1    1    2    0    0 -0.38267720107E+01 -0.37677542240E+01 -0.61212865685E+02  0.61473675751E+02  0.17770000000E+01 0. -1.
         15    1    1    2    0    0 -0.29940605104E+01  0.13139128586E+01  0.28071993864E+01  0.46614228230E+01  0.17770000000E+01 0. -1.
</event>
<event>
 6    1  0.1196607E-002  0.1919858E+03  0.7546771E-02  0.1061145E+00
        -11   -1    0    0    0    0  0.00000000000E+00  0.00000000000E+00  0.18250000000E+03  0.18250000000E+03  0.00000000000E+00 0.  1.
         11   -1    0    0    0    0 -0.00000000000E+00 -0.00000000000E+00 -0.18250000000E+03  0.18250000000E+03  0.00000000000E+00 0.  1.
        -11    1    1    2    0    0  0.16967575196E+01 -0.30962663241E+01  0.16982849147E+03  0.16986518880E+03  0.00000000000E+00 0.  1.
         11    1    1    2    0    0  0.21341595726E+00  0.64763751961E+01 -0.17289283928E+03  0.17301422732E+03  0.00000000000E+00 0.  1.
        -15    1    1    2    0    0 -0.25281975687E+01  0.27411479685E+01  0.11100934397E+02  0.11844583092E+02  0.17770000000E+01 0.  1.
         15    1    1    2    0    0  0.61802409183E+00 -0.61212568405E+01 -0.80365865883E+01  0.10276000782E+02  0.17770000000E+01 0.  1.
</event>
<event>
 6    1  0.1196607E-002  0.1925125E+03  0.7546771E-02  0.1060753E+00
        -11   -1    0    0    0    0  0.00000000000E+00  0.00000000000E+00  0.18250000000E+03  0.18250000000E+03  0.00000000000E+00 0.  1.
         11   -1    0    0    0    0 -0.00000000000E+00 -0.00000000000E+00 -0.18250000000E+03  0.18250000000E+03  0.00000000000E+00 0.  1.
        -11    1    1    2    0    0  0.27522798218E+01  0.26618249501E+01  0.15809608861E+03  0.15814244715E+03  0.00000000000E+00 0.  1.
         11    1    1    2    0    0  0.23874870885E+01  0.11311147097E+01 -0.17246727576E+03  0.17248750889E+03  0.00000000000E+00 0.  1.
        -15    1    1    2    0    0 -0.13263461204E+02 -0.39223160529E+01 -0.37423937792E+01  0.14438393488E+02  0.17770000000E+01 0. -1.
         15    1    1    2    0    0  0.81236942936E+01  0.12937639313E+00  0.18113580935E+02  0.19931650471E+02  0.17770000000E+01 0.  1.
</event>
<event>
 6    1  0.1196607E-002  0.1868796E+03  0.7546771E-02  0.1065021E+00
        -11   -1    0    0    0    0  0.00000000000E+00  0.00000000000E+00  0.18250000000E+03  0.18250000000E+03  0.00000000000E+00 0. -1.
         11   -1    0    0    0    0 -0.00000000000E+00 -0.00000000000E+00 -0.18250000000E+03  0.18250000000E+03  0.00000000000E+00 0.  1.
        -11    1    1    2    0    0  0.26540648745E+01  0.28423040967E+01  0.17807790705E+03  0.17812036305E+03  0.00000000000E+00 0. -1.
         11    1    1    2    0    0 -0.85505295742E+00  0.29308595163E+01 -0.17166357480E+03  0.17169072184E+03  0.00000000000E+00 0.  1.
        -15    1    1    2    0    0  0.42440597627E+01  0.14555789849E+00 -0.42806489293E+01  0.62860889770E+01  0.17770000000E+01 0. -1.
         15    1    1    2    0    0 -0.60430716799E+01 -0.59187215115E+01 -0.21336833276E+01  0.89028261356E+01  0.17770000000E+01 0. -1.
</event>
<event>
 6    1  0.1196607E-002  0.1839110E+03  0.7546771E-02  0.1067337E+00
        -11   -1    0    0    0    0  0.00000000000E+00  0.00000000000E+00  0.18250000000E+03  0.18250000000E+03  0.00000000000E+00 0. -1.
         11   -1    0    0    0    0 -0.00000000000E+00 -0.00000000000E+00 -0.18250000000E+03  0.18250000000E+03  0.00000000000E+00 0. -1.
        -11    1    1    2    0    0 -0.31692966791E+01  0.29141585616E+01  0.16300354685E+03  0.16306039693E+03  0.00000000000E+00 0. -1.
         11    1    1    2    0    0  0.56339921514E+01  0.20766554823E+01 -0.18098943242E+03  0.18108900854E+03  0.00000000000E+00 0. -1.
        -15    1    1    2    0    0 -0.38216069320E+01 -0.62965572719E+01  0.10642698400E+02  0.13064305234E+02  0.17770000000E+01 0. -1.
         15    1    1    2    0    0  0.13569114597E+01  0.13057432280E+01  0.73431871729E+01  0.77862892923E+01  0.17770000000E+01 0. -1.
</event>
<event>
 6    1  0.1196607E-002  0.1830311E+03  0.7546771E-02  0.1068033E+00
        -11   -1    0    0    0    0  0.00000000000E+00  0.00000000000E+00  0.18250000000E+03  0.18250000000E+03  0.00000000000E+00 0. -1.
         11   -1    0    0    0    0 -0.00000000000E+00 -0.00000000000E+00 -0.18250000000E+03  0.18250000000E+03  0.00000000000E+00 0.  1.
        -11    1    1    2    0    0 -0.12097823276E+01 -0.19166573547E+01  0.14259348646E+03  0.14261149859E+03  0.00000000000E+00 0. -1.
         11    1    1    2    0    0 -0.34775021032E+00 -0.37480527402E+01 -0.18192996074E+03  0.18196889691E+03  0.00000000000E+00 0.  1.
        -15    1    1    2    0    0  0.71027347467E+00  0.22641376807E+01  0.31635655924E+02  0.31774254714E+02  0.17770000000E+01 0.  1.
         15    1    1    2    0    0  0.84725906328E+00  0.34005724142E+01  0.77008183543E+01  0.86453497900E+01  0.17770000000E+01 0.  1.
</event>
<event>
 6    1  0.1196607E-002  0.1577506E+03  0.7546771E-02  0.1090063E+00
        -11   -1    0    0    0    0  0.00000000000E+00  0.00000000000E+00  0.18250000000E+03  0.18250000000E+03  0.00000000000E+00 0. -1.
         11   -1    0    0    0    0 -0.00000000000E+00 -0.00000000000E+00 -0.18250000000E+03  0.18250000000E+03  0.00000000000E+00 0.  1.
        -11    1    1    2    0    0 -0.52613331636E+00 -0.97086636448E+00  0.10812098319E+02  0.10868342460E+02  0.00000000000E+00 0. -1.
         11    1    1    2    0    0 -0.23846057977E+02 -0.10252935270E+02 -0.17176460058E+03  0.17371480989E+03  0.00000000000E+00 0.  1.
        -15    1    1    2    0    0  0.14818989544E+01 -0.10676509611E+02  0.14405505352E+03  0.14446868192E+03  0.17770000000E+01 0. -1.
         15    1    1    2    0    0  0.22890292339E+02  0.21900311246E+02  0.16897448748E+02  0.35948165728E+02  0.17770000000E+01 0.  1.
</event>
<event>
 6    1  0.1196607E-002  0.1835055E+03  0.7546771E-02  0.1067657E+00
        -11   -1    0    0    0    0  0.00000000000E+00  0.00000000000E+00  0.18250000000E+03  0.18250000000E+03  0.00000000000E+00 0.  1.
         11   -1    0    0    0    0 -0.00000000000E+00 -0.00000000000E+00 -0.18250000000E+03  0.18250000000E+03  0.00000000000E+00 0. -1.
        -11    1    1    2    0    0 -0.24287496402E+01  0.44353030022E+00  0.18147771816E+03  0.18149451158E+03  0.00000000000E+00 0.  1.
         11    1    1    2    0    0 -0.45334159890E+01  0.40469198719E+01 -0.13634051243E+03  0.13647587607E+03  0.00000000000E+00 0. -1.
        -15    1    1    2    0    0  0.42805629517E+01  0.38111849009E+00 -0.67248683355E+01  0.81761882082E+01  0.17770000000E+01 0. -1.
         15    1    1    2    0    0  0.26816026775E+01 -0.48715686622E+01 -0.38412337397E+02  0.38853424140E+02  0.17770000000E+01 0. -1.
</event>
<event>
 6    1  0.1196607E-002  0.1831040E+03  0.7546771E-02  0.1067975E+00
        -11   -1    0    0    0    0  0.00000000000E+00  0.00000000000E+00  0.18250000000E+03  0.18250000000E+03  0.00000000000E+00 0.  1.
         11   -1    0    0    0    0 -0.00000000000E+00 -0.00000000000E+00 -0.18250000000E+03  0.18250000000E+03  0.00000000000E+00 0.  1.
        -11    1    1    2    0    0  0.35144368325E+01 -0.42787349443E+00  0.11147635344E+03  0.11153255900E+03  0.00000000000E+00 0.  1.
         11    1    1    2    0    0  0.13822672386E+01  0.49384338721E+01 -0.18182369697E+03  0.18189600208E+03  0.00000000000E+00 0.  1.
        -15    1    1    2    0    0  0.23463910216E+01 -0.26949219160E+01  0.42457342367E+02  0.42644481528E+02  0.17770000000E+01 0.  1.
         15    1    1    2    0    0 -0.72430950927E+01 -0.18156384617E+01  0.27890001167E+02  0.28926957387E+02  0.17770000000E+01 0. -1.
</event>
<event>
 6    1  0.1196607E-002  0.1893327E+03  0.7546771E-02  0.1063142E+00
        -11   -1    0    0    0    0  0.00000000000E+00  0.00000000000E+00  0.18250000000E+03  0.18250000000E+03  0.00000000000E+00 0.  1.
         11   -1    0    0    0    0 -0.00000000000E+00 -0.00000000000E+00 -0.18250000000E+03  0.18250000000E+03  0.00000000000E+00 0. -1.
        -11    1    1    2    0    0 -0.53467376453E+00 -0.20543706429E+01  0.15281940867E+03  0.15283415188E+03  0.00000000000E+00 0.  1.
         11    1    1    2    0    0  0.31227930852E+01 -0.22647622976E+01 -0.17562492375E+03  0.17566728445E+03  0.00000000000E+00 0. -1.
        -15    1    1    2    0    0  0.46834397648E+01 -0.17340055146E+01  0.25860916115E+02  0.26398600237E+02  0.17770000000E+01 0.  1.
         15    1    1    2    0    0 -0.72715590854E+01  0.60531384552E+01 -0.30554010361E+01  0.10099963425E+02  0.17770000000E+01 0. -1.
</event>
<event>
 6    1  0.1196607E-002  0.1916180E+03  0.7546771E-02  0.1061420E+00
        -11   -1    0    0    0    0  0.00000000000E+00  0.00000000000E+00  0.18250000000E+03  0.18250000000E+03  0.00000000000E+00 0. -1.
         11   -1    0    0    0    0 -0.00000000000E+00 -0.00000000000E+00 -0.18250000000E+03  0.18250000000E+03  0.00000000000E+00 0. -1.
        -11    1    1    2    0    0  0.44970868269E+00  0.42528655814E+01  0.16618954360E+03  0.16624455933E+03  0.00000000000E+00 0. -1.
         11    1    1    2    0    0  0.20728238597E+00  0.63221175662E+01 -0.17326654111E+03  0.17338196678E+03  0.00000000000E+00 0. -1.
        -15    1    1    2    0    0 -0.14590425910E+01 -0.51239353820E+01  0.14737582551E+02  0.15771416788E+02  0.17770000000E+01 0.  1.
         15    1    1    2    0    0  0.80205152235E+00 -0.54510477656E+01 -0.76605850464E+01  0.96020571046E+01  0.17770000000E+01 0. -1.
</event>
<event>
 6    1  0.1196607E-002  0.1833869E+03  0.7546771E-02  0.1067751E+00
        -11   -1    0    0    0    0  0.00000000000E+00  0.00000000000E+00  0.18250000000E+03  0.18250000000E+03  0.00000000000E+00 0. -1.
         11   -1    0    0    0    0 -0.00000000000E+00 -0.00000000000E+00 -0.18250000000E+03  0.18250000000E+03  0.00000000000E+00 0. -1.
        -11    1    1    2    0    0  0.44567762406E+01  0.26690308094E+00  0.18155818792E+03  0.18161307687E+03  0.00000000000E+00 0. -1.
         11    1    1    2    0    0 -0.24472568261E+01 -0.65154664828E+01 -0.12948781747E+03  0.12967472862E+03  0.00000000000E+00 0. -1.
        -15    1    1    2    0    0  0.13089823027E+01  0.54174391010E+01 -0.10977186211E+02  0.12438586222E+02  0.17770000000E+01 0.  1.
         15    1    1    2    0    0 -0.33185017172E+01  0.83112430083E+00 -0.41093184232E+02  0.41273608281E+02  0.17770000000E+01 0. -1.
</event>
<event>
 6    1  0.1196607E-002  0.1837843E+03  0.7546771E-02  0.1067437E+00
        -11   -1    0    0    0    0  0.00000000000E+00  0.00000000000E+00  0.18250000000E+03  0.18250000000E+03  0.00000000000E+00 0.  1.
         11   -1    0    0    0    0 -0.00000000000E+00 -0.00000000000E+00 -0.18250000000E+03  0.18250000000E+03  0.00000000000E+00 0.  1.
        -11    1    1    2    0    0  0.22513828368E+01  0.16436739965E+01  0.15056336883E+03  0.15058917100E+03  0.00000000000E+00 0.  1.
         11    1    1    2    0    0  0.16064210613E+01  0.28443668584E+01 -0.18118625767E+03  0.18121570291E+03  0.00000000000E+00 0.  1.
        -15    1    1    2    0    0 -0.67299341191E+01 -0.44622668024E+01  0.14227775533E+02  0.16455733465E+02  0.17770000000E+01 0.  1.
         15    1    1    2    0    0  0.28721302210E+01 -0.25774052464E-01  0.16395113309E+02  0.16739392633E+02  0.17770000000E+01 0. -1.
</event>
<event>
 6    1  0.1196607E-002  0.1827879E+03  0.7546771E-02  0.1068226E+00
        -11   -1    0    0    0    0  0.00000000000E+00  0.00000000000E+00  0.18250000000E+03  0.18250000000E+03  0.00000000000E+00 0. -1.
         11   -1    0    0    0    0 -0.00000000000E+00 -0.00000000000E+00 -0.18250000000E+03  0.18250000000E+03  0.00000000000E+00 0. -1.
        -11    1    1    2    0    0 -0.12843284915E+01 -0.13315625849E+01  0.13686256166E+03  0.13687506472E+03  0.00000000000E+00 0. -1.
         11    1    1    2    0    0 -0.43177407282E+01  0.31068091980E+01 -0.18213442149E+03  0.18221208149E+03  0.00000000000E+00 0. -1.
        -15    1    1    2    0    0  0.19132615183E+01 -0.22416757260E+01  0.24001085035E+02  0.24246556283E+02  0.17770000000E+01 0.  1.
         15    1    1    2    0    0  0.36888077014E+01  0.46642911283E+00  0.21270774798E+02  0.21666297512E+02  0.17770000000E+01 0. -1.
</event>
<event>
 6    1  0.1196607E-002  0.1840782E+03  0.7546771E-02  0.1067205E+00
        -11   -1    0    0    0    0  0.00000000000E+00  0.00000000000E+00  0.18250000000E+03  0.18250000000E+03  0.00000000000E+00 0. -1.
         11   -1    0    0    0    0 -0.00000000000E+00 -0.00000000000E+00 -0.18250000000E+03  0.18250000000E+03  0.00000000000E+00 0.  1.
        -11    1    1    2    0    0 -0.16401082919E+01  0.17107066876E+01  0.15355147342E+03  0.15356976090E+03  0.00000000000E+00 0. -1.
         11    1    1    2    0    0 -0.25527863927E+01 -0.15731630511E+01 -0.18089694099E+03  0.18092179199E+03  0.00000000000E+00 0.  1.
        -15    1    1    2    0    0  0.62648870551E+01 -0.58144580741E+00  0.26929587713E+02  0.27711862305E+02  0.17770000000E+01 0. -1.
         15    1    1    2    0    0 -0.20719923704E+01  0.44390217090E+00  0.41587985357E+00  0.27965848053E+01  0.17770000000E+01 0.  1.
</event>
<event>
 6    1  0.1196607E-002  0.1829442E+03  0.7546771E-02  0.1068102E+00
        -11   -1    0    0    0    0  0.00000000000E+00  0.00000000000E+00  0.18250000000E+03  0.18250000000E+03  0.00000000000E+00 0. -1.
         11   -1    0    0    0    0 -0.00000000000E+00 -0.00000000000E+00 -0.18250000000E+03  0.18250000000E+03  0.00000000000E+00 0. -1.
        -11    1    1    2    0    0  0.68600948114E+00 -0.14536564617E+01  0.10316930215E+03  0.10318182317E+03  0.00000000000E+00 0. -1.
         11    1    1    2    0    0  0.27659094513E+01 -0.24045887052E+00 -0.18203463624E+03  0.18205580701E+03  0.00000000000E+00 0. -1.
        -15    1    1    2    0    0 -0.27737737304E+01  0.19607649334E+01  0.80007225952E+01  0.88717366325E+01  0.17770000000E+01 0.  1.
         15    1    1    2    0    0 -0.67814520211E+00 -0.26664960121E+00  0.70864611493E+02  0.70890633190E+02  0.17770000000E+01 0. -1.
</event>
<event>
 6    1  0.1196607E-002  0.1847930E+03  0.7546771E-02  0.1066644E+00
        -11   -1    0    0    0    0  0.00000000000E+00  0.00000000000E+00  0.18250000000E+03  0.18250000000E+03  0.00000000000E+00 0. -1.
         11   -1    0    0    0    0 -0.00000000000E+00 -0.00000000000E+00 -0.18250000000E+03  0.18250000000E+03  0.00000000000E+00 0. -1.
        -11    1    1    2    0    0 -0.32399287138E+01  0.15294220300E+00  0.17433942019E+03  0.17436959013E+03  0.00000000000E+00 0. -1.
         11    1    1    2    0    0 -0.11391890187E+01 -0.25791854292E+01 -0.18018498372E+03  0.18020704289E+03  0.00000000000E+00 0. -1.
        -15    1    1    2    0    0  0.19994197463E+01  0.60545027328E+00 -0.85374072746E+00  0.28724295614E+01  0.17770000000E+01 0. -1.
         15    1    1    2    0    0  0.23796979862E+01  0.18207929529E+01  0.66993042541E+01  0.75509374234E+01  0.17770000000E+01 0.  1.
</event>
<event>
 6    1  0.1196607E-002  0.1866638E+03  0.7546771E-02  0.1065188E+00
        -11   -1    0    0    0    0  0.00000000000E+00  0.00000000000E+00  0.18250000000E+03  0.18250000000E+03  0.00000000000E+00 0. -1.
         11   -1    0    0    0    0 -0.00000000000E+00 -0.00000000000E+00 -0.18250000000E+03  0.18250000000E+03  0.00000000000E+00 0. -1.
        -11    1    1    2    0    0  0.16393115251E+01  0.40848987896E+01  0.17281395875E+03  0.17287000341E+03  0.00000000000E+00 0. -1.
         11    1    1    2    0    0 -0.16635941856E+01  0.38844112245E+01 -0.17828609437E+03  0.17833616471E+03  0.00000000000E+00 0. -1.
        -15    1    1    2    0    0 -0.15776618267E+01  0.15292079743E+01  0.77214578999E+00  0.29294081295E+01  0.17770000000E+01 0.  1.
         15    1    1    2    0    0  0.16019444872E+01 -0.94985179884E+01  0.46999898321E+01  0.10864423755E+02  0.17770000000E+01 0.  1.
</event>
<event>
 6    1  0.1196607E-002  0.1970198E+03  0.7546771E-02  0.1057451E+00
        -11   -1    0    0    0    0  0.00000000000E+00  0.00000000000E+00  0.18250000000E+03  0.18250000000E+03  0.00000000000E+00 0. -1.
         11   -1    0    0    0    0 -0.00000000000E+00 -0.00000000000E+00 -0.18250000000E+03  0.18250000000E+03  0.00000000000E+00 0.  1.
        -11    1    1    2    0    0 -0.90287369340E+00 -0.42130175985E+01  0.13587297578E+03  0.13594127499E+03  0.00000000000E+00 0. -1.
         11    1    1    2    0    0 -0.37343375120E+01 -0.98836782119E+01 -0.16764758751E+03  0.16798019517E+03  0.00000000000E+00 0.  1.
        -15    1    1    2    0    0 -0.28527542654E+01  0.95594931589E+01  0.44438730006E+02  0.45579387555E+02  0.17770000000E+01 0. -1.
         15    1    1    2    0    0  0.74899654708E+01  0.45372026515E+01 -0.12664118278E+02  0.15499142280E+02  0.17770000000E+01 0.  1.
</event>
<event>
 6    1  0.1196607E-002  0.1832926E+03  0.7546771E-02  0.1067826E+00
        -11   -1    0    0    0    0  0.00000000000E+00  0.00000000000E+00  0.18250000000E+03  0.18250000000E+03  0.00000000000E+00 0.  1.
         11   -1    0    0    0    0 -0.00000000000E+00 -0.00000000000E+00 -0.18250000000E+03  0.18250000000E+03  0.00000000000E+00 0. -1.
        -11    1    1    2    0    0 -0.16335109142E+01  0.36554455886E+01  0.18166326631E+03  0.18170738281E+03  0.00000000000E+00 0.  1.
         11    1    1    2    0    0 -0.23831310362E+01  0.17628058117E+01 -0.13364145298E+03  0.13367432346E+03  0.00000000000E+00 0. -1.
        -15    1    1    2    0    0  0.98948184050E+00  0.74157245953E+00 -0.32292664300E+02  0.32365149476E+02  0.17770000000E+01 0.  1.
         15    1    1    2    0    0  0.30271601099E+01 -0.61598238598E+01 -0.15729149031E+02  0.17253144251E+02  0.17770000000E+01 0.  1.
</event>
<event>
 6    1  0.1196607E-002  0.1827044E+03  0.7546771E-02  0.1068292E+00
        -11   -1    0    0    0    0  0.00000000000E+00  0.00000000000E+00  0.18250000000E+03  0.18250000000E+03  0.00000000000E+00 0. -1.
         11   -1    0    0    0    0 -0.00000000000E+00 -0.00000000000E+00 -0.18250000000E+03  0.18250000000E+03  0.00000000000E+00 0. -1.
        -11    1    1    2    0    0  0.10490537610E+01  0.28680728829E+00  0.98877725896E+01  0.99474026256E+01  0.00000000000E+00 0. -1.
         11    1    1    2    0    0  0.42273353788E+01  0.12919637971E+01 -0.18224201288E+03  0.18229561375E+03  0.00000000000E+00 0. -1.
        -15    1    1    2    0    0 -0.64892838340E+01  0.66761877250E-02  0.15876144492E+03  0.15890394889E+03  0.17770000000E+01 0. -1.
         15    1    1    2    0    0  0.12128946943E+01 -0.15854472732E+01  0.13592795365E+02  0.13853034737E+02  0.17770000000E+01 0.  1.
</event>
<event>
 6    1  0.1196607E-002  0.1846500E+03  0.7546771E-02  0.1066756E+00
        -11   -1    0    0    0    0  0.00000000000E+00  0.00000000000E+00  0.18250000000E+03  0.18250000000E+03  0.00000000000E+00 0.  1.
         11   -1    0    0    0    0 -0.00000000000E+00 -0.00000000000E+00 -0.18250000000E+03  0.18250000000E+03  0.00000000000E+00 0.  1.
        -11    1    1    2    0    0 -0.24230650673E+01 -0.38904670547E+01  0.18029173217E+03  0.18034998105E+03  0.00000000000E+00 0.  1.
         11    1    1    2    0    0 -0.51549354016E+01  0.46660220407E+01 -0.15577402945E+03  0.15592912932E+03  0.00000000000E+00 0.  1.
        -15    1    1    2    0    0 -0.19438271842E+01 -0.21490556862E+01 -0.13787431612E+02  0.14200278304E+02  0.17770000000E+01 0. -1.
         15    1    1    2    0    0  0.95218276530E+01  0.13735007002E+01 -0.10730271110E+02  0.14520611321E+02  0.17770000000E+01 0.  1.
</event>
<event>
 6    1  0.1196607E-002  0.1831000E+03  0.7546771E-02  0.1067978E+00
        -11   -1    0    0    0    0  0.00000000000E+00  0.00000000000E+00  0.18250000000E+03  0.18250000000E+03  0.00000000000E+00 0. -1.
         11   -1    0    0    0    0 -0.00000000000E+00 -0.00000000000E+00 -0.18250000000E+03  0.18250000000E+03  0.00000000000E+00 0. -1.
        -11    1    1    2    0    0 -0.23353568618E+01  0.89902180386E+00  0.14476272843E+03  0.14478435576E+03  0.00000000000E+00 0. -1.
         11    1    1    2    0    0  0.36173973866E+01  0.39176208137E+01 -0.18182182816E+03  0.18190000140E+03  0.00000000000E+00 0. -1.
        -15    1    1    2    0    0 -0.19162363101E+01 -0.35596172457E+01  0.34921685676E+02  0.35199782613E+02  0.17770000000E+01 0.  1.
         15    1    1    2    0    0  0.63419578534E+00 -0.12570253719E+01  0.21374140514E+01  0.31158602194E+01  0.17770000000E+01 0. -1.
</event>
<event>
 6    1  0.1196607E-002  0.1831000E+03  0.7546771E-02  0.1067978E+00
        -11   -1    0    0    0    0  0.00000000000E+00  0.00000000000E+00  0.18250000000E+03  0.18250000000E+03  0.00000000000E+00 0. -1.
         11   -1    0    0    0    0 -0.00000000000E+00 -0.00000000000E+00 -0.18250000000E+03  0.18250000000E+03  0.00000000000E+00 0. -1.
        -11    1    1    2    0    0  0.14354817664E-01 -0.17844479418E+01  0.12422546155E+03  0.12423827815E+03  0.00000000000E+00 0. -1.
         11    1    1    2    0    0 -0.63870079412E+00 -0.23792244660E+01 -0.18188332842E+03  0.18190001046E+03  0.00000000000E+00 0. -1.
        -15    1    1    2    0    0  0.47370296522E+00  0.47864872781E+01  0.10693009018E+02  0.11858879619E+02  0.17770000000E+01 0. -1.
         15    1    1    2    0    0  0.15064301123E+00 -0.62281487022E+00  0.46964857861E+02  0.47002831772E+02  0.17770000000E+01 0. -1.
</event>
<event>
 6    1  0.1196607E-002  0.1846728E+03  0.7546771E-02  0.1066738E+00
        -11   -1    0    0    0    0  0.00000000000E+00  0.00000000000E+00  0.18250000000E+03  0.18250000000E+03  0.00000000000E+00 0. -1.
         11   -1    0    0    0    0 -0.00000000000E+00 -0.00000000000E+00 -0.18250000000E+03  0.18250000000E+03  0.00000000000E+00 0. -1.
        -11    1    1    2    0    0 -0.25710575588E+01 -0.60261963251E+01  0.10460792368E+03  0.10481289556E+03  0.00000000000E+00 0. -1.
         11    1    1    2    0    0 -0.28822691462E+01  0.43118182311E+00 -0.18030364308E+03  0.18032719457E+03  0.00000000000E+00 0. -1.
        -15    1    1    2    0    0 -0.28715413994E+01  0.93849476883E+01  0.64623212400E+02  0.65388380490E+02  0.17770000000E+01 0. -1.
         15    1    1    2    0    0  0.83248681043E+01 -0.37899331863E+01  0.11072506993E+02  0.14471529381E+02  0.17770000000E+01 0.  1.
</event>
<event>
 6    1  0.1196607E-002  0.1841983E+03  0.7546771E-02  0.1067111E+00
        -11   -1    0    0    0    0  0.00000000000E+00  0.00000000000E+00  0.18250000000E+03  0.18250000000E+03  0.00000000000E+00 0. -1.
         11   -1    0    0    0    0 -0.00000000000E+00 -0.00000000000E+00 -0.18250000000E+03  0.18250000000E+03  0.00000000000E+00 0.  1.
        -11    1    1    2    0    0  0.30746053669E+01 -0.35195533086E+01  0.16867149825E+03  0.16873622841E+03  0.00000000000E+00 0. -1.
         11    1    1    2    0    0 -0.16255375961E+01  0.49873234519E+01 -0.18072559544E+03  0.18080170523E+03  0.00000000000E+00 0.  1.
        -15    1    1    2    0    0  0.12913467760E+01 -0.46214917573E+01  0.58143572180E+01  0.77453367530E+01  0.17770000000E+01 0. -1.
         15    1    1    2    0    0 -0.27404145468E+01  0.31537216140E+01  0.62397399707E+01  0.77167296057E+01  0.17770000000E+01 0.  1.
</event>
<event>
 6    1  0.1196607E-002  0.1828057E+03  0.7546771E-02  0.1068212E+00
        -11   -1    0    0    0    0  0.00000000000E+00  0.00000000000E+00  0.18250000000E+03  0.18250000000E+03  0.00000000000E+00 0. -1.
         11   -1    0    0    0    0 -0.00000000000E+00 -0.00000000000E+00 -0.18250000000E+03  0.18250000000E+03  0.00000000000E+00 0. -1.
        -11    1    1    2    0    0 -0.33390795506E+01 -0.19807860824E+01  0.18215289314E+03  0.18219426293E+03  0.00000000000E+00 0. -1.
         11    1    1    2    0    0 -0.19810174027E+00 -0.12277920979E+01 -0.91351432041E+01  0.92194120797E+01  0.00000000000E+00 0. -1.
        -15    1    1    2    0    0  0.20403429881E+01  0.39358305830E+01 -0.16734593544E+03  0.16741407826E+03  0.17770000000E+01 0. -1.
         15    1    1    2    0    0  0.14968383028E+01 -0.72725240275E+00 -0.56718144938E+01  0.61722467234E+01  0.17770000000E+01 0. -1.
</event>
<event>
 6    1  0.1196607E-002  0.1829713E+03  0.7546771E-02  0.1068080E+00
        -11   -1    0    0    0    0  0.00000000000E+00  0.00000000000E+00  0.18250000000E+03  0.18250000000E+03  0.00000000000E+00 0.  1.
         11   -1    0    0    0    0 -0.00000000000E+00 -0.00000000000E+00 -0.18250000000E+03  0.18250000000E+03  0.00000000000E+00 0.  1.
        -11    1    1    2    0    0 -0.15566360106E+01 -0.23869402435E+01  0.18200640437E+03  0.18202871156E+03  0.00000000000E+00 0.  1.
         11    1    1    2    0    0  0.93788555160E+00 -0.19334756212E+01 -0.15053544385E+03  0.15055078150E+03  0.00000000000E+00 0.  1.
        -15    1    1    2    0    0 -0.98084858415E+00  0.86995721892E+00 -0.21344355760E+02  0.21458288406E+02  0.17770000000E+01 0. -1.
         15    1    1    2    0    0  0.15995990431E+01  0.34504586458E+01 -0.10126604767E+02  0.10962218528E+02  0.17770000000E+01 0. -1.
</event>
<event>
 6    1  0.1196607E-002  0.1834055E+03  0.7546771E-02  0.1067736E+00
        -11   -1    0    0    0    0  0.00000000000E+00  0.00000000000E+00  0.18250000000E+03  0.18250000000E+03  0.00000000000E+00 0.  1.
         11   -1    0    0    0    0 -0.00000000000E+00 -0.00000000000E+00 -0.18250000000E+03  0.18250000000E+03  0.00000000000E+00 0.  1.
        -11    1    1    2    0    0  0.24330739538E+01  0.19045005063E+01  0.16520235240E+03  0.16523124465E+03  0.00000000000E+00 0.  1.
         11    1    1    2    0    0  0.11156173003E+01 -0.24514288116E+01 -0.18157451367E+03  0.18159448813E+03  0.00000000000E+00 0.  1.
        -15    1    1    2    0    0 -0.77047428983E-01  0.27205021479E+01  0.50729107307E+01  0.60248834449E+01  0.17770000000E+01 0.  1.
         15    1    1    2    0    0 -0.34716438252E+01 -0.21735738425E+01  0.11299250542E+02  0.12149383767E+02  0.17770000000E+01 0. -1.
</event>
<event>
 6    1  0.1196607E-002  0.1828921E+03  0.7546771E-02  0.1068143E+00
        -11   -1    0    0    0    0  0.00000000000E+00  0.00000000000E+00  0.18250000000E+03  0.18250000000E+03  0.00000000000E+00 0. -1.
         11   -1    0    0    0    0 -0.00000000000E+00 -0.00000000000E+00 -0.18250000000E+03  0.18250000000E+03  0.00000000000E+00 0. -1.
        -11    1    1    2    0    0  0.18791682736E+01  0.22786798017E+01  0.14658344230E+03  0.14661319590E+03  0.00000000000E+00 0. -1.
         11    1    1    2    0    0  0.77389437729E+00 -0.30769506047E+01 -0.18208021671E+03  0.18210785775E+03  0.00000000000E+00 0. -1.
        -15    1    1    2    0    0 -0.89452310153E+00  0.13472521312E+01  0.31090329715E+02  0.31183033699E+02  0.17770000000E+01 0. -1.
         15    1    1    2    0    0 -0.17585395493E+01 -0.54898132823E+00  0.44064446962E+01  0.50959126470E+01  0.17770000000E+01 0. -1.
</event>
<event>
 6    1  0.1196607E-002  0.1855324E+03  0.7546771E-02  0.1066066E+00
        -11   -1    0    0    0    0  0.00000000000E+00  0.00000000000E+00  0.18250000000E+03  0.18250000000E+03  0.00000000000E+00 0. -1.
         11   -1    0    0    0    0 -0.00000000000E+00 -0.00000000000E+00 -0.18250000000E+03  0.18250000000E+03  0.00000000000E+00 0.  1.
        -11    1    1    2    0    0  0.11448893243E+02  0.87989530380E+01  0.17888575054E+03  0.17946757500E+03  0.00000000000E+00 0. -1.
         11    1    1    2    0    0  0.17568981984E+01  0.72972953585E+00 -0.98798115998E+02  0.98816430421E+02  0.00000000000E+00 0.  1.
        -15    1    1    2    0    0 -0.13687851191E+02 -0.60142671879E+01 -0.14158525960E+02  0.20667613950E+02  0.17770000000E+01 0.  1.
         15    1    1    2    0    0  0.48205974896E+00 -0.35144153860E+01 -0.65929108578E+02  0.66048380631E+02  0.17770000000E+01 0.  1.
</event>
<event>
 6    1  0.1196607E-002  0.1843568E+03  0.7546771E-02  0.1066986E+00
        -11   -1    0    0    0    0  0.00000000000E+00  0.00000000000E+00  0.18250000000E+03  0.18250000000E+03  0.00000000000E+00 0.  1.
         11   -1    0    0    0    0 -0.00000000000E+00 -0.00000000000E+00 -0.18250000000E+03  0.18250000000E+03  0.00000000000E+00 0.  1.
        -11    1    1    2    0    0 -0.72239181789E+00 -0.33054087373E+01  0.12074189111E+03  0.12078928696E+03  0.00000000000E+00 0.  1.
         11    1    1    2    0    0 -0.14364552473E+02  0.64411942598E+01 -0.17995588096E+03  0.18064315221E+03  0.00000000000E+00 0.  1.
        -15    1    1    2    0    0  0.71855577511E+01  0.17274556539E+01  0.49265778486E+02  0.49848681046E+02  0.17770000000E+01 0. -1.
         15    1    1    2    0    0  0.79013865395E+01 -0.48632411765E+01  0.99482113626E+01  0.13718879776E+02  0.17770000000E+01 0.  1.
</event>
<event>
 6    1  0.1196607E-002  0.1855902E+03  0.7546771E-02  0.1066021E+00
        -11   -1    0    0    0    0  0.00000000000E+00  0.00000000000E+00  0.18250000000E+03  0.18250000000E+03  0.00000000000E+00 0.  1.
         11   -1    0    0    0    0 -0.00000000000E+00 -0.00000000000E+00 -0.18250000000E+03  0.18250000000E+03  0.00000000000E+00 0. -1.
        -11    1    1    2    0    0 -0.10630070900E+02 -0.24091488399E+01  0.17907839558E+03  0.17940979396E+03  0.00000000000E+00 0.  1.
         11    1    1    2    0    0 -0.66460041216E+00 -0.26867712388E+01 -0.15101967319E+03  0.15104503343E+03  0.00000000000E+00 0. -1.
        -15    1    1    2    0    0  0.27548697053E+01  0.65022831362E+01 -0.28273646787E+01  0.78115755839E+01  0.17770000000E+01 0. -1.
         15    1    1    2    0    0  0.85398016064E+01 -0.14063630575E+01 -0.25231357718E+02  0.26733597024E+02  0.17770000000E+01 0.  1.
</event>
<event>
 6    1  0.1196607E-002  0.1914600E+03  0.7546771E-02  0.1061538E+00
        -11   -1    0    0    0    0  0.00000000000E+00  0.00000000000E+00  0.18250000000E+03  0.18250000000E+03  0.00000000000E+00 0. -1.
         11   -1    0    0    0    0 -0.00000000000E+00 -0.00000000000E+00 -0.18250000000E+03  0.18250000000E+03  0.00000000000E+00 0.  1.
        -11    1    1    2    0    0 -0.17898220633E+01  0.10760014785E+01  0.79682246939E+02  0.79709608702E+02  0.00000000000E+00 0. -1.
         11    1    1    2    0    0  0.68124606211E+01  0.19979204359E+01 -0.17339472312E+03  0.17353999917E+03  0.00000000000E+00 0.  1.
        -15    1    1    2    0    0 -0.10248078777E+01 -0.14453834895E+01 -0.87902486185E+01  0.91414202613E+01  0.17770000000E+01 0.  1.
         15    1    1    2    0    0 -0.39978306801E+01 -0.16285384249E+01  0.10250272480E+03  0.10260897187E+03  0.17770000000E+01 0. -1.
</event>
<event>
 6    1  0.1196607E-002  0.1175219E+03  0.7546771E-02  0.1136554E+00
        -11   -1    0    0    0    0  0.00000000000E+00  0.00000000000E+00  0.18250000000E+03  0.18250000000E+03  0.00000000000E+00 0. -1.
         11   -1    0    0    0    0 -0.00000000000E+00 -0.00000000000E+00 -0.18250000000E+03  0.18250000000E+03  0.00000000000E+00 0. -1.
        -11    1    1    2    0    0  0.89321257397E+01 -0.28589865361E+02  0.75424217100E+02  0.81154025142E+02  0.00000000000E+00 0. -1.
         11    1    1    2    0    0  0.31315199415E+01  0.10745292754E+01 -0.13477127870E+03  0.13481193787E+03  0.00000000000E+00 0. -1.
        -15    1    1    2    0    0 -0.15960204177E+02  0.46842544150E+01 -0.41921306183E+02  0.45135617841E+02  0.17770000000E+01 0.  1.
         15    1    1    2    0    0  0.38965584956E+01  0.22831081671E+02  0.10126836778E+03  0.10389841914E+03  0.17770000000E+01 0. -1.
</event>
<event>
 6    1  0.1196607E-002  0.1832274E+03  0.7546771E-02  0.1067877E+00
        -11   -1    0    0    0    0  0.00000000000E+00  0.00000000000E+00  0.18250000000E+03  0.18250000000E+03  0.00000000000E+00 0.  1.
         11   -1    0    0    0    0 -0.00000000000E+00 -0.00000000000E+00 -0.18250000000E+03  0.18250000000E+03  0.00000000000E+00 0. -1.
        -11    1    1    2    0    0 -0.27620123647E+01  0.53343263110E+00  0.18175085235E+03  0.18177262058E+03  0.00000000000E+00 0.  1.
         11    1    1    2    0    0 -0.20246084311E+01 -0.69248449976E+00 -0.53400433135E+02  0.53443286137E+02  0.00000000000E+00 0. -1.
        -15    1    1    2    0    0  0.67223405104E+01  0.29311934022E+01 -0.12288374696E+03  0.12311520927E+03  0.17770000000E+01 0.  1.
         15    1    1    2    0    0 -0.19357197145E+01 -0.27721415336E+01 -0.54666722513E+01  0.66688840145E+01  0.17770000000E+01 0. -1.
</event>
<event>
 6    1  0.1196607E-002  0.1831595E+03  0.7546771E-02  0.1067931E+00
        -11   -1    0    0    0    0  0.00000000000E+00  0.00000000000E+00  0.18250000000E+03  0.18250000000E+03  0.00000000000E+00 0. -1.
         11   -1    0    0    0    0 -0.00000000000E+00 -0.00000000000E+00 -0.18250000000E+03  0.18250000000E+03  0.00000000000E+00 0.  1.
        -11    1    1    2    0    0 -0.71170870751E+01  0.18901316926E+00  0.18170111398E+03  0.18184054409E+03  0.00000000000E+00 0. -1.
         11    1    1    2    0    0  0.29703920942E+01 -0.16973033749E+01 -0.14988696774E+03  0.14992600563E+03  0.00000000000E+00 0.  1.
        -15    1    1    2    0    0  0.14437453059E+01  0.45351520170E+01 -0.14610246476E+02  0.15468323614E+02  0.17770000000E+01 0.  1.
         15    1    1    2    0    0  0.27029496750E+01 -0.30268618114E+01 -0.17203899763E+02  0.17765126665E+02  0.17770000000E+01 0. -1.
</event>
<event>
 6    1  0.1196607E-002  0.1916695E+03  0.7546771E-02  0.1061381E+00
        -11   -1    0    0    0    0  0.00000000000E+00  0.00000000000E+00  0.18250000000E+03  0.18250000000E+03  0.00000000000E+00 0.  1.
         11   -1    0    0    0    0 -0.00000000000E+00 -0.00000000000E+00 -0.18250000000E+03  0.18250000000E+03  0.00000000000E+00 0.  1.
        -11    1    1    2    0    0  0.25978863924E+01 -0.36919582472E+01  0.15446358113E+03  0.15452953590E+03  0.00000000000E+00 0.  1.
         11    1    1    2    0    0 -0.53908724733E+01  0.45127460656E+00 -0.17324603423E+03  0.17333047490E+03  0.00000000000E+00 0.  1.
        -15    1    1    2    0    0 -0.91800520927E+01 -0.14396766972E+01 -0.45066236992E+01  0.10479189453E+02  0.17770000000E+01 0. -1.
         15    1    1    2    0    0  0.11973038174E+02  0.46803603379E+01  0.23289076796E+02  0.26660799744E+02  0.17770000000E+01 0.  1.
</event>
<event>
 6    1  0.1196607E-002  0.1855751E+03  0.7546771E-02  0.1066033E+00
        -11   -1    0    0    0    0  0.00000000000E+00  0.00000000000E+00  0.18250000000E+03  0.18250000000E+03  0.00000000000E+00 0.  1.
         11   -1    0    0    0    0 -0.00000000000E+00 -0.00000000000E+00 -0.18250000000E+03  0.18250000000E+03  0.00000000000E+00 0.  1.
        -11    1    1    2    0    0 -0.19205049966E+01 -0.23010222654E+01  0.17939988145E+03  0.17942491607E+03  0.00000000000E+00 0.  1.
         11    1    1    2    0    0  0.55609156198E+00  0.43636296621E+01 -0.17287303043E+03  0.17292898875E+03  0.00000000000E+00 0.  1.
        -15    1    1    2    0    0  0.33399869275E+01 -0.53813539574E+01 -0.38450203412E+01  0.76194746220E+01  0.17770000000E+01 0.  1.
         15    1    1    2    0    0 -0.19755734930E+01  0.33187465608E+01 -0.26818306842E+01  0.50266205525E+01  0.17770000000E+01 0. -1.
</event>
<event>
 6    1  0.1196607E-002  0.1899273E+03  0.7546771E-02  0.1062692E+00
        -11   -1    0    0    0    0  0.00000000000E+00  0.00000000000E+00  0.18250000000E+03  0.18250000000E+03  0.00000000000E+00 0. -1.
         11   -1    0    0    0    0 -0.00000000000E+00 -0.00000000000E+00 -0.18250000000E+03  0.18250000000E+03  0.00000000000E+00 0.  1.
        -11    1    1    2    0    0  0.24784576636E+01 -0.84690452100E-01  0.17505512713E+03  0.17507269192E+03  0.00000000000E+00 0. -1.
         11    1    1    2    0    0 -0.64854510049E+00 -0.24831327332E+01 -0.17209419146E+03  0.17211332689E+03  0.00000000000E+00 0.  1.
        -15    1    1    2    0    0  0.16323484730E+01  0.22686536247E+01 -0.95763823168E+01  0.10132925445E+02  0.17770000000E+01 0.  1.
         15    1    1    2    0    0 -0.34622610361E+01  0.29916956061E+00  0.66154466507E+01  0.76810557410E+01  0.17770000000E+01 0.  1.
</event>
<event>
 6    1  0.1196607E-002  0.2013372E+03  0.7546771E-02  0.1054377E+00
        -11   -1    0    0    0    0  0.00000000000E+00  0.00000000000E+00  0.18250000000E+03  0.18250000000E+03  0.00000000000E+00 0.  1.
         11   -1    0    0    0    0 -0.00000000000E+00 -0.00000000000E+00 -0.18250000000E+03  0.18250000000E+03  0.00000000000E+00 0. -1.
        -11    1    1    2    0    0 -0.12417003178E+02  0.22639262116E+02  0.16161311075E+03  0.16366281106E+03  0.00000000000E+00 0.  1.
         11    1    1    2    0    0  0.14435417756E+02  0.11911183606E+02 -0.11751703163E+03  0.11899794244E+03  0.00000000000E+00 0. -1.
        -15    1    1    2    0    0 -0.19414044212E+02  0.66466026857E+01 -0.28039608333E+02  0.34791662857E+02  0.17770000000E+01 0. -1.
         15    1    1    2    0    0  0.17395629633E+02 -0.41197048408E+02 -0.16056470784E+02  0.47547583649E+02  0.17770000000E+01 0.  1.
</event>
<event>
 6    1  0.1196607E-002  0.1883694E+03  0.7546771E-02  0.1063876E+00
        -11   -1    0    0    0    0  0.00000000000E+00  0.00000000000E+00  0.18250000000E+03  0.18250000000E+03  0.00000000000E+00 0.  1.
         11   -1    0    0    0    0 -0.00000000000E+00 -0.00000000000E+00 -0.18250000000E+03  0.18250000000E+03  0.00000000000E+00 0.  1.
        -11    1    1    2    0    0  0.30177220094E+01  0.37551759980E+01  0.17656485329E+03  0.17663056194E+03  0.00000000000E+00 0.  1.
         11    1    1    2    0    0 -0.18504904772E+01 -0.90422496166E+01 -0.16694813399E+03  0.16720306826E+03  0.00000000000E+00 0.  1.
        -15    1    1    2    0    0 -0.25504915877E+01 -0.20427051649E+01  0.40478903753E+01  0.54973445608E+01  0.17770000000E+01 0.  1.
         15    1    1    2    0    0  0.13832600555E+01  0.73297787835E+01 -0.13664609677E+02  0.15669025242E+02  0.17770000000E+01 0. -1.
</event>
<event>
 6    1  0.1196607E-002  0.1915090E+03  0.7546771E-02  0.1061502E+00
        -11   -1    0    0    0    0  0.00000000000E+00  0.00000000000E+00  0.18250000000E+03  0.18250000000E+03  0.00000000000E+00 0. -1.
         11   -1    0    0    0    0 -0.00000000000E+00 -0.00000000000E+00 -0.18250000000E+03  0.18250000000E+03  0.00000000000E+00 0. -1.
        -11    1    1    2    0    0 -0.31288693013E+01  0.43512751735E+01  0.16853048549E+03  0.16861568123E+03  0.00000000000E+00 0. -1.
         11    1    1    2    0    0 -0.22753254962E+01  0.11252116746E+01 -0.17347238044E+03  0.17349095073E+03  0.00000000000E+00 0. -1.
        -15    1    1    2    0    0  0.83338322999E+01 -0.85105987081E+01  0.10299706886E+02  0.15846915855E+02  0.17770000000E+01 0. -1.
         15    1    1    2    0    0 -0.29296375024E+01  0.30341118599E+01 -0.53578119324E+01  0.70464521837E+01  0.17770000000E+01 0. -1.
</event>
<event>
 6    1  0.1196607E-002  0.1868040E+03  0.7546771E-02  0.1065080E+00
        -11   -1    0    0    0    0  0.00000000000E+00  0.00000000000E+00  0.18250000000E+03  0.18250000000E+03  0.00000000000E+00 0.  1.
         11   -1    0    0    0    0 -0.00000000000E+00 -0.00000000000E+00 -0.18250000000E+03  0.18250000000E+03  0.00000000000E+00 0. -1.
        -11    1    1    2    0    0 -0.41766200857E+01  0.38506987316E+01  0.14299738919E+03  0.14311018605E+03  0.00000000000E+00 0.  1.
         11    1    1    2    0    0  0.85521704994E-01 -0.24510138187E+01 -0.17817913832E+03  0.17819601599E+03  0.00000000000E+00 0. -1.
        -15    1    1    2    0    0 -0.79135136482E+01  0.44249121621E+01  0.46863792663E+01  0.10359702000E+02  0.17770000000E+01 0. -1.
         15    1    1    2    0    0  0.12004612029E+02 -0.58245970750E+01  0.30495369864E+02  0.33334095956E+02  0.17770000000E+01 0.  1.
</event>
<event>
 6    1  0.1196607E-002  0.1826833E+03  0.7546771E-02  0.1068309E+00
        -11   -1    0    0    0    0  0.00000000000E+00  0.00000000000E+00  0.18250000000E+03  0.18250000000E+03  0.00000000000E+00 0. -1.
         11   -1    0    0    0    0 -0.00000000000E+00 -0.00000000000E+00 -0.18250000000E+03  0.18250000000E+03  0.00000000000E+00 0.  1.
        -11    1    1    2    0    0  0.18178968848E+01 -0.18666654595E+01  0.63479689282E+02  0.63533142063E+02  0.00000000000E+00 0. -1.
         11    1    1    2    0    0  0.25096092660E+01 -0.28962653962E+00 -0.18229916268E+03  0.18231666610E+03  0.00000000000E+00 0.  1.
        -15    1    1    2    0    0 -0.13220904573E+01  0.25293600550E+00  0.92962628921E+02  0.92989354254E+02  0.17770000000E+01 0. -1.
         15    1    1    2    0    0 -0.30054156935E+01  0.19033559937E+01  0.25856844481E+02  0.26160837583E+02  0.17770000000E+01 0. -1.
</event>
<event>
 6    1  0.1196607E-002  0.1873775E+03  0.7546771E-02  0.1064637E+00
        -11   -1    0    0    0    0  0.00000000000E+00  0.00000000000E+00  0.18250000000E+03  0.18250000000E+03  0.00000000000E+00 0.  1.
         11   -1    0    0    0    0 -0.00000000000E+00 -0.00000000000E+00 -0.18250000000E+03  0.18250000000E+03  0.00000000000E+00 0.  1.
        -11    1    1    2    0    0  0.14546480723E+01  0.42811067009E+01  0.17756494974E+03  0.17762250773E+03  0.00000000000E+00 0.  1.
         11    1    1    2    0    0  0.26537738817E+01 -0.41998546489E+01 -0.17509467034E+03  0.17516513602E+03  0.00000000000E+00 0.  1.
        -15    1    1    2    0    0 -0.34158451269E+01 -0.45601750400E+01 -0.39109520336E+01  0.71355777016E+01  0.17770000000E+01 0.  1.
         15    1    1    2    0    0 -0.69257682708E+00  0.44789229880E+01  0.14406726291E+01  0.50767785473E+01  0.17770000000E+01 0.  1.
</event>
<event>
 6    1  0.1196607E-002  0.1857612E+03  0.7546771E-02  0.1065888E+00
        -11   -1    0    0    0    0  0.00000000000E+00  0.00000000000E+00  0.18250000000E+03  0.18250000000E+03  0.00000000000E+00 0. -1.
         11   -1    0    0    0    0 -0.00000000000E+00 -0.00000000000E+00 -0.18250000000E+03  0.18250000000E+03  0.00000000000E+00 0.  1.
        -11    1    1    2    0    0  0.64195213320E+01  0.15461154671E+01  0.17911717401E+03  0.17923884276E+03  0.00000000000E+00 0. -1.
         11    1    1    2    0    0 -0.12250843526E+01 -0.16987014358E+01 -0.14616082469E+03  0.14617582937E+03  0.00000000000E+00 0.  1.
        -15    1    1    2    0    0 -0.46383720678E+01 -0.27773099571E+01  0.71492489269E+00  0.57355725642E+01  0.17770000000E+01 0. -1.
         15    1    1    2    0    0 -0.55606491157E+00  0.29298959257E+01 -0.33671274210E+02  0.33849755305E+02  0.17770000000E+01 0. -1.
</event>
<event>
 6    1  0.1196607E-002  0.1872432E+03  0.7546771E-02  0.1064741E+00
        -11   -1    0    0    0    0  0.00000000000E+00  0.00000000000E+00  0.18250000000E+03  0.18250000000E+03  0.00000000000E+00 0. -1.
         11   -1    0    0    0    0 -0.00000000000E+00 -0.00000000000E+00 -0.18250000000E+03  0.18250000000E+03  0.00000000000E+00 0. -1.
        -11    1    1    2    0    0 -0.34445776676E+01  0.11107597465E+02  0.17737594446E+03  0.17775677065E+03  0.00000000000E+00 0. -1.
         11    1    1    2    0    0 -0.90796231341E+01  0.12376923014E+02 -0.10214618424E+03  0.10329313014E+03  0.00000000000E+00 0. -1.
        -15    1    1    2    0    0  0.29843879119E+01 -0.23050149767E+02 -0.31689844381E+02  0.39339800983E+02  0.17770000000E+01 0. -1.
         15    1    1    2    0    0  0.95398128898E+01 -0.43437071233E+00 -0.43539915842E+02  0.44610298233E+02  0.17770000000E+01 0.  1.
</event>
<event>
 6    1  0.1196607E-002  0.1857796E+03  0.7546771E-02  0.1065874E+00
        -11   -1    0    0    0    0  0.00000000000E+00  0.00000000000E+00  0.18250000000E+03  0.18250000000E+03  0.00000000000E+00 0.  1.
         11   -1    0    0    0    0 -0.00000000000E+00 -0.00000000000E+00 -0.18250000000E+03  0.18250000000E+03  0.00000000000E+00 0.  1.
        -11    1    1    2    0    0  0.26962506860E+01 -0.18468007021E+01  0.16710168482E+03  0.16713363968E+03  0.00000000000E+00 0.  1.
         11    1    1    2    0    0 -0.93747286898E+00 -0.23689045888E+01 -0.17920226548E+03  0.17922037417E+03  0.00000000000E+00 0.  1.
        -15    1    1    2    0    0 -0.23620608489E+01  0.31703260802E+01  0.14669963317E+02  0.15296922946E+02  0.17770000000E+01 0.  1.
         15    1    1    2    0    0  0.60328303194E+00  0.10453792108E+01 -0.25693826581E+01  0.33490632055E+01  0.17770000000E+01 0. -1.
</event>
<event>
 6    1  0.1196607E-002  0.1861114E+03  0.7546771E-02  0.1065616E+00
        -11   -1    0    0    0    0  0.00000000000E+00  0.00000000000E+00  0.18250000000E+03  0.18250000000E+03  0.00000000000E+00 0. -1.
         11   -1    0    0    0    0 -0.00000000000E+00 -0.00000000000E+00 -0.18250000000E+03  0.18250000000E+03  0.00000000000E+00 0.  1.
        -11    1    1    2    0    0 -0.81274778005E+01 -0.31776403871E+01  0.16171590003E+03  0.16195118282E+03  0.00000000000E+00 0. -1.
         11    1    1    2    0    0 -0.23034106289E+01  0.11604497308E+02 -0.17849697472E+03  0.17888862469E+03  0.00000000000E+00 0.  1.
        -15    1    1    2    0    0  0.53833151965E+01  0.62443622195E+00  0.20482021160E+01  0.60599392742E+01  0.17770000000E+01 0.  1.
         15    1    1    2    0    0  0.50475732329E+01 -0.90512931424E+01  0.14732872580E+02  0.18100253218E+02  0.17770000000E+01 0. -1.
</event>
<event>
 6    1  0.1196607E-002  0.1860308E+03  0.7546771E-02  0.1065679E+00
        -11   -1    0    0    0    0  0.00000000000E+00  0.00000000000E+00  0.18250000000E+03  0.18250000000E+03  0.00000000000E+00 0. -1.
         11   -1    0    0    0    0 -0.00000000000E+00 -0.00000000000E+00 -0.18250000000E+03  0.18250000000E+03  0.00000000000E+00 0.  1.
        -11    1    1    2    0    0 -0.14202611052E+02 -0.50583892264E+01  0.11513019830E+03  0.11611315181E+03  0.00000000000E+00 0. -1.
         11    1    1    2    0    0 -0.31468667121E+01 -0.19334064860E+01 -0.17893110423E+03  0.17896921772E+03  0.00000000000E+00 0.  1.
        -15    1    1    2    0    0  0.21870727720E+02  0.58851747580E+01  0.44241424853E+02  0.49733544163E+02  0.17770000000E+01 0. -1.
         15    1    1    2    0    0 -0.45212499559E+01  0.11066209544E+01  0.19559481079E+02  0.20184086310E+02  0.17770000000E+01 0.  1.
</event>
<event>
 6    1  0.1196607E-002  0.1844088E+03  0.7546771E-02  0.1066945E+00
        -11   -1    0    0    0    0  0.00000000000E+00  0.00000000000E+00  0.18250000000E+03  0.18250000000E+03  0.00000000000E+00 0. -1.
         11   -1    0    0    0    0 -0.00000000000E+00 -0.00000000000E+00 -0.18250000000E+03  0.18250000000E+03  0.00000000000E+00 0. -1.
        -11    1    1    2    0    0  0.43971978504E+01 -0.66734232365E+01  0.18041430421E+03  0.18059122650E+03  0.00000000000E+00 0. -1.
         11    1    1    2    0    0 -0.66700212651E+01 -0.43781634877E+01 -0.56404660653E+02  0.56966158749E+02  0.00000000000E+00 0. -1.
        -15    1    1    2    0    0 -0.10622163136E+02 -0.16389555418E+01 -0.55700270347E+02  0.56755566869E+02  0.17770000000E+01 0.  1.
         15    1    1    2    0    0  0.12894986551E+02  0.12690542266E+02 -0.68309373207E+02  0.70687047881E+02  0.17770000000E+01 0. -1.
</event>
<event>
 6    1  0.1196607E-002  0.1831523E+03  0.7546771E-02  0.1067937E+00
        -11   -1    0    0    0    0  0.00000000000E+00  0.00000000000E+00  0.18250000000E+03  0.18250000000E+03  0.00000000000E+00 0.  1.
         11   -1    0    0    0    0 -0.00000000000E+00 -0.00000000000E+00 -0.18250000000E+03  0.18250000000E+03  0.00000000000E+00 0. -1.
        -11    1    1    2    0    0 -0.34972888126E+01 -0.64853309297E+01  0.18169834127E+03  0.18184767738E+03  0.00000000000E+00 0.  1.
         11    1    1    2    0    0 -0.41519144388E+00 -0.19973219358E+01 -0.13306162659E+03  0.13307726384E+03  0.00000000000E+00 0. -1.
        -15    1    1    2    0    0 -0.86368980000E+00  0.41273813279E+00 -0.14103167590E+02  0.14246872566E+02  0.17770000000E+01 0.  1.
         15    1    1    2    0    0  0.47761700564E+01  0.80699147328E+01 -0.34533547090E+02  0.35828186220E+02  0.17770000000E+01 0. -1.
</event>
<event>
 6    1  0.1196607E-002  0.1837432E+03  0.7546771E-02  0.1067469E+00
        -11   -1    0    0    0    0  0.00000000000E+00  0.00000000000E+00  0.18250000000E+03  0.18250000000E+03  0.00000000000E+00 0. -1.
         11   -1    0    0    0    0 -0.00000000000E+00 -0.00000000000E+00 -0.18250000000E+03  0.18250000000E+03  0.00000000000E+00 0.  1.
        -11    1    1    2    0    0  0.23104839502E+01 -0.47427275206E+01  0.18117999341E+03  0.18125678418E+03  0.00000000000E+00 0. -1.
         11    1    1    2    0    0 -0.78862747597E+01  0.29068581464E+01 -0.11055504233E+03  0.11087407514E+03  0.00000000000E+00 0.  1.
        -15    1    1    2    0    0  0.64999408572E+01  0.14146390202E+01 -0.70481872026E+02  0.70817388035E+02  0.17770000000E+01 0. -1.
         15    1    1    2    0    0 -0.92415004769E+00  0.42123035389E+00 -0.14307905365E+00  0.20517526501E+01  0.17770000000E+01 0.  1.
</event>
<event>
 6    1  0.1196607E-002  0.1658610E+03  0.7546771E-02  0.1082529E+00
        -11   -1    0    0    0    0  0.00000000000E+00  0.00000000000E+00  0.18250000000E+03  0.18250000000E+03  0.00000000000E+00 0. -1.
         11   -1    0    0    0    0 -0.00000000000E+00 -0.00000000000E+00 -0.18250000000E+03  0.18250000000E+03  0.00000000000E+00 0.  1.
        -11    1    1    2    0    0  0.23773040323E+01  0.50252196816E+01  0.16550310573E+03  0.16559644445E+03  0.00000000000E+00 0. -1.
         11    1    1    2    0    0  0.20706971189E+01  0.58524881554E+01 -0.16621847414E+03  0.16633436370E+03  0.00000000000E+00 0.  1.
        -15    1    1    2    0    0 -0.93912455348E+01 -0.10670477631E+02 -0.12395512844E+02  0.18943628302E+02  0.17770000000E+01 0.  1.
         15    1    1    2    0    0  0.49432443837E+01 -0.20723020610E+00  0.13110881252E+02  0.14125563549E+02  0.17770000000E+01 0. -1.
</event>
<event>
 6    1  0.1196607E-002  0.1889865E+03  0.7546771E-02  0.1063406E+00
        -11   -1    0    0    0    0  0.00000000000E+00  0.00000000000E+00  0.18250000000E+03  0.18250000000E+03  0.00000000000E+00 0. -1.
         11   -1    0    0    0    0 -0.00000000000E+00 -0.00000000000E+00 -0.18250000000E+03  0.18250000000E+03  0.00000000000E+00 0. -1.
        -11    1    1    2    0    0 -0.19834318136E+00  0.24655701231E+01  0.14834523513E+03  0.14836585578E+03  0.00000000000E+00 0. -1.
         11    1    1    2    0    0 -0.14197997657E+01  0.22215737073E+01 -0.17599378772E+03  0.17601353510E+03  0.00000000000E+00 0. -1.
        -15    1    1    2    0    0 -0.51596843219E+01  0.10308891896E+02  0.18037504463E+02  0.21480337304E+02  0.17770000000E+01 0. -1.
         15    1    1    2    0    0  0.67778272689E+01 -0.14996035726E+02  0.96110481277E+01  0.19140271814E+02  0.17770000000E+01 0.  1.
</event>
<event>
 6    1  0.1196607E-002  0.1893554E+03  0.7546771E-02  0.1063125E+00
        -11   -1    0    0    0    0  0.00000000000E+00  0.00000000000E+00  0.18250000000E+03  0.18250000000E+03  0.00000000000E+00 0. -1.
         11   -1    0    0    0    0 -0.00000000000E+00 -0.00000000000E+00 -0.18250000000E+03  0.18250000000E+03  0.00000000000E+00 0. -1.
        -11    1    1    2    0    0  0.60129232824E+00  0.47499623730E+01  0.17557932474E+03  0.17564459277E+03  0.00000000000E+00 0. -1.
         11    1    1    2    0    0  0.41809163584E+01  0.71193131279E+01 -0.15059757688E+03  0.15082372109E+03  0.00000000000E+00 0. -1.
        -15    1    1    2    0    0 -0.55944629478E+01 -0.39873047185E+01  0.41967872225E+01  0.82442323223E+01  0.17770000000E+01 0. -1.
         15    1    1    2    0    0  0.81225426121E+00 -0.78819707824E+01 -0.29178535075E+02  0.30287453814E+02  0.17770000000E+01 0. -1.
</event>
<event>
 6    1  0.1196607E-002  0.1832023E+03  0.7546771E-02  0.1067897E+00
        -11   -1    0    0    0    0  0.00000000000E+00  0.00000000000E+00  0.18250000000E+03  0.18250000000E+03  0.00000000000E+00 0.  1.
         11   -1    0    0    0    0 -0.00000000000E+00 -0.00000000000E+00 -0.18250000000E+03  0.18250000000E+03  0.00000000000E+00 0.  1.
        -11    1    1    2    0    0 -0.29213972013E+00 -0.39706920843E+01  0.18175406634E+03  0.18179766878E+03  0.00000000000E+00 0.  1.
         11    1    1    2    0    0  0.56343155595E+01  0.18360583374E+01 -0.13274785452E+03  0.13288005682E+03  0.00000000000E+00 0.  1.
        -15    1    1    2    0    0 -0.12795931250E+01  0.23532275200E+01 -0.41618360392E+01  0.52586734585E+01  0.17770000000E+01 0. -1.
         15    1    1    2    0    0 -0.40625827143E+01 -0.21859377314E+00 -0.44844375783E+02  0.45063600943E+02  0.17770000000E+01 0.  1.
</event>
<event>
 6    1  0.1196607E-002  0.1843276E+03  0.7546771E-02  0.1067009E+00
        -11   -1    0    0    0    0  0.00000000000E+00  0.00000000000E+00  0.18250000000E+03  0.18250000000E+03  0.00000000000E+00 0.  1.
         11   -1    0    0    0    0 -0.00000000000E+00 -0.00000000000E+00 -0.18250000000E+03  0.18250000000E+03  0.00000000000E+00 0. -1.
        -11    1    1    2    0    0  0.11351539813E+01 -0.24123381462E+01  0.18065268411E+03  0.18067235601E+03  0.00000000000E+00 0.  1.
         11    1    1    2    0    0  0.16470522427E+01  0.13763551109E+01 -0.13477371130E+03  0.13479080233E+03  0.00000000000E+00 0. -1.
        -15    1    1    2    0    0 -0.82232962097E+00 -0.20902138146E+01 -0.45311997492E+02  0.45402423565E+02  0.17770000000E+01 0. -1.
         15    1    1    2    0    0 -0.19598766030E+01  0.31261968500E+01 -0.56697531584E+00  0.41344181033E+01  0.17770000000E+01 0. -1.
</event>
<event>
 6    1  0.1196607E-002  0.1898221E+03  0.7546771E-02  0.1062771E+00
        -11   -1    0    0    0    0  0.00000000000E+00  0.00000000000E+00  0.18250000000E+03  0.18250000000E+03  0.00000000000E+00 0.  1.
         11   -1    0    0    0    0 -0.00000000000E+00 -0.00000000000E+00 -0.18250000000E+03  0.18250000000E+03  0.00000000000E+00 0.  1.
        -11    1    1    2    0    0 -0.22507419782E+02 -0.64494747902E+01  0.17360619777E+03  0.17517788552E+03  0.00000000000E+00 0.  1.
         11    1    1    2    0    0 -0.39696409919E+00 -0.19548570478E+01 -0.88750337634E+02  0.88772751882E+02  0.00000000000E+00 0.  1.
        -15    1    1    2    0    0  0.58395621117E+01  0.40946297400E+01 -0.82929619906E+02  0.83254705964E+02  0.17770000000E+01 0.  1.
         15    1    1    2    0    0  0.17064821770E+02  0.43097020980E+01 -0.19262402350E+01  0.17794656632E+02  0.17770000000E+01 0. -1.
</event>
<event>
 6    1  0.1196607E-002  0.1829468E+03  0.7546771E-02  0.1068100E+00
        -11   -1    0    0    0    0  0.00000000000E+00  0.00000000000E+00  0.18250000000E+03  0.18250000000E+03  0.00000000000E+00 0. -1.
         11   -1    0    0    0    0 -0.00000000000E+00 -0.00000000000E+00 -0.18250000000E+03  0.18250000000E+03  0.00000000000E+00 0.  1.
        -11    1    1    2    0    0  0.18790732132E+01  0.76305069094E+00  0.13548821374E+03  0.13550339194E+03  0.00000000000E+00 0. -1.
         11    1    1    2    0    0 -0.44378558469E+01  0.13445164415E+01 -0.18199411718E+03  0.18205318173E+03  0.00000000000E+00 0.  1.
        -15    1    1    2    0    0  0.18402109403E+01 -0.43496864415E+01  0.39784334026E+02  0.40103081071E+02  0.17770000000E+01 0. -1.
         15    1    1    2    0    0  0.71857169338E+00  0.22421193090E+01  0.67215694096E+01  0.73403452645E+01  0.17770000000E+01 0.  1.
</event>
<event>
 6    1  0.1196607E-002  0.1746648E+03  0.7546771E-02  0.1074869E+00
        -11   -1    0    0    0    0  0.00000000000E+00  0.00000000000E+00  0.18250000000E+03  0.18250000000E+03  0.00000000000E+00 0.  1.
         11   -1    0    0    0    0 -0.00000000000E+00 -0.00000000000E+00 -0.18250000000E+03  0.18250000000E+03  0.00000000000E+00 0.  1.
        -11    1    1    2    0    0  0.32961059690E+01  0.32160418324E+01  0.17311409075E+03  0.17317533212E+03  0.00000000000E+00 0.  1.
         11    1    1    2    0    0 -0.17484445307E+01  0.73331221449E+01 -0.17616900935E+03  0.17633023449E+03  0.00000000000E+00 0.  1.
        -15    1    1    2    0    0 -0.27411319826E+01  0.43864251539E+00 -0.12157112191E+01  0.35131032679E+01  0.17770000000E+01 0. -1.
         15    1    1    2    0    0  0.11934705443E+01 -0.10987806493E+02  0.42706298264E+01  0.11981330125E+02  0.17770000000E+01 0.  1.
</event>
<event>
 6    1  0.1196607E-002  0.1768019E+03  0.7546771E-02  0.1073083E+00
        -11   -1    0    0    0    0  0.00000000000E+00  0.00000000000E+00  0.18250000000E+03  0.18250000000E+03  0.00000000000E+00 0.  1.
         11   -1    0    0    0    0 -0.00000000000E+00 -0.00000000000E+00 -0.18250000000E+03  0.18250000000E+03  0.00000000000E+00 0.  1.
        -11    1    1    2    0    0 -0.18424735592E+01 -0.33740378950E+01  0.17509966671E+03  0.17514186285E+03  0.00000000000E+00 0.  1.
         11    1    1    2    0    0  0.11919297865E+01 -0.29246110148E+01 -0.17850717710E+03  0.17853511230E+03  0.00000000000E+00 0.  1.
        -15    1    1    2    0    0 -0.44469121377E+00  0.23088123469E+00  0.44539687245E+01  0.48214751704E+01  0.17770000000E+01 0.  1.
         15    1    1    2    0    0  0.10952349865E+01  0.60677676751E+01 -0.10464583361E+01  0.65015496833E+01  0.17770000000E+01 0.  1.
</event>
<event>
 6    1  0.1196607E-002  0.1829337E+03  0.7546771E-02  0.1068110E+00
        -11   -1    0    0    0    0  0.00000000000E+00  0.00000000000E+00  0.18250000000E+03  0.18250000000E+03  0.00000000000E+00 0.  1.
         11   -1    0    0    0    0 -0.00000000000E+00 -0.00000000000E+00 -0.18250000000E+03  0.18250000000E+03  0.00000000000E+00 0.  1.
        -11    1    1    2    0    0 -0.77664549294E+00 -0.30964133836E+01  0.57383304759E+02  0.57472033365E+02  0.00000000000E+00 0.  1.
         11    1    1    2    0    0  0.30315497922E+01 -0.20950664595E+01 -0.18202901490E+03  0.18206631172E+03  0.00000000000E+00 0.  1.
        -15    1    1    2    0    0 -0.63130671098E+01  0.59909098262E+01  0.59361927760E+02  0.60022845761E+02  0.17770000000E+01 0.  1.
         15    1    1    2    0    0  0.40581628106E+01 -0.79942998312E+00  0.65283782377E+02  0.65438809159E+02  0.17770000000E+01 0. -1.
</event>
<event>
 6    1  0.1196607E-002  0.1897392E+03  0.7546771E-02  0.1062834E+00
        -11   -1    0    0    0    0  0.00000000000E+00  0.00000000000E+00  0.18250000000E+03  0.18250000000E+03  0.00000000000E+00 0.  1.
         11   -1    0    0    0    0 -0.00000000000E+00 -0.00000000000E+00 -0.18250000000E+03  0.18250000000E+03  0.00000000000E+00 0.  1.
        -11    1    1    2    0    0 -0.95642524418E+00  0.26302286768E+01  0.48007072993E+02  0.48088583983E+02  0.00000000000E+00 0.  1.
         11    1    1    2    0    0 -0.15703028430E+02 -0.50793158157E+01 -0.17448200717E+03  0.17526082100E+03  0.00000000000E+00 0.  1.
        -15    1    1    2    0    0 -0.10164059688E+02 -0.18588127445E+02  0.17758348389E+02  0.27700961315E+02  0.17770000000E+01 0. -1.
         15    1    1    2    0    0  0.26823513363E+02  0.21037214584E+02  0.10871658579E+03  0.11394963370E+03  0.17770000000E+01 0.  1.
</event>
<event>
 6    1  0.1196607E-002  0.1833013E+03  0.7546771E-02  0.1067819E+00
        -11   -1    0    0    0    0  0.00000000000E+00  0.00000000000E+00  0.18250000000E+03  0.18250000000E+03  0.00000000000E+00 0.  1.
         11   -1    0    0    0    0 -0.00000000000E+00 -0.00000000000E+00 -0.18250000000E+03  0.18250000000E+03  0.00000000000E+00 0.  1.
        -11    1    1    2    0    0 -0.31538783311E+01  0.19370781791E+01  0.16270463783E+03  0.16274673082E+03  0.00000000000E+00 0.  1.
         11    1    1    2    0    0  0.25519386167E+01 -0.16289572601E+01 -0.18167346589E+03  0.18169869042E+03  0.00000000000E+00 0.  1.
        -15    1    1    2    0    0  0.31589248807E+01 -0.21630442552E+01  0.88187781823E+01  0.97768166844E+01  0.17770000000E+01 0.  1.
         15    1    1    2    0    0 -0.25569851663E+01  0.18549233361E+01  0.10150049876E+02  0.10777762069E+02  0.17770000000E+01 0.  1.
</event>
<event>
 6    1  0.1196607E-002  0.1861542E+03  0.7546771E-02  0.1065583E+00
        -11   -1    0    0    0    0  0.00000000000E+00  0.00000000000E+00  0.18250000000E+03  0.18250000000E+03  0.00000000000E+00 0. -1.
         11   -1    0    0    0    0 -0.00000000000E+00 -0.00000000000E+00 -0.18250000000E+03  0.18250000000E+03  0.00000000000E+00 0. -1.
        -11    1    1    2    0    0  0.41067535455E+01  0.14017362277E+00  0.17879860529E+03  0.17884581719E+03  0.00000000000E+00 0. -1.
         11    1    1    2    0    0 -0.41092136506E-01  0.29838085377E+01 -0.15645574743E+03  0.15648420274E+03  0.00000000000E+00 0. -1.
        -15    1    1    2    0    0  0.19765018123E+01 -0.17429279071E+01  0.24749219238E+01  0.40283153591E+01  0.17770000000E+01 0.  1.
         15    1    1    2    0    0 -0.60421632213E+01 -0.13810542534E+01 -0.24817779775E+02  0.25641664713E+02  0.17770000000E+01 0. -1.
</event>
<event>
 6    1  0.1196607E-002  0.1827758E+03  0.7546771E-02  0.1068235E+00
        -11   -1    0    0    0    0  0.00000000000E+00  0.00000000000E+00  0.18250000000E+03  0.18250000000E+03  0.00000000000E+00 0. -1.
         11   -1    0    0    0    0 -0.00000000000E+00 -0.00000000000E+00 -0.18250000000E+03  0.18250000000E+03  0.00000000000E+00 0. -1.
        -11    1    1    2    0    0  0.17015978807E+01  0.20060708377E+01  0.18220521000E+03  0.18222419792E+03  0.00000000000E+00 0. -1.
         11    1    1    2    0    0  0.25930742308E+01 -0.75044459995E-01 -0.13068346960E+03  0.13070921503E+03  0.00000000000E+00 0. -1.
        -15    1    1    2    0    0 -0.10171164971E+01 -0.25452571660E+00 -0.34469828520E+02  0.34531523518E+02  0.17770000000E+01 0. -1.
         15    1    1    2    0    0 -0.32775556144E+01 -0.16765006611E+01 -0.17051911882E+02  0.17535063533E+02  0.17770000000E+01 0.  1.
</event>
<event>
 6    1  0.1196607E-002  0.2024227E+03  0.7546771E-02  0.1053617E+00
        -11   -1    0    0    0    0  0.00000000000E+00  0.00000000000E+00  0.18250000000E+03  0.18250000000E+03  0.00000000000E+00 0. -1.
         11   -1    0    0    0    0 -0.00000000000E+00 -0.00000000000E+00 -0.18250000000E+03  0.18250000000E+03  0.00000000000E+00 0.  1.
        -11    1    1    2    0    0  0.80027926086E-01  0.29373147665E+01  0.91446990007E+02  0.91494186721E+02  0.00000000000E+00 0. -1.
         11    1    1    2    0    0 -0.16160268054E+01 -0.66298812538E+01 -0.16243398399E+03  0.16257726170E+03  0.00000000000E+00 0.  1.
        -15    1    1    2    0    0  0.20613265570E+02  0.75775443963E+01 -0.12398129795E+02  0.25282350523E+02  0.17770000000E+01 0.  1.
         15    1    1    2    0    0 -0.19077266690E+02 -0.38849779089E+01  0.83385123780E+02  0.85646201052E+02  0.17770000000E+01 0. -1.
</event>
<event>
 6    1  0.1196607E-002  0.1848232E+03  0.7546771E-02  0.1066620E+00
        -11   -1    0    0    0    0  0.00000000000E+00  0.00000000000E+00  0.18250000000E+03  0.18250000000E+03  0.00000000000E+00 0.  1.
         11   -1    0    0    0    0 -0.00000000000E+00 -0.00000000000E+00 -0.18250000000E+03  0.18250000000E+03  0.00000000000E+00 0. -1.
        -11    1    1    2    0    0  0.66344670865E+01  0.78760470518E+00  0.18005287203E+03  0.18017678319E+03  0.00000000000E+00 0.  1.
         11    1    1    2    0    0 -0.12235464531E+01 -0.22530049938E+01 -0.16804841483E+03  0.16806797085E+03  0.00000000000E+00 0. -1.
        -15    1    1    2    0    0 -0.44010582582E+01  0.41436444587E+01 -0.26909993850E+01  0.68511539088E+01  0.17770000000E+01 0.  1.
         15    1    1    2    0    0 -0.10098623751E+01 -0.26782441700E+01 -0.93134578169E+01  0.99040920511E+01  0.17770000000E+01 0. -1.
</event>
<event>
 6    1  0.1196607E-002  0.1897344E+03  0.7546771E-02  0.1062838E+00
        -11   -1    0    0    0    0  0.00000000000E+00  0.00000000000E+00  0.18250000000E+03  0.18250000000E+03  0.00000000000E+00 0. -1.
         11   -1    0    0    0    0 -0.00000000000E+00 -0.00000000000E+00 -0.18250000000E+03  0.18250000000E+03  0.00000000000E+00 0. -1.
        -11    1    1    2    0    0 -0.31034322462E+00 -0.37691891803E+01  0.17522476753E+03  0.17526557636E+03  0.00000000000E+00 0. -1.
         11    1    1    2    0    0 -0.22126900373E+01  0.28474149399E+01 -0.17020549198E+03  0.17024368790E+03  0.00000000000E+00 0. -1.
        -15    1    1    2    0    0  0.29476996515E+01  0.91626952823E+01 -0.24033676969E+00  0.97907818296E+01  0.17770000000E+01 0. -1.
         15    1    1    2    0    0 -0.42466638958E+00 -0.82409210419E+01 -0.47789387814E+01  0.96999539193E+01  0.17770000000E+01 0.  1.
</event>
<event>
 6    1  0.1196607E-002  0.1848007E+03  0.7546771E-02  0.1066638E+00
        -11   -1    0    0    0    0  0.00000000000E+00  0.00000000000E+00  0.18250000000E+03  0.18250000000E+03  0.00000000000E+00 0.  1.
         11   -1    0    0    0    0 -0.00000000000E+00 -0.00000000000E+00 -0.18250000000E+03  0.18250000000E+03  0.00000000000E+00 0. -1.
        -11    1    1    2    0    0 -0.13375728676E+01 -0.41036948648E+01  0.17913216577E+03  0.17918415730E+03  0.00000000000E+00 0.  1.
         11    1    1    2    0    0  0.12169196521E+01  0.23904918085E+01 -0.18017935641E+03  0.18019932248E+03  0.00000000000E+00 0. -1.
        -15    1    1    2    0    0 -0.12775402132E+01 -0.57854483207E+00  0.74383123190E+00  0.23828212313E+01  0.17770000000E+01 0. -1.
         15    1    1    2    0    0  0.13981934287E+01  0.22917478884E+01  0.30335940992E+00  0.32336989933E+01  0.17770000000E+01 0.  1.
</event>
<event>
 6    1  0.1196607E-002  0.1833884E+03  0.7546771E-02  0.1067750E+00
        -11   -1    0    0    0    0  0.00000000000E+00  0.00000000000E+00  0.18250000000E+03  0.18250000000E+03  0.00000000000E+00 0.  1.
         11   -1    0    0    0    0 -0.00000000000E+00 -0.00000000000E+00 -0.18250000000E+03  0.18250000000E+03  0.00000000000E+00 0. -1.
        -11    1    1    2    0    0 -0.24378921352E+01 -0.25704054681E+00  0.18159510377E+03  0.18161164914E+03  0.00000000000E+00 0.  1.
         11    1    1    2    0    0 -0.54374061267E+00  0.16168520389E+01 -0.16785261336E+02  0.16871717829E+02  0.00000000000E+00 0. -1.
        -15    1    1    2    0    0  0.11281482582E+02 -0.13016286431E+00 -0.45965017449E+02  0.47362742210E+02  0.17770000000E+01 0. -1.
         15    1    1    2    0    0 -0.82998498338E+01 -0.12296486277E+01 -0.11884482499E+03  0.11915389082E+03  0.17770000000E+01 0. -1.
</event>
<event>
 6    1  0.1196607E-002  0.1827026E+03  0.7546771E-02  0.1068294E+00
        -11   -1    0    0    0    0  0.00000000000E+00  0.00000000000E+00  0.18250000000E+03  0.18250000000E+03  0.00000000000E+00 0.  1.
         11   -1    0    0    0    0 -0.00000000000E+00 -0.00000000000E+00 -0.18250000000E+03  0.18250000000E+03  0.00000000000E+00 0. -1.
        -11    1    1    2    0    0 -0.10194789830E+00 -0.31140178951E+01  0.18227079702E+03  0.18229742441E+03  0.00000000000E+00 0.  1.
         11    1    1    2    0    0  0.12468075959E+01  0.41080438622E+00 -0.59900253046E+02  0.59914635978E+02  0.00000000000E+00 0. -1.
        -15    1    1    2    0    0 -0.21969083945E+01  0.46478666295E+01 -0.10818025758E+03  0.10831691895E+03  0.17770000000E+01 0. -1.
         15    1    1    2    0    0  0.10520486969E+01 -0.19446531207E+01 -0.14190286388E+02  0.14471020662E+02  0.17770000000E+01 0. -1.
</event>
<event>
 6    1  0.1196607E-002  0.1791582E+03  0.7546771E-02  0.1071146E+00
        -11   -1    0    0    0    0  0.00000000000E+00  0.00000000000E+00  0.18250000000E+03  0.18250000000E+03  0.00000000000E+00 0. -1.
         11   -1    0    0    0    0 -0.00000000000E+00 -0.00000000000E+00 -0.18250000000E+03  0.18250000000E+03  0.00000000000E+00 0.  1.
        -11    1    1    2    0    0 -0.16281724670E+01  0.18571940982E+01  0.17868336443E+03  0.17870043324E+03  0.00000000000E+00 0. -1.
         11    1    1    2    0    0  0.37846555376E-01 -0.24688105601E+01 -0.17960420804E+03  0.17962117917E+03  0.00000000000E+00 0.  1.
        -15    1    1    2    0    0  0.13692418012E+01  0.12873120169E+01  0.29267727019E+01  0.39058574971E+01  0.17770000000E+01 0.  1.
         15    1    1    2    0    0  0.22108411038E+00 -0.67569555499E+00 -0.20059290853E+01  0.27725301012E+01  0.17770000000E+01 0. -1.
</event>
<event>
 6    1  0.1196607E-002  0.1851221E+03  0.7546771E-02  0.1066387E+00
        -11   -1    0    0    0    0  0.00000000000E+00  0.00000000000E+00  0.18250000000E+03  0.18250000000E+03  0.00000000000E+00 0.  1.
         11   -1    0    0    0    0 -0.00000000000E+00 -0.00000000000E+00 -0.18250000000E+03  0.18250000000E+03  0.00000000000E+00 0. -1.
        -11    1    1    2    0    0  0.24113104913E+01  0.88303835679E+00  0.17272788859E+03  0.17274697587E+03  0.00000000000E+00 0.  1.
         11    1    1    2    0    0  0.32920116667E+01 -0.20905096481E+01 -0.17983561597E+03  0.17987789287E+03  0.00000000000E+00 0. -1.
        -15    1    1    2    0    0 -0.45644560933E+01 -0.12688199280E+00  0.62206957686E-01  0.49001997075E+01  0.17770000000E+01 0. -1.
         15    1    1    2    0    0 -0.11388660647E+01  0.13343532841E+01  0.70455204287E+01  0.74749315523E+01  0.17770000000E+01 0.  1.
</event>
<event>
 6    1  0.1196607E-002  0.1829412E+03  0.7546771E-02  0.1068104E+00
        -11   -1    0    0    0    0  0.00000000000E+00  0.00000000000E+00  0.18250000000E+03  0.18250000000E+03  0.00000000000E+00 0. -1.
         11   -1    0    0    0    0 -0.00000000000E+00 -0.00000000000E+00 -0.18250000000E+03  0.18250000000E+03  0.00000000000E+00 0.  1.
        -11    1    1    2    0    0  0.45022659828E+01 -0.24487820411E+01  0.10691868367E+03  0.10704144922E+03  0.00000000000E+00 0. -1.
         11    1    1    2    0    0  0.27146297111E+01  0.56046394266E+01 -0.18195229492E+03  0.18205883342E+03  0.00000000000E+00 0.  1.
        -15    1    1    2    0    0 -0.50405317564E+01 -0.15217646185E+00  0.62056752700E+02  0.62286663121E+02  0.17770000000E+01 0. -1.
         15    1    1    2    0    0 -0.21763639375E+01 -0.30036809236E+01  0.12976858548E+02  0.13613054244E+02  0.17770000000E+01 0.  1.
</event>
<event>
 6    1  0.1196607E-002  0.1828084E+03  0.7546771E-02  0.1068210E+00
        -11   -1    0    0    0    0  0.00000000000E+00  0.00000000000E+00  0.18250000000E+03  0.18250000000E+03  0.00000000000E+00 0.  1.
         11   -1    0    0    0    0 -0.00000000000E+00 -0.00000000000E+00 -0.18250000000E+03  0.18250000000E+03  0.00000000000E+00 0. -1.
        -11    1    1    2    0    0  0.50557850598E+00  0.11781448303E+01  0.92731104437E+02  0.92739966384E+02  0.00000000000E+00 0.  1.
         11    1    1    2    0    0  0.28452782793E+01  0.33790739814E+01 -0.18213808174E+03  0.18219164242E+03  0.00000000000E+00 0. -1.
        -15    1    1    2    0    0  0.15578562822E+01 -0.31017835672E+01  0.62472679090E+02  0.62594259635E+02  0.17770000000E+01 0.  1.
         15    1    1    2    0    0 -0.49087130674E+01 -0.14554352446E+01  0.26934298211E+02  0.27474131558E+02  0.17770000000E+01 0. -1.
</event>
<event>
 6    1  0.1196607E-002  0.1826014E+03  0.7546771E-02  0.1068374E+00
        -11   -1    0    0    0    0  0.00000000000E+00  0.00000000000E+00  0.18250000000E+03  0.18250000000E+03  0.00000000000E+00 0. -1.
         11   -1    0    0    0    0 -0.00000000000E+00 -0.00000000000E+00 -0.18250000000E+03  0.18250000000E+03  0.00000000000E+00 0.  1.
        -11    1    1    2    0    0 -0.28614479948E+01 -0.19633618940E+01  0.18236556240E+03  0.18239857736E+03  0.00000000000E+00 0. -1.
         11    1    1    2    0    0  0.19396027628E+01 -0.18350744095E+00 -0.12016240307E+03  0.12017819621E+03  0.00000000000E+00 0.  1.
        -15    1    1    2    0    0  0.13994995248E+01  0.15305877051E+01 -0.21345777750E+02  0.21519787508E+02  0.17770000000E+01 0. -1.
         15    1    1    2    0    0 -0.47765429283E+00  0.61628162982E+00 -0.40857381583E+02  0.40903438920E+02  0.17770000000E+01 0.  1.
</event>
<event>
 6    1  0.1196607E-002  0.1847722E+03  0.7546771E-02  0.1066660E+00
        -11   -1    0    0    0    0  0.00000000000E+00  0.00000000000E+00  0.18250000000E+03  0.18250000000E+03  0.00000000000E+00 0. -1.
         11   -1    0    0    0    0 -0.00000000000E+00 -0.00000000000E+00 -0.18250000000E+03  0.18250000000E+03  0.00000000000E+00 0. -1.
        -11    1    1    2    0    0  0.16302567910E+01  0.14866411523E+02  0.12649967383E+03  0.12738067125E+03  0.00000000000E+00 0. -1.
         11    1    1    2    0    0 -0.18404535620E+01 -0.26064028516E+01 -0.18019958287E+03  0.18022782880E+03  0.00000000000E+00 0. -1.
        -15    1    1    2    0    0 -0.27185951401E+01  0.76827771614E+00  0.29554962588E+02  0.29742806740E+02  0.17770000000E+01 0.  1.
         15    1    1    2    0    0  0.29287919111E+01 -0.13028286387E+02  0.24144946455E+02  0.27648693216E+02  0.17770000000E+01 0. -1.
</event>
<event>
 6    1  0.1196607E-002  0.1858075E+03  0.7546771E-02  0.1065852E+00
        -11   -1    0    0    0    0  0.00000000000E+00  0.00000000000E+00  0.18250000000E+03  0.18250000000E+03  0.00000000000E+00 0.  1.
         11   -1    0    0    0    0 -0.00000000000E+00 -0.00000000000E+00 -0.18250000000E+03  0.18250000000E+03  0.00000000000E+00 0. -1.
        -11    1    1    2    0    0 -0.11443079294E+02 -0.27111639763E+01  0.17880621823E+03  0.17919251701E+03  0.00000000000E+00 0.  1.
         11    1    1    2    0    0 -0.28903231504E+01 -0.37362097326E+01 -0.62364190618E+02  0.62542829345E+02  0.00000000000E+00 0. -1.
        -15    1    1    2    0    0  0.17676161154E+02  0.66697888402E+01 -0.23318671968E+02  0.30064113952E+02  0.17770000000E+01 0. -1.
         15    1    1    2    0    0 -0.33427587098E+01 -0.22241513132E+00 -0.93123355644E+02  0.93200539696E+02  0.17770000000E+01 0.  1.
</event>
<event>
 6    1  0.1196607E-002  0.1769079E+03  0.7546771E-02  0.1072995E+00
        -11   -1    0    0    0    0  0.00000000000E+00  0.00000000000E+00  0.18250000000E+03  0.18250000000E+03  0.00000000000E+00 0.  1.
         11   -1    0    0    0    0 -0.00000000000E+00 -0.00000000000E+00 -0.18250000000E+03  0.18250000000E+03  0.00000000000E+00 0.  1.
        -11    1    1    2    0    0  0.26277363998E+01  0.37859743768E+00  0.17599485811E+03  0.17601488123E+03  0.00000000000E+00 0.  1.
         11    1    1    2    0    0  0.81290766177E+00  0.50810168285E+01 -0.17778996870E+03  0.17786441612E+03  0.00000000000E+00 0.  1.
        -15    1    1    2    0    0 -0.27503766943E+01  0.14580142414E+01  0.16443972971E+01  0.39436213002E+01  0.17770000000E+01 0. -1.
         15    1    1    2    0    0 -0.69026736727E+00 -0.69176285075E+01  0.15071328867E+00  0.71770813498E+01  0.17770000000E+01 0.  1.
</event>
<event>
 6    1  0.1196607E-002  0.1886741E+03  0.7546771E-02  0.1063644E+00
        -11   -1    0    0    0    0  0.00000000000E+00  0.00000000000E+00  0.18250000000E+03  0.18250000000E+03  0.00000000000E+00 0. -1.
         11   -1    0    0    0    0 -0.00000000000E+00 -0.00000000000E+00 -0.18250000000E+03  0.18250000000E+03  0.00000000000E+00 0. -1.
        -11    1    1    2    0    0 -0.21039975077E+00 -0.53002735480E+01  0.83112678083E+02  0.83281777274E+02  0.00000000000E+00 0. -1.
         11    1    1    2    0    0 -0.17850036891E+02  0.12701565281E+02 -0.17495966019E+03  0.17632593760E+03  0.00000000000E+00 0. -1.
        -15    1    1    2    0    0 -0.14053522443E+02 -0.43103102516E+01  0.11362001403E+02  0.18663683249E+02  0.17770000000E+01 0.  1.
         15    1    1    2    0    0  0.32113959085E+02 -0.30909814811E+01  0.80484980705E+02  0.86728601872E+02  0.17770000000E+01 0. -1.
</event>
<event>
 6    1  0.1196607E-002  0.1832652E+03  0.7546771E-02  0.1067847E+00
        -11   -1    0    0    0    0  0.00000000000E+00  0.00000000000E+00  0.18250000000E+03  0.18250000000E+03  0.00000000000E+00 0.  1.
         11   -1    0    0    0    0 -0.00000000000E+00 -0.00000000000E+00 -0.18250000000E+03  0.18250000000E+03  0.00000000000E+00 0.  1.
        -11    1    1    2    0    0  0.66078434825E+00  0.16349885784E+01  0.12603000879E+03  0.12604234582E+03  0.00000000000E+00 0.  1.
         11    1    1    2    0    0  0.10533956581E+02 -0.10216153894E+01 -0.18142641940E+03  0.18173484420E+03  0.00000000000E+00 0.  1.
        -15    1    1    2    0    0 -0.18803650300E+01 -0.31726900843E+01  0.10617034064E+02  0.11378966400E+02  0.17770000000E+01 0.  1.
         15    1    1    2    0    0 -0.93143758996E+01  0.25593168953E+01  0.44779376549E+02  0.45843843583E+02  0.17770000000E+01 0. -1.
</event>
<event>
 6    1  0.1196607E-002  0.1747396E+03  0.7546771E-02  0.1074806E+00
        -11   -1    0    0    0    0  0.00000000000E+00  0.00000000000E+00  0.18250000000E+03  0.18250000000E+03  0.00000000000E+00 0. -1.
         11   -1    0    0    0    0 -0.00000000000E+00 -0.00000000000E+00 -0.18250000000E+03  0.18250000000E+03  0.00000000000E+00 0. -1.
        -11    1    1    2    0    0  0.14467931418E+01  0.54878890197E+01  0.17442337038E+03  0.17451567916E+03  0.00000000000E+00 0. -1.
         11    1    1    2    0    0 -0.25267664080E+00 -0.27617688496E+01 -0.17495453374E+03  0.17497651297E+03  0.00000000000E+00 0. -1.
        -15    1    1    2    0    0 -0.15973650570E+01  0.28498673052E+01 -0.57916191138E+01  0.68828700221E+01  0.17770000000E+01 0.  1.
         15    1    1    2    0    0  0.40324855598E+00 -0.55759874753E+01  0.63227824746E+01  0.86249378516E+01  0.17770000000E+01 0. -1.
</event>
<event>
 6    1  0.1196607E-002  0.1847462E+03  0.7546771E-02  0.1066681E+00
        -11   -1    0    0    0    0  0.00000000000E+00  0.00000000000E+00  0.18250000000E+03  0.18250000000E+03  0.00000000000E+00 0. -1.
         11   -1    0    0    0    0 -0.00000000000E+00 -0.00000000000E+00 -0.18250000000E+03  0.18250000000E+03  0.00000000000E+00 0.  1.
        -11    1    1    2    0    0  0.38116619535E+01 -0.53715681864E+00  0.18021270404E+03  0.18025380995E+03  0.00000000000E+00 0. -1.
         11    1    1    2    0    0  0.49976643002E+00  0.27698447526E+01 -0.16875875347E+03  0.16878222264E+03  0.00000000000E+00 0.  1.
        -15    1    1    2    0    0 -0.10296737505E+01  0.14370196138E+01  0.80643647750E+00  0.26331202394E+01  0.17770000000E+01 0. -1.
         15    1    1    2    0    0 -0.32817546330E+01 -0.36697075478E+01 -0.12260387046E+02  0.13330847178E+02  0.17770000000E+01 0.  1.
</event>
<event>
 6    1  0.1196607E-002  0.1825760E+03  0.7546771E-02  0.1068394E+00
        -11   -1    0    0    0    0  0.00000000000E+00  0.00000000000E+00  0.18250000000E+03  0.18250000000E+03  0.00000000000E+00 0. -1.
         11   -1    0    0    0    0 -0.00000000000E+00 -0.00000000000E+00 -0.18250000000E+03  0.18250000000E+03  0.00000000000E+00 0. -1.
        -11    1    1    2    0    0  0.53010382091E+00 -0.53961173755E+00  0.11537915466E+02  0.11562684990E+02  0.00000000000E+00 0. -1.
         11    1    1    2    0    0  0.35071758913E+01 -0.77892375362E+00 -0.18238865545E+03  0.18242403527E+03  0.00000000000E+00 0. -1.
        -15    1    1    2    0    0 -0.13176319321E+01  0.21624675197E+01  0.39982031339E+02  0.40101533371E+02  0.17770000000E+01 0.  1.
         15    1    1    2    0    0 -0.27196477801E+01 -0.84393202849E+00  0.13086870865E+03  0.13091174637E+03  0.17770000000E+01 0. -1.
</event>
<event>
 6    1  0.1196607E-002  0.1847795E+03  0.7546771E-02  0.1066655E+00
        -11   -1    0    0    0    0  0.00000000000E+00  0.00000000000E+00  0.18250000000E+03  0.18250000000E+03  0.00000000000E+00 0. -1.
         11   -1    0    0    0    0 -0.00000000000E+00 -0.00000000000E+00 -0.18250000000E+03  0.18250000000E+03  0.00000000000E+00 0.  1.
        -11    1    1    2    0    0 -0.11626985515E+01  0.33790012319E+01  0.15245017346E+03  0.15249204866E+03  0.00000000000E+00 0. -1.
         11    1    1    2    0    0 -0.33143331070E+01  0.39223690080E+01 -0.18014727576E+03  0.18022045041E+03  0.00000000000E+00 0.  1.
        -15    1    1    2    0    0  0.14123073470E+01 -0.31989051395E+01 -0.14262816444E+00  0.39250067423E+01  0.17770000000E+01 0. -1.
         15    1    1    2    0    0  0.30647243114E+01 -0.41024651004E+01  0.27839730468E+02  0.28362494188E+02  0.17770000000E+01 0.  1.
</event>
<event>
 6    1  0.1196607E-002  0.1835610E+03  0.7546771E-02  0.1067613E+00
        -11   -1    0    0    0    0  0.00000000000E+00  0.00000000000E+00  0.18250000000E+03  0.18250000000E+03  0.00000000000E+00 0.  1.
         11   -1    0    0    0    0 -0.00000000000E+00 -0.00000000000E+00 -0.18250000000E+03  0.18250000000E+03  0.00000000000E+00 0.  1.
        -11    1    1    2    0    0 -0.41554052277E+01 -0.14166539135E+01  0.15801821125E+03  0.15807918708E+03  0.00000000000E+00 0.  1.
         11    1    1    2    0    0  0.59588175944E+00  0.26741031959E+01 -0.18141827338E+03  0.18143895893E+03  0.00000000000E+00 0.  1.
        -15    1    1    2    0    0  0.79910849842E+00 -0.30467459573E+01  0.28777380700E+01  0.46217248642E+01  0.17770000000E+01 0.  1.
         15    1    1    2    0    0  0.27604149698E+01  0.17892966749E+01  0.20522324061E+02  0.20860129128E+02  0.17770000000E+01 0. -1.
</event>
<event>
 6    1  0.1196607E-002  0.1929426E+03  0.7546771E-02  0.1060434E+00
        -11   -1    0    0    0    0  0.00000000000E+00  0.00000000000E+00  0.18250000000E+03  0.18250000000E+03  0.00000000000E+00 0.  1.
         11   -1    0    0    0    0 -0.00000000000E+00 -0.00000000000E+00 -0.18250000000E+03  0.18250000000E+03  0.00000000000E+00 0. -1.
        -11    1    1    2    0    0 -0.19359707510E+01  0.87779566965E+00  0.11987846137E+03  0.11989730609E+03  0.00000000000E+00 0.  1.
         11    1    1    2    0    0 -0.69730520777E+01  0.17190287356E+01 -0.17190740320E+03  0.17205735610E+03  0.00000000000E+00 0. -1.
        -15    1    1    2    0    0  0.24320973137E+02  0.10850186604E+02  0.14771354687E+02  0.30505522975E+02  0.17770000000E+01 0. -1.
         15    1    1    2    0    0 -0.15411950309E+02 -0.13447011010E+02  0.37257587142E+02  0.42539814833E+02  0.17770000000E+01 0.  1.
</event>
<event>
 6    1  0.1196607E-002  0.1826731E+03  0.7546771E-02  0.1068317E+00
        -11   -1    0    0    0    0  0.00000000000E+00  0.00000000000E+00  0.18250000000E+03  0.18250000000E+03  0.00000000000E+00 0.  1.
         11   -1    0    0    0    0 -0.00000000000E+00 -0.00000000000E+00 -0.18250000000E+03  0.18250000000E+03  0.00000000000E+00 0.  1.
        -11    1    1    2    0    0 -0.17330332807E+01 -0.13813523974E+01  0.11903647683E+03  0.11905710544E+03  0.00000000000E+00 0.  1.
         11    1    1    2    0    0  0.30310555118E+01  0.32582661387E+00 -0.18230145134E+03  0.18232693883E+03  0.00000000000E+00 0.  1.
        -15    1    1    2    0    0 -0.31466192434E+01  0.19204048522E+00  0.25681160014E+02  0.25934876149E+02  0.17770000000E+01 0.  1.
         15    1    1    2    0    0  0.18485970124E+01  0.86348529832E+00  0.37583814495E+02  0.37681079586E+02  0.17770000000E+01 0.  1.
</event>
<event>
 6    1  0.1196607E-002  0.1892586E+03  0.7546771E-02  0.1063199E+00
        -11   -1    0    0    0    0  0.00000000000E+00  0.00000000000E+00  0.18250000000E+03  0.18250000000E+03  0.00000000000E+00 0.  1.
         11   -1    0    0    0    0 -0.00000000000E+00 -0.00000000000E+00 -0.18250000000E+03  0.18250000000E+03  0.00000000000E+00 0.  1.
        -11    1    1    2    0    0 -0.47710759310E+00  0.10832730859E+02  0.17540660787E+03  0.17574144011E+03  0.00000000000E+00 0.  1.
         11    1    1    2    0    0 -0.23171610946E+01 -0.16148232104E+01 -0.16898226978E+03  0.16900587087E+03  0.00000000000E+00 0.  1.
        -15    1    1    2    0    0  0.45539574537E+01 -0.11388210902E+02  0.68300036184E+00  0.12411852985E+02  0.17770000000E+01 0.  1.
         15    1    1    2    0    0 -0.17596887660E+01  0.21703032530E+01 -0.71073384510E+01  0.78408360281E+01  0.17770000000E+01 0. -1.
</event>
<event>
 6    1  0.1196607E-002  0.1835401E+03  0.7546771E-02  0.1067630E+00
        -11   -1    0    0    0    0  0.00000000000E+00  0.00000000000E+00  0.18250000000E+03  0.18250000000E+03  0.00000000000E+00 0. -1.
         11   -1    0    0    0    0 -0.00000000000E+00 -0.00000000000E+00 -0.18250000000E+03  0.18250000000E+03  0.00000000000E+00 0.  1.
        -11    1    1    2    0    0  0.29957248474E+01 -0.10169044344E+01  0.96276072155E+02  0.96328036062E+02  0.00000000000E+00 0. -1.
         11    1    1    2    0    0 -0.26958731789E+01  0.24636822875E+01 -0.18142313019E+03  0.18145988436E+03  0.00000000000E+00 0.  1.
        -15    1    1    2    0    0  0.40830784066E+01 -0.60956424115E+01  0.72856098901E+02  0.73246141617E+02  0.17770000000E+01 0.  1.
         15    1    1    2    0    0 -0.43829300751E+01  0.46488645583E+01  0.12290959135E+02  0.13965937963E+02  0.17770000000E+01 0.  1.
</event>
<event>
 6    1  0.1196607E-002  0.1829741E+03  0.7546771E-02  0.1068078E+00
        -11   -1    0    0    0    0  0.00000000000E+00  0.00000000000E+00  0.18250000000E+03  0.18250000000E+03  0.00000000000E+00 0.  1.
         11   -1    0    0    0    0 -0.00000000000E+00 -0.00000000000E+00 -0.18250000000E+03  0.18250000000E+03  0.00000000000E+00 0.  1.
        -11    1    1    2    0    0 -0.35407850658E+01 -0.16284944220E+01  0.14481349689E+03  0.14486593124E+03  0.00000000000E+00 0.  1.
         11    1    1    2    0    0  0.92774466851E+00  0.35409598266E+01 -0.18198909355E+03  0.18202590276E+03  0.00000000000E+00 0.  1.
        -15    1    1    2    0    0  0.29672904338E+01  0.12006358335E+01  0.92014310916E+01  0.99030501390E+01  0.17770000000E+01 0.  1.
         15    1    1    2    0    0 -0.35425003656E+00 -0.31131012382E+01  0.27974165564E+02  0.28205115856E+02  0.17770000000E+01 0.  1.
</event>
<event>
 6    1  0.1196607E-002  0.1825738E+03  0.7546771E-02  0.1068396E+00
        -11   -1    0    0    0    0  0.00000000000E+00  0.00000000000E+00  0.18250000000E+03  0.18250000000E+03  0.00000000000E+00 0.  1.
         11   -1    0    0    0    0 -0.00000000000E+00 -0.00000000000E+00 -0.18250000000E+03  0.18250000000E+03  0.00000000000E+00 0. -1.
        -11    1    1    2    0    0 -0.25369812736E+01 -0.30273962348E+01  0.18238346113E+03  0.18242622700E+03  0.00000000000E+00 0.  1.
         11    1    1    2    0    0  0.10902394224E+01  0.18959943734E+01 -0.46045869043E+02  0.46097781645E+02  0.00000000000E+00 0. -1.
        -15    1    1    2    0    0 -0.12510424670E+00  0.89150438039E+00 -0.11286756423E+03  0.11288514170E+03  0.17770000000E+01 0. -1.
         15    1    1    2    0    0  0.15718460979E+01  0.23989748101E+00 -0.23470027858E+02  0.23590849659E+02  0.17770000000E+01 0.  1.
</event>
<event>
 6    1  0.1196607E-002  0.1833705E+03  0.7546771E-02  0.1067764E+00
        -11   -1    0    0    0    0  0.00000000000E+00  0.00000000000E+00  0.18250000000E+03  0.18250000000E+03  0.00000000000E+00 0. -1.
         11   -1    0    0    0    0 -0.00000000000E+00 -0.00000000000E+00 -0.18250000000E+03  0.18250000000E+03  0.00000000000E+00 0. -1.
        -11    1    1    2    0    0 -0.21646602248E+01 -0.18458490919E+01  0.15534382328E+03  0.15536986949E+03  0.00000000000E+00 0. -1.
         11    1    1    2    0    0  0.24575893650E+01  0.19082378559E+01 -0.18160283468E+03  0.18162948736E+03  0.00000000000E+00 0. -1.
        -15    1    1    2    0    0 -0.26456849405E+00  0.32850246682E+01  0.42345687665E+01  0.56524937149E+01  0.17770000000E+01 0.  1.
         15    1    1    2    0    0 -0.28360646147E-01 -0.33474134322E+01  0.22024442628E+02  0.22348149433E+02  0.17770000000E+01 0.  1.
</event>
<event>
 6    1  0.1196607E-002  0.1855468E+03  0.7546771E-02  0.1066055E+00
        -11   -1    0    0    0    0  0.00000000000E+00  0.00000000000E+00  0.18250000000E+03  0.18250000000E+03  0.00000000000E+00 0.  1.
         11   -1    0    0    0    0 -0.00000000000E+00 -0.00000000000E+00 -0.18250000000E+03  0.18250000000E+03  0.00000000000E+00 0. -1.
        -11    1    1    2    0    0  0.22450723736E+01 -0.87972647505E+00  0.17208061718E+03  0.17209751037E+03  0.00000000000E+00 0.  1.
         11    1    1    2    0    0 -0.54649206662E+01  0.76580383925E+01 -0.17920642917E+03  0.17945321163E+03  0.00000000000E+00 0. -1.
        -15    1    1    2    0    0  0.40327205660E+01 -0.40731538594E+01  0.48913660313E+00  0.60208306023E+01  0.17770000000E+01 0. -1.
         15    1    1    2    0    0 -0.81287227348E+00 -0.27051580581E+01  0.66366753891E+01  0.74284473931E+01  0.17770000000E+01 0.  1.
</event>
<event>
 6    1  0.1196607E-002  0.1899757E+03  0.7546771E-02  0.1062655E+00
        -11   -1    0    0    0    0  0.00000000000E+00  0.00000000000E+00  0.18250000000E+03  0.18250000000E+03  0.00000000000E+00 0. -1.
         11   -1    0    0    0    0 -0.00000000000E+00 -0.00000000000E+00 -0.18250000000E+03  0.18250000000E+03  0.00000000000E+00 0.  1.
        -11    1    1    2    0    0  0.13772896041E+01  0.21933220058E+01  0.11475707350E+03  0.11478629494E+03  0.00000000000E+00 0. -1.
         11    1    1    2    0    0  0.43496261102E+00 -0.28865113413E+01 -0.17500000071E+03  0.17502434513E+03  0.00000000000E+00 0.  1.
        -15    1    1    2    0    0  0.14271258166E+02  0.13395593832E+01  0.56833388683E+02  0.58640046276E+02  0.17770000000E+01 0. -1.
         15    1    1    2    0    0 -0.16083510381E+02 -0.64637004770E+00  0.34095385272E+01  0.16549313653E+02  0.17770000000E+01 0.  1.
</event>
<event>
 6    1  0.1196607E-002  0.1849260E+03  0.7546771E-02  0.1066540E+00
        -11   -1    0    0    0    0  0.00000000000E+00  0.00000000000E+00  0.18250000000E+03  0.18250000000E+03  0.00000000000E+00 0.  1.
         11   -1    0    0    0    0 -0.00000000000E+00 -0.00000000000E+00 -0.18250000000E+03  0.18250000000E+03  0.00000000000E+00 0. -1.
        -11    1    1    2    0    0  0.42547906225E+01  0.13998986412E+01  0.16715320190E+03  0.16721320481E+03  0.00000000000E+00 0.  1.
         11    1    1    2    0    0 -0.11336074522E+01  0.28895221951E+01 -0.18004727613E+03  0.18007402935E+03  0.00000000000E+00 0. -1.
        -15    1    1    2    0    0 -0.35285391271E+01  0.40462684129E+00  0.11945743739E+02  0.12588599355E+02  0.17770000000E+01 0. -1.
         15    1    1    2    0    0  0.40735595688E+00 -0.46940476775E+01  0.94833049189E+00  0.51241664880E+01  0.17770000000E+01 0.  1.
</event>
<event>
 6    1  0.1196607E-002  0.1840808E+03  0.7546771E-02  0.1067203E+00
        -11   -1    0    0    0    0  0.00000000000E+00  0.00000000000E+00  0.18250000000E+03  0.18250000000E+03  0.00000000000E+00 0.  1.
         11   -1    0    0    0    0 -0.00000000000E+00 -0.00000000000E+00 -0.18250000000E+03  0.18250000000E+03  0.00000000000E+00 0.  1.
        -11    1    1    2    0    0 -0.20790168661E+01  0.45653627341E+01  0.17051566751E+03  0.17058944198E+03  0.00000000000E+00 0.  1.
         11    1    1    2    0    0 -0.15017216716E+01 -0.31268771623E+01 -0.18088593132E+03  0.18091918825E+03  0.00000000000E+00 0.  1.
        -15    1    1    2    0    0 -0.11919846077E+00 -0.12778660874E+01  0.88403041415E+01  0.91080105580E+01  0.17770000000E+01 0. -1.
         15    1    1    2    0    0  0.36999369984E+01 -0.16061948435E+00  0.15299596629E+01  0.43833592120E+01  0.17770000000E+01 0.  1.
</event>
<event>
 6    1  0.1196607E-002  0.1841042E+03  0.7546771E-02  0.1067185E+00
        -11   -1    0    0    0    0  0.00000000000E+00  0.00000000000E+00  0.18250000000E+03  0.18250000000E+03  0.00000000000E+00 0.  1.
         11   -1    0    0    0    0 -0.00000000000E+00 -0.00000000000E+00 -0.18250000000E+03  0.18250000000E+03  0.00000000000E+00 0.  1.
        -11    1    1    2    0    0 -0.18809324326E+01  0.51802773832E+01  0.14741537355E+03  0.14751835662E+03  0.00000000000E+00 0.  1.
         11    1    1    2    0    0 -0.38120476063E+01  0.14146115182E+01 -0.18085009961E+03  0.18089580250E+03  0.00000000000E+00 0.  1.
        -15    1    1    2    0    0  0.84439711057E+01 -0.17351886442E+01  0.17110165783E+02  0.19241284515E+02  0.17770000000E+01 0.  1.
         15    1    1    2    0    0 -0.27509910668E+01 -0.48597002572E+01  0.16324560276E+02  0.17344556369E+02  0.17770000000E+01 0.  1.
</event>
<event>
 6    1  0.1196607E-002  0.1832161E+03  0.7546771E-02  0.1067886E+00
        -11   -1    0    0    0    0  0.00000000000E+00  0.00000000000E+00  0.18250000000E+03  0.18250000000E+03  0.00000000000E+00 0.  1.
         11   -1    0    0    0    0 -0.00000000000E+00 -0.00000000000E+00 -0.18250000000E+03  0.18250000000E+03  0.00000000000E+00 0. -1.
        -11    1    1    2    0    0  0.15450514304E+01 -0.24437336436E+01  0.67716200181E+02  0.67777893041E+02  0.00000000000E+00 0.  1.
         11    1    1    2    0    0  0.38117112804E+01 -0.60306649740E+00 -0.18174295880E+03  0.18178392643E+03  0.00000000000E+00 0. -1.
        -15    1    1    2    0    0 -0.80677575827E+01 -0.40578462447E+00  0.25995065339E+02  0.27279195819E+02  0.17770000000E+01 0.  1.
         15    1    1    2    0    0  0.27109948719E+01  0.34525847655E+01  0.88031693283E+02  0.88158984715E+02  0.17770000000E+01 0.  1.
</event>
<event>
 6    1  0.1196607E-002  0.2002243E+03  0.7546771E-02  0.1055161E+00
        -11   -1    0    0    0    0  0.00000000000E+00  0.00000000000E+00  0.18250000000E+03  0.18250000000E+03  0.00000000000E+00 0. -1.
         11   -1    0    0    0    0 -0.00000000000E+00 -0.00000000000E+00 -0.18250000000E+03  0.18250000000E+03  0.00000000000E+00 0. -1.
        -11    1    1    2    0    0 -0.13888431797E+01 -0.10382032274E+01  0.12144827344E+03  0.12146065154E+03  0.00000000000E+00 0. -1.
         11    1    1    2    0    0 -0.21332143980E+02  0.20639121764E+01 -0.16337595804E+03  0.16477567711E+03  0.00000000000E+00 0. -1.
        -15    1    1    2    0    0  0.61087024818E+01  0.72738422988E+01  0.55090985903E+02  0.55932097087E+02  0.17770000000E+01 0. -1.
         15    1    1    2    0    0  0.16612284678E+02 -0.82995512479E+01 -0.13163301300E+02  0.22831574261E+02  0.17770000000E+01 0.  1.
</event>
<event>
 6    1  0.1196607E-002  0.1828707E+03  0.7546771E-02  0.1068160E+00
        -11   -1    0    0    0    0  0.00000000000E+00  0.00000000000E+00  0.18250000000E+03  0.18250000000E+03  0.00000000000E+00 0. -1.
         11   -1    0    0    0    0 -0.00000000000E+00 -0.00000000000E+00 -0.18250000000E+03  0.18250000000E+03  0.00000000000E+00 0.  1.
        -11    1    1    2    0    0 -0.13129375254E+00 -0.26548744677E+01  0.18210988557E+03  0.18212928380E+03  0.00000000000E+00 0. -1.
         11    1    1    2    0    0  0.17873442187E+01  0.12226982576E+01 -0.26292533584E+02  0.26381563878E+02  0.00000000000E+00 0.  1.
        -15    1    1    2    0    0 -0.46900920992E+01  0.30704146637E+01 -0.27900871289E+02  0.28513869569E+02  0.17770000000E+01 0. -1.
         15    1    1    2    0    0  0.30340416330E+01 -0.16382384536E+01 -0.12791648069E+03  0.12797528275E+03  0.17770000000E+01 0.  1.
</event>
<event>
 6    1  0.1196607E-002  0.1896599E+03  0.7546771E-02  0.1062894E+00
        -11   -1    0    0    0    0  0.00000000000E+00  0.00000000000E+00  0.18250000000E+03  0.18250000000E+03  0.00000000000E+00 0. -1.
         11   -1    0    0    0    0 -0.00000000000E+00 -0.00000000000E+00 -0.18250000000E+03  0.18250000000E+03  0.00000000000E+00 0. -1.
        -11    1    1    2    0    0  0.21856145950E+01 -0.21801636717E+01  0.16395229773E+03  0.16398135856E+03  0.00000000000E+00 0. -1.
         11    1    1    2    0    0 -0.64087234319E+01 -0.10995365431E+02 -0.17487762704E+03  0.17534011017E+03  0.00000000000E+00 0. -1.
        -15    1    1    2    0    0  0.41681384440E+01  0.10126688923E+02 -0.28531713461E+01  0.11455196304E+02  0.17770000000E+01 0.  1.
         15    1    1    2    0    0  0.54970392884E-01  0.30488401792E+01  0.13778500653E+02  0.14223334961E+02  0.17770000000E+01 0.  1.
</event>
<event>
 6    1  0.1196607E-002  0.1839727E+03  0.7546771E-02  0.1067289E+00
        -11   -1    0    0    0    0  0.00000000000E+00  0.00000000000E+00  0.18250000000E+03  0.18250000000E+03  0.00000000000E+00 0. -1.
         11   -1    0    0    0    0 -0.00000000000E+00 -0.00000000000E+00 -0.18250000000E+03  0.18250000000E+03  0.00000000000E+00 0. -1.
        -11    1    1    2    0    0  0.93219213091E+00 -0.47272473753E+00  0.16781700638E+02  0.16814218006E+02  0.00000000000E+00 0. -1.
         11    1    1    2    0    0 -0.10039903893E+02  0.22926233073E+01 -0.18073410096E+03  0.18102726601E+03  0.00000000000E+00 0. -1.
        -15    1    1    2    0    0  0.10944133157E+02  0.56177296294E+00  0.16321018720E+03  0.16358732400E+03  0.17770000000E+01 0. -1.
         15    1    1    2    0    0 -0.18364213944E+01 -0.23816715327E+01  0.74221311777E+00  0.35711919775E+01  0.17770000000E+01 0.  1.
</event>
<event>
 6    1  0.1196607E-002  0.1853581E+03  0.7546771E-02  0.1066202E+00
        -11   -1    0    0    0    0  0.00000000000E+00  0.00000000000E+00  0.18250000000E+03  0.18250000000E+03  0.00000000000E+00 0.  1.
         11   -1    0    0    0    0 -0.00000000000E+00 -0.00000000000E+00 -0.18250000000E+03  0.18250000000E+03  0.00000000000E+00 0.  1.
        -11    1    1    2    0    0  0.11008861622E+01 -0.84899883817E+01  0.13850911948E+03  0.13877344138E+03  0.00000000000E+00 0.  1.
         11    1    1    2    0    0 -0.45224290500E+01  0.54737368145E+01 -0.17950150147E+03  0.17964187483E+03  0.00000000000E+00 0.  1.
        -15    1    1    2    0    0 -0.14226365645E+01  0.87996128920E+01  0.63545624493E+01  0.11090323474E+02  0.17770000000E+01 0.  1.
         15    1    1    2    0    0  0.48441794523E+01 -0.57833613247E+01  0.34637819549E+02  0.35494360325E+02  0.17770000000E+01 0. -1.
</event>
<event>
 6    1  0.1196607E-002  0.1828619E+03  0.7546771E-02  0.1068167E+00
        -11   -1    0    0    0    0  0.00000000000E+00  0.00000000000E+00  0.18250000000E+03  0.18250000000E+03  0.00000000000E+00 0.  1.
         11   -1    0    0    0    0 -0.00000000000E+00 -0.00000000000E+00 -0.18250000000E+03  0.18250000000E+03  0.00000000000E+00 0.  1.
        -11    1    1    2    0    0 -0.29939423606E+01 -0.37414285254E+00  0.10414805038E+03  0.10419174666E+03  0.00000000000E+00 0.  1.
         11    1    1    2    0    0  0.33205127873E+01 -0.57100183451E+01 -0.18201833014E+03  0.18213814159E+03  0.00000000000E+00 0.  1.
        -15    1    1    2    0    0 -0.43392244577E+01  0.34154762457E+01  0.32905595766E+02  0.33413026032E+02  0.17770000000E+01 0.  1.
         15    1    1    2    0    0  0.40126540309E+01  0.26686849519E+01  0.44964683995E+02  0.45257085716E+02  0.17770000000E+01 0. -1.
</event>
<event>
 6    1  0.1196607E-002  0.1860425E+03  0.7546771E-02  0.1065669E+00
        -11   -1    0    0    0    0  0.00000000000E+00  0.00000000000E+00  0.18250000000E+03  0.18250000000E+03  0.00000000000E+00 0.  1.
         11   -1    0    0    0    0 -0.00000000000E+00 -0.00000000000E+00 -0.18250000000E+03  0.18250000000E+03  0.00000000000E+00 0. -1.
        -11    1    1    2    0    0  0.39752656807E+01  0.37879455871E-01  0.17891332530E+03  0.17895748697E+03  0.00000000000E+00 0.  1.
         11    1    1    2    0    0  0.38375802925E+01 -0.12318816677E+02 -0.14658592122E+03  0.14715268453E+03  0.00000000000E+00 0. -1.
        -15    1    1    2    0    0  0.24303788422E+01  0.82889634052E+01 -0.22000824829E+02  0.23702482524E+02  0.17770000000E+01 0.  1.
         15    1    1    2    0    0 -0.10243224815E+02  0.39919738160E+01 -0.10326579255E+02  0.15187345972E+02  0.17770000000E+01 0. -1.
</event>
<event>
 6    1  0.1196607E-002  0.1834255E+03  0.7546771E-02  0.1067721E+00
        -11   -1    0    0    0    0  0.00000000000E+00  0.00000000000E+00  0.18250000000E+03  0.18250000000E+03  0.00000000000E+00 0.  1.
         11   -1    0    0    0    0 -0.00000000000E+00 -0.00000000000E+00 -0.18250000000E+03  0.18250000000E+03  0.00000000000E+00 0. -1.
        -11    1    1    2    0    0 -0.20128631106E+01 -0.26544235331E+01  0.18154397010E+03  0.18157453198E+03  0.00000000000E+00 0.  1.
         11    1    1    2    0    0  0.22464821567E+01 -0.21010442100E+01 -0.16500688986E+03  0.16503555608E+03  0.00000000000E+00 0. -1.
        -15    1    1    2    0    0  0.18599200008E+01  0.45837167760E+01 -0.99951241544E+01  0.11292918035E+02  0.17770000000E+01 0.  1.
         15    1    1    2    0    0 -0.20935390468E+01  0.17175096712E+00 -0.65419560822E+01  0.70969939070E+01  0.17770000000E+01 0.  1.
</event>
<event>
 6    1  0.1196607E-002  0.1735409E+03  0.7546771E-02  0.1075819E+00
        -11   -1    0    0    0    0  0.00000000000E+00  0.00000000000E+00  0.18250000000E+03  0.18250000000E+03  0.00000000000E+00 0. -1.
         11   -1    0    0    0    0 -0.00000000000E+00 -0.00000000000E+00 -0.18250000000E+03  0.18250000000E+03  0.00000000000E+00 0.  1.
        -11    1    1    2    0    0  0.24181969977E+01  0.12111349218E+01  0.33788001206E+02  0.33896069831E+02  0.00000000000E+00 0. -1.
         11    1    1    2    0    0 -0.36107927148E+02 -0.52724385757E+01 -0.16858749774E+03  0.17249152270E+03  0.00000000000E+00 0.  1.
        -15    1    1    2    0    0 -0.23199105359E+02 -0.91281880915E+01  0.35867145939E+02  0.43716497962E+02  0.17770000000E+01 0.  1.
         15    1    1    2    0    0  0.56888835509E+02  0.13189491745E+02  0.98932350592E+02  0.11489590950E+03  0.17770000000E+01 0. -1.
</event>
<event>
 6    1  0.1196607E-002  0.1758569E+03  0.7546771E-02  0.1073869E+00
        -11   -1    0    0    0    0  0.00000000000E+00  0.00000000000E+00  0.18250000000E+03  0.18250000000E+03  0.00000000000E+00 0. -1.
         11   -1    0    0    0    0 -0.00000000000E+00 -0.00000000000E+00 -0.18250000000E+03  0.18250000000E+03  0.00000000000E+00 0.  1.
        -11    1    1    2    0    0  0.54966760567E+01  0.39522069527E+01  0.17458461743E+03  0.17471583223E+03  0.00000000000E+00 0. -1.
         11    1    1    2    0    0 -0.23286062166E+01  0.12684432497E+01 -0.17703958938E+03  0.17705944641E+03  0.00000000000E+00 0.  1.
        -15    1    1    2    0    0 -0.29848259695E+01 -0.35621188451E+01  0.66905349147E+01  0.83377972619E+01  0.17770000000E+01 0. -1.
         15    1    1    2    0    0 -0.18324387063E+00 -0.16585313573E+01 -0.42355629673E+01  0.48869241072E+01  0.17770000000E+01 0.  1.
</event>
<event>
 6    1  0.1196607E-002  0.1619173E+03  0.7546771E-02  0.1086132E+00
        -11   -1    0    0    0    0  0.00000000000E+00  0.00000000000E+00  0.18250000000E+03  0.18250000000E+03  0.00000000000E+00 0. -1.
         11   -1    0    0    0    0 -0.00000000000E+00 -0.00000000000E+00 -0.18250000000E+03  0.18250000000E+03  0.00000000000E+00 0. -1.
        -11    1    1    2    0    0 -0.41127093110E+01  0.18649728064E+02  0.15420637009E+03  0.15538446290E+03  0.00000000000E+00 0. -1.
         11    1    1    2    0    0 -0.39025445874E+01  0.92203887327E+01 -0.16982608982E+03  0.17012097521E+03  0.00000000000E+00 0. -1.
        -15    1    1    2    0    0  0.81445044781E+01 -0.16632513548E+02  0.19988224460E+02  0.27306781322E+02  0.17770000000E+01 0.  1.
         15    1    1    2    0    0 -0.12925057971E+00 -0.11237603249E+02 -0.43685047271E+01  0.12187780562E+02  0.17770000000E+01 0. -1.
</event>
<event>
 6    1  0.1196607E-002  0.1870961E+03  0.7546771E-02  0.1064854E+00
        -11   -1    0    0    0    0  0.00000000000E+00  0.00000000000E+00  0.18250000000E+03  0.18250000000E+03  0.00000000000E+00 0. -1.
         11   -1    0    0    0    0 -0.00000000000E+00 -0.00000000000E+00 -0.18250000000E+03  0.18250000000E+03  0.00000000000E+00 0.  1.
        -11    1    1    2    0    0  0.71031118680E+01 -0.49882553569E+01  0.17769204894E+03  0.17790390987E+03  0.00000000000E+00 0. -1.
         11    1    1    2    0    0 -0.11057029203E+01  0.23477408988E+01 -0.16412659524E+03  0.16414711003E+03  0.00000000000E+00 0.  1.
        -15    1    1    2    0    0 -0.52884771831E+01  0.60558966627E+01  0.59677830090E+00  0.82556494987E+01  0.17770000000E+01 0. -1.
         15    1    1    2    0    0 -0.70893176461E+00 -0.34153822045E+01 -0.14162232003E+02  0.14693330601E+02  0.17770000000E+01 0.  1.
</event>
<event>
 6    1  0.1196607E-002  0.1782525E+03  0.7546771E-02  0.1071887E+00
        -11   -1    0    0    0    0  0.00000000000E+00  0.00000000000E+00  0.18250000000E+03  0.18250000000E+03  0.00000000000E+00 0.  1.
         11   -1    0    0    0    0 -0.00000000000E+00 -0.00000000000E+00 -0.18250000000E+03  0.18250000000E+03  0.00000000000E+00 0. -1.
        -11    1    1    2    0    0 -0.11523118388E+01 -0.21224888399E+01  0.17772063017E+03  0.17773703939E+03  0.00000000000E+00 0.  1.
         11    1    1    2    0    0  0.32587131698E+01  0.34130897994E+00 -0.17875010037E+03  0.17878012777E+03  0.00000000000E+00 0. -1.
        -15    1    1    2    0    0 -0.20961494935E+01 -0.25038243302E+01  0.97622205826E+00  0.38436593869E+01  0.17770000000E+01 0. -1.
         15    1    1    2    0    0 -0.10251837516E-01  0.42850041902E+01  0.53248141197E-01  0.46391734582E+01  0.17770000000E+01 0.  1.
</event>
<event>
 6    1  0.1196607E-002  0.1847292E+03  0.7546771E-02  0.1066694E+00
        -11   -1    0    0    0    0  0.00000000000E+00  0.00000000000E+00  0.18250000000E+03  0.18250000000E+03  0.00000000000E+00 0.  1.
         11   -1    0    0    0    0 -0.00000000000E+00 -0.00000000000E+00 -0.18250000000E+03  0.18250000000E+03  0.00000000000E+00 0.  1.
        -11    1    1    2    0    0  0.34505429670E+01 -0.21073547432E+01  0.15125484457E+03  0.15130887349E+03  0.00000000000E+00 0.  1.
         11    1    1    2    0    0 -0.11904217699E+01 -0.50390688165E+01 -0.18019639123E+03  0.18027076504E+03  0.00000000000E+00 0.  1.
        -15    1    1    2    0    0 -0.28816179815E+01  0.60056929376E+01  0.30136990926E+02  0.30915498070E+02  0.17770000000E+01 0. -1.
         15    1    1    2    0    0  0.62149678447E+00  0.11407306221E+01 -0.11954442734E+01  0.25048633927E+01  0.17770000000E+01 0.  1.
</event>
<event>
 6    1  0.1196607E-002  0.1825549E+03  0.7546771E-02  0.1068411E+00
        -11   -1    0    0    0    0  0.00000000000E+00  0.00000000000E+00  0.18250000000E+03  0.18250000000E+03  0.00000000000E+00 0.  1.
         11   -1    0    0    0    0 -0.00000000000E+00 -0.00000000000E+00 -0.18250000000E+03  0.18250000000E+03  0.00000000000E+00 0. -1.
        -11    1    1    2    0    0  0.25144362630E+00  0.56353156670E+00  0.31601984765E+02  0.31608008998E+02  0.00000000000E+00 0.  1.
         11    1    1    2    0    0 -0.40174569883E+01 -0.18749816929E+01 -0.18239124577E+03  0.18244512065E+03  0.00000000000E+00 0. -1.
        -15    1    1    2    0    0  0.20988139755E+01 -0.14900981535E+01  0.59538084115E+02  0.59620186193E+02  0.17770000000E+01 0. -1.
         15    1    1    2    0    0  0.16671993866E+01  0.28015482798E+01  0.91251176889E+02  0.91326684157E+02  0.17770000000E+01 0.  1.
</event>
<event>
 6    1  0.1196607E-002  0.1664480E+03  0.7546771E-02  0.1082002E+00
        -11   -1    0    0    0    0  0.00000000000E+00  0.00000000000E+00  0.18250000000E+03  0.18250000000E+03  0.00000000000E+00 0. -1.
         11   -1    0    0    0    0 -0.00000000000E+00 -0.00000000000E+00 -0.18250000000E+03  0.18250000000E+03  0.00000000000E+00 0.  1.
        -11    1    1    2    0    0  0.38932010398E+01 -0.66498759866E+01  0.16386530797E+03  0.16404638680E+03  0.00000000000E+00 0. -1.
         11    1    1    2    0    0  0.44864387686E+01  0.17383090634E+00 -0.16899790475E+03  0.16905753506E+03  0.00000000000E+00 0.  1.
        -15    1    1    2    0    0 -0.74158791737E+01  0.59980498679E+00 -0.11685561749E+02  0.13966571244E+02  0.17770000000E+01 0.  1.
         15    1    1    2    0    0 -0.96376063466E+00  0.58762400934E+01  0.16818158528E+02  0.17929506894E+02  0.17770000000E+01 0. -1.
</event>
<event>
 6    1  0.1196607E-002  0.1934045E+03  0.7546771E-02  0.1060092E+00
        -11   -1    0    0    0    0  0.00000000000E+00  0.00000000000E+00  0.18250000000E+03  0.18250000000E+03  0.00000000000E+00 0. -1.
         11   -1    0    0    0    0 -0.00000000000E+00 -0.00000000000E+00 -0.18250000000E+03  0.18250000000E+03  0.00000000000E+00 0. -1.
        -11    1    1    2    0    0  0.14450997565E+02  0.18044785347E+01  0.12212557934E+03  0.12299083138E+03  0.00000000000E+00 0. -1.
         11    1    1    2    0    0 -0.37236980763E+01  0.29542301762E+01 -0.17152962824E+03  0.17159547421E+03  0.00000000000E+00 0. -1.
        -15    1    1    2    0    0  0.51597005779E+00 -0.11823461725E+02 -0.60180755932E+01  0.13395351250E+02  0.17770000000E+01 0.  1.
         15    1    1    2    0    0 -0.11243269546E+02  0.70647530143E+01  0.55422124491E+02  0.57018343165E+02  0.17770000000E+01 0. -1.
</event>
<event>
 6    1  0.1196607E-002  0.1827156E+03  0.7546771E-02  0.1068283E+00
        -11   -1    0    0    0    0  0.00000000000E+00  0.00000000000E+00  0.18250000000E+03  0.18250000000E+03  0.00000000000E+00 0.  1.
         11   -1    0    0    0    0 -0.00000000000E+00 -0.00000000000E+00 -0.18250000000E+03  0.18250000000E+03  0.00000000000E+00 0. -1.
        -11    1    1    2    0    0 -0.27818207200E+00  0.10402357771E+01  0.63489412973E+02  0.63498543569E+02  0.00000000000E+00 0.  1.
         11    1    1    2    0    0  0.33034402740E+01 -0.12518954864E+01 -0.18225014881E+03  0.18228438414E+03  0.00000000000E+00 0. -1.
        -15    1    1    2    0    0  0.22411379824E+01  0.89917903402E-01  0.80874642328E+02  0.80925251222E+02  0.17770000000E+01 0.  1.
         15    1    1    2    0    0 -0.52663961845E+01  0.12174180589E+00  0.37886093513E+02  0.38291821066E+02  0.17770000000E+01 0.  1.
</event>
<event>
 6    1  0.1196607E-002  0.1826508E+03  0.7546771E-02  0.1068335E+00
        -11   -1    0    0    0    0  0.00000000000E+00  0.00000000000E+00  0.18250000000E+03  0.18250000000E+03  0.00000000000E+00 0.  1.
         11   -1    0    0    0    0 -0.00000000000E+00 -0.00000000000E+00 -0.18250000000E+03  0.18250000000E+03  0.00000000000E+00 0.  1.
        -11    1    1    2    0    0 -0.85003536060E+00 -0.42127472743E+01  0.18229851150E+03  0.18234916258E+03  0.00000000000E+00 0.  1.
         11    1    1    2    0    0 -0.28323010133E+01 -0.84932586160E+00 -0.46348637818E+02  0.46442862865E+02  0.00000000000E+00 0.  1.
        -15    1    1    2    0    0  0.19823332988E+01  0.35890111889E+01 -0.11168421018E+03  0.11177357102E+03  0.17770000000E+01 0.  1.
         15    1    1    2    0    0  0.17000030751E+01  0.14730619470E+01 -0.24265663500E+02  0.24434403534E+02  0.17770000000E+01 0. -1.
</event>
<event>
 6    1  0.1196607E-002  0.1887208E+03  0.7546771E-02  0.1063608E+00
        -11   -1    0    0    0    0  0.00000000000E+00  0.00000000000E+00  0.18250000000E+03  0.18250000000E+03  0.00000000000E+00 0.  1.
         11   -1    0    0    0    0 -0.00000000000E+00 -0.00000000000E+00 -0.18250000000E+03  0.18250000000E+03  0.00000000000E+00 0.  1.
        -11    1    1    2    0    0 -0.16885756019E+01 -0.35893016654E+01  0.17623457930E+03  0.17627921407E+03  0.00000000000E+00 0.  1.
         11    1    1    2    0    0  0.24918997277E+01 -0.16399604792E+01 -0.11641435888E+03  0.11645257399E+03  0.00000000000E+00 0.  1.
        -15    1    1    2    0    0 -0.34624300381E+01  0.83995155954E+01 -0.64855574862E+02  0.65512926997E+02  0.17770000000E+01 0.  1.
         15    1    1    2    0    0  0.26591059123E+01 -0.31702534509E+01  0.50353544507E+01  0.67552849414E+01  0.17770000000E+01 0. -1.
</event>
<event>
 6    1  0.1196607E-002  0.1864892E+03  0.7546771E-02  0.1065323E+00
        -11   -1    0    0    0    0  0.00000000000E+00  0.00000000000E+00  0.18250000000E+03  0.18250000000E+03  0.00000000000E+00 0. -1.
         11   -1    0    0    0    0 -0.00000000000E+00 -0.00000000000E+00 -0.18250000000E+03  0.18250000000E+03  0.00000000000E+00 0. -1.
        -11    1    1    2    0    0  0.18386788279E+01  0.24313687298E+01  0.17848474766E+03  0.17851077682E+03  0.00000000000E+00 0. -1.
         11    1    1    2    0    0 -0.48990088311E+01  0.12818182143E+01 -0.16809871241E+03  0.16817496977E+03  0.00000000000E+00 0. -1.
        -15    1    1    2    0    0 -0.12300908266E+01 -0.34966173418E+01  0.23648414922E+01  0.47423264924E+01  0.17770000000E+01 0.  1.
         15    1    1    2    0    0  0.42904208297E+01 -0.21656960232E+00 -0.12750876748E+02  0.13571926913E+02  0.17770000000E+01 0. -1.
</event>
<event>
 6    1  0.1196607E-002  0.1847883E+03  0.7546771E-02  0.1066648E+00
        -11   -1    0    0    0    0  0.00000000000E+00  0.00000000000E+00  0.18250000000E+03  0.18250000000E+03  0.00000000000E+00 0. -1.
         11   -1    0    0    0    0 -0.00000000000E+00 -0.00000000000E+00 -0.18250000000E+03  0.18250000000E+03  0.00000000000E+00 0. -1.
        -11    1    1    2    0    0  0.24700507922E+01  0.49332253491E+01  0.18012722229E+03  0.18021169239E+03  0.00000000000E+00 0. -1.
         11    1    1    2    0    0  0.71634685712E+01 -0.42102728348E+01 -0.14002049122E+03  0.14026681590E+03  0.00000000000E+00 0. -1.
        -15    1    1    2    0    0 -0.26360822209E+01  0.76422836424E+01 -0.17501092429E+02  0.19359736412E+02  0.17770000000E+01 0. -1.
         15    1    1    2    0    0 -0.69974371425E+01 -0.83652361567E+01 -0.22605638641E+02  0.25161755302E+02  0.17770000000E+01 0.  1.
</event>
<event>
 6    1  0.1196607E-002  0.2029859E+03  0.7546771E-02  0.1053225E+00
        -11   -1    0    0    0    0  0.00000000000E+00  0.00000000000E+00  0.18250000000E+03  0.18250000000E+03  0.00000000000E+00 0.  1.
         11   -1    0    0    0    0 -0.00000000000E+00 -0.00000000000E+00 -0.18250000000E+03  0.18250000000E+03  0.00000000000E+00 0. -1.
        -11    1    1    2    0    0 -0.28052961394E+02 -0.13796343413E+02  0.15896936044E+03  0.16201408980E+03  0.00000000000E+00 0.  1.
         11    1    1    2    0    0 -0.63752523619E+01  0.21905151849E+02 -0.10003040687E+03  0.10259903420E+03  0.00000000000E+00 0. -1.
        -15    1    1    2    0    0  0.50260606429E+02 -0.91485047810E+01 -0.14450898622E+02  0.53120710634E+02  0.17770000000E+01 0.  1.
         15    1    1    2    0    0 -0.15832392673E+02  0.10396963457E+01 -0.44488054951E+02  0.47266165368E+02  0.17770000000E+01 0. -1.
</event>
<event>
 6    1  0.1196607E-002  0.1830106E+03  0.7546771E-02  0.1068049E+00
        -11   -1    0    0    0    0  0.00000000000E+00  0.00000000000E+00  0.18250000000E+03  0.18250000000E+03  0.00000000000E+00 0. -1.
         11   -1    0    0    0    0 -0.00000000000E+00 -0.00000000000E+00 -0.18250000000E+03  0.18250000000E+03  0.00000000000E+00 0. -1.
        -11    1    1    2    0    0 -0.21934807397E+01 -0.15477049724E+01  0.18196960947E+03  0.18198941046E+03  0.00000000000E+00 0. -1.
         11    1    1    2    0    0 -0.11927023699E+01  0.35273842631E+01 -0.16066660153E+03  0.16070974403E+03  0.00000000000E+00 0. -1.
        -15    1    1    2    0    0  0.98765676163E+00 -0.28316102821E+01 -0.10790208457E+02  0.11339303780E+02  0.17770000000E+01 0.  1.
         15    1    1    2    0    0  0.23985263481E+01  0.85193099145E+00 -0.10512799482E+02  0.10961541726E+02  0.17770000000E+01 0. -1.
</event>
<event>
 6    1  0.1196607E-002  0.1828626E+03  0.7546771E-02  0.1068167E+00
        -11   -1    0    0    0    0  0.00000000000E+00  0.00000000000E+00  0.18250000000E+03  0.18250000000E+03  0.00000000000E+00 0.  1.
         11   -1    0    0    0    0 -0.00000000000E+00 -0.00000000000E+00 -0.18250000000E+03  0.18250000000E+03  0.00000000000E+00 0. -1.
        -11    1    1    2    0    0 -0.69678138404E+01  0.29541431649E+00  0.18200386355E+03  0.18213743175E+03  0.00000000000E+00 0.  1.
         11    1    1    2    0    0  0.94271647824E+00 -0.60139999939E+00 -0.61703133467E+02  0.61713264992E+02  0.00000000000E+00 0. -1.
        -15    1    1    2    0    0  0.24782644137E+01 -0.20104112863E+01 -0.10727633768E+03  0.10733850149E+03  0.17770000000E+01 0. -1.
         15    1    1    2    0    0  0.35468329485E+01  0.23163969692E+01 -0.13024392402E+02  0.13810801762E+02  0.17770000000E+01 0.  1.
</event>
<event>
 6    1  0.1196607E-002  0.1827484E+03  0.7546771E-02  0.1068257E+00
        -11   -1    0    0    0    0  0.00000000000E+00  0.00000000000E+00  0.18250000000E+03  0.18250000000E+03  0.00000000000E+00 0.  1.
         11   -1    0    0    0    0 -0.00000000000E+00 -0.00000000000E+00 -0.18250000000E+03  0.18250000000E+03  0.00000000000E+00 0.  1.
        -11    1    1    2    0    0 -0.22682687703E+01 -0.11464957273E+01  0.11623442022E+03  0.11626220340E+03  0.00000000000E+00 0.  1.
         11    1    1    2    0    0 -0.15926111124E+01 -0.29430593885E+01 -0.18222087293E+03  0.18225159682E+03  0.00000000000E+00 0.  1.
        -15    1    1    2    0    0 -0.72634823390E+00  0.40167405996E+00  0.18391047742E+02  0.18495331569E+02  0.17770000000E+01 0. -1.
         15    1    1    2    0    0  0.45872281166E+01  0.36878810559E+01  0.47595404975E+02  0.47990868217E+02  0.17770000000E+01 0.  1.
</event>
<event>
 6    1  0.1196607E-002  0.1874913E+03  0.7546771E-02  0.1064550E+00
        -11   -1    0    0    0    0  0.00000000000E+00  0.00000000000E+00  0.18250000000E+03  0.18250000000E+03  0.00000000000E+00 0.  1.
         11   -1    0    0    0    0 -0.00000000000E+00 -0.00000000000E+00 -0.18250000000E+03  0.18250000000E+03  0.00000000000E+00 0. -1.
        -11    1    1    2    0    0  0.21579199268E+01 -0.28910027923E+01  0.17747202137E+03  0.17750868397E+03  0.00000000000E+00 0.  1.
         11    1    1    2    0    0  0.35823621599E-02 -0.26527230183E+01 -0.16899726788E+03  0.16901808632E+03  0.00000000000E+00 0. -1.
        -15    1    1    2    0    0 -0.15304425976E+01  0.65824424909E+01 -0.12264037588E+02  0.14115068213E+02  0.17770000000E+01 0. -1.
         15    1    1    2    0    0 -0.63105969134E+00 -0.10387166803E+01  0.37892841006E+01  0.43581615012E+01  0.17770000000E+01 0. -1.
</event>
<event>
 6    1  0.1196607E-002  0.1881407E+03  0.7546771E-02  0.1064051E+00
        -11   -1    0    0    0    0  0.00000000000E+00  0.00000000000E+00  0.18250000000E+03  0.18250000000E+03  0.00000000000E+00 0.  1.
         11   -1    0    0    0    0 -0.00000000000E+00 -0.00000000000E+00 -0.18250000000E+03  0.18250000000E+03  0.00000000000E+00 0.  1.
        -11    1    1    2    0    0  0.17792446261E-01 -0.11669654150E+01  0.65213901434E+02  0.65224344114E+02  0.00000000000E+00 0.  1.
         11    1    1    2    0    0  0.27256099490E+01  0.27006088906E+00 -0.17683810230E+03  0.17685931219E+03  0.00000000000E+00 0.  1.
        -15    1    1    2    0    0 -0.19978228404E+02  0.57564138648E+01  0.17936675948E+02  0.27516322135E+02  0.17770000000E+01 0. -1.
         15    1    1    2    0    0  0.17234826009E+02 -0.48595093389E+01  0.93687524922E+02  0.95400021560E+02  0.17770000000E+01 0.  1.
</event>
<event>
 6    1  0.1196607E-002  0.1829413E+03  0.7546771E-02  0.1068104E+00
        -11   -1    0    0    0    0  0.00000000000E+00  0.00000000000E+00  0.18250000000E+03  0.18250000000E+03  0.00000000000E+00 0.  1.
         11   -1    0    0    0    0 -0.00000000000E+00 -0.00000000000E+00 -0.18250000000E+03  0.18250000000E+03  0.00000000000E+00 0. -1.
        -11    1    1    2    0    0 -0.19499960960E+01 -0.24864705547E+01  0.18203127464E+03  0.18205869923E+03  0.00000000000E+00 0.  1.
         11    1    1    2    0    0 -0.91824576506E+00  0.20542755596E+01 -0.14872862240E+03  0.14874564312E+03  0.00000000000E+00 0. -1.
        -15    1    1    2    0    0 -0.10328075413E+00 -0.16707341945E+01 -0.22937220779E+02  0.23066769296E+02  0.17770000000E+01 0. -1.
         15    1    1    2    0    0  0.29715226152E+01  0.21029291896E+01 -0.10365431453E+02  0.11128888356E+02  0.17770000000E+01 0. -1.
</event>
<event>
 6    1  0.1196607E-002  0.1877349E+03  0.7546771E-02  0.1064363E+00
        -11   -1    0    0    0    0  0.00000000000E+00  0.00000000000E+00  0.18250000000E+03  0.18250000000E+03  0.00000000000E+00 0. -1.
         11   -1    0    0    0    0 -0.00000000000E+00 -0.00000000000E+00 -0.18250000000E+03  0.18250000000E+03  0.00000000000E+00 0. -1.
        -11    1    1    2    0    0 -0.23035672391E+01 -0.17990309387E+00  0.13559553227E+03  0.13561521728E+03  0.00000000000E+00 0. -1.
         11    1    1    2    0    0  0.14966923682E+02 -0.14064351440E+02 -0.17607127787E+03  0.17726508308E+03  0.00000000000E+00 0. -1.
        -15    1    1    2    0    0  0.11255473602E+01 -0.13778189013E+01 -0.29767547117E+01  0.38966702963E+01  0.17770000000E+01 0. -1.
         15    1    1    2    0    0 -0.13788903803E+02  0.15622073435E+02  0.43452500320E+02  0.48223029349E+02  0.17770000000E+01 0.  1.
</event>
<event>
 6    1  0.1196607E-002  0.1835011E+03  0.7546771E-02  0.1067661E+00
        -11   -1    0    0    0    0  0.00000000000E+00  0.00000000000E+00  0.18250000000E+03  0.18250000000E+03  0.00000000000E+00 0. -1.
         11   -1    0    0    0    0 -0.00000000000E+00 -0.00000000000E+00 -0.18250000000E+03  0.18250000000E+03  0.00000000000E+00 0. -1.
        -11    1    1    2    0    0  0.40553123909E+01 -0.27373197665E+01  0.18143298545E+03  0.18149894404E+03  0.00000000000E+00 0. -1.
         11    1    1    2    0    0  0.25636516498E+01 -0.16772676295E+01 -0.15206566394E+03  0.15209652095E+03  0.00000000000E+00 0. -1.
        -15    1    1    2    0    0 -0.50569216350E+01  0.61744463224E+01 -0.21820685385E+02  0.23302280650E+02  0.17770000000E+01 0.  1.
         15    1    1    2    0    0 -0.15620424057E+01 -0.17598589264E+01 -0.75466361224E+01  0.81022543580E+01  0.17770000000E+01 0. -1.
</event>
<event>
 6    1  0.1196607E-002  0.1847280E+03  0.7546771E-02  0.1066695E+00
        -11   -1    0    0    0    0  0.00000000000E+00  0.00000000000E+00  0.18250000000E+03  0.18250000000E+03  0.00000000000E+00 0.  1.
         11   -1    0    0    0    0 -0.00000000000E+00 -0.00000000000E+00 -0.18250000000E+03  0.18250000000E+03  0.00000000000E+00 0. -1.
        -11    1    1    2    0    0 -0.59581699050E+01  0.37965720263E+01  0.18013345708E+03  0.18027195042E+03  0.00000000000E+00 0.  1.
         11    1    1    2    0    0 -0.28057137855E+00 -0.23807321725E+01 -0.17539629156E+03  0.17541267257E+03  0.00000000000E+00 0. -1.
        -15    1    1    2    0    0  0.31913667843E+01 -0.22714499281E+01 -0.18727481427E+01  0.46913986543E+01  0.17770000000E+01 0.  1.
         15    1    1    2    0    0  0.30473744992E+01  0.85561007420E+00 -0.28644173731E+01  0.46239783547E+01  0.17770000000E+01 0. -1.
</event>
<event>
 6    1  0.1196607E-002  0.1850720E+03  0.7546771E-02  0.1066426E+00
        -11   -1    0    0    0    0  0.00000000000E+00  0.00000000000E+00  0.18250000000E+03  0.18250000000E+03  0.00000000000E+00 0. -1.
         11   -1    0    0    0    0 -0.00000000000E+00 -0.00000000000E+00 -0.18250000000E+03  0.18250000000E+03  0.00000000000E+00 0.  1.
        -11    1    1    2    0    0  0.14972156473E+01 -0.22173327134E+01  0.48720547868E+02  0.48793954580E+02  0.00000000000E+00 0. -1.
         11    1    1    2    0    0  0.34669871345E+01 -0.13901008752E+01 -0.17988927122E+03  0.17992804751E+03  0.00000000000E+00 0.  1.
        -15    1    1    2    0    0  0.46706373013E+00 -0.27040833061E+00 -0.21154747328E+01  0.28150011614E+01  0.17770000000E+01 0.  1.
         15    1    1    2    0    0 -0.54312665120E+01  0.38778419192E+01  0.13328419808E+03  0.13346299675E+03  0.17770000000E+01 0. -1.
</event>
<event>
 6    1  0.1196607E-002  0.1834175E+03  0.7546771E-02  0.1067727E+00
        -11   -1    0    0    0    0  0.00000000000E+00  0.00000000000E+00  0.18250000000E+03  0.18250000000E+03  0.00000000000E+00 0. -1.
         11   -1    0    0    0    0 -0.00000000000E+00 -0.00000000000E+00 -0.18250000000E+03  0.18250000000E+03  0.00000000000E+00 0.  1.
        -11    1    1    2    0    0 -0.21163954262E+00 -0.17054279098E+01  0.11515794020E+03  0.11517076221E+03  0.00000000000E+00 0. -1.
         11    1    1    2    0    0 -0.49358107307E+01 -0.66992103875E+00 -0.18151411881E+03  0.18158245056E+03  0.00000000000E+00 0.  1.
        -15    1    1    2    0    0  0.90224641183E+01  0.20499253941E+00  0.57012624609E+02  0.57749839606E+02  0.17770000000E+01 0. -1.
         15    1    1    2    0    0 -0.38750138450E+01  0.21703564091E+01  0.93435540011E+01  0.10496947633E+02  0.17770000000E+01 0.  1.
</event>
<event>
 6    1  0.1196607E-002  0.1826735E+03  0.7546771E-02  0.1068317E+00
        -11   -1    0    0    0    0  0.00000000000E+00  0.00000000000E+00  0.18250000000E+03  0.18250000000E+03  0.00000000000E+00 0.  1.
         11   -1    0    0    0    0 -0.00000000000E+00 -0.00000000000E+00 -0.18250000000E+03  0.18250000000E+03  0.00000000000E+00 0. -1.
        -11    1    1    2    0    0 -0.44995144634E+00  0.32287988062E+00  0.28816287980E+02  0.28821609266E+02  0.00000000000E+00 0.  1.
         11    1    1    2    0    0 -0.14743023470E+01 -0.19728052820E+01 -0.18230990913E+03  0.18232654358E+03  0.00000000000E+00 0. -1.
        -15    1    1    2    0    0 -0.10445122893E+01  0.10584227945E+01  0.83430117797E+01  0.86588012618E+01  0.17770000000E+01 0. -1.
         15    1    1    2    0    0  0.29687660826E+01  0.59150260692E+00  0.14515060937E+03  0.14519304589E+03  0.17770000000E+01 0.  1.
</event>
<event>
 6    1  0.1196607E-002  0.1873162E+03  0.7546771E-02  0.1064684E+00
        -11   -1    0    0    0    0  0.00000000000E+00  0.00000000000E+00  0.18250000000E+03  0.18250000000E+03  0.00000000000E+00 0. -1.
         11   -1    0    0    0    0 -0.00000000000E+00 -0.00000000000E+00 -0.18250000000E+03  0.18250000000E+03  0.00000000000E+00 0.  1.
        -11    1    1    2    0    0  0.11278637566E+02 -0.14912703040E+01  0.17731919728E+03  0.17768379013E+03  0.00000000000E+00 0. -1.
         11    1    1    2    0    0 -0.12263984557E+02  0.25585359512E+01 -0.16742832593E+03  0.16789638396E+03  0.00000000000E+00 0.  1.
        -15    1    1    2    0    0  0.40082738470E+01  0.57252216731E+00 -0.13451911927E+02  0.14160003685E+02  0.17770000000E+01 0.  1.
         15    1    1    2    0    0 -0.30229268565E+01 -0.16397878145E+01  0.35610405785E+01  0.52598222268E+01  0.17770000000E+01 0. -1.
</event>
<event>
 6    1  0.1196607E-002  0.1829665E+03  0.7546771E-02  0.1068084E+00
        -11   -1    0    0    0    0  0.00000000000E+00  0.00000000000E+00  0.18250000000E+03  0.18250000000E+03  0.00000000000E+00 0.  1.
         11   -1    0    0    0    0 -0.00000000000E+00 -0.00000000000E+00 -0.18250000000E+03  0.18250000000E+03  0.00000000000E+00 0. -1.
        -11    1    1    2    0    0  0.31857861819E+01  0.92951912200E+00  0.70420739000E+02  0.70498891627E+02  0.00000000000E+00 0.  1.
         11    1    1    2    0    0 -0.34466749225E+01  0.96059235318E+00 -0.18199836588E+03  0.18203353397E+03  0.00000000000E+00 0. -1.
        -15    1    1    2    0    0  0.65633397101E+01 -0.28933638064E+01  0.65664944079E+02  0.66079433958E+02  0.17770000000E+01 0.  1.
         15    1    1    2    0    0 -0.63024509695E+01  0.10032523313E+01  0.45912682799E+02  0.46388140449E+02  0.17770000000E+01 0. -1.
</event>
<event>
 6    1  0.1196607E-002  0.1829795E+03  0.7546771E-02  0.1068074E+00
        -11   -1    0    0    0    0  0.00000000000E+00  0.00000000000E+00  0.18250000000E+03  0.18250000000E+03  0.00000000000E+00 0.  1.
         11   -1    0    0    0    0 -0.00000000000E+00 -0.00000000000E+00 -0.18250000000E+03  0.18250000000E+03  0.00000000000E+00 0.  1.
        -11    1    1    2    0    0  0.31736419664E+01  0.17276003855E+01  0.12973645789E+03  0.12978676786E+03  0.00000000000E+00 0.  1.
         11    1    1    2    0    0 -0.32210699329E+01 -0.11242311573E+01 -0.18198848856E+03  0.18202046357E+03  0.00000000000E+00 0.  1.
        -15    1    1    2    0    0 -0.13128133970E+01  0.40493936965E+01  0.19630740438E+02  0.20165434968E+02  0.17770000000E+01 0. -1.
         15    1    1    2    0    0  0.13602413634E+01 -0.46527629247E+01  0.32621290239E+02  0.33027333608E+02  0.17770000000E+01 0.  1.
</event>
<event>
 6    1  0.1196607E-002  0.1825833E+03  0.7546771E-02  0.1068389E+00
        -11   -1    0    0    0    0  0.00000000000E+00  0.00000000000E+00  0.18250000000E+03  0.18250000000E+03  0.00000000000E+00 0.  1.
         11   -1    0    0    0    0 -0.00000000000E+00 -0.00000000000E+00 -0.18250000000E+03  0.18250000000E+03  0.00000000000E+00 0. -1.
        -11    1    1    2    0    0 -0.10575001378E+01 -0.22440718146E+01  0.18239984135E+03  0.18241671055E+03  0.00000000000E+00 0.  1.
         11    1    1    2    0    0 -0.11523787070E+01  0.12071719825E+01 -0.10054675688E+03  0.10056060641E+03  0.00000000000E+00 0. -1.
        -15    1    1    2    0    0  0.13995010831E+01  0.10625970263E+01 -0.22661776658E+02  0.22799157134E+02  0.17770000000E+01 0.  1.
         15    1    1    2    0    0  0.81037776164E+00 -0.25697194144E-01 -0.59191307804E+02  0.59223525908E+02  0.17770000000E+01 0. -1.
</event>
<event>
 6    1  0.1196607E-002  0.1866793E+03  0.7546771E-02  0.1065176E+00
        -11   -1    0    0    0    0  0.00000000000E+00  0.00000000000E+00  0.18250000000E+03  0.18250000000E+03  0.00000000000E+00 0. -1.
         11   -1    0    0    0    0 -0.00000000000E+00 -0.00000000000E+00 -0.18250000000E+03  0.18250000000E+03  0.00000000000E+00 0. -1.
        -11    1    1    2    0    0  0.17974669235E+01  0.47515550073E+01  0.17824828641E+03  0.17832066558E+03  0.00000000000E+00 0. -1.
         11    1    1    2    0    0 -0.20864926288E+01  0.73020335842E+00 -0.79454143082E+02  0.79484888510E+02  0.00000000000E+00 0. -1.
        -15    1    1    2    0    0 -0.74687550246E+01  0.63708035058E+00  0.18662158421E+00  0.77058892807E+01  0.17770000000E+01 0.  1.
         15    1    1    2    0    0  0.77577807299E+01 -0.61188387163E+01 -0.98980764914E+02  0.99488556634E+02  0.17770000000E+01 0. -1.
</event>
<event>
 6    1  0.1196607E-002  0.1703528E+03  0.7546771E-02  0.1078557E+00
        -11   -1    0    0    0    0  0.00000000000E+00  0.00000000000E+00  0.18250000000E+03  0.18250000000E+03  0.00000000000E+00 0.  1.
         11   -1    0    0    0    0 -0.00000000000E+00 -0.00000000000E+00 -0.18250000000E+03  0.18250000000E+03  0.00000000000E+00 0.  1.
        -11    1    1    2    0    0  0.33390067383E+01  0.21559507431E+00  0.17424047776E+03  0.17427260123E+03  0.00000000000E+00 0.  1.
         11    1    1    2    0    0  0.93071814725E+01 -0.14017714132E+01 -0.16649193816E+03  0.16675777062E+03  0.00000000000E+00 0.  1.
        -15    1    1    2    0    0 -0.32208834952E+01 -0.65445624869E-01  0.60724882156E+01  0.71000856156E+01  0.17770000000E+01 0. -1.
         15    1    1    2    0    0 -0.94253047156E+01  0.12516219637E+01 -0.13821027818E+02  0.16869542539E+02  0.17770000000E+01 0.  1.
</event>
<event>
 6    1  0.1196607E-002  0.1843127E+03  0.7546771E-02  0.1067021E+00
        -11   -1    0    0    0    0  0.00000000000E+00  0.00000000000E+00  0.18250000000E+03  0.18250000000E+03  0.00000000000E+00 0. -1.
         11   -1    0    0    0    0 -0.00000000000E+00 -0.00000000000E+00 -0.18250000000E+03  0.18250000000E+03  0.00000000000E+00 0.  1.
        -11    1    1    2    0    0  0.11482522936E+01  0.93017132590E+00  0.99494679660E+02  0.99505653019E+02  0.00000000000E+00 0. -1.
         11    1    1    2    0    0  0.44169981719E+01 -0.87072909917E+01 -0.18042334507E+03  0.18068732727E+03  0.00000000000E+00 0.  1.
        -15    1    1    2    0    0  0.48360806099E+01 -0.60002280524E+01  0.22122769021E+02  0.23493936463E+02  0.17770000000E+01 0.  1.
         15    1    1    2    0    0 -0.10401331075E+02  0.13777347718E+02  0.58805896390E+02  0.61313083249E+02  0.17770000000E+01 0. -1.
</event>
<event>
 6    1  0.1196607E-002  0.1864559E+03  0.7546771E-02  0.1065349E+00
        -11   -1    0    0    0    0  0.00000000000E+00  0.00000000000E+00  0.18250000000E+03  0.18250000000E+03  0.00000000000E+00 0. -1.
         11   -1    0    0    0    0 -0.00000000000E+00 -0.00000000000E+00 -0.18250000000E+03  0.18250000000E+03  0.00000000000E+00 0. -1.
        -11    1    1    2    0    0 -0.14986522795E+02 -0.14148678423E+01  0.12671611389E+03  0.12760709712E+03  0.00000000000E+00 0. -1.
         11    1    1    2    0    0  0.12093028674E+01 -0.74521599917E+01 -0.17838439389E+03  0.17854408163E+03  0.00000000000E+00 0. -1.
        -15    1    1    2    0    0  0.46486668352E+01  0.15619282921E+02  0.26172929159E+02  0.30882876357E+02  0.17770000000E+01 0.  1.
         15    1    1    2    0    0  0.91285530922E+01 -0.67522550870E+01  0.25495350844E+02  0.27965944897E+02  0.17770000000E+01 0. -1.
</event>
<event>
 6    1  0.1196607E-002  0.1621940E+03  0.7546771E-02  0.1085876E+00
        -11   -1    0    0    0    0  0.00000000000E+00  0.00000000000E+00  0.18250000000E+03  0.18250000000E+03  0.00000000000E+00 0.  1.
         11   -1    0    0    0    0 -0.00000000000E+00 -0.00000000000E+00 -0.18250000000E+03  0.18250000000E+03  0.00000000000E+00 0.  1.
        -11    1    1    2    0    0  0.18818060503E+02 -0.35827456115E+01  0.17029967991E+03  0.17137367489E+03  0.00000000000E+00 0.  1.
         11    1    1    2    0    0  0.82788464946E+00  0.94424985837E+00 -0.54052848818E+02  0.54067434433E+02  0.00000000000E+00 0.  1.
        -15    1    1    2    0    0  0.14721285284E+02 -0.27410441520E+02 -0.40520975737E+02  0.51119035089E+02  0.17770000000E+01 0. -1.
         15    1    1    2    0    0 -0.34367230437E+02  0.30048937273E+02 -0.75725855353E+02  0.88439855592E+02  0.17770000000E+01 0.  1.
</event>
<event>
 6    1  0.1196607E-002  0.1827310E+03  0.7546771E-02  0.1068271E+00
        -11   -1    0    0    0    0  0.00000000000E+00  0.00000000000E+00  0.18250000000E+03  0.18250000000E+03  0.00000000000E+00 0.  1.
         11   -1    0    0    0    0 -0.00000000000E+00 -0.00000000000E+00 -0.18250000000E+03  0.18250000000E+03  0.00000000000E+00 0.  1.
        -11    1    1    2    0    0  0.54245013047E+00 -0.22081015969E+01  0.90914982954E+02  0.90943411472E+02  0.00000000000E+00 0.  1.
         11    1    1    2    0    0 -0.24825034533E+01 -0.88066961667E+00 -0.18224992075E+03  0.18226895516E+03  0.00000000000E+00 0.  1.
        -15    1    1    2    0    0  0.61978537127E+00  0.38186285354E+01  0.83618598992E+02  0.83726900600E+02  0.17770000000E+01 0.  1.
         15    1    1    2    0    0  0.13202679516E+01 -0.72985732179E+00  0.77163388047E+01  0.80607327659E+01  0.17770000000E+01 0. -1.
</event>
<event>
 6    1  0.1196607E-002  0.1838566E+03  0.7546771E-02  0.1067380E+00
        -11   -1    0    0    0    0  0.00000000000E+00  0.00000000000E+00  0.18250000000E+03  0.18250000000E+03  0.00000000000E+00 0.  1.
         11   -1    0    0    0    0 -0.00000000000E+00 -0.00000000000E+00 -0.18250000000E+03  0.18250000000E+03  0.00000000000E+00 0.  1.
        -11    1    1    2    0    0  0.22769133519E+01 -0.36731498644E+01  0.18109180955E+03  0.18114336822E+03  0.00000000000E+00 0.  1.
         11    1    1    2    0    0  0.38290224174E+00 -0.21491219681E+01 -0.28588834260E+02  0.28672055798E+02  0.00000000000E+00 0.  1.
        -15    1    1    2    0    0 -0.82607390401E+00  0.10525953011E+01  0.33618595509E+00  0.22496899696E+01  0.17770000000E+01 0. -1.
         15    1    1    2    0    0 -0.18337416896E+01  0.47696765314E+01 -0.15283916124E+03  0.15293488602E+03  0.17770000000E+01 0.  1.
</event>
<event>
 6    1  0.1196607E-002  0.1568847E+03  0.7546771E-02  0.1090896E+00
        -11   -1    0    0    0    0  0.00000000000E+00  0.00000000000E+00  0.18250000000E+03  0.18250000000E+03  0.00000000000E+00 0. -1.
         11   -1    0    0    0    0 -0.00000000000E+00 -0.00000000000E+00 -0.18250000000E+03  0.18250000000E+03  0.00000000000E+00 0.  1.
        -11    1    1    2    0    0  0.96023363023E+00  0.21711346013E+01  0.81491388780E+01  0.84878936453E+01  0.00000000000E+00 0. -1.
         11    1    1    2    0    0 -0.21022202868E+01  0.97103936901E+00 -0.14157348773E+03  0.14159242450E+03  0.00000000000E+00 0.  1.
        -15    1    1    2    0    0 -0.25387075674E+01  0.75723620597E+01 -0.40145823247E+02  0.40971094157E+02  0.17770000000E+01 0.  1.
         15    1    1    2    0    0  0.36806942240E+01 -0.10714536030E+02  0.17357017210E+03  0.17394858770E+03  0.17770000000E+01 0. -1.
</event>
<event>
 6    1  0.1196607E-002  0.1641717E+03  0.7546771E-02  0.1084059E+00
        -11   -1    0    0    0    0  0.00000000000E+00  0.00000000000E+00  0.18250000000E+03  0.18250000000E+03  0.00000000000E+00 0.  1.
         11   -1    0    0    0    0 -0.00000000000E+00 -0.00000000000E+00 -0.18250000000E+03  0.18250000000E+03  0.00000000000E+00 0. -1.
        -11    1    1    2    0    0  0.63941707258E+01  0.55755943420E+01  0.16481102843E+03  0.16502923306E+03  0.00000000000E+00 0.  1.
         11    1    1    2    0    0  0.10297817428E+02 -0.31493293438E+01 -0.16339561492E+03  0.16375008487E+03  0.00000000000E+00 0. -1.
        -15    1    1    2    0    0  0.72941633335E+01  0.10676730366E+01 -0.80175776985E+01  0.11035579985E+02  0.17770000000E+01 0.  1.
         15    1    1    2    0    0 -0.23986151488E+02 -0.34939380348E+01  0.66021641888E+01  0.25185102087E+02  0.17770000000E+01 0. -1.
</event>
<event>
 6    1  0.1196607E-002  0.1627367E+03  0.7546771E-02  0.1085374E+00
        -11   -1    0    0    0    0  0.00000000000E+00  0.00000000000E+00  0.18250000000E+03  0.18250000000E+03  0.00000000000E+00 0.  1.
         11   -1    0    0    0    0 -0.00000000000E+00 -0.00000000000E+00 -0.18250000000E+03  0.18250000000E+03  0.00000000000E+00 0.  1.
        -11    1    1    2    0    0 -0.64829176235E+01  0.76568057734E+00  0.16316032555E+03  0.16329086417E+03  0.00000000000E+00 0.  1.
         11    1    1    2    0    0  0.33046795373E+01  0.20750400958E+01 -0.16216504194E+03  0.16221198330E+03  0.00000000000E+00 0.  1.
        -15    1    1    2    0    0 -0.35953602253E+01 -0.92365045800E+01  0.16653735004E+02  0.19461352743E+02  0.17770000000E+01 0. -1.
         15    1    1    2    0    0  0.67735983115E+01  0.63957839069E+01 -0.17649018619E+02  0.20035799786E+02  0.17770000000E+01 0.  1.
</event>
<event>
 6    1  0.1196607E-002  0.1829685E+03  0.7546771E-02  0.1068082E+00
        -11   -1    0    0    0    0  0.00000000000E+00  0.00000000000E+00  0.18250000000E+03  0.18250000000E+03  0.00000000000E+00 0. -1.
         11   -1    0    0    0    0 -0.00000000000E+00 -0.00000000000E+00 -0.18250000000E+03  0.18250000000E+03  0.00000000000E+00 0. -1.
        -11    1    1    2    0    0 -0.11484100477E+01  0.81328892570E+00  0.74068976506E+02  0.74082343140E+02  0.00000000000E+00 0. -1.
         11    1    1    2    0    0  0.24391041339E+01 -0.33053548936E+00 -0.18201483139E+03  0.18203147346E+03  0.00000000000E+00 0. -1.
        -15    1    1    2    0    0  0.14369376491E+01  0.81902159969E+00  0.29005885373E+01  0.37824237006E+01  0.17770000000E+01 0.  1.
         15    1    1    2    0    0 -0.27276317353E+01 -0.13017750360E+01  0.10504526635E+03  0.10510375970E+03  0.17770000000E+01 0.  1.
</event>
<event>
 6    1  0.1196607E-002  0.1248110E+03  0.7546771E-02  0.1126724E+00
        -11   -1    0    0    0    0  0.00000000000E+00  0.00000000000E+00  0.18250000000E+03  0.18250000000E+03  0.00000000000E+00 0. -1.
         11   -1    0    0    0    0 -0.00000000000E+00 -0.00000000000E+00 -0.18250000000E+03  0.18250000000E+03  0.00000000000E+00 0.  1.
        -11    1    1    2    0    0  0.73407488349E+01 -0.13829521512E+02  0.20520096367E+02  0.25811172263E+02  0.00000000000E+00 0. -1.
         11    1    1    2    0    0 -0.83781276706E+00 -0.95805731510E+00 -0.81669122874E+02  0.81679039141E+02  0.00000000000E+00 0.  1.
        -15    1    1    2    0    0  0.11315125441E+03  0.52384522386E+02  0.29456288912E+02  0.12813342751E+03  0.17770000000E+01 0.  1.
         15    1    1    2    0    0 -0.11965419047E+03 -0.37596943559E+02  0.31692737595E+02  0.12937636109E+03  0.17770000000E+01 0. -1.
</event>
<event>
 6    1  0.1196607E-002  0.1853950E+03  0.7546771E-02  0.1066173E+00
        -11   -1    0    0    0    0  0.00000000000E+00  0.00000000000E+00  0.18250000000E+03  0.18250000000E+03  0.00000000000E+00 0. -1.
         11   -1    0    0    0    0 -0.00000000000E+00 -0.00000000000E+00 -0.18250000000E+03  0.18250000000E+03  0.00000000000E+00 0. -1.
        -11    1    1    2    0    0  0.14981230749E+01  0.36257428029E+01  0.17956215518E+03  0.17960500538E+03  0.00000000000E+00 0. -1.
         11    1    1    2    0    0 -0.11571896322E+01 -0.71286390070E+01 -0.16221036270E+03  0.16237105145E+03  0.00000000000E+00 0. -1.
        -15    1    1    2    0    0  0.24266149187E+01  0.11930107528E+00  0.16585408328E+01  0.34367396475E+01  0.17770000000E+01 0.  1.
         15    1    1    2    0    0 -0.27675483615E+01  0.33835951288E+01 -0.19010333321E+02  0.19587203525E+02  0.17770000000E+01 0. -1.
</event>
<event>
 6    1  0.1196607E-002  0.1849476E+03  0.7546771E-02  0.1066523E+00
        -11   -1    0    0    0    0  0.00000000000E+00  0.00000000000E+00  0.18250000000E+03  0.18250000000E+03  0.00000000000E+00 0. -1.
         11   -1    0    0    0    0 -0.00000000000E+00 -0.00000000000E+00 -0.18250000000E+03  0.18250000000E+03  0.00000000000E+00 0.  1.
        -11    1    1    2    0    0  0.55032404710E+01  0.49015081922E+01  0.17990155174E+03  0.18005243336E+03  0.00000000000E+00 0. -1.
         11    1    1    2    0    0 -0.29866952506E+01 -0.39277633608E+01 -0.16968319000E+03  0.16975491935E+03  0.00000000000E+00 0.  1.
        -15    1    1    2    0    0 -0.50203448004E+01 -0.21447459018E+01 -0.15863751466E+01  0.59563505609E+01  0.17770000000E+01 0.  1.
         15    1    1    2    0    0  0.25037995799E+01  0.11710010705E+01 -0.86319865938E+01  0.92362967362E+01  0.17770000000E+01 0. -1.
</event>
<event>
 6    1  0.1196607E-002  0.1744835E+03  0.7546771E-02  0.1075021E+00
        -11   -1    0    0    0    0  0.00000000000E+00  0.00000000000E+00  0.18250000000E+03  0.18250000000E+03  0.00000000000E+00 0.  1.
         11   -1    0    0    0    0 -0.00000000000E+00 -0.00000000000E+00 -0.18250000000E+03  0.18250000000E+03  0.00000000000E+00 0.  1.
        -11    1    1    2    0    0 -0.32626465964E+01 -0.28443946800E+01  0.17414400154E+03  0.17419778620E+03  0.00000000000E+00 0.  1.
         11    1    1    2    0    0  0.17431804442E+01 -0.16476265428E+01 -0.17478558845E+03  0.17480204599E+03  0.00000000000E+00 0.  1.
        -15    1    1    2    0    0 -0.19870123624E+00  0.64987224011E+01 -0.57499170396E+01  0.88595795606E+01  0.17770000000E+01 0. -1.
         15    1    1    2    0    0  0.17181673884E+01 -0.20067011784E+01  0.63915039503E+01  0.71405882489E+01  0.17770000000E+01 0.  1.
</event>
<event>
 6    1  0.1196607E-002  0.1850709E+03  0.7546771E-02  0.1066427E+00
        -11   -1    0    0    0    0  0.00000000000E+00  0.00000000000E+00  0.18250000000E+03  0.18250000000E+03  0.00000000000E+00 0. -1.
         11   -1    0    0    0    0 -0.00000000000E+00 -0.00000000000E+00 -0.18250000000E+03  0.18250000000E+03  0.00000000000E+00 0.  1.
        -11    1    1    2    0    0  0.28390382378E+01 -0.22915461395E+01  0.17989207526E+03  0.17992906953E+03  0.00000000000E+00 0. -1.
         11    1    1    2    0    0 -0.22943004353E+01  0.63442678992E+01 -0.16540157995E+03  0.16553910777E+03  0.00000000000E+00 0.  1.
        -15    1    1    2    0    0 -0.10187129873E+00  0.31821970925E+01 -0.50679264842E+00  0.36812122848E+01  0.17770000000E+01 0. -1.
         15    1    1    2    0    0 -0.44286650385E+00 -0.72349188522E+01 -0.13983702655E+02  0.15850610414E+02  0.17770000000E+01 0. -1.
</event>
<event>
 6    1  0.1196607E-002  0.1846506E+03  0.7546771E-02  0.1066756E+00
        -11   -1    0    0    0    0  0.00000000000E+00  0.00000000000E+00  0.18250000000E+03  0.18250000000E+03  0.00000000000E+00 0.  1.
         11   -1    0    0    0    0 -0.00000000000E+00 -0.00000000000E+00 -0.18250000000E+03  0.18250000000E+03  0.00000000000E+00 0. -1.
        -11    1    1    2    0    0 -0.68367151782E+01 -0.24815119671E+01  0.13347872162E+03  0.13367672835E+03  0.00000000000E+00 0.  1.
         11    1    1    2    0    0 -0.17104615322E+01 -0.21206150916E+01 -0.18032878342E+03  0.18034936323E+03  0.00000000000E+00 0. -1.
        -15    1    1    2    0    0  0.57977521889E+01  0.97942825674E+01  0.17240692412E+02  0.20735021227E+02  0.17770000000E+01 0.  1.
         15    1    1    2    0    0  0.27494245215E+01 -0.51921555088E+01  0.29609369388E+02  0.30238887192E+02  0.17770000000E+01 0. -1.
</event>
<event>
 6    1  0.1196607E-002  0.1854995E+03  0.7546771E-02  0.1066092E+00
        -11   -1    0    0    0    0  0.00000000000E+00  0.00000000000E+00  0.18250000000E+03  0.18250000000E+03  0.00000000000E+00 0.  1.
         11   -1    0    0    0    0 -0.00000000000E+00 -0.00000000000E+00 -0.18250000000E+03  0.18250000000E+03  0.00000000000E+00 0. -1.
        -11    1    1    2    0    0 -0.12418093478E+02  0.15647331829E+01  0.17906362547E+03  0.17950052758E+03  0.00000000000E+00 0.  1.
         11    1    1    2    0    0 -0.64699220375E+00 -0.18410353969E+01 -0.73600988345E+02  0.73626853087E+02  0.00000000000E+00 0. -1.
        -15    1    1    2    0    0  0.84723534522E+01  0.15720013802E+02 -0.77505799656E+02  0.79556309091E+02  0.17770000000E+01 0. -1.
         15    1    1    2    0    0  0.45927322300E+01 -0.15443711588E+02 -0.27956837472E+02  0.32316310238E+02  0.17770000000E+01 0.  1.
</event>
<event>
 6    1  0.1196607E-002  0.1829549E+03  0.7546771E-02  0.1068093E+00
        -11   -1    0    0    0    0  0.00000000000E+00  0.00000000000E+00  0.18250000000E+03  0.18250000000E+03  0.00000000000E+00 0. -1.
         11   -1    0    0    0    0 -0.00000000000E+00 -0.00000000000E+00 -0.18250000000E+03  0.18250000000E+03  0.00000000000E+00 0. -1.
        -11    1    1    2    0    0  0.13037078621E+01  0.12813868012E+01  0.12249432544E+03  0.12250796452E+03  0.00000000000E+00 0. -1.
         11    1    1    2    0    0  0.24087634737E+00  0.41583606077E+01 -0.18199745286E+03  0.18204511208E+03  0.00000000000E+00 0. -1.
        -15    1    1    2    0    0 -0.42384849654E+00 -0.22484277485E+01  0.47716416240E+01  0.55822367987E+01  0.17770000000E+01 0. -1.
         15    1    1    2    0    0 -0.11207357129E+01 -0.31913196604E+01  0.54731485795E+02  0.54864686603E+02  0.17770000000E+01 0.  1.
</event>
<event>
 6    1  0.1196607E-002  0.1829323E+03  0.7546771E-02  0.1068111E+00
        -11   -1    0    0    0    0  0.00000000000E+00  0.00000000000E+00  0.18250000000E+03  0.18250000000E+03  0.00000000000E+00 0. -1.
         11   -1    0    0    0    0 -0.00000000000E+00 -0.00000000000E+00 -0.18250000000E+03  0.18250000000E+03  0.00000000000E+00 0.  1.
        -11    1    1    2    0    0  0.19523307657E+01 -0.21339209546E+01  0.13040390149E+03  0.13043597179E+03  0.00000000000E+00 0. -1.
         11    1    1    2    0    0  0.56489402954E+00 -0.29420723207E+01 -0.18204305044E+03  0.18206769925E+03  0.00000000000E+00 0.  1.
        -15    1    1    2    0    0  0.36699580470E+00  0.53873168765E+01  0.38795219851E+02  0.39209497336E+02  0.17770000000E+01 0. -1.
         15    1    1    2    0    0 -0.28842205999E+01 -0.31132360119E+00  0.12843929100E+02  0.13286831623E+02  0.17770000000E+01 0.  1.
</event>
<event>
 6    1  0.1196607E-002  0.1843624E+03  0.7546771E-02  0.1066982E+00
        -11   -1    0    0    0    0  0.00000000000E+00  0.00000000000E+00  0.18250000000E+03  0.18250000000E+03  0.00000000000E+00 0.  1.
         11   -1    0    0    0    0 -0.00000000000E+00 -0.00000000000E+00 -0.18250000000E+03  0.18250000000E+03  0.00000000000E+00 0. -1.
        -11    1    1    2    0    0  0.44173038904E+00  0.24477163174E+01  0.18062044360E+03  0.18063756832E+03  0.00000000000E+00 0.  1.
         11    1    1    2    0    0 -0.24233820490E+01  0.16781933171E+01 -0.83288250814E+02  0.83340397389E+02  0.00000000000E+00 0. -1.
        -15    1    1    2    0    0  0.57975629597E+01 -0.24565718176E+01 -0.96108998052E+02  0.96331426424E+02  0.17770000000E+01 0. -1.
         15    1    1    2    0    0 -0.38159112998E+01 -0.16693378169E+01 -0.12231947384E+01  0.46906078671E+01  0.17770000000E+01 0.  1.
</event>
<event>
 6    1  0.1196607E-002  0.1848194E+03  0.7546771E-02  0.1066623E+00
        -11   -1    0    0    0    0  0.00000000000E+00  0.00000000000E+00  0.18250000000E+03  0.18250000000E+03  0.00000000000E+00 0.  1.
         11   -1    0    0    0    0 -0.00000000000E+00 -0.00000000000E+00 -0.18250000000E+03  0.18250000000E+03  0.00000000000E+00 0.  1.
        -11    1    1    2    0    0 -0.25321630004E+01  0.11240688391E+01  0.18015930815E+03  0.18018060854E+03  0.00000000000E+00 0.  1.
         11    1    1    2    0    0 -0.17163773248E+01 -0.83916034880E+00 -0.12132560480E+03  0.12134064662E+03  0.00000000000E+00 0.  1.
        -15    1    1    2    0    0  0.70732722435E+01 -0.48924818327E+01 -0.67271784307E+01  0.11062559259E+02  0.17770000000E+01 0.  1.
         15    1    1    2    0    0 -0.28247319184E+01  0.46075733424E+01 -0.52106524923E+02  0.52416185583E+02  0.17770000000E+01 0.  1.
</event>
<event>
 6    1  0.1196607E-002  0.1831956E+03  0.7546771E-02  0.1067902E+00
        -11   -1    0    0    0    0  0.00000000000E+00  0.00000000000E+00  0.18250000000E+03  0.18250000000E+03  0.00000000000E+00 0. -1.
         11   -1    0    0    0    0 -0.00000000000E+00 -0.00000000000E+00 -0.18250000000E+03  0.18250000000E+03  0.00000000000E+00 0.  1.
        -11    1    1    2    0    0 -0.55471158001E+01  0.16193057946E+01  0.97671600642E+02  0.97842394783E+02  0.00000000000E+00 0. -1.
         11    1    1    2    0    0 -0.31600793945E+01 -0.24836185510E+01 -0.18175999958E+03  0.18180443314E+03  0.00000000000E+00 0.  1.
        -15    1    1    2    0    0  0.11204328947E+02  0.65104432005E+00  0.59674672873E+02  0.60746894220E+02  0.17770000000E+01 0. -1.
         15    1    1    2    0    0 -0.24971337526E+01  0.21326843630E+00  0.24413726066E+02  0.24606277854E+02  0.17770000000E+01 0. -1.
</event>
<event>
 6    1  0.1196607E-002  0.1837717E+03  0.7546771E-02  0.1067447E+00
        -11   -1    0    0    0    0  0.00000000000E+00  0.00000000000E+00  0.18250000000E+03  0.18250000000E+03  0.00000000000E+00 0.  1.
         11   -1    0    0    0    0 -0.00000000000E+00 -0.00000000000E+00 -0.18250000000E+03  0.18250000000E+03  0.00000000000E+00 0.  1.
        -11    1    1    2    0    0 -0.35569744205E+01  0.16817633534E+01  0.18118554103E+03  0.18122825572E+03  0.00000000000E+00 0.  1.
         11    1    1    2    0    0  0.14275834156E+01  0.47678722148E+00 -0.76996340672E+02  0.77011049839E+02  0.00000000000E+00 0.  1.
        -15    1    1    2    0    0 -0.59935090038E+01 -0.12692964751E-01 -0.89702130090E+02  0.89919698526E+02  0.17770000000E+01 0.  1.
         15    1    1    2    0    0  0.81229000087E+01 -0.21458576101E+01 -0.14487070265E+02  0.16840995912E+02  0.17770000000E+01 0. -1.
</event>
<event>
 6    1  0.1196607E-002  0.1833103E+03  0.7546771E-02  0.1067812E+00
        -11   -1    0    0    0    0  0.00000000000E+00  0.00000000000E+00  0.18250000000E+03  0.18250000000E+03  0.00000000000E+00 0. -1.
         11   -1    0    0    0    0 -0.00000000000E+00 -0.00000000000E+00 -0.18250000000E+03  0.18250000000E+03  0.00000000000E+00 0.  1.
        -11    1    1    2    0    0 -0.31267791288E+00 -0.38479908327E+01  0.18164871689E+03  0.18168973870E+03  0.00000000000E+00 0. -1.
         11    1    1    2    0    0 -0.29214677532E+00  0.26473904980E+01 -0.17071284645E+03  0.17073362284E+03  0.00000000000E+00 0.  1.
        -15    1    1    2    0    0 -0.50064040802E+00  0.59965566447E+00 -0.62631561532E+00  0.20396636939E+01  0.17770000000E+01 0. -1.
         15    1    1    2    0    0  0.11054650962E+01  0.60094467026E+00 -0.10309554821E+02  0.10536974765E+02  0.17770000000E+01 0.  1.
</event>
<event>
 6    1  0.1196607E-002  0.1833797E+03  0.7546771E-02  0.1067757E+00
        -11   -1    0    0    0    0  0.00000000000E+00  0.00000000000E+00  0.18250000000E+03  0.18250000000E+03  0.00000000000E+00 0. -1.
         11   -1    0    0    0    0 -0.00000000000E+00 -0.00000000000E+00 -0.18250000000E+03  0.18250000000E+03  0.00000000000E+00 0. -1.
        -11    1    1    2    0    0 -0.11105584975E+01 -0.10867326318E+00  0.17989471403E+02  0.18024045923E+02  0.00000000000E+00 0. -1.
         11    1    1    2    0    0 -0.31169086765E+01  0.25647558119E+01 -0.18157542401E+03  0.18162028438E+03  0.00000000000E+00 0. -1.
        -15    1    1    2    0    0 -0.14300882367E+01 -0.69154801443E+00  0.15353223344E+03  0.15355073372E+03  0.17770000000E+01 0. -1.
         15    1    1    2    0    0  0.56575554108E+01 -0.17645345343E+01  0.10053719170E+02  0.11804935980E+02  0.17770000000E+01 0. -1.
</event>
<event>
 6    1  0.1196607E-002  0.1827004E+03  0.7546771E-02  0.1068295E+00
        -11   -1    0    0    0    0  0.00000000000E+00  0.00000000000E+00  0.18250000000E+03  0.18250000000E+03  0.00000000000E+00 0. -1.
         11   -1    0    0    0    0 -0.00000000000E+00 -0.00000000000E+00 -0.18250000000E+03  0.18250000000E+03  0.00000000000E+00 0. -1.
        -11    1    1    2    0    0  0.44224308884E+00  0.24033622942E+00  0.13700068616E+02  0.13709311454E+02  0.00000000000E+00 0. -1.
         11    1    1    2    0    0  0.18787438308E+01  0.63216251318E+01 -0.18218026373E+03  0.18229959165E+03  0.00000000000E+00 0. -1.
        -15    1    1    2    0    0 -0.42964518620E+01  0.11275383851E+01  0.77665662033E+02  0.77812875730E+02  0.17770000000E+01 0. -1.
         15    1    1    2    0    0  0.19754649424E+01 -0.76894997463E+01  0.90814533079E+02  0.91178221169E+02  0.17770000000E+01 0.  1.
</event>
<event>
 6    1  0.1196607E-002  0.1835515E+03  0.7546771E-02  0.1067621E+00
        -11   -1    0    0    0    0  0.00000000000E+00  0.00000000000E+00  0.18250000000E+03  0.18250000000E+03  0.00000000000E+00 0. -1.
         11   -1    0    0    0    0 -0.00000000000E+00 -0.00000000000E+00 -0.18250000000E+03  0.18250000000E+03  0.00000000000E+00 0.  1.
        -11    1    1    2    0    0 -0.70337644914E+00  0.50891342386E+01  0.18137579047E+03  0.18144853649E+03  0.00000000000E+00 0. -1.
         11    1    1    2    0    0  0.94585231904E+00 -0.25961180292E+00 -0.65256941158E+02  0.65264311872E+02  0.00000000000E+00 0.  1.
        -15    1    1    2    0    0  0.39222587461E+01 -0.60950875477E+01 -0.12475319585E+02  0.14537040058E+02  0.17770000000E+01 0. -1.
         15    1    1    2    0    0 -0.41647346161E+01  0.12655651120E+01 -0.10364352973E+03  0.10375011158E+03  0.17770000000E+01 0.  1.
</event>
<event>
 6    1  0.1196607E-002  0.1829416E+03  0.7546771E-02  0.1068104E+00
        -11   -1    0    0    0    0  0.00000000000E+00  0.00000000000E+00  0.18250000000E+03  0.18250000000E+03  0.00000000000E+00 0. -1.
         11   -1    0    0    0    0 -0.00000000000E+00 -0.00000000000E+00 -0.18250000000E+03  0.18250000000E+03  0.00000000000E+00 0. -1.
        -11    1    1    2    0    0  0.82564718450E+00  0.99045959877E+00  0.40448669283E+02  0.40469217317E+02  0.00000000000E+00 0. -1.
         11    1    1    2    0    0  0.45226153916E+00  0.33000130149E+01 -0.18202789213E+03  0.18205836465E+03  0.00000000000E+00 0. -1.
        -15    1    1    2    0    0 -0.73161368397E+00 -0.30809426226E+01  0.13909417412E+03  0.13914156270E+03  0.17770000000E+01 0. -1.
         15    1    1    2    0    0 -0.54629503969E+00 -0.12095299910E+01  0.24850487260E+01  0.33308553316E+01  0.17770000000E+01 0.  1.
</event>
<event>
 6    1  0.1196607E-002  0.1826376E+03  0.7546771E-02  0.1068345E+00
        -11   -1    0    0    0    0  0.00000000000E+00  0.00000000000E+00  0.18250000000E+03  0.18250000000E+03  0.00000000000E+00 0. -1.
         11   -1    0    0    0    0 -0.00000000000E+00 -0.00000000000E+00 -0.18250000000E+03  0.18250000000E+03  0.00000000000E+00 0. -1.
        -11    1    1    2    0    0 -0.11015406062E+01  0.83235245544E-01  0.59857054247E+02  0.59867246996E+02  0.00000000000E+00 0. -1.
         11    1    1    2    0    0  0.40775289038E+01  0.33709961508E+01 -0.18228562327E+03  0.18236238184E+03  0.00000000000E+00 0. -1.
        -15    1    1    2    0    0 -0.84435619755E+00  0.14564926852E+00  0.75999079175E+01  0.78517819921E+01  0.17770000000E+01 0. -1.
         15    1    1    2    0    0 -0.21316321001E+01 -0.35998806648E+01  0.11482866111E+03  0.11491858917E+03  0.17770000000E+01 0. -1.
</event>
<event>
 6    1  0.1196607E-002  0.1826866E+03  0.7546771E-02  0.1068306E+00
        -11   -1    0    0    0    0  0.00000000000E+00  0.00000000000E+00  0.18250000000E+03  0.18250000000E+03  0.00000000000E+00 0. -1.
         11   -1    0    0    0    0 -0.00000000000E+00 -0.00000000000E+00 -0.18250000000E+03  0.18250000000E+03  0.00000000000E+00 0.  1.
        -11    1    1    2    0    0  0.62791612558E+00 -0.15467958370E+01  0.48967386431E+02  0.48995834413E+02  0.00000000000E+00 0. -1.
         11    1    1    2    0    0  0.66014020760E+00 -0.42092758730E+01 -0.18226360611E+03  0.18231340022E+03  0.00000000000E+00 0.  1.
        -15    1    1    2    0    0  0.27841625557E+01  0.29518576345E+01  0.39522035393E+02  0.39769511377E+02  0.17770000000E+01 0.  1.
         15    1    1    2    0    0 -0.40722188888E+01  0.28042140755E+01  0.93774184286E+02  0.93921253988E+02  0.17770000000E+01 0. -1.
</event>
<event>
 6    1  0.1196607E-002  0.1225151E+03  0.7546771E-02  0.1129738E+00
        -11   -1    0    0    0    0  0.00000000000E+00  0.00000000000E+00  0.18250000000E+03  0.18250000000E+03  0.00000000000E+00 0.  1.
         11   -1    0    0    0    0 -0.00000000000E+00 -0.00000000000E+00 -0.18250000000E+03  0.18250000000E+03  0.00000000000E+00 0. -1.
        -11    1    1    2    0    0 -0.25233706723E+00  0.22255662331E+01  0.51342164988E+02  0.51390998479E+02  0.00000000000E+00 0.  1.
         11    1    1    2    0    0 -0.59563994434E+01  0.12609695334E+02 -0.66151451282E+02  0.67605455530E+02  0.00000000000E+00 0. -1.
        -15    1    1    2    0    0 -0.47776636307E+02 -0.14999064127E+02  0.11873727396E+03  0.12887698343E+03  0.17770000000E+01 0.  1.
         15    1    1    2    0    0  0.53985372818E+02  0.16380255987E+00 -0.10392798766E+03  0.11712656256E+03  0.17770000000E+01 0. -1.
</event>
<event>
 6    1  0.1196607E-002  0.1830238E+03  0.7546771E-02  0.1068039E+00
        -11   -1    0    0    0    0  0.00000000000E+00  0.00000000000E+00  0.18250000000E+03  0.18250000000E+03  0.00000000000E+00 0.  1.
         11   -1    0    0    0    0 -0.00000000000E+00 -0.00000000000E+00 -0.18250000000E+03  0.18250000000E+03  0.00000000000E+00 0. -1.
        -11    1    1    2    0    0  0.25659778540E+01  0.65282412832E+00  0.18195692376E+03  0.18197618670E+03  0.00000000000E+00 0.  1.
         11    1    1    2    0    0  0.19747462188E+01 -0.68063525021E+00 -0.15071697341E+03  0.15073144649E+03  0.00000000000E+00 0. -1.
        -15    1    1    2    0    0 -0.87380314176E+00 -0.24574786713E+00 -0.23093478828E+02  0.23179525822E+02  0.17770000000E+01 0. -1.
         15    1    1    2    0    0 -0.36669209310E+01  0.27355898902E+00 -0.81464715216E+01  0.91128409888E+01  0.17770000000E+01 0.  1.
</event>
<event>
 6    1  0.1196607E-002  0.1893364E+03  0.7546771E-02  0.1063140E+00
        -11   -1    0    0    0    0  0.00000000000E+00  0.00000000000E+00  0.18250000000E+03  0.18250000000E+03  0.00000000000E+00 0. -1.
         11   -1    0    0    0    0 -0.00000000000E+00 -0.00000000000E+00 -0.18250000000E+03  0.18250000000E+03  0.00000000000E+00 0.  1.
        -11    1    1    2    0    0  0.29633127161E+01  0.15722581694E+02  0.15092483473E+03  0.15177050615E+03  0.00000000000E+00 0. -1.
         11    1    1    2    0    0 -0.37641186852E+01 -0.22730186832E+01 -0.17560852135E+03  0.17566356473E+03  0.00000000000E+00 0.  1.
        -15    1    1    2    0    0 -0.10008202966E+02 -0.43746273610E+01  0.19509138020E+02  0.22429125851E+02  0.17770000000E+01 0. -1.
         15    1    1    2    0    0  0.10809008936E+02 -0.90749356502E+01  0.51745485951E+01  0.15136803275E+02  0.17770000000E+01 0.  1.
</event>
<event>
 6    1  0.1196607E-002  0.1384926E+03  0.7546771E-02  0.1110136E+00
        -11   -1    0    0    0    0  0.00000000000E+00  0.00000000000E+00  0.18250000000E+03  0.18250000000E+03  0.00000000000E+00 0. -1.
         11   -1    0    0    0    0 -0.00000000000E+00 -0.00000000000E+00 -0.18250000000E+03  0.18250000000E+03  0.00000000000E+00 0. -1.
        -11    1    1    2    0    0  0.23727621120E+01 -0.22889306872E+00  0.14025032128E+03  0.14027057785E+03  0.00000000000E+00 0. -1.
         11    1    1    2    0    0  0.26217727984E+02  0.53157619176E+02 -0.13051060680E+03  0.14333917896E+03  0.00000000000E+00 0. -1.
        -15    1    1    2    0    0 -0.43197697036E+01 -0.39692550380E+02 -0.27472867771E+02  0.48498197477E+02  0.17770000000E+01 0.  1.
         15    1    1    2    0    0 -0.24270720392E+02 -0.13236175727E+02  0.17733153291E+02  0.32892045709E+02  0.17770000000E+01 0. -1.
</event>
<event>
 6    1  0.1196607E-002  0.1843766E+03  0.7546771E-02  0.1066971E+00
        -11   -1    0    0    0    0  0.00000000000E+00  0.00000000000E+00  0.18250000000E+03  0.18250000000E+03  0.00000000000E+00 0. -1.
         11   -1    0    0    0    0 -0.00000000000E+00 -0.00000000000E+00 -0.18250000000E+03  0.18250000000E+03  0.00000000000E+00 0.  1.
        -11    1    1    2    0    0 -0.32781883064E+00 -0.21733361203E+01  0.13615918083E+03  0.13617691941E+03  0.00000000000E+00 0. -1.
         11    1    1    2    0    0 -0.21865116267E+01 -0.14052207047E+01 -0.18060474660E+03  0.18062344802E+03  0.00000000000E+00 0.  1.
        -15    1    1    2    0    0  0.73457929734E+00 -0.14711955632E-01  0.43710148364E+02  0.43752424187E+02  0.17770000000E+01 0.  1.
         15    1    1    2    0    0  0.17797511600E+01  0.35932687807E+01  0.73541740873E+00  0.44472083926E+01  0.17770000000E+01 0. -1.
</event>
<event>
 6    1  0.1196607E-002  0.1904395E+03  0.7546771E-02  0.1062305E+00
        -11   -1    0    0    0    0  0.00000000000E+00  0.00000000000E+00  0.18250000000E+03  0.18250000000E+03  0.00000000000E+00 0.  1.
         11   -1    0    0    0    0 -0.00000000000E+00 -0.00000000000E+00 -0.18250000000E+03  0.18250000000E+03  0.00000000000E+00 0.  1.
        -11    1    1    2    0    0 -0.17046296699E+00  0.73266434818E+01  0.16872054846E+03  0.16887963831E+03  0.00000000000E+00 0.  1.
         11    1    1    2    0    0 -0.56824504812E+00 -0.33107741385E+01 -0.17452820955E+03  0.17456053408E+03  0.00000000000E+00 0.  1.
        -15    1    1    2    0    0 -0.15571902543E+00 -0.78341062547E+01  0.11742244557E+02  0.14227983183E+02  0.17770000000E+01 0.  1.
         15    1    1    2    0    0  0.89442704053E+00  0.38182369114E+01 -0.59345834678E+01  0.73318444322E+01  0.17770000000E+01 0.  1.
</event>
<event>
 6    1  0.1196607E-002  0.1782080E+03  0.7546771E-02  0.1071923E+00
        -11   -1    0    0    0    0  0.00000000000E+00  0.00000000000E+00  0.18250000000E+03  0.18250000000E+03  0.00000000000E+00 0.  1.
         11   -1    0    0    0    0 -0.00000000000E+00 -0.00000000000E+00 -0.18250000000E+03  0.18250000000E+03  0.00000000000E+00 0.  1.
        -11    1    1    2    0    0 -0.15881282187E+00  0.33798145547E+01  0.17980549733E+03  0.17983732994E+03  0.00000000000E+00 0.  1.
         11    1    1    2    0    0 -0.31066948887E+01  0.11286893899E+01 -0.17660558295E+03  0.17663651215E+03  0.00000000000E+00 0.  1.
        -15    1    1    2    0    0  0.16122710028E+01 -0.48295789991E+01 -0.26854626899E+01  0.60244244500E+01  0.17770000000E+01 0.  1.
         15    1    1    2    0    0  0.16532367078E+01  0.32107505454E+00 -0.51445168947E+00  0.25017334677E+01  0.17770000000E+01 0. -1.
</event>
<event>
 6    1  0.1196607E-002  0.1953290E+03  0.7546771E-02  0.1058678E+00
        -11   -1    0    0    0    0  0.00000000000E+00  0.00000000000E+00  0.18250000000E+03  0.18250000000E+03  0.00000000000E+00 0. -1.
         11   -1    0    0    0    0 -0.00000000000E+00 -0.00000000000E+00 -0.18250000000E+03  0.18250000000E+03  0.00000000000E+00 0.  1.
        -11    1    1    2    0    0 -0.32471714590E+01 -0.99752363894E+01  0.16934639576E+03  0.16967100878E+03  0.00000000000E+00 0. -1.
         11    1    1    2    0    0 -0.79821804427E+01 -0.64383740206E+01 -0.14218857904E+03  0.14255791761E+03  0.00000000000E+00 0.  1.
        -15    1    1    2    0    0 -0.92320994122E+01  0.18018603032E+01 -0.25811409197E+02  0.27529346774E+02  0.17770000000E+01 0. -1.
         15    1    1    2    0    0  0.20461451314E+02  0.14611750107E+02 -0.13464075241E+01  0.25241726828E+02  0.17770000000E+01 0.  1.
</event>
<event>
 6    1  0.1196607E-002  0.1840704E+03  0.7546771E-02  0.1067212E+00
        -11   -1    0    0    0    0  0.00000000000E+00  0.00000000000E+00  0.18250000000E+03  0.18250000000E+03  0.00000000000E+00 0.  1.
         11   -1    0    0    0    0 -0.00000000000E+00 -0.00000000000E+00 -0.18250000000E+03  0.18250000000E+03  0.00000000000E+00 0.  1.
        -11    1    1    2    0    0  0.59297982283E+01  0.15620581712E+01  0.12058501440E+03  0.12074083083E+03  0.00000000000E+00 0.  1.
         11    1    1    2    0    0 -0.16782768772E+01  0.12197160427E+02 -0.18051024325E+03  0.18092964172E+03  0.00000000000E+00 0.  1.
        -15    1    1    2    0    0 -0.23895934371E+01 -0.15633821515E+02  0.38358476177E+02  0.41528989340E+02  0.17770000000E+01 0.  1.
         15    1    1    2    0    0 -0.18619279140E+01  0.18746029177E+01  0.21566752678E+02  0.21800538106E+02  0.17770000000E+01 0.  1.
</event>
<event>
 6    1  0.1196607E-002  0.1889936E+03  0.7546771E-02  0.1063400E+00
        -11   -1    0    0    0    0  0.00000000000E+00  0.00000000000E+00  0.18250000000E+03  0.18250000000E+03  0.00000000000E+00 0.  1.
         11   -1    0    0    0    0 -0.00000000000E+00 -0.00000000000E+00 -0.18250000000E+03  0.18250000000E+03  0.00000000000E+00 0.  1.
        -11    1    1    2    0    0  0.47103109307E+01  0.57163479610E+00  0.14848690190E+03  0.14856269327E+03  0.00000000000E+00 0.  1.
         11    1    1    2    0    0 -0.41064242691E+01  0.24615410981E+01 -0.17594122958E+03  0.17600635833E+03  0.00000000000E+00 0.  1.
        -15    1    1    2    0    0  0.31781278557E+01  0.13970531655E+00 -0.57539712164E+01  0.68107215478E+01  0.17770000000E+01 0. -1.
         15    1    1    2    0    0 -0.37820145172E+01 -0.31728812107E+01  0.33208298903E+02  0.33620226859E+02  0.17770000000E+01 0.  1.
</event>
<event>
 6    1  0.1196607E-002  0.1742644E+03  0.7546771E-02  0.1075206E+00
        -11   -1    0    0    0    0  0.00000000000E+00  0.00000000000E+00  0.18250000000E+03  0.18250000000E+03  0.00000000000E+00 0. -1.
         11   -1    0    0    0    0 -0.00000000000E+00 -0.00000000000E+00 -0.18250000000E+03  0.18250000000E+03  0.00000000000E+00 0. -1.
        -11    1    1    2    0    0 -0.74197864819E+01  0.55093572812E+01  0.17578885552E+03  0.17603161073E+03  0.00000000000E+00 0. -1.
         11    1    1    2    0    0  0.12508098064E+01  0.47789365682E+01 -0.17264706762E+03  0.17271772554E+03  0.00000000000E+00 0. -1.
        -15    1    1    2    0    0  0.70312278021E+01 -0.82567423622E+01  0.12118996783E+01  0.11056147099E+02  0.17770000000E+01 0.  1.
         15    1    1    2    0    0 -0.86225112664E+00 -0.20315514872E+01 -0.43536875852E+01  0.51945166320E+01  0.17770000000E+01 0.  1.
</event>
<event>
 6    1  0.1196607E-002  0.1847745E+03  0.7546771E-02  0.1066659E+00
        -11   -1    0    0    0    0  0.00000000000E+00  0.00000000000E+00  0.18250000000E+03  0.18250000000E+03  0.00000000000E+00 0. -1.
         11   -1    0    0    0    0 -0.00000000000E+00 -0.00000000000E+00 -0.18250000000E+03  0.18250000000E+03  0.00000000000E+00 0. -1.
        -11    1    1    2    0    0 -0.25570126370E+01 -0.22466229855E+00  0.14675136363E+03  0.14677381073E+03  0.00000000000E+00 0. -1.
         11    1    1    2    0    0  0.78549849545E+01  0.26937400652E+01 -0.18003409556E+03  0.18022550482E+03  0.00000000000E+00 0. -1.
        -15    1    1    2    0    0  0.41748403715E+01 -0.57991723894E+01  0.19590146184E+02  0.20928240467E+02  0.17770000000E+01 0.  1.
         15    1    1    2    0    0 -0.94728126891E+01  0.33300946227E+01  0.13692585740E+02  0.17072443987E+02  0.17770000000E+01 0. -1.
</event>
<event>
 6    1  0.1196607E-002  0.1842319E+03  0.7546771E-02  0.1067084E+00
        -11   -1    0    0    0    0  0.00000000000E+00  0.00000000000E+00  0.18250000000E+03  0.18250000000E+03  0.00000000000E+00 0. -1.
         11   -1    0    0    0    0 -0.00000000000E+00 -0.00000000000E+00 -0.18250000000E+03  0.18250000000E+03  0.00000000000E+00 0. -1.
        -11    1    1    2    0    0 -0.41826690419E+01  0.73950412875E+00  0.15722304803E+03  0.15728041333E+03  0.00000000000E+00 0. -1.
         11    1    1    2    0    0 -0.10234019915E+01  0.38489586639E+01 -0.18072419203E+03  0.18076807079E+03  0.00000000000E+00 0. -1.
        -15    1    1    2    0    0 -0.23987267940E+01  0.12862520274E+01  0.41382407251E+01  0.52622333480E+01  0.17770000000E+01 0.  1.
         15    1    1    2    0    0  0.76047978274E+01 -0.58747148201E+01  0.19362903276E+02  0.21689282526E+02  0.17770000000E+01 0.  1.
</event>
<event>
 6    1  0.1196607E-002  0.1861901E+03  0.7546771E-02  0.1065555E+00
        -11   -1    0    0    0    0  0.00000000000E+00  0.00000000000E+00  0.18250000000E+03  0.18250000000E+03  0.00000000000E+00 0. -1.
         11   -1    0    0    0    0 -0.00000000000E+00 -0.00000000000E+00 -0.18250000000E+03  0.18250000000E+03  0.00000000000E+00 0. -1.
        -11    1    1    2    0    0  0.29646320916E+01  0.45929415864E+01  0.17872629462E+03  0.17880987821E+03  0.00000000000E+00 0. -1.
         11    1    1    2    0    0  0.10041009050E+01 -0.28126489057E+01 -0.14494777709E+03  0.14497854081E+03  0.00000000000E+00 0. -1.
        -15    1    1    2    0    0 -0.65255940494E+01 -0.91770746211E+01 -0.72842699462E+01  0.13528503019E+02  0.17770000000E+01 0.  1.
         15    1    1    2    0    0  0.25568610529E+01  0.73967819403E+01 -0.26494247582E+02  0.27683077962E+02  0.17770000000E+01 0. -1.
</event>
<event>
 6    1  0.1196607E-002  0.1900374E+03  0.7546771E-02  0.1062608E+00
        -11   -1    0    0    0    0  0.00000000000E+00  0.00000000000E+00  0.18250000000E+03  0.18250000000E+03  0.00000000000E+00 0. -1.
         11   -1    0    0    0    0 -0.00000000000E+00 -0.00000000000E+00 -0.18250000000E+03  0.18250000000E+03  0.00000000000E+00 0.  1.
        -11    1    1    2    0    0  0.15578116820E+01  0.28714117063E+01  0.17493205503E+03  0.17496255502E+03  0.00000000000E+00 0. -1.
         11    1    1    2    0    0  0.22648714922E+01 -0.35468234498E+01 -0.16902001069E+03  0.16907239164E+03  0.00000000000E+00 0.  1.
        -15    1    1    2    0    0 -0.36556358323E+01 -0.21513914970E+01  0.65831118263E+01  0.80303953221E+01  0.17770000000E+01 0. -1.
         15    1    1    2    0    0 -0.16704734185E+00  0.28268032405E+01 -0.12495156166E+02  0.12934658016E+02  0.17770000000E+01 0.  1.
</event>
<event>
 6    1  0.1196607E-002  0.1773305E+03  0.7546771E-02  0.1072646E+00
        -11   -1    0    0    0    0  0.00000000000E+00  0.00000000000E+00  0.18250000000E+03  0.18250000000E+03  0.00000000000E+00 0. -1.
         11   -1    0    0    0    0 -0.00000000000E+00 -0.00000000000E+00 -0.18250000000E+03  0.18250000000E+03  0.00000000000E+00 0. -1.
        -11    1    1    2    0    0  0.44693540096E+01 -0.52936924106E+01  0.17764792309E+03  0.17778296567E+03  0.00000000000E+00 0. -1.
         11    1    1    2    0    0 -0.29970911263E+01 -0.34557325399E+01 -0.17693067139E+03  0.17698979383E+03  0.00000000000E+00 0. -1.
        -15    1    1    2    0    0 -0.17671448837E+00  0.22069398919E+01  0.11717148416E+01  0.30712304320E+01  0.17770000000E+01 0. -1.
         15    1    1    2    0    0 -0.12955483949E+01  0.65424850586E+01 -0.18889665455E+01  0.71560100612E+01  0.17770000000E+01 0.  1.
</event>
<event>
 6    1  0.1196607E-002  0.1876472E+03  0.7546771E-02  0.1064430E+00
        -11   -1    0    0    0    0  0.00000000000E+00  0.00000000000E+00  0.18250000000E+03  0.18250000000E+03  0.00000000000E+00 0.  1.
         11   -1    0    0    0    0 -0.00000000000E+00 -0.00000000000E+00 -0.18250000000E+03  0.18250000000E+03  0.00000000000E+00 0.  1.
        -11    1    1    2    0    0 -0.13293762033E+01  0.43171839766E+01  0.12424880181E+03  0.12433088944E+03  0.00000000000E+00 0.  1.
         11    1    1    2    0    0  0.26405173277E+01 -0.39075625812E+01 -0.17729009009E+03  0.17735280494E+03  0.00000000000E+00 0.  1.
        -15    1    1    2    0    0 -0.11050331178E+01  0.27258512857E+01 -0.44998987158E+01  0.56619944256E+01  0.17770000000E+01 0. -1.
         15    1    1    2    0    0 -0.20610800666E+00 -0.31354726812E+01  0.57541186993E+02  0.57654311192E+02  0.17770000000E+01 0.  1.
</event>
<event>
 6    1  0.1196607E-002  0.1884708E+03  0.7546771E-02  0.1063799E+00
        -11   -1    0    0    0    0  0.00000000000E+00  0.00000000000E+00  0.18250000000E+03  0.18250000000E+03  0.00000000000E+00 0.  1.
         11   -1    0    0    0    0 -0.00000000000E+00 -0.00000000000E+00 -0.18250000000E+03  0.18250000000E+03  0.00000000000E+00 0. -1.
        -11    1    1    2    0    0  0.10394804197E+01  0.19471841627E+01  0.11190581464E+03  0.11192758103E+03  0.00000000000E+00 0.  1.
         11    1    1    2    0    0 -0.77074384373E+01  0.53387387730E+01 -0.17628005688E+03  0.17652921909E+03  0.00000000000E+00 0. -1.
        -15    1    1    2    0    0  0.46064768065E+01  0.18911526712E+01  0.66523046670E+02  0.66732822167E+02  0.17770000000E+01 0.  1.
         15    1    1    2    0    0  0.20614812111E+01 -0.91770756069E+01 -0.21488044290E+01  0.98103777171E+01  0.17770000000E+01 0. -1.
</event>
<event>
 6    1  0.1196607E-002  0.1880157E+03  0.7546771E-02  0.1064147E+00
        -11   -1    0    0    0    0  0.00000000000E+00  0.00000000000E+00  0.18250000000E+03  0.18250000000E+03  0.00000000000E+00 0. -1.
         11   -1    0    0    0    0 -0.00000000000E+00 -0.00000000000E+00 -0.18250000000E+03  0.18250000000E+03  0.00000000000E+00 0. -1.
        -11    1    1    2    0    0 -0.78755394259E+00  0.58120951836E+01  0.17688709989E+03  0.17698431230E+03  0.00000000000E+00 0. -1.
         11    1    1    2    0    0 -0.52700431212E+01  0.18139977174E+01 -0.45402292133E+02  0.45743109570E+02  0.00000000000E+00 0. -1.
        -15    1    1    2    0    0  0.69632210641E+01  0.91318161535E+01 -0.12269591321E+03  0.12324496485E+03  0.17770000000E+01 0. -1.
         15    1    1    2    0    0 -0.90562400028E+00 -0.16757909055E+02 -0.87888945541E+01  0.19027613282E+02  0.17770000000E+01 0. -1.
</event>
<event>
 6    1  0.1196607E-002  0.1844243E+03  0.7546771E-02  0.1066933E+00
        -11   -1    0    0    0    0  0.00000000000E+00  0.00000000000E+00  0.18250000000E+03  0.18250000000E+03  0.00000000000E+00 0. -1.
         11   -1    0    0    0    0 -0.00000000000E+00 -0.00000000000E+00 -0.18250000000E+03  0.18250000000E+03  0.00000000000E+00 0. -1.
        -11    1    1    2    0    0  0.53359781434E+00  0.57441014578E+01  0.18048356917E+03  0.18057574081E+03  0.00000000000E+00 0. -1.
         11    1    1    2    0    0 -0.18882046552E+00  0.23175575480E+01 -0.17055669131E+03  0.17057254081E+03  0.00000000000E+00 0. -1.
        -15    1    1    2    0    0  0.44170203530E+00 -0.72797214487E+01 -0.83622532675E+01  0.11237190653E+02  0.17770000000E+01 0.  1.
         15    1    1    2    0    0 -0.78647938412E+00 -0.78193755719E+00 -0.15646245869E+01  0.26145277323E+01  0.17770000000E+01 0. -1.
</event>
<event>
 6    1  0.1196607E-002  0.1836035E+03  0.7546771E-02  0.1067580E+00
        -11   -1    0    0    0    0  0.00000000000E+00  0.00000000000E+00  0.18250000000E+03  0.18250000000E+03  0.00000000000E+00 0.  1.
         11   -1    0    0    0    0 -0.00000000000E+00 -0.00000000000E+00 -0.18250000000E+03  0.18250000000E+03  0.00000000000E+00 0.  1.
        -11    1    1    2    0    0  0.61290240500E+01 -0.12732536728E+01  0.12613727498E+03  0.12629251067E+03  0.00000000000E+00 0.  1.
         11    1    1    2    0    0  0.17846669079E+01  0.72470774964E+01 -0.18124293646E+03  0.18139654678E+03  0.00000000000E+00 0.  1.
        -15    1    1    2    0    0 -0.80384602682E+01 -0.46072128394E+01  0.53982186141E+02  0.54800341269E+02  0.17770000000E+01 0. -1.
         15    1    1    2    0    0  0.12476931037E+00 -0.13666109842E+01  0.11234753343E+01  0.25106012805E+01  0.17770000000E+01 0.  1.
</event>
<event>
 6    1  0.1196607E-002  0.1743757E+03  0.7546771E-02  0.1075112E+00
        -11   -1    0    0    0    0  0.00000000000E+00  0.00000000000E+00  0.18250000000E+03  0.18250000000E+03  0.00000000000E+00 0. -1.
         11   -1    0    0    0    0 -0.00000000000E+00 -0.00000000000E+00 -0.18250000000E+03  0.18250000000E+03  0.00000000000E+00 0. -1.
        -11    1    1    2    0    0  0.52495687907E+01  0.30852670891E+01  0.17542990826E+03  0.17553555069E+03  0.00000000000E+00 0. -1.
         11    1    1    2    0    0  0.21875285974E+01  0.54267172814E+01 -0.17330669670E+03  0.17340543724E+03  0.00000000000E+00 0. -1.
        -15    1    1    2    0    0 -0.22573135837E+01  0.23772182468E+01 -0.55413299194E+00  0.37698041834E+01  0.17770000000E+01 0. -1.
         15    1    1    2    0    0 -0.51797838044E+01 -0.10889202617E+02 -0.15690785622E+01  0.12289207885E+02  0.17770000000E+01 0.  1.
</event>
<event>
 6    1  0.1196607E-002  0.1831089E+03  0.7546771E-02  0.1067971E+00
        -11   -1    0    0    0    0  0.00000000000E+00  0.00000000000E+00  0.18250000000E+03  0.18250000000E+03  0.00000000000E+00 0.  1.
         11   -1    0    0    0    0 -0.00000000000E+00 -0.00000000000E+00 -0.18250000000E+03  0.18250000000E+03  0.00000000000E+00 0. -1.
        -11    1    1    2    0    0  0.23463556295E+01  0.85752183018E+00  0.15869290086E+03  0.15871256255E+03  0.00000000000E+00 0.  1.
         11    1    1    2    0    0 -0.33239253149E+01  0.12891905627E+01 -0.18185617943E+03  0.18189112262E+03  0.00000000000E+00 0. -1.
        -15    1    1    2    0    0  0.35964614311E+01 -0.16802955874E+01  0.11263229114E+02  0.12073772698E+02  0.17770000000E+01 0.  1.
         15    1    1    2    0    0 -0.26188917457E+01 -0.46641680547E+00  0.11900049457E+02  0.12322542136E+02  0.17770000000E+01 0.  1.
</event>
<event>
 6    1  0.1196607E-002  0.1873096E+03  0.7546771E-02  0.1064690E+00
        -11   -1    0    0    0    0  0.00000000000E+00  0.00000000000E+00  0.18250000000E+03  0.18250000000E+03  0.00000000000E+00 0.  1.
         11   -1    0    0    0    0 -0.00000000000E+00 -0.00000000000E+00 -0.18250000000E+03  0.18250000000E+03  0.00000000000E+00 0.  1.
        -11    1    1    2    0    0  0.25252729861E+01 -0.18714385846E+00  0.17767236863E+03  0.17769041223E+03  0.00000000000E+00 0.  1.
         11    1    1    2    0    0  0.31173296836E+01  0.63318548635E+01 -0.12608005650E+03  0.12627743574E+03  0.00000000000E+00 0.  1.
        -15    1    1    2    0    0 -0.14137106508E+02 -0.48825020796E+01 -0.89987146981E+01  0.17545119042E+02  0.17770000000E+01 0.  1.
         15    1    1    2    0    0  0.84945038383E+01 -0.12622089254E+01 -0.42593597431E+02  0.43487032986E+02  0.17770000000E+01 0. -1.
</event>
<event>
 6    1  0.1196607E-002  0.1844737E+03  0.7546771E-02  0.1066894E+00
        -11   -1    0    0    0    0  0.00000000000E+00  0.00000000000E+00  0.18250000000E+03  0.18250000000E+03  0.00000000000E+00 0. -1.
         11   -1    0    0    0    0 -0.00000000000E+00 -0.00000000000E+00 -0.18250000000E+03  0.18250000000E+03  0.00000000000E+00 0.  1.
        -11    1    1    2    0    0 -0.32739634585E+01 -0.11223720415E+00  0.15200225801E+03  0.15203755416E+03  0.00000000000E+00 0. -1.
         11    1    1    2    0    0  0.49731404828E+01  0.46610606459E+01 -0.18039754621E+03  0.18052626483E+03  0.00000000000E+00 0.  1.
        -15    1    1    2    0    0  0.11879998397E+01  0.10964431033E+01  0.24833830899E+02  0.24949757859E+02  0.17770000000E+01 0. -1.
         15    1    1    2    0    0 -0.28871768641E+01 -0.56452665450E+01  0.35614573040E+01  0.74864231605E+01  0.17770000000E+01 0. -1.
</event>
<event>
 6    1  0.1196607E-002  0.1826155E+03  0.7546771E-02  0.1068363E+00
        -11   -1    0    0    0    0  0.00000000000E+00  0.00000000000E+00  0.18250000000E+03  0.18250000000E+03  0.00000000000E+00 0. -1.
         11   -1    0    0    0    0 -0.00000000000E+00 -0.00000000000E+00 -0.18250000000E+03  0.18250000000E+03  0.00000000000E+00 0.  1.
        -11    1    1    2    0    0 -0.39962291094E+00  0.91275606090E+00  0.73510002799E+02  0.73516755461E+02  0.00000000000E+00 0. -1.
         11    1    1    2    0    0 -0.23381903295E+01 -0.28465755405E+01 -0.18234727807E+03  0.18238448384E+03  0.00000000000E+00 0.  1.
        -15    1    1    2    0    0  0.12284647281E+01  0.33824754388E+01  0.86563201458E+02  0.86656193324E+02  0.17770000000E+01 0. -1.
         15    1    1    2    0    0  0.15093485124E+01 -0.14486559592E+01  0.22274073814E+02  0.22442567373E+02  0.17770000000E+01 0. -1.
</event>
<event>
 6    1  0.1196607E-002  0.1704916E+03  0.7546771E-02  0.1078437E+00
        -11   -1    0    0    0    0  0.00000000000E+00  0.00000000000E+00  0.18250000000E+03  0.18250000000E+03  0.00000000000E+00 0. -1.
         11   -1    0    0    0    0 -0.00000000000E+00 -0.00000000000E+00 -0.18250000000E+03  0.18250000000E+03  0.00000000000E+00 0. -1.
        -11    1    1    2    0    0 -0.58683901867E+01 -0.30446853074E+02  0.17501810286E+03  0.17774359396E+03  0.00000000000E+00 0. -1.
         11    1    1    2    0    0  0.99746971104E+00 -0.98368323981E+00 -0.10032636427E+02  0.10129973950E+02  0.00000000000E+00 0. -1.
        -15    1    1    2    0    0 -0.38745465843E+01  0.21819652257E+02 -0.16220267786E+03  0.16371919793E+03  0.17770000000E+01 0. -1.
         15    1    1    2    0    0  0.87454670599E+01  0.96108840573E+01 -0.27827885700E+01  0.13407234155E+02  0.17770000000E+01 0.  1.
</event>
<event>
 6    1  0.1196607E-002  0.1826417E+03  0.7546771E-02  0.1068342E+00
        -11   -1    0    0    0    0  0.00000000000E+00  0.00000000000E+00  0.18250000000E+03  0.18250000000E+03  0.00000000000E+00 0.  1.
         11   -1    0    0    0    0 -0.00000000000E+00 -0.00000000000E+00 -0.18250000000E+03  0.18250000000E+03  0.00000000000E+00 0.  1.
        -11    1    1    2    0    0 -0.35260175659E+01 -0.29464005517E+01  0.18230035435E+03  0.18235825529E+03  0.00000000000E+00 0.  1.
         11    1    1    2    0    0  0.86593319084E+00 -0.11188173552E+01 -0.79591839509E+02  0.79604412623E+02  0.00000000000E+00 0.  1.
        -15    1    1    2    0    0  0.34893475011E+01  0.30224435832E+01 -0.42339516068E+02  0.42627491846E+02  0.17770000000E+01 0. -1.
         15    1    1    2    0    0 -0.82926312604E+00  0.10427743237E+01 -0.60368998776E+02  0.60409840240E+02  0.17770000000E+01 0.  1.
</event>
<event>
 6    1  0.1196607E-002  0.1865782E+03  0.7546771E-02  0.1065254E+00
        -11   -1    0    0    0    0  0.00000000000E+00  0.00000000000E+00  0.18250000000E+03  0.18250000000E+03  0.00000000000E+00 0. -1.
         11   -1    0    0    0    0 -0.00000000000E+00 -0.00000000000E+00 -0.18250000000E+03  0.18250000000E+03  0.00000000000E+00 0.  1.
        -11    1    1    2    0    0 -0.18300525932E+00 -0.41970148212E+01  0.17837234718E+03  0.17842181106E+03  0.00000000000E+00 0. -1.
         11    1    1    2    0    0  0.19825521101E+01  0.13367190630E+02 -0.11064260211E+03  0.11146478233E+03  0.00000000000E+00 0.  1.
        -15    1    1    2    0    0 -0.13043251580E+02 -0.14771329612E+02 -0.40705964974E+02  0.45259826599E+02  0.17770000000E+01 0. -1.
         15    1    1    2    0    0  0.11243704730E+02  0.56011538030E+01 -0.27023780096E+02  0.29853580014E+02  0.17770000000E+01 0.  1.
</event>
<event>
 6    1  0.1196607E-002  0.1856493E+03  0.7546771E-02  0.1065975E+00
        -11   -1    0    0    0    0  0.00000000000E+00  0.00000000000E+00  0.18250000000E+03  0.18250000000E+03  0.00000000000E+00 0. -1.
         11   -1    0    0    0    0 -0.00000000000E+00 -0.00000000000E+00 -0.18250000000E+03  0.18250000000E+03  0.00000000000E+00 0. -1.
        -11    1    1    2    0    0  0.24231030453E+01 -0.27441746735E+01  0.17931337449E+03  0.17935074072E+03  0.00000000000E+00 0. -1.
         11    1    1    2    0    0  0.12410078354E+02  0.88013169472E+01 -0.71868961958E+02  0.73461696943E+02  0.00000000000E+00 0. -1.
        -15    1    1    2    0    0 -0.13954371639E+02  0.91586627046E+01 -0.50788315043E+02  0.53490338046E+02  0.17770000000E+01 0.  1.
         15    1    1    2    0    0 -0.87880976025E+00 -0.15215804978E+02 -0.56656097494E+02  0.58697224295E+02  0.17770000000E+01 0. -1.
</event>
<event>
 6    1  0.1196607E-002  0.1829573E+03  0.7546771E-02  0.1068091E+00
        -11   -1    0    0    0    0  0.00000000000E+00  0.00000000000E+00  0.18250000000E+03  0.18250000000E+03  0.00000000000E+00 0.  1.
         11   -1    0    0    0    0 -0.00000000000E+00 -0.00000000000E+00 -0.18250000000E+03  0.18250000000E+03  0.00000000000E+00 0. -1.
        -11    1    1    2    0    0 -0.29134437635E+01  0.32004885829E+00  0.18201908254E+03  0.18204267905E+03  0.00000000000E+00 0.  1.
         11    1    1    2    0    0  0.22074277141E+00 -0.17080624402E+01 -0.12416028768E+03  0.12417223217E+03  0.00000000000E+00 0. -1.
        -15    1    1    2    0    0  0.20498606955E+01 -0.27783375326E+01 -0.10315231866E+02  0.11021924776E+02  0.17770000000E+01 0.  1.
         15    1    1    2    0    0  0.64284029661E+00  0.41663511146E+01 -0.47543562991E+02  0.47763164009E+02  0.17770000000E+01 0. -1.
</event>
<event>
 6    1  0.1196607E-002  0.1573378E+03  0.7546771E-02  0.1090459E+00
        -11   -1    0    0    0    0  0.00000000000E+00  0.00000000000E+00  0.18250000000E+03  0.18250000000E+03  0.00000000000E+00 0.  1.
         11   -1    0    0    0    0 -0.00000000000E+00 -0.00000000000E+00 -0.18250000000E+03  0.18250000000E+03  0.00000000000E+00 0.  1.
        -11    1    1    2    0    0 -0.19075396030E+02  0.68822146624E+01  0.15862941868E+03  0.15992038045E+03  0.00000000000E+00 0.  1.
         11    1    1    2    0    0  0.26449718147E+01 -0.83298752789E+00 -0.15523544720E+03  0.15526021323E+03  0.00000000000E+00 0.  1.
        -15    1    1    2    0    0  0.85859552694E+01 -0.13218257995E+01 -0.24870539422E+02  0.26403926062E+02  0.17770000000E+01 0.  1.
         15    1    1    2    0    0  0.78444689463E+01 -0.47274013350E+01  0.21476567940E+02  0.23415480262E+02  0.17770000000E+01 0. -1.
</event>
<event>
 6    1  0.1196607E-002  0.1827695E+03  0.7546771E-02  0.1068240E+00
        -11   -1    0    0    0    0  0.00000000000E+00  0.00000000000E+00  0.18250000000E+03  0.18250000000E+03  0.00000000000E+00 0. -1.
         11   -1    0    0    0    0 -0.00000000000E+00 -0.00000000000E+00 -0.18250000000E+03  0.18250000000E+03  0.00000000000E+00 0.  1.
        -11    1    1    2    0    0  0.35508571437E+00  0.25334332766E+01  0.14284782701E+03  0.14287073196E+03  0.00000000000E+00 0. -1.
         11    1    1    2    0    0  0.30160124215E+01 -0.19889124451E+01 -0.18219466701E+03  0.18223048260E+03  0.00000000000E+00 0.  1.
        -15    1    1    2    0    0 -0.53391768599E+00 -0.11693736512E+01  0.61814342162E+01  0.65589908371E+01  0.17770000000E+01 0.  1.
         15    1    1    2    0    0 -0.28371804499E+01  0.62485281973E+00  0.33165405783E+02  0.33339794596E+02  0.17770000000E+01 0.  1.
</event>
<event>
 6    1  0.1196607E-002  0.1851349E+03  0.7546771E-02  0.1066377E+00
        -11   -1    0    0    0    0  0.00000000000E+00  0.00000000000E+00  0.18250000000E+03  0.18250000000E+03  0.00000000000E+00 0.  1.
         11   -1    0    0    0    0 -0.00000000000E+00 -0.00000000000E+00 -0.18250000000E+03  0.18250000000E+03  0.00000000000E+00 0. -1.
        -11    1    1    2    0    0  0.70543048340E+01 -0.19507362390E+00  0.15855762648E+03  0.15871459349E+03  0.00000000000E+00 0.  1.
         11    1    1    2    0    0  0.63618199598E+00 -0.27032544287E+01 -0.17984365075E+03  0.17986509119E+03  0.00000000000E+00 0. -1.
        -15    1    1    2    0    0 -0.53992640156E+01  0.28273270935E+01  0.22423461745E+02  0.23304832032E+02  0.17770000000E+01 0. -1.
         15    1    1    2    0    0 -0.22912228143E+01  0.71000959144E-01 -0.11374374765E+01  0.31154832906E+01  0.17770000000E+01 0.  1.
</event>
<event>
 6    1  0.1196607E-002  0.1850926E+03  0.7546771E-02  0.1066410E+00
        -11   -1    0    0    0    0  0.00000000000E+00  0.00000000000E+00  0.18250000000E+03  0.18250000000E+03  0.00000000000E+00 0.  1.
         11   -1    0    0    0    0 -0.00000000000E+00 -0.00000000000E+00 -0.18250000000E+03  0.18250000000E+03  0.00000000000E+00 0. -1.
        -11    1    1    2    0    0 -0.13882344400E+01  0.26867635881E+01  0.17988193513E+03  0.17990735527E+03  0.00000000000E+00 0.  1.
         11    1    1    2    0    0  0.19266699398E+01  0.43944507426E+01 -0.12912085025E+03  0.12920997340E+03  0.00000000000E+00 0. -1.
        -15    1    1    2    0    0  0.14455892672E+01 -0.22114943927E+01  0.13632715137E+01  0.34636215149E+01  0.17770000000E+01 0. -1.
         15    1    1    2    0    0 -0.19840247670E+01 -0.48697199380E+01 -0.52124356388E+02  0.52419049823E+02  0.17770000000E+01 0. -1.
</event>
<event>
 6    1  0.1196607E-002  0.1830999E+03  0.7546771E-02  0.1067978E+00
        -11   -1    0    0    0    0  0.00000000000E+00  0.00000000000E+00  0.18250000000E+03  0.18250000000E+03  0.00000000000E+00 0. -1.
         11   -1    0    0    0    0 -0.00000000000E+00 -0.00000000000E+00 -0.18250000000E+03  0.18250000000E+03  0.00000000000E+00 0.  1.
        -11    1    1    2    0    0  0.26671719420E+01 -0.12611787238E+01  0.15946114294E+03  0.15948843371E+03  0.00000000000E+00 0. -1.
         11    1    1    2    0    0  0.17019558406E+00 -0.32820437296E+01 -0.18187043190E+03  0.18190012309E+03  0.00000000000E+00 0.  1.
        -15    1    1    2    0    0 -0.65982000348E+00  0.19159732449E+01  0.41297633286E+01  0.49314288054E+01  0.17770000000E+01 0. -1.
         15    1    1    2    0    0 -0.21775475226E+01  0.26272492085E+01  0.18279525634E+02  0.18680014401E+02  0.17770000000E+01 0.  1.
</event>
<event>
 6    1  0.1196607E-002  0.1832130E+03  0.7546771E-02  0.1067889E+00
        -11   -1    0    0    0    0  0.00000000000E+00  0.00000000000E+00  0.18250000000E+03  0.18250000000E+03  0.00000000000E+00 0.  1.
         11   -1    0    0    0    0 -0.00000000000E+00 -0.00000000000E+00 -0.18250000000E+03  0.18250000000E+03  0.00000000000E+00 0. -1.
        -11    1    1    2    0    0 -0.55234301683E+00 -0.26280953231E+01  0.11519309837E+03  0.11522439793E+03  0.00000000000E+00 0.  1.
         11    1    1    2    0    0 -0.40196164303E+01 -0.35125758666E+01 -0.18170861955E+03  0.18178701253E+03  0.00000000000E+00 0. -1.
        -15    1    1    2    0    0  0.58342650196E+01  0.49029602655E+01  0.21106472702E+02  0.22510410627E+02  0.17770000000E+01 0.  1.
         15    1    1    2    0    0 -0.12623055725E+01  0.12377109242E+01  0.45409048483E+02  0.45478178909E+02  0.17770000000E+01 0. -1.
</event>
<event>
 6    1  0.1196607E-002  0.1828390E+03  0.7546771E-02  0.1068185E+00
        -11   -1    0    0    0    0  0.00000000000E+00  0.00000000000E+00  0.18250000000E+03  0.18250000000E+03  0.00000000000E+00 0. -1.
         11   -1    0    0    0    0 -0.00000000000E+00 -0.00000000000E+00 -0.18250000000E+03  0.18250000000E+03  0.00000000000E+00 0. -1.
        -11    1    1    2    0    0 -0.18316099638E+01 -0.48009430188E+00  0.13463736622E+03  0.13465068016E+03  0.00000000000E+00 0. -1.
         11    1    1    2    0    0  0.25916735375E+01 -0.36119686612E-01 -0.18214253063E+03  0.18216097150E+03  0.00000000000E+00 0. -1.
        -15    1    1    2    0    0 -0.16496256713E+01  0.57131354610E+00  0.44591890643E+02  0.44661416280E+02  0.17770000000E+01 0.  1.
         15    1    1    2    0    0  0.88956209756E+00 -0.55099557602E-01  0.29132737690E+01  0.35269320577E+01  0.17770000000E+01 0.  1.
</event>
<event>
 6    1  0.1196607E-002  0.1835398E+03  0.7546771E-02  0.1067630E+00
        -11   -1    0    0    0    0  0.00000000000E+00  0.00000000000E+00  0.18250000000E+03  0.18250000000E+03  0.00000000000E+00 0. -1.
         11   -1    0    0    0    0 -0.00000000000E+00 -0.00000000000E+00 -0.18250000000E+03  0.18250000000E+03  0.00000000000E+00 0. -1.
        -11    1    1    2    0    0 -0.47423559438E+01  0.30257479069E+00  0.18139792394E+03  0.18146015624E+03  0.00000000000E+00 0. -1.
         11    1    1    2    0    0  0.34567441664E+01  0.70497423158E+00 -0.14434026636E+03  0.14438337356E+03  0.00000000000E+00 0. -1.
        -15    1    1    2    0    0  0.37065240414E+01  0.43213523782E+01 -0.12521180566E+02  0.13869033802E+02  0.17770000000E+01 0.  1.
         15    1    1    2    0    0 -0.24209122640E+01 -0.53289014004E+01 -0.24536477015E+02  0.25287436399E+02  0.17770000000E+01 0. -1.
</event>
<event>
 6    1  0.1196607E-002  0.2077941E+03  0.7546771E-02  0.1049933E+00
        -11   -1    0    0    0    0  0.00000000000E+00  0.00000000000E+00  0.18250000000E+03  0.18250000000E+03  0.00000000000E+00 0. -1.
         11   -1    0    0    0    0 -0.00000000000E+00 -0.00000000000E+00 -0.18250000000E+03  0.18250000000E+03  0.00000000000E+00 0.  1.
        -11    1    1    2    0    0  0.42219940127E+01 -0.10820973677E+02  0.15677624544E+03  0.15720594721E+03  0.00000000000E+00 0. -1.
         11    1    1    2    0    0 -0.18486794338E+01 -0.37982028278E+01 -0.13497303343E+03  0.13503911920E+03  0.00000000000E+00 0.  1.
        -15    1    1    2    0    0  0.63357748986E+00  0.19147677685E+02  0.21628699371E+02  0.28948114734E+02  0.17770000000E+01 0. -1.
         15    1    1    2    0    0 -0.30068920687E+01 -0.45285011798E+01 -0.43431911381E+02  0.43806818854E+02  0.17770000000E+01 0.  1.
</event>
<event>
 6    1  0.1196607E-002  0.1829497E+03  0.7546771E-02  0.1068097E+00
        -11   -1    0    0    0    0  0.00000000000E+00  0.00000000000E+00  0.18250000000E+03  0.18250000000E+03  0.00000000000E+00 0. -1.
         11   -1    0    0    0    0 -0.00000000000E+00 -0.00000000000E+00 -0.18250000000E+03  0.18250000000E+03  0.00000000000E+00 0.  1.
        -11    1    1    2    0    0  0.18276962170E+01  0.15662449378E+01  0.12364744357E+03  0.12367086924E+03  0.00000000000E+00 0. -1.
         11    1    1    2    0    0 -0.37454601649E+01 -0.63043274324E+00 -0.18201069034E+03  0.18205031534E+03  0.00000000000E+00 0.  1.
        -15    1    1    2    0    0  0.52553444052E+01 -0.11836372922E+01  0.45985411686E+02  0.46333955788E+02  0.17770000000E+01 0.  1.
         15    1    1    2    0    0 -0.33375804573E+01  0.24782509768E+00  0.12377835080E+02  0.12944859631E+02  0.17770000000E+01 0.  1.
</event>
<event>
 6    1  0.1196607E-002  0.1832870E+03  0.7546771E-02  0.1067830E+00
        -11   -1    0    0    0    0  0.00000000000E+00  0.00000000000E+00  0.18250000000E+03  0.18250000000E+03  0.00000000000E+00 0. -1.
         11   -1    0    0    0    0 -0.00000000000E+00 -0.00000000000E+00 -0.18250000000E+03  0.18250000000E+03  0.00000000000E+00 0.  1.
        -11    1    1    2    0    0 -0.21831165766E+01 -0.12957789063E+01  0.15407468958E+03  0.15409560347E+03  0.00000000000E+00 0. -1.
         11    1    1    2    0    0  0.17381685406E+01  0.40579546488E+01 -0.18165941315E+03  0.18171304470E+03  0.00000000000E+00 0.  1.
        -15    1    1    2    0    0 -0.16336873152E+01  0.27270538318E+00  0.22673032151E+02  0.22802794092E+02  0.17770000000E+01 0. -1.
         15    1    1    2    0    0  0.20786353512E+01 -0.30348811256E+01  0.49116914227E+01  0.63885577404E+01  0.17770000000E+01 0.  1.
</event>
<event>
 6    1  0.1196607E-002  0.2052307E+03  0.7546771E-02  0.1051676E+00
        -11   -1    0    0    0    0  0.00000000000E+00  0.00000000000E+00  0.18250000000E+03  0.18250000000E+03  0.00000000000E+00 0.  1.
         11   -1    0    0    0    0 -0.00000000000E+00 -0.00000000000E+00 -0.18250000000E+03  0.18250000000E+03  0.00000000000E+00 0.  1.
        -11    1    1    2    0    0  0.76735058787E+01 -0.55289278535E+01  0.15948908347E+03  0.15976926951E+03  0.00000000000E+00 0.  1.
         11    1    1    2    0    0  0.13940968191E+01 -0.87931795440E+00 -0.10933240620E+03  0.10934482956E+03  0.00000000000E+00 0.  1.
        -15    1    1    2    0    0  0.60813666343E+00  0.42943777846E+02 -0.33722097970E+02  0.54634014189E+02  0.17770000000E+01 0.  1.
         15    1    1    2    0    0 -0.96757393612E+01 -0.36535532038E+02 -0.16434579296E+02  0.41251886734E+02  0.17770000000E+01 0. -1.
</event>
<event>
 6    1  0.1196607E-002  0.1828833E+03  0.7546771E-02  0.1068150E+00
        -11   -1    0    0    0    0  0.00000000000E+00  0.00000000000E+00  0.18250000000E+03  0.18250000000E+03  0.00000000000E+00 0. -1.
         11   -1    0    0    0    0 -0.00000000000E+00 -0.00000000000E+00 -0.18250000000E+03  0.18250000000E+03  0.00000000000E+00 0. -1.
        -11    1    1    2    0    0  0.16848373060E+01  0.36829901622E+01  0.18207166793E+03  0.18211670806E+03  0.00000000000E+00 0. -1.
         11    1    1    2    0    0  0.58921058612E+00  0.89057850443E+00 -0.23748596934E+02  0.23772592528E+02  0.00000000000E+00 0. -1.
        -15    1    1    2    0    0  0.57736297769E+00  0.30279037659E+01 -0.11143428449E+03  0.11149107156E+03  0.17770000000E+01 0. -1.
         15    1    1    2    0    0 -0.28514108698E+01 -0.76014724325E+01 -0.46888786511E+02  0.47619627850E+02  0.17770000000E+01 0. -1.
</event>
<event>
 6    1  0.1196607E-002  0.1880232E+03  0.7546771E-02  0.1064141E+00
        -11   -1    0    0    0    0  0.00000000000E+00  0.00000000000E+00  0.18250000000E+03  0.18250000000E+03  0.00000000000E+00 0.  1.
         11   -1    0    0    0    0 -0.00000000000E+00 -0.00000000000E+00 -0.18250000000E+03  0.18250000000E+03  0.00000000000E+00 0.  1.
        -11    1    1    2    0    0  0.41952984471E+01  0.19847484410E+01  0.17691598181E+03  0.17697684701E+03  0.00000000000E+00 0.  1.
         11    1    1    2    0    0  0.16132031767E+01  0.13853366465E+01 -0.13957665632E+03  0.13959285287E+03  0.00000000000E+00 0.  1.
        -15    1    1    2    0    0  0.10139953705E+01  0.10390867314E+02 -0.33799357218E+01  0.11116654382E+02  0.17770000000E+01 0. -1.
         15    1    1    2    0    0 -0.68224969943E+01 -0.13760952402E+02 -0.33959389768E+02  0.37313645743E+02  0.17770000000E+01 0.  1.
</event>
<event>
 6    1  0.1196607E-002  0.1817195E+03  0.7546771E-02  0.1069078E+00
        -11   -1    0    0    0    0  0.00000000000E+00  0.00000000000E+00  0.18250000000E+03  0.18250000000E+03  0.00000000000E+00 0. -1.
         11   -1    0    0    0    0 -0.00000000000E+00 -0.00000000000E+00 -0.18250000000E+03  0.18250000000E+03  0.00000000000E+00 0. -1.
        -11    1    1    2    0    0  0.32402920594E+00 -0.47950109595E+00  0.20607792235E+01  0.21404969599E+01  0.00000000000E+00 0. -1.
         11    1    1    2    0    0  0.20808795989E+01 -0.51289503964E+01 -0.18207183908E+03  0.18215595180E+03  0.00000000000E+00 0. -1.
        -15    1    1    2    0    0  0.59908391717E+00  0.29579188756E+01  0.16568769383E+03  0.16572470486E+03  0.17770000000E+01 0. -1.
         15    1    1    2    0    0 -0.30039927220E+01  0.26505326167E+01  0.14323366027E+02  0.14978846376E+02  0.17770000000E+01 0.  1.
</event>
<event>
 6    1  0.1196607E-002  0.1830808E+03  0.7546771E-02  0.1067993E+00
        -11   -1    0    0    0    0  0.00000000000E+00  0.00000000000E+00  0.18250000000E+03  0.18250000000E+03  0.00000000000E+00 0.  1.
         11   -1    0    0    0    0 -0.00000000000E+00 -0.00000000000E+00 -0.18250000000E+03  0.18250000000E+03  0.00000000000E+00 0. -1.
        -11    1    1    2    0    0 -0.41258536625E+01  0.37542374585E+00  0.10564037801E+03  0.10572158283E+03  0.00000000000E+00 0.  1.
         11    1    1    2    0    0 -0.39432323372E+01  0.52299282820E+01 -0.18180124046E+03  0.18191919157E+03  0.00000000000E+00 0. -1.
        -15    1    1    2    0    0  0.77766524654E+01 -0.75002636580E+01  0.61342889273E+02  0.62312423094E+02  0.17770000000E+01 0.  1.
         15    1    1    2    0    0  0.29243353431E+00  0.18949116302E+01  0.14817973175E+02  0.15046802500E+02  0.17770000000E+01 0.  1.
</event>
<event>
 6    1  0.1196607E-002  0.1832314E+03  0.7546771E-02  0.1067874E+00
        -11   -1    0    0    0    0  0.00000000000E+00  0.00000000000E+00  0.18250000000E+03  0.18250000000E+03  0.00000000000E+00 0. -1.
         11   -1    0    0    0    0 -0.00000000000E+00 -0.00000000000E+00 -0.18250000000E+03  0.18250000000E+03  0.00000000000E+00 0.  1.
        -11    1    1    2    0    0 -0.26277966050E+01 -0.20654364720E-01  0.18174955617E+03  0.18176855314E+03  0.00000000000E+00 0. -1.
         11    1    1    2    0    0  0.73852256790E+00  0.53069845286E+01 -0.71225004200E+02  0.71426260742E+02  0.00000000000E+00 0.  1.
        -15    1    1    2    0    0 -0.44104818181E+01  0.35768500025E+00 -0.78195892163E+02  0.78341148629E+02  0.17770000000E+01 0.  1.
         15    1    1    2    0    0  0.62997558551E+01 -0.56440151641E+01 -0.32328659809E+02  0.33464037489E+02  0.17770000000E+01 0. -1.
</event>
<event>
 6    1  0.1196607E-002  0.1869858E+03  0.7546771E-02  0.1064939E+00
        -11   -1    0    0    0    0  0.00000000000E+00  0.00000000000E+00  0.18250000000E+03  0.18250000000E+03  0.00000000000E+00 0. -1.
         11   -1    0    0    0    0 -0.00000000000E+00 -0.00000000000E+00 -0.18250000000E+03  0.18250000000E+03  0.00000000000E+00 0.  1.
        -11    1    1    2    0    0 -0.11859434221E+01 -0.25932031502E+01  0.17799137773E+03  0.17801421772E+03  0.00000000000E+00 0. -1.
         11    1    1    2    0    0 -0.29169268692E+01  0.11620782325E+01 -0.16757325706E+03  0.16760267113E+03  0.00000000000E+00 0.  1.
        -15    1    1    2    0    0  0.52510199670E+01  0.29422658335E+01 -0.13774900972E+02  0.15137231079E+02  0.17770000000E+01 0.  1.
         15    1    1    2    0    0 -0.11481496758E+01 -0.15111409157E+01  0.33567803061E+01  0.42458800699E+01  0.17770000000E+01 0. -1.
</event>
<event>
 6    1  0.1196607E-002  0.1829665E+03  0.7546771E-02  0.1068084E+00
        -11   -1    0    0    0    0  0.00000000000E+00  0.00000000000E+00  0.18250000000E+03  0.18250000000E+03  0.00000000000E+00 0. -1.
         11   -1    0    0    0    0 -0.00000000000E+00 -0.00000000000E+00 -0.18250000000E+03  0.18250000000E+03  0.00000000000E+00 0. -1.
        -11    1    1    2    0    0  0.17996429445E+01  0.25933356800E+01  0.18200611155E+03  0.18203348248E+03  0.00000000000E+00 0. -1.
         11    1    1    2    0    0  0.28880501075E+01  0.53364444847E+00 -0.15379715372E+03  0.15382519333E+03  0.00000000000E+00 0. -1.
        -15    1    1    2    0    0 -0.10814886005E+01 -0.18581268113E+01 -0.15568799037E+02  0.15816683764E+02  0.17770000000E+01 0. -1.
         15    1    1    2    0    0 -0.36062044515E+01 -0.12688533172E+01 -0.12640158787E+02  0.13324640425E+02  0.17770000000E+01 0.  1.
</event>
<event>
 6    1  0.1196607E-002  0.1831350E+03  0.7546771E-02  0.1067950E+00
        -11   -1    0    0    0    0  0.00000000000E+00  0.00000000000E+00  0.18250000000E+03  0.18250000000E+03  0.00000000000E+00 0. -1.
         11   -1    0    0    0    0 -0.00000000000E+00 -0.00000000000E+00 -0.18250000000E+03  0.18250000000E+03  0.00000000000E+00 0.  1.
        -11    1    1    2    0    0  0.19084171753E+01  0.46101672705E-01  0.12508119234E+03  0.12509575875E+03  0.00000000000E+00 0. -1.
         11    1    1    2    0    0  0.15744458664E+01 -0.34808005771E+01 -0.18182489760E+03  0.18186502753E+03  0.00000000000E+00 0.  1.
        -15    1    1    2    0    0  0.23431889404E+01 -0.10113470575E+01  0.62018153353E+01  0.69378382609E+01  0.17770000000E+01 0. -1.
         15    1    1    2    0    0 -0.58260519821E+01  0.44460459619E+01  0.50541889931E+02  0.51101375453E+02  0.17770000000E+01 0. -1.
</event>
<event>
 6    1  0.1196607E-002  0.1905585E+03  0.7546771E-02  0.1062215E+00
        -11   -1    0    0    0    0  0.00000000000E+00  0.00000000000E+00  0.18250000000E+03  0.18250000000E+03  0.00000000000E+00 0. -1.
         11   -1    0    0    0    0 -0.00000000000E+00 -0.00000000000E+00 -0.18250000000E+03  0.18250000000E+03  0.00000000000E+00 0.  1.
        -11    1    1    2    0    0  0.13063262831E+02 -0.18582717832E+01  0.12061622022E+03  0.12133579270E+03  0.00000000000E+00 0. -1.
         11    1    1    2    0    0  0.10542202604E+02 -0.59016469897E+01 -0.17402265422E+03  0.17444154223E+03  0.00000000000E+00 0.  1.
        -15    1    1    2    0    0 -0.79961473719E+01  0.12663860877E-01  0.50867854001E+02  0.51523148514E+02  0.17770000000E+01 0.  1.
         15    1    1    2    0    0 -0.15609318064E+02  0.77472549121E+01  0.25385800012E+01  0.17699516562E+02  0.17770000000E+01 0. -1.
</event>
<event>
 6    1  0.1196607E-002  0.1830231E+03  0.7546771E-02  0.1068039E+00
        -11   -1    0    0    0    0  0.00000000000E+00  0.00000000000E+00  0.18250000000E+03  0.18250000000E+03  0.00000000000E+00 0.  1.
         11   -1    0    0    0    0 -0.00000000000E+00 -0.00000000000E+00 -0.18250000000E+03  0.18250000000E+03  0.00000000000E+00 0.  1.
        -11    1    1    2    0    0 -0.23467496737E+01  0.82287186715E+00  0.46111542043E+02  0.46178551967E+02  0.00000000000E+00 0.  1.
         11    1    1    2    0    0  0.69477461510E+01  0.76108360217E+00 -0.18184258731E+03  0.18197685837E+03  0.00000000000E+00 0.  1.
        -15    1    1    2    0    0 -0.28797754303E+00  0.24946432081E+01  0.44074813712E+01  0.53749229611E+01  0.17770000000E+01 0. -1.
         15    1    1    2    0    0 -0.43130189343E+01 -0.40785986775E+01  0.13132356389E+03  0.13146966670E+03  0.17770000000E+01 0.  1.
</event>
<event>
 6    1  0.1196607E-002  0.1829429E+03  0.7546771E-02  0.1068103E+00
        -11   -1    0    0    0    0  0.00000000000E+00  0.00000000000E+00  0.18250000000E+03  0.18250000000E+03  0.00000000000E+00 0.  1.
         11   -1    0    0    0    0 -0.00000000000E+00 -0.00000000000E+00 -0.18250000000E+03  0.18250000000E+03  0.00000000000E+00 0.  1.
        -11    1    1    2    0    0 -0.18949073311E+01  0.13173915825E+01  0.16369485061E+03  0.16371111847E+03  0.00000000000E+00 0.  1.
         11    1    1    2    0    0  0.41394334759E+00 -0.40242224279E+01 -0.18201211607E+03  0.18205706828E+03  0.00000000000E+00 0.  1.
        -15    1    1    2    0    0  0.86991123433E+00 -0.37720900018E+00  0.93531884735E+01  0.95675961352E+01  0.17770000000E+01 0. -1.
         15    1    1    2    0    0  0.61105274918E+00  0.30840398456E+01  0.89640769861E+01  0.96642171149E+01  0.17770000000E+01 0. -1.
</event>
<event>
 6    1  0.1196607E-002  0.1831872E+03  0.7546771E-02  0.1067909E+00
        -11   -1    0    0    0    0  0.00000000000E+00  0.00000000000E+00  0.18250000000E+03  0.18250000000E+03  0.00000000000E+00 0. -1.
         11   -1    0    0    0    0 -0.00000000000E+00 -0.00000000000E+00 -0.18250000000E+03  0.18250000000E+03  0.00000000000E+00 0.  1.
        -11    1    1    2    0    0 -0.36716103548E+01  0.80617585450E+00  0.14277910608E+03  0.14282858178E+03  0.00000000000E+00 0. -1.
         11    1    1    2    0    0 -0.25302468292E+01 -0.14493225639E+01 -0.18178946252E+03  0.18181284709E+03  0.00000000000E+00 0.  1.
        -15    1    1    2    0    0  0.27706345719E+01  0.66022844637E-01  0.33163530723E+02  0.33326540084E+02  0.17770000000E+01 0. -1.
         15    1    1    2    0    0  0.34312226120E+01  0.57712386475E+00  0.58468257179E+01  0.70320310397E+01  0.17770000000E+01 0.  1.
</event>
<event>
 6    1  0.1196607E-002  0.1711953E+03  0.7546771E-02  0.1077827E+00
        -11   -1    0    0    0    0  0.00000000000E+00  0.00000000000E+00  0.18250000000E+03  0.18250000000E+03  0.00000000000E+00 0.  1.
         11   -1    0    0    0    0 -0.00000000000E+00 -0.00000000000E+00 -0.18250000000E+03  0.18250000000E+03  0.00000000000E+00 0. -1.
        -11    1    1    2    0    0  0.11478696328E+01 -0.29251907033E+01  0.16992784749E+03  0.16995689953E+03  0.00000000000E+00 0.  1.
         11    1    1    2    0    0  0.72814638848E+01  0.44391813439E+01 -0.17233850624E+03  0.17254937490E+03  0.00000000000E+00 0. -1.
        -15    1    1    2    0    0 -0.64021925055E+00  0.23486782115E+01  0.10230898155E+02  0.10665607160E+02  0.17770000000E+01 0.  1.
         15    1    1    2    0    0 -0.77891142671E+01 -0.38626688521E+01 -0.78202394045E+01  0.11828118408E+02  0.17770000000E+01 0.  1.
</event>
<event>
 6    1  0.1196607E-002  0.1832470E+03  0.7546771E-02  0.1067862E+00
        -11   -1    0    0    0    0  0.00000000000E+00  0.00000000000E+00  0.18250000000E+03  0.18250000000E+03  0.00000000000E+00 0.  1.
         11   -1    0    0    0    0 -0.00000000000E+00 -0.00000000000E+00 -0.18250000000E+03  0.18250000000E+03  0.00000000000E+00 0. -1.
        -11    1    1    2    0    0 -0.27126173992E+01 -0.80818114195E+00  0.18173098469E+03  0.18175302541E+03  0.00000000000E+00 0.  1.
         11    1    1    2    0    0 -0.81020266617E+00 -0.48412146325E+01 -0.14934097191E+03  0.14942161717E+03  0.00000000000E+00 0. -1.
        -15    1    1    2    0    0  0.23078253979E+01  0.42442445372E+01 -0.29548709393E+02  0.29993726437E+02  0.17770000000E+01 0.  1.
         15    1    1    2    0    0  0.12149946675E+01  0.14051512372E+01 -0.28413033844E+01  0.38316309795E+01  0.17770000000E+01 0. -1.
</event>
<event>
 6    1  0.1196607E-002  0.1826466E+03  0.7546771E-02  0.1068338E+00
        -11   -1    0    0    0    0  0.00000000000E+00  0.00000000000E+00  0.18250000000E+03  0.18250000000E+03  0.00000000000E+00 0.  1.
         11   -1    0    0    0    0 -0.00000000000E+00 -0.00000000000E+00 -0.18250000000E+03  0.18250000000E+03  0.00000000000E+00 0. -1.
        -11    1    1    2    0    0 -0.20558407949E+01 -0.78827917382E+00  0.11524251594E+03  0.11526354734E+03  0.00000000000E+00 0.  1.
         11    1    1    2    0    0  0.25669783598E+01 -0.30559165397E+01 -0.18230970464E+03  0.18235338332E+03  0.00000000000E+00 0. -1.
        -15    1    1    2    0    0 -0.17397234330E+00  0.24657625562E+01  0.17433645933E+02  0.17697457187E+02  0.17770000000E+01 0.  1.
         15    1    1    2    0    0 -0.33716522155E+00  0.13784331573E+01  0.49633542764E+02  0.49685612150E+02  0.17770000000E+01 0. -1.
</event>
<event>
 6    1  0.1196607E-002  0.1850581E+03  0.7546771E-02  0.1066437E+00
        -11   -1    0    0    0    0  0.00000000000E+00  0.00000000000E+00  0.18250000000E+03  0.18250000000E+03  0.00000000000E+00 0. -1.
         11   -1    0    0    0    0 -0.00000000000E+00 -0.00000000000E+00 -0.18250000000E+03  0.18250000000E+03  0.00000000000E+00 0.  1.
        -11    1    1    2    0    0 -0.14664876416E+01 -0.28880499248E+01  0.16963931371E+03  0.16967023361E+03  0.00000000000E+00 0. -1.
         11    1    1    2    0    0  0.22627766328E+01 -0.41554847901E+01 -0.17987963794E+03  0.17994185827E+03  0.00000000000E+00 0.  1.
        -15    1    1    2    0    0  0.36453085825E+00  0.25457801798E+01 -0.84489876755E+00  0.32381263715E+01  0.17770000000E+01 0. -1.
         15    1    1    2    0    0 -0.11608198494E+01  0.44977545351E+01  0.11085223001E+02  0.12149781750E+02  0.17770000000E+01 0.  1.
</event>
<event>
 6    1  0.1196607E-002  0.1854106E+03  0.7546771E-02  0.1066161E+00
        -11   -1    0    0    0    0  0.00000000000E+00  0.00000000000E+00  0.18250000000E+03  0.18250000000E+03  0.00000000000E+00 0. -1.
         11   -1    0    0    0    0 -0.00000000000E+00 -0.00000000000E+00 -0.18250000000E+03  0.18250000000E+03  0.00000000000E+00 0. -1.
        -11    1    1    2    0    0 -0.24631384055E+01 -0.28605617713E+00  0.15310656629E+03  0.15312664536E+03  0.00000000000E+00 0. -1.
         11    1    1    2    0    0 -0.88476611118E+00 -0.35090025950E+01 -0.17955294034E+03  0.17958940474E+03  0.00000000000E+00 0. -1.
        -15    1    1    2    0    0 -0.38824931825E+01  0.54824952152E+01  0.22777117358E+02  0.23813574096E+02  0.17770000000E+01 0.  1.
         15    1    1    2    0    0  0.72303976992E+01 -0.16874364431E+01  0.36692566927E+01  0.84703758072E+01  0.17770000000E+01 0. -1.
</event>
<event>
 6    1  0.1196607E-002  0.1840222E+03  0.7546771E-02  0.1067250E+00
        -11   -1    0    0    0    0  0.00000000000E+00  0.00000000000E+00  0.18250000000E+03  0.18250000000E+03  0.00000000000E+00 0.  1.
         11   -1    0    0    0    0 -0.00000000000E+00 -0.00000000000E+00 -0.18250000000E+03  0.18250000000E+03  0.00000000000E+00 0. -1.
        -11    1    1    2    0    0  0.22479589639E+00 -0.59910977290E+01  0.13973984172E+03  0.13986839224E+03  0.00000000000E+00 0.  1.
         11    1    1    2    0    0 -0.63678894007E+01  0.51594620243E+01 -0.18079208335E+03  0.18097775406E+03  0.00000000000E+00 0. -1.
        -15    1    1    2    0    0  0.10881899214E+02 -0.42554790092E+00  0.28496401864E+02  0.30558132628E+02  0.17770000000E+01 0. -1.
         15    1    1    2    0    0 -0.47388057100E+01  0.12571836056E+01  0.12555839763E+02  0.13595721067E+02  0.17770000000E+01 0. -1.
</event>
<event>
 6    1  0.1196607E-002  0.1266100E+03  0.7546771E-02  0.1124412E+00
        -11   -1    0    0    0    0  0.00000000000E+00  0.00000000000E+00  0.18250000000E+03  0.18250000000E+03  0.00000000000E+00 0. -1.
         11   -1    0    0    0    0 -0.00000000000E+00 -0.00000000000E+00 -0.18250000000E+03  0.18250000000E+03  0.00000000000E+00 0. -1.
        -11    1    1    2    0    0  0.98504432629E+00 -0.20279487932E+01  0.65311093857E+02  0.65349995176E+02  0.00000000000E+00 0. -1.
         11    1    1    2    0    0 -0.13391255837E+02  0.14052837564E+01 -0.13806300367E+03  0.13871803610E+03  0.00000000000E+00 0. -1.
        -15    1    1    2    0    0  0.12713464021E+02 -0.31807289693E+01 -0.43059173644E+02  0.45044415504E+02  0.17770000000E+01 0. -1.
         15    1    1    2    0    0 -0.30725251090E+00  0.38033940061E+01  0.11581108346E+03  0.11588755322E+03  0.17770000000E+01 0. -1.
</event>
<event>
 6    1  0.1196607E-002  0.1833233E+03  0.7546771E-02  0.1067801E+00
        -11   -1    0    0    0    0  0.00000000000E+00  0.00000000000E+00  0.18250000000E+03  0.18250000000E+03  0.00000000000E+00 0. -1.
         11   -1    0    0    0    0 -0.00000000000E+00 -0.00000000000E+00 -0.18250000000E+03  0.18250000000E+03  0.00000000000E+00 0. -1.
        -11    1    1    2    0    0 -0.17965655820E+00  0.28350278760E+01  0.18165450742E+03  0.18167671762E+03  0.00000000000E+00 0. -1.
         11    1    1    2    0    0 -0.28469470738E+01  0.14061934818E+01 -0.14702306830E+03  0.14705735309E+03  0.00000000000E+00 0. -1.
        -15    1    1    2    0    0  0.51803564966E+00  0.77442515380E+00 -0.24255423586E+02  0.24338270226E+02  0.17770000000E+01 0.  1.
         15    1    1    2    0    0  0.25085679823E+01 -0.50156465116E+01 -0.10376015538E+02  0.11927659061E+02  0.17770000000E+01 0. -1.
</event>
<event>
 6    1  0.1196607E-002  0.1843234E+03  0.7546771E-02  0.1067013E+00
        -11   -1    0    0    0    0  0.00000000000E+00  0.00000000000E+00  0.18250000000E+03  0.18250000000E+03  0.00000000000E+00 0. -1.
         11   -1    0    0    0    0 -0.00000000000E+00 -0.00000000000E+00 -0.18250000000E+03  0.18250000000E+03  0.00000000000E+00 0.  1.
        -11    1    1    2    0    0  0.86233288916E+01 -0.31717205066E+01  0.18044286715E+03  0.18067664464E+03  0.00000000000E+00 0. -1.
         11    1    1    2    0    0 -0.10144129065E+00  0.22950084871E+01 -0.15176723829E+03  0.15178462364E+03  0.00000000000E+00 0.  1.
        -15    1    1    2    0    0 -0.96270121736E+01  0.28182212522E+01 -0.12558758686E+02  0.16171019855E+02  0.17770000000E+01 0.  1.
         15    1    1    2    0    0  0.11051245726E+01 -0.19415092327E+01 -0.16116870176E+02  0.16367711865E+02  0.17770000000E+01 0.  1.
</event>
<event>
 6    1  0.1196607E-002  0.1875101E+03  0.7546771E-02  0.1064535E+00
        -11   -1    0    0    0    0  0.00000000000E+00  0.00000000000E+00  0.18250000000E+03  0.18250000000E+03  0.00000000000E+00 0.  1.
         11   -1    0    0    0    0 -0.00000000000E+00 -0.00000000000E+00 -0.18250000000E+03  0.18250000000E+03  0.00000000000E+00 0.  1.
        -11    1    1    2    0    0  0.17333991146E+01 -0.91643382466E+01  0.13646154057E+03  0.13677990285E+03  0.00000000000E+00 0.  1.
         11    1    1    2    0    0  0.62386332463E+01 -0.14843177018E+00 -0.17738019170E+03  0.17748992924E+03  0.00000000000E+00 0.  1.
        -15    1    1    2    0    0  0.56072411736E+00  0.73366274787E+01  0.41100035428E+02  0.41791280855E+02  0.17770000000E+01 0. -1.
         15    1    1    2    0    0 -0.85327564782E+01  0.19761425381E+01 -0.18138430463E+00  0.89388870512E+01  0.17770000000E+01 0. -1.
</event>
<event>
 6    1  0.1196607E-002  0.1827196E+03  0.7546771E-02  0.1068280E+00
        -11   -1    0    0    0    0  0.00000000000E+00  0.00000000000E+00  0.18250000000E+03  0.18250000000E+03  0.00000000000E+00 0.  1.
         11   -1    0    0    0    0 -0.00000000000E+00 -0.00000000000E+00 -0.18250000000E+03  0.18250000000E+03  0.00000000000E+00 0.  1.
        -11    1    1    2    0    0 -0.31081801816E+01 -0.50722886126E+00  0.10093219397E+03  0.10098131434E+03  0.00000000000E+00 0.  1.
         11    1    1    2    0    0  0.32604183797E+01  0.34890199739E+01 -0.18221784300E+03  0.18228040459E+03  0.00000000000E+00 0.  1.
        -15    1    1    2    0    0  0.23951453465E+01  0.12925467126E+01  0.26556674084E+02  0.26754851254E+02  0.17770000000E+01 0.  1.
         15    1    1    2    0    0 -0.25473835446E+01 -0.42743378252E+01  0.54728974946E+02  0.54983429816E+02  0.17770000000E+01 0.  1.
</event>
<event>
 6    1  0.1196607E-002  0.1899914E+03  0.7546771E-02  0.1062643E+00
        -11   -1    0    0    0    0  0.00000000000E+00  0.00000000000E+00  0.18250000000E+03  0.18250000000E+03  0.00000000000E+00 0. -1.
         11   -1    0    0    0    0 -0.00000000000E+00 -0.00000000000E+00 -0.18250000000E+03  0.18250000000E+03  0.00000000000E+00 0.  1.
        -11    1    1    2    0    0  0.18607935675E+01 -0.47561209755E+01  0.17041083178E+03  0.17048734506E+03  0.00000000000E+00 0. -1.
         11    1    1    2    0    0  0.11072981800E+01  0.32330870069E+01 -0.17497526959E+03  0.17500863958E+03  0.00000000000E+00 0.  1.
        -15    1    1    2    0    0 -0.25046475327E+01 -0.30658295802E+01 -0.62528058928E+01  0.76110367764E+01  0.17770000000E+01 0.  1.
         15    1    1    2    0    0 -0.46344421478E+00  0.45888635488E+01  0.10817243702E+02  0.11892978581E+02  0.17770000000E+01 0. -1.
</event>
<event>
 6    1  0.1196607E-002  0.1865617E+03  0.7546771E-02  0.1065267E+00
        -11   -1    0    0    0    0  0.00000000000E+00  0.00000000000E+00  0.18250000000E+03  0.18250000000E+03  0.00000000000E+00 0. -1.
         11   -1    0    0    0    0 -0.00000000000E+00 -0.00000000000E+00 -0.18250000000E+03  0.18250000000E+03  0.00000000000E+00 0.  1.
        -11    1    1    2    0    0  0.13181798465E+02 -0.93336075957E+00  0.15034103242E+03  0.15092069773E+03  0.00000000000E+00 0. -1.
         11    1    1    2    0    0 -0.11927662484E+02  0.87149816014E+01 -0.17782580250E+03  0.17843832568E+03  0.00000000000E+00 0.  1.
        -15    1    1    2    0    0  0.31485632401E+01 -0.14917956861E+01  0.27483513462E+02  0.27760406086E+02  0.17770000000E+01 0.  1.
         15    1    1    2    0    0 -0.44026992211E+01 -0.62898251558E+01  0.12566157760E-02  0.78805705061E+01  0.17770000000E+01 0. -1.
</event>
<event>
 6    1  0.1196607E-002  0.1837126E+03  0.7546771E-02  0.1067494E+00
        -11   -1    0    0    0    0  0.00000000000E+00  0.00000000000E+00  0.18250000000E+03  0.18250000000E+03  0.00000000000E+00 0. -1.
         11   -1    0    0    0    0 -0.00000000000E+00 -0.00000000000E+00 -0.18250000000E+03  0.18250000000E+03  0.00000000000E+00 0. -1.
        -11    1    1    2    0    0 -0.18911708396E+01 -0.23997482524E+01  0.17269080585E+03  0.17271783274E+03  0.00000000000E+00 0. -1.
         11    1    1    2    0    0  0.17192060938E+01 -0.31095504110E+01 -0.18125259996E+03  0.18128742363E+03  0.00000000000E+00 0. -1.
        -15    1    1    2    0    0  0.72587097306E+00  0.41906524747E+01  0.59636647660E+01  0.75373392702E+01  0.17770000000E+01 0. -1.
         15    1    1    2    0    0 -0.55390622725E+00  0.13186461888E+01  0.25981293406E+01  0.34574043660E+01  0.17770000000E+01 0.  1.
</event>
<event>
 6    1  0.1196607E-002  0.1828711E+03  0.7546771E-02  0.1068160E+00
        -11   -1    0    0    0    0  0.00000000000E+00  0.00000000000E+00  0.18250000000E+03  0.18250000000E+03  0.00000000000E+00 0. -1.
         11   -1    0    0    0    0 -0.00000000000E+00 -0.00000000000E+00 -0.18250000000E+03  0.18250000000E+03  0.00000000000E+00 0. -1.
        -11    1    1    2    0    0  0.21137554276E+01 -0.92738027568E+01  0.18188035113E+03  0.18212889257E+03  0.00000000000E+00 0. -1.
         11    1    1    2    0    0  0.15189777331E+01 -0.66187284368E+00 -0.10569845494E+03  0.10571144094E+03  0.00000000000E+00 0. -1.
        -15    1    1    2    0    0 -0.14050987236E+01  0.81627337338E+00 -0.96827228196E+01  0.99776477611E+01  0.17770000000E+01 0. -1.
         15    1    1    2    0    0 -0.22276344372E+01  0.91194022271E+01 -0.66499173372E+02  0.67182018727E+02  0.17770000000E+01 0.  1.
</event>
<event>
 6    1  0.1196607E-002  0.1858026E+03  0.7546771E-02  0.1065856E+00
        -11   -1    0    0    0    0  0.00000000000E+00  0.00000000000E+00  0.18250000000E+03  0.18250000000E+03  0.00000000000E+00 0. -1.
         11   -1    0    0    0    0 -0.00000000000E+00 -0.00000000000E+00 -0.18250000000E+03  0.18250000000E+03  0.00000000000E+00 0. -1.
        -11    1    1    2    0    0  0.35058706332E+01 -0.17861748013E+01  0.17915423978E+03  0.17919744189E+03  0.00000000000E+00 0. -1.
         11    1    1    2    0    0  0.24627099663E+00 -0.44061857797E+01 -0.17274664763E+03  0.17280300747E+03  0.00000000000E+00 0. -1.
        -15    1    1    2    0    0  0.52954520598E+00  0.23268283185E+01 -0.62948018556E+01  0.69625288186E+01  0.17770000000E+01 0. -1.
         15    1    1    2    0    0 -0.42816868358E+01  0.38655322625E+01 -0.11279028523E+00  0.60370218222E+01  0.17770000000E+01 0. -1.
</event>
<event>
 6    1  0.1196607E-002  0.1896885E+03  0.7546771E-02  0.1062872E+00
        -11   -1    0    0    0    0  0.00000000000E+00  0.00000000000E+00  0.18250000000E+03  0.18250000000E+03  0.00000000000E+00 0. -1.
         11   -1    0    0    0    0 -0.00000000000E+00 -0.00000000000E+00 -0.18250000000E+03  0.18250000000E+03  0.00000000000E+00 0.  1.
        -11    1    1    2    0    0  0.27237129726E+01 -0.13442707051E+02  0.16187939227E+03  0.16245941840E+03  0.00000000000E+00 0. -1.
         11    1    1    2    0    0 -0.20870937642E+01 -0.19984539043E+01 -0.17528764753E+03  0.17531146327E+03  0.00000000000E+00 0.  1.
        -15    1    1    2    0    0 -0.19991255718E+01  0.16258320618E+02  0.16504666870E+02  0.23321476151E+02  0.17770000000E+01 0. -1.
         15    1    1    2    0    0  0.13625063635E+01 -0.81715966306E+00 -0.30964116118E+01  0.39076421759E+01  0.17770000000E+01 0.  1.
</event>
<event>
 6    1  0.1196607E-002  0.1825916E+03  0.7546771E-02  0.1068382E+00
        -11   -1    0    0    0    0  0.00000000000E+00  0.00000000000E+00  0.18250000000E+03  0.18250000000E+03  0.00000000000E+00 0. -1.
         11   -1    0    0    0    0 -0.00000000000E+00 -0.00000000000E+00 -0.18250000000E+03  0.18250000000E+03  0.00000000000E+00 0.  1.
        -11    1    1    2    0    0  0.12688195309E+01  0.15976636115E+01  0.54769864306E+02  0.54807850425E+02  0.00000000000E+00 0. -1.
         11    1    1    2    0    0  0.19277929429E+01 -0.29950276465E+01 -0.18237362204E+03  0.18240840056E+03  0.00000000000E+00 0.  1.
        -15    1    1    2    0    0 -0.51594438357E+00  0.23976157819E+01  0.81936778020E+02  0.81992731881E+02  0.17770000000E+01 0.  1.
         15    1    1    2    0    0 -0.26806680902E+01 -0.10002517470E+01  0.45666979718E+02  0.45791017138E+02  0.17770000000E+01 0. -1.
</event>
<event>
 6    1  0.1196607E-002  0.1862946E+03  0.7546771E-02  0.1065474E+00
        -11   -1    0    0    0    0  0.00000000000E+00  0.00000000000E+00  0.18250000000E+03  0.18250000000E+03  0.00000000000E+00 0. -1.
         11   -1    0    0    0    0 -0.00000000000E+00 -0.00000000000E+00 -0.18250000000E+03  0.18250000000E+03  0.00000000000E+00 0.  1.
        -11    1    1    2    0    0  0.51317751451E+00  0.23743352240E+01  0.17868888625E+03  0.17870539692E+03  0.00000000000E+00 0. -1.
         11    1    1    2    0    0  0.29244756425E+01  0.92887791223E+00 -0.16091581950E+03  0.16094507242E+03  0.00000000000E+00 0.  1.
        -15    1    1    2    0    0 -0.24654308385E+00  0.55329964636E+01 -0.80364608326E+00  0.58718318595E+01  0.17770000000E+01 0. -1.
         15    1    1    2    0    0 -0.31911100732E+01 -0.88362095998E+01 -0.16969420667E+02  0.19477698795E+02  0.17770000000E+01 0.  1.
</event>
<event>
 6    1  0.1236336E-002  0.1831827E+03  0.7546771E-02  0.1067913E+00
        -11   -1    0    0    0    0  0.00000000000E+00  0.00000000000E+00  0.18250000000E+03  0.18250000000E+03  0.00000000000E+00 0. -1.
         11   -1    0    0    0    0 -0.00000000000E+00 -0.00000000000E+00 -0.18250000000E+03  0.18250000000E+03  0.00000000000E+00 0. -1.
        -11    1    1    2    0    0 -0.71546210872E+01 -0.55025804999E+01  0.18159308044E+03  0.18181725402E+03  0.00000000000E+00 0. -1.
         11    1    1    2    0    0  0.29957638762E+00 -0.48471269189E+00 -0.30670266495E+02  0.30675559315E+02  0.00000000000E+00 0. -1.
        -15    1    1    2    0    0  0.13310345948E+01 -0.31810566696E+01 -0.11289683203E+03  0.11296345952E+03  0.17770000000E+01 0. -1.
         15    1    1    2    0    0  0.55240101048E+01  0.91683498614E+01 -0.38025981919E+02  0.39543727147E+02  0.17770000000E+01 0.  1.
</event>
<event>
 6    1  0.1196607E-002  0.1827313E+03  0.7546771E-02  0.1068271E+00
        -11   -1    0    0    0    0  0.00000000000E+00  0.00000000000E+00  0.18250000000E+03  0.18250000000E+03  0.00000000000E+00 0. -1.
         11   -1    0    0    0    0 -0.00000000000E+00 -0.00000000000E+00 -0.18250000000E+03  0.18250000000E+03  0.00000000000E+00 0. -1.
        -11    1    1    2    0    0 -0.61037201950E+00 -0.24263526810E+01  0.18225153061E+03  0.18226870316E+03  0.00000000000E+00 0. -1.
         11    1    1    2    0    0  0.27749788536E+01  0.74004547301E+00 -0.10195356244E+03  0.10199400507E+03  0.00000000000E+00 0. -1.
        -15    1    1    2    0    0  0.59360894058E+00  0.19154326543E+01 -0.66453350847E+02  0.66507344118E+02  0.17770000000E+01 0.  1.
         15    1    1    2    0    0 -0.27582157747E+01 -0.22912544638E+00 -0.13844617316E+02  0.14229947658E+02  0.17770000000E+01 0. -1.
</event>
<event>
 6    1  0.1196607E-002  0.1882196E+03  0.7546771E-02  0.1063991E+00
        -11   -1    0    0    0    0  0.00000000000E+00  0.00000000000E+00  0.18250000000E+03  0.18250000000E+03  0.00000000000E+00 0. -1.
         11   -1    0    0    0    0 -0.00000000000E+00 -0.00000000000E+00 -0.18250000000E+03  0.18250000000E+03  0.00000000000E+00 0.  1.
        -11    1    1    2    0    0 -0.52746581860E+01 -0.17115138490E+01  0.16239738578E+03  0.16249203736E+03  0.00000000000E+00 0. -1.
         11    1    1    2    0    0  0.31738719672E+01  0.19120091833E+01 -0.17674151737E+03  0.17678035299E+03  0.00000000000E+00 0.  1.
        -15    1    1    2    0    0  0.40240343956E+01  0.61716998443E+01  0.16786611581E+02  0.18418218947E+02  0.17770000000E+01 0.  1.
         15    1    1    2    0    0 -0.19232481768E+01 -0.63721951786E+01 -0.24424799899E+01  0.73093907027E+01  0.17770000000E+01 0. -1.
</event>
<event>
 6    1  0.1196607E-002  0.1866413E+03  0.7546771E-02  0.1065205E+00
        -11   -1    0    0    0    0  0.00000000000E+00  0.00000000000E+00  0.18250000000E+03  0.18250000000E+03  0.00000000000E+00 0.  1.
         11   -1    0    0    0    0 -0.00000000000E+00 -0.00000000000E+00 -0.18250000000E+03  0.18250000000E+03  0.00000000000E+00 0.  1.
        -11    1    1    2    0    0 -0.60717050368E+01  0.18920683358E+01  0.16223875533E+03  0.16236335564E+03  0.00000000000E+00 0.  1.
         11    1    1    2    0    0 -0.57141582713E+01 -0.94764817183E+00 -0.17826459418E+03  0.17835867004E+03  0.00000000000E+00 0.  1.
        -15    1    1    2    0    0  0.10788464094E+02 -0.42387904168E+01  0.52900398661E+01  0.12864701804E+02  0.17770000000E+01 0.  1.
         15    1    1    2    0    0  0.99739921392E+00  0.32943702529E+01  0.10735798988E+02  0.11413272513E+02  0.17770000000E+01 0. -1.
</event>
<event>
 6    1  0.1196607E-002  0.1675239E+03  0.7546771E-02  0.1081043E+00
        -11   -1    0    0    0    0  0.00000000000E+00  0.00000000000E+00  0.18250000000E+03  0.18250000000E+03  0.00000000000E+00 0.  1.
         11   -1    0    0    0    0 -0.00000000000E+00 -0.00000000000E+00 -0.18250000000E+03  0.18250000000E+03  0.00000000000E+00 0. -1.
        -11    1    1    2    0    0 -0.37784489007E+01 -0.57326067950E+01  0.16676195827E+03  0.16690323599E+03  0.00000000000E+00 0.  1.
         11    1    1    2    0    0 -0.18234343061E+01 -0.23687866965E+01 -0.16826612719E+03  0.16829267846E+03  0.00000000000E+00 0. -1.
        -15    1    1    2    0    0  0.24746498788E+01  0.81571252668E+01  0.14173168590E+02  0.16634272498E+02  0.17770000000E+01 0. -1.
         15    1    1    2    0    0  0.31272333280E+01 -0.55731775377E-01 -0.12668999666E+02  0.13169813053E+02  0.17770000000E+01 0.  1.
</event>
<event>
 6    1  0.1196607E-002  0.1858913E+03  0.7546771E-02  0.1065787E+00
        -11   -1    0    0    0    0  0.00000000000E+00  0.00000000000E+00  0.18250000000E+03  0.18250000000E+03  0.00000000000E+00 0.  1.
         11   -1    0    0    0    0 -0.00000000000E+00 -0.00000000000E+00 -0.18250000000E+03  0.18250000000E+03  0.00000000000E+00 0.  1.
        -11    1    1    2    0    0 -0.17019980333E+00 -0.11649419120E+02  0.17872940228E+03  0.17910873003E+03  0.00000000000E+00 0.  1.
         11    1    1    2    0    0 -0.65783461323E+00  0.44653101859E+01 -0.14801768971E+03  0.14808648895E+03  0.00000000000E+00 0.  1.
        -15    1    1    2    0    0 -0.38379975744E+01 -0.28586822543E+01  0.46470537983E-02  0.51049035454E+01  0.17770000000E+01 0. -1.
         15    1    1    2    0    0  0.46660319910E+01  0.10042791188E+02 -0.30716359625E+02  0.32699877477E+02  0.17770000000E+01 0. -1.
</event>
<event>
 6    1  0.1196607E-002  0.2126759E+03  0.7546771E-02  0.1046688E+00
        -11   -1    0    0    0    0  0.00000000000E+00  0.00000000000E+00  0.18250000000E+03  0.18250000000E+03  0.00000000000E+00 0. -1.
         11   -1    0    0    0    0 -0.00000000000E+00 -0.00000000000E+00 -0.18250000000E+03  0.18250000000E+03  0.00000000000E+00 0.  1.
        -11    1    1    2    0    0  0.16811752406E+02 -0.10583146252E+01  0.15138982922E+03  0.15232411313E+03  0.00000000000E+00 0. -1.
         11    1    1    2    0    0  0.40275172739E+01 -0.64996730559E+00 -0.10508316828E+03  0.10516232980E+03  0.00000000000E+00 0.  1.
        -15    1    1    2    0    0  0.15824700384E+02 -0.16063080377E+02 -0.60295563202E+02  0.64398418958E+02  0.17770000000E+01 0. -1.
         15    1    1    2    0    0 -0.36663970065E+02  0.17771362308E+02  0.13988902260E+02  0.43115138114E+02  0.17770000000E+01 0.  1.
</event>
<event>
 6    1  0.1196607E-002  0.1876012E+03  0.7546771E-02  0.1064465E+00
        -11   -1    0    0    0    0  0.00000000000E+00  0.00000000000E+00  0.18250000000E+03  0.18250000000E+03  0.00000000000E+00 0.  1.
         11   -1    0    0    0    0 -0.00000000000E+00 -0.00000000000E+00 -0.18250000000E+03  0.18250000000E+03  0.00000000000E+00 0. -1.
        -11    1    1    2    0    0  0.41040698146E+01  0.81309546966E+00  0.17160411526E+03  0.17165511029E+03  0.00000000000E+00 0.  1.
         11    1    1    2    0    0  0.50579758520E+00  0.42447508216E+01 -0.17734724956E+03  0.17739876174E+03  0.00000000000E+00 0. -1.
        -15    1    1    2    0    0  0.45885262559E+00  0.32479967926E+01  0.46990952118E+01  0.59999378085E+01  0.17770000000E+01 0.  1.
         15    1    1    2    0    0 -0.50687200254E+01 -0.83058430839E+01  0.10440390873E+01  0.99461901573E+01  0.17770000000E+01 0. -1.
</event>
<event>
 6    1  0.1196607E-002  0.1853586E+03  0.7546771E-02  0.1066202E+00
        -11   -1    0    0    0    0  0.00000000000E+00  0.00000000000E+00  0.18250000000E+03  0.18250000000E+03  0.00000000000E+00 0.  1.
         11   -1    0    0    0    0 -0.00000000000E+00 -0.00000000000E+00 -0.18250000000E+03  0.18250000000E+03  0.00000000000E+00 0. -1.
        -11    1    1    2    0    0  0.28038437383E+01 -0.95018665284E+00  0.13249431831E+03  0.13252738879E+03  0.00000000000E+00 0.  1.
         11    1    1    2    0    0 -0.88852318487E+01  0.19126122344E+01 -0.17941135108E+03  0.17964141595E+03  0.00000000000E+00 0. -1.
        -15    1    1    2    0    0 -0.27790974901E+01  0.42428781556E+01  0.39902491068E+02  0.40262785799E+02  0.17770000000E+01 0.  1.
         15    1    1    2    0    0  0.88604856005E+01 -0.52053037372E+01  0.70145416962E+01  0.12568409457E+02  0.17770000000E+01 0. -1.
</event>
<event>
 6    1  0.1196607E-002  0.1854469E+03  0.7546771E-02  0.1066133E+00
        -11   -1    0    0    0    0  0.00000000000E+00  0.00000000000E+00  0.18250000000E+03  0.18250000000E+03  0.00000000000E+00 0. -1.
         11   -1    0    0    0    0 -0.00000000000E+00 -0.00000000000E+00 -0.18250000000E+03  0.18250000000E+03  0.00000000000E+00 0. -1.
        -11    1    1    2    0    0  0.19640374999E+01 -0.27255457887E+01  0.17527046268E+03  0.17530265580E+03  0.00000000000E+00 0. -1.
         11    1    1    2    0    0 -0.69955596905E+00 -0.24661304165E+01 -0.17953477613E+03  0.17955307577E+03  0.00000000000E+00 0. -1.
        -15    1    1    2    0    0 -0.14693473350E+00  0.25608252211E+01  0.56896694892E+01  0.64891820382E+01  0.17770000000E+01 0. -1.
         15    1    1    2    0    0 -0.11175467973E+01  0.26308509842E+01 -0.14253560380E+01  0.36550863985E+01  0.17770000000E+01 0. -1.
</event>
<event>
 6    1  0.1196607E-002  0.1826518E+03  0.7546771E-02  0.1068334E+00
        -11   -1    0    0    0    0  0.00000000000E+00  0.00000000000E+00  0.18250000000E+03  0.18250000000E+03  0.00000000000E+00 0. -1.
         11   -1    0    0    0    0 -0.00000000000E+00 -0.00000000000E+00 -0.18250000000E+03  0.18250000000E+03  0.00000000000E+00 0.  1.
        -11    1    1    2    0    0 -0.44015707830E+00  0.13701914882E+01  0.29117342930E+02  0.29152887031E+02  0.00000000000E+00 0. -1.
         11    1    1    2    0    0  0.13996311465E+01  0.32649761397E+01 -0.18231357200E+03  0.18234817677E+03  0.00000000000E+00 0.  1.
        -15    1    1    2    0    0 -0.30662420588E+01 -0.37081942646E+01  0.13252032583E+03  0.13261955750E+03  0.17770000000E+01 0. -1.
         15    1    1    2    0    0  0.21067679906E+01 -0.92697336335E+00  0.20675903242E+02  0.20879378699E+02  0.17770000000E+01 0.  1.
</event>
<event>
 6    1  0.1196607E-002  0.1890450E+03  0.7546771E-02  0.1063361E+00
        -11   -1    0    0    0    0  0.00000000000E+00  0.00000000000E+00  0.18250000000E+03  0.18250000000E+03  0.00000000000E+00 0. -1.
         11   -1    0    0    0    0 -0.00000000000E+00 -0.00000000000E+00 -0.18250000000E+03  0.18250000000E+03  0.00000000000E+00 0.  1.
        -11    1    1    2    0    0  0.95243459534E+00  0.56720916842E+01  0.16670755697E+03  0.16680674239E+03  0.00000000000E+00 0. -1.
         11    1    1    2    0    0  0.69317265904E+01  0.48130900243E+01 -0.17575252451E+03  0.17595500715E+03  0.00000000000E+00 0.  1.
        -15    1    1    2    0    0 -0.48503875232E+01 -0.71770565941E+00 -0.32514394534E+01  0.61458073561E+01  0.17770000000E+01 0.  1.
         15    1    1    2    0    0 -0.30337736625E+01 -0.97674760491E+01  0.12296406997E+02  0.16092443104E+02  0.17770000000E+01 0. -1.
</event>
<event>
 6    1  0.1196607E-002  0.1826164E+03  0.7546771E-02  0.1068362E+00
        -11   -1    0    0    0    0  0.00000000000E+00  0.00000000000E+00  0.18250000000E+03  0.18250000000E+03  0.00000000000E+00 0. -1.
         11   -1    0    0    0    0 -0.00000000000E+00 -0.00000000000E+00 -0.18250000000E+03  0.18250000000E+03  0.00000000000E+00 0.  1.
        -11    1    1    2    0    0  0.32146856398E-01 -0.12425358658E+01  0.52811742457E+02  0.52826367186E+02  0.00000000000E+00 0. -1.
         11    1    1    2    0    0 -0.33367453923E+01 -0.48908212285E+01 -0.18228746046E+03  0.18238358545E+03  0.00000000000E+00 0.  1.
        -15    1    1    2    0    0  0.19366427869E+01  0.85003462294E+00  0.65227998672E+02  0.65286466315E+02  0.17770000000E+01 0. -1.
         15    1    1    2    0    0  0.13679557490E+01  0.52833224713E+01  0.64247719331E+02  0.64503581044E+02  0.17770000000E+01 0.  1.
</event>
<event>
 6    1  0.1196607E-002  0.1850681E+03  0.7546771E-02  0.1066429E+00
        -11   -1    0    0    0    0  0.00000000000E+00  0.00000000000E+00  0.18250000000E+03  0.18250000000E+03  0.00000000000E+00 0.  1.
         11   -1    0    0    0    0 -0.00000000000E+00 -0.00000000000E+00 -0.18250000000E+03  0.18250000000E+03  0.00000000000E+00 0. -1.
        -11    1    1    2    0    0 -0.16156580286E+01 -0.31443779666E+01  0.17989715718E+03  0.17993188885E+03  0.00000000000E+00 0.  1.
         11    1    1    2    0    0 -0.73771746413E-01 -0.55397729345E+01 -0.17161710720E+03  0.17170651126E+03  0.00000000000E+00 0. -1.
        -15    1    1    2    0    0  0.28178722330E+01  0.67649360831E+01 -0.67879757896E+01  0.10145891210E+02  0.17770000000E+01 0. -1.
         15    1    1    2    0    0 -0.11284424580E+01  0.19192148180E+01 -0.14920741914E+01  0.32157086763E+01  0.17770000000E+01 0.  1.
</event>
<event>
 6    1  0.1196607E-002  0.1834896E+03  0.7546771E-02  0.1067670E+00
        -11   -1    0    0    0    0  0.00000000000E+00  0.00000000000E+00  0.18250000000E+03  0.18250000000E+03  0.00000000000E+00 0. -1.
         11   -1    0    0    0    0 -0.00000000000E+00 -0.00000000000E+00 -0.18250000000E+03  0.18250000000E+03  0.00000000000E+00 0.  1.
        -11    1    1    2    0    0 -0.21829914331E+01  0.66197935753E+00  0.14732113493E+03  0.14733879484E+03  0.00000000000E+00 0. -1.
         11    1    1    2    0    0 -0.31187042152E+01  0.20608520431E+01 -0.18147193665E+03  0.18151043281E+03  0.00000000000E+00 0.  1.
        -15    1    1    2    0    0 -0.69742950151E+00  0.26514073424E+01  0.14023246039E+02  0.14398802980E+02  0.17770000000E+01 0. -1.
         15    1    1    2    0    0  0.59991251498E+01 -0.53742387431E+01  0.20127555682E+02  0.21751969368E+02  0.17770000000E+01 0.  1.
</event>
<event>
 6    1  0.1196607E-002  0.1831204E+03  0.7546771E-02  0.1067962E+00
        -11   -1    0    0    0    0  0.00000000000E+00  0.00000000000E+00  0.18250000000E+03  0.18250000000E+03  0.00000000000E+00 0. -1.
         11   -1    0    0    0    0 -0.00000000000E+00 -0.00000000000E+00 -0.18250000000E+03  0.18250000000E+03  0.00000000000E+00 0.  1.
        -11    1    1    2    0    0  0.20738953989E+01 -0.26126142392E+01  0.13235992939E+03  0.13240195506E+03  0.00000000000E+00 0. -1.
         11    1    1    2    0    0  0.47046836561E+01 -0.17279618358E+01 -0.18181051312E+03  0.18187958264E+03  0.00000000000E+00 0.  1.
        -15    1    1    2    0    0 -0.70838632195E+00  0.71812399406E+00  0.27777539455E+02  0.27852593064E+02  0.17770000000E+01 0. -1.
         15    1    1    2    0    0 -0.60701927331E+01  0.36224520809E+01  0.21673044274E+02  0.22865869238E+02  0.17770000000E+01 0.  1.
</event>
<event>
 6    1  0.1196607E-002  0.1854220E+03  0.7546771E-02  0.1066152E+00
        -11   -1    0    0    0    0  0.00000000000E+00  0.00000000000E+00  0.18250000000E+03  0.18250000000E+03  0.00000000000E+00 0.  1.
         11   -1    0    0    0    0 -0.00000000000E+00 -0.00000000000E+00 -0.18250000000E+03  0.18250000000E+03  0.00000000000E+00 0.  1.
        -11    1    1    2    0    0  0.53810197074E+01  0.46599072647E+01  0.17943687277E+03  0.17957800928E+03  0.00000000000E+00 0.  1.
         11    1    1    2    0    0  0.26127160726E+01  0.13266061854E+01 -0.16266297941E+03  0.16268936979E+03  0.00000000000E+00 0.  1.
        -15    1    1    2    0    0 -0.52941834453E+01 -0.17908349729E+01 -0.81875368787E+00  0.59214487124E+01  0.17770000000E+01 0. -1.
         15    1    1    2    0    0 -0.26995523346E+01 -0.41956784772E+01 -0.15955139665E+02  0.16811172220E+02  0.17770000000E+01 0.  1.
</event>
<event>
 6    1  0.1196607E-002  0.1831912E+03  0.7546771E-02  0.1067906E+00
        -11   -1    0    0    0    0  0.00000000000E+00  0.00000000000E+00  0.18250000000E+03  0.18250000000E+03  0.00000000000E+00 0. -1.
         11   -1    0    0    0    0 -0.00000000000E+00 -0.00000000000E+00 -0.18250000000E+03  0.18250000000E+03  0.00000000000E+00 0. -1.
        -11    1    1    2    0    0 -0.43969431346E+01 -0.27280636793E+01  0.18173510838E+03  0.18180875957E+03  0.00000000000E+00 0. -1.
         11    1    1    2    0    0  0.14802888949E+01 -0.15577046646E+01 -0.15449199334E+03  0.15450693740E+03  0.00000000000E+00 0. -1.
        -15    1    1    2    0    0 -0.10532806200E+01 -0.46683850127E+00 -0.35765977232E+01  0.41565753360E+01  0.17770000000E+01 0.  1.
         15    1    1    2    0    0  0.39699348597E+01  0.47526068452E+01 -0.23666517319E+02  0.24527727690E+02  0.17770000000E+01 0.  1.
</event>
<event>
 6    1  0.1196607E-002  0.1928559E+03  0.7546771E-02  0.1060498E+00
        -11   -1    0    0    0    0  0.00000000000E+00  0.00000000000E+00  0.18250000000E+03  0.18250000000E+03  0.00000000000E+00 0. -1.
         11   -1    0    0    0    0 -0.00000000000E+00 -0.00000000000E+00 -0.18250000000E+03  0.18250000000E+03  0.00000000000E+00 0.  1.
        -11    1    1    2    0    0  0.53154914850E+01 -0.50053372228E+01  0.17198915685E+03  0.17214406154E+03  0.00000000000E+00 0. -1.
         11    1    1    2    0    0 -0.71548435844E+00  0.14330453883E+01 -0.74519413936E+02  0.74536625832E+02  0.00000000000E+00 0.  1.
        -15    1    1    2    0    0 -0.59882131556E+01  0.21792818750E+02 -0.39467924306E+01  0.23011313421E+02  0.17770000000E+01 0. -1.
         15    1    1    2    0    0  0.13882060290E+01 -0.18220526915E+02 -0.93522950481E+02  0.95307999207E+02  0.17770000000E+01 0.  1.
</event>
<event>
 6    1  0.1196607E-002  0.1844578E+03  0.7546771E-02  0.1066907E+00
        -11   -1    0    0    0    0  0.00000000000E+00  0.00000000000E+00  0.18250000000E+03  0.18250000000E+03  0.00000000000E+00 0.  1.
         11   -1    0    0    0    0 -0.00000000000E+00 -0.00000000000E+00 -0.18250000000E+03  0.18250000000E+03  0.00000000000E+00 0.  1.
        -11    1    1    2    0    0 -0.25767718682E+01 -0.13900633126E+01  0.18051848356E+03  0.18054222480E+03  0.00000000000E+00 0.  1.
         11    1    1    2    0    0  0.46429672053E+01 -0.42456224954E+01 -0.13939270341E+03  0.13953461297E+03  0.00000000000E+00 0.  1.
        -15    1    1    2    0    0 -0.20737141311E+01  0.73062594452E+00 -0.39291494669E+02  0.39393062674E+02  0.17770000000E+01 0.  1.
         15    1    1    2    0    0  0.75187940753E-02  0.49050598635E+01 -0.18342854850E+01  0.55300995504E+01  0.17770000000E+01 0. -1.
</event>
<event>
 6    1  0.1196607E-002  0.1851370E+03  0.7546771E-02  0.1066375E+00
        -11   -1    0    0    0    0  0.00000000000E+00  0.00000000000E+00  0.18250000000E+03  0.18250000000E+03  0.00000000000E+00 0.  1.
         11   -1    0    0    0    0 -0.00000000000E+00 -0.00000000000E+00 -0.18250000000E+03  0.18250000000E+03  0.00000000000E+00 0. -1.
        -11    1    1    2    0    0 -0.19852237884E+01 -0.38597854206E+01  0.17981062560E+03  0.17986300380E+03  0.00000000000E+00 0.  1.
         11    1    1    2    0    0  0.27743352332E+01 -0.57585983157E+00 -0.17404071430E+03  0.17406377792E+03  0.00000000000E+00 0. -1.
        -15    1    1    2    0    0 -0.13601462655E+01  0.18286990012E+01 -0.70511906050E+01  0.76204432843E+01  0.17770000000E+01 0.  1.
         15    1    1    2    0    0  0.57103482070E+00  0.26069462510E+01  0.12812793030E+01  0.34527749962E+01  0.17770000000E+01 0.  1.
</event>
<event>
 6    1  0.1196607E-002  0.1779979E+03  0.7546771E-02  0.1072096E+00
        -11   -1    0    0    0    0  0.00000000000E+00  0.00000000000E+00  0.18250000000E+03  0.18250000000E+03  0.00000000000E+00 0. -1.
         11   -1    0    0    0    0 -0.00000000000E+00 -0.00000000000E+00 -0.18250000000E+03  0.18250000000E+03  0.00000000000E+00 0.  1.
        -11    1    1    2    0    0  0.26787905313E+01  0.87059106920E+00  0.17715217967E+03  0.17717457100E+03  0.00000000000E+00 0. -1.
         11    1    1    2    0    0 -0.10746757458E+01  0.25217567269E+01 -0.17882398189E+03  0.17884499066E+03  0.00000000000E+00 0.  1.
        -15    1    1    2    0    0 -0.62627913253E+00 -0.43026521222E+01 -0.16541652889E+01  0.49798627129E+01  0.17770000000E+01 0. -1.
         15    1    1    2    0    0 -0.97783565305E+00  0.91030432605E+00  0.33259675049E+01  0.40005756303E+01  0.17770000000E+01 0.  1.
</event>
<event>
 6    1  0.1196607E-002  0.1852607E+03  0.7546771E-02  0.1066278E+00
        -11   -1    0    0    0    0  0.00000000000E+00  0.00000000000E+00  0.18250000000E+03  0.18250000000E+03  0.00000000000E+00 0.  1.
         11   -1    0    0    0    0 -0.00000000000E+00 -0.00000000000E+00 -0.18250000000E+03  0.18250000000E+03  0.00000000000E+00 0.  1.
        -11    1    1    2    0    0 -0.31219057696E+01  0.78849565695E+00  0.16351727687E+03  0.16354897694E+03  0.00000000000E+00 0.  1.
         11    1    1    2    0    0  0.71192793411E+01 -0.60712902345E+01 -0.17949563204E+03  0.17973932965E+03  0.00000000000E+00 0.  1.
        -15    1    1    2    0    0 -0.36616292394E+01  0.82185687468E+01  0.55306990434E+01  0.10709750783E+02  0.17770000000E+01 0. -1.
         15    1    1    2    0    0 -0.33574433206E+00 -0.29357741692E+01  0.10447656119E+02  0.11001942629E+02  0.17770000000E+01 0.  1.
</event>
<event>
 6    1  0.1196607E-002  0.1827618E+03  0.7546771E-02  0.1068247E+00
        -11   -1    0    0    0    0  0.00000000000E+00  0.00000000000E+00  0.18250000000E+03  0.18250000000E+03  0.00000000000E+00 0. -1.
         11   -1    0    0    0    0 -0.00000000000E+00 -0.00000000000E+00 -0.18250000000E+03  0.18250000000E+03  0.00000000000E+00 0. -1.
        -11    1    1    2    0    0  0.63712415625E+00  0.29664891143E+01  0.13738844723E+03  0.13742194663E+03  0.00000000000E+00 0. -1.
         11    1    1    2    0    0 -0.13696909314E+01 -0.30092333863E+01 -0.18220818192E+03  0.18223817684E+03  0.00000000000E+00 0. -1.
        -15    1    1    2    0    0  0.86767089058E+00  0.18884370800E+01  0.84857614709E+01  0.89154317966E+01  0.17770000000E+01 0.  1.
         15    1    1    2    0    0 -0.13510411539E+00 -0.18456928080E+01  0.36333973219E+02  0.36424444731E+02  0.17770000000E+01 0.  1.
</event>
<event>
 6    1  0.1196607E-002  0.1757167E+03  0.7546771E-02  0.1073986E+00
        -11   -1    0    0    0    0  0.00000000000E+00  0.00000000000E+00  0.18250000000E+03  0.18250000000E+03  0.00000000000E+00 0. -1.
         11   -1    0    0    0    0 -0.00000000000E+00 -0.00000000000E+00 -0.18250000000E+03  0.18250000000E+03  0.00000000000E+00 0. -1.
        -11    1    1    2    0    0 -0.31521300018E+01  0.25135597357E+01  0.17401365525E+03  0.17406035194E+03  0.00000000000E+00 0. -1.
         11    1    1    2    0    0  0.69632990303E+00  0.49364292079E+01 -0.17740689393E+03  0.17747692589E+03  0.00000000000E+00 0. -1.
        -15    1    1    2    0    0  0.54220272016E+01 -0.76271433445E+01  0.29535205843E+01  0.99725978268E+01  0.17770000000E+01 0. -1.
         15    1    1    2    0    0 -0.29662271028E+01  0.17715440086E+00  0.43971810242E+00  0.34901243412E+01  0.17770000000E+01 0.  1.
</event>
<event>
 6    1  0.1196607E-002  0.1772066E+03  0.7546771E-02  0.1072748E+00
        -11   -1    0    0    0    0  0.00000000000E+00  0.00000000000E+00  0.18250000000E+03  0.18250000000E+03  0.00000000000E+00 0. -1.
         11   -1    0    0    0    0 -0.00000000000E+00 -0.00000000000E+00 -0.18250000000E+03  0.18250000000E+03  0.00000000000E+00 0.  1.
        -11    1    1    2    0    0  0.60413894652E+01  0.56616092215E+01  0.17726397573E+03  0.17745723230E+03  0.00000000000E+00 0. -1.
         11    1    1    2    0    0 -0.39901316599E+01 -0.32646285960E+01 -0.17689499647E+03  0.17697010687E+03  0.00000000000E+00 0.  1.
        -15    1    1    2    0    0 -0.55219010727E+01  0.22697288922E+00 -0.76862775799E+00  0.58558881290E+01  0.17770000000E+01 0.  1.
         15    1    1    2    0    0  0.34706432674E+01 -0.26239535147E+01  0.39964850387E+00  0.47167726958E+01  0.17770000000E+01 0. -1.
</event>
<event>
 6    1  0.1196607E-002  0.1984904E+03  0.7546771E-02  0.1056394E+00
        -11   -1    0    0    0    0  0.00000000000E+00  0.00000000000E+00  0.18250000000E+03  0.18250000000E+03  0.00000000000E+00 0.  1.
         11   -1    0    0    0    0 -0.00000000000E+00 -0.00000000000E+00 -0.18250000000E+03  0.18250000000E+03  0.00000000000E+00 0.  1.
        -11    1    1    2    0    0 -0.18407599277E+01  0.40037217789E+01  0.16645126899E+03  0.16650958871E+03  0.00000000000E+00 0.  1.
         11    1    1    2    0    0 -0.10675416848E+00 -0.20371304521E+01 -0.11756620465E+03  0.11758390100E+03  0.00000000000E+00 0.  1.
        -15    1    1    2    0    0 -0.13018074133E+02 -0.10324309176E+02 -0.58729099526E+02  0.61060023536E+02  0.17770000000E+01 0.  1.
         15    1    1    2    0    0  0.14965588230E+02  0.83577178489E+01  0.98440351928E+01  0.19846486756E+02  0.17770000000E+01 0. -1.
</event>
<event>
 6    1  0.1196607E-002  0.1762958E+03  0.7546771E-02  0.1073503E+00
        -11   -1    0    0    0    0  0.00000000000E+00  0.00000000000E+00  0.18250000000E+03  0.18250000000E+03  0.00000000000E+00 0. -1.
         11   -1    0    0    0    0 -0.00000000000E+00 -0.00000000000E+00 -0.18250000000E+03  0.18250000000E+03  0.00000000000E+00 0. -1.
        -11    1    1    2    0    0 -0.82651673459E+01  0.41741325267E+01  0.17589987556E+03  0.17614341485E+03  0.00000000000E+00 0. -1.
         11    1    1    2    0    0  0.27763551661E+01 -0.18193939814E+01 -0.17646792277E+03  0.17649913912E+03  0.00000000000E+00 0. -1.
        -15    1    1    2    0    0  0.62568990914E+01 -0.28227571408E+01 -0.34407198884E+01  0.78811817937E+01  0.17770000000E+01 0.  1.
         15    1    1    2    0    0 -0.76808691152E+00  0.46801859554E+00  0.40087670967E+01  0.44762642398E+01  0.17770000000E+01 0. -1.
</event>
<event>
 6    1  0.1196607E-002  0.1834641E+03  0.7546771E-02  0.1067690E+00
        -11   -1    0    0    0    0  0.00000000000E+00  0.00000000000E+00  0.18250000000E+03  0.18250000000E+03  0.00000000000E+00 0. -1.
         11   -1    0    0    0    0 -0.00000000000E+00 -0.00000000000E+00 -0.18250000000E+03  0.18250000000E+03  0.00000000000E+00 0.  1.
        -11    1    1    2    0    0  0.40684245261E+01 -0.14823390251E+01  0.18148428739E+03  0.18153593577E+03  0.00000000000E+00 0. -1.
         11    1    1    2    0    0  0.16398486763E+01  0.10480524252E+01 -0.13638995989E+03  0.13640384407E+03  0.00000000000E+00 0.  1.
        -15    1    1    2    0    0  0.12255592412E+01  0.37445000574E+01 -0.26685904162E+02  0.27033654694E+02  0.17770000000E+01 0.  1.
         15    1    1    2    0    0 -0.69338324435E+01 -0.33102134575E+01 -0.18408423334E+02  0.20026565461E+02  0.17770000000E+01 0. -1.
</event>
<event>
 6    1  0.1196607E-002  0.1864218E+03  0.7546771E-02  0.1065375E+00
        -11   -1    0    0    0    0  0.00000000000E+00  0.00000000000E+00  0.18250000000E+03  0.18250000000E+03  0.00000000000E+00 0. -1.
         11   -1    0    0    0    0 -0.00000000000E+00 -0.00000000000E+00 -0.18250000000E+03  0.18250000000E+03  0.00000000000E+00 0.  1.
        -11    1    1    2    0    0  0.14205086596E+01  0.28678006635E+01  0.17293582083E+03  0.17296543080E+03  0.00000000000E+00 0. -1.
         11    1    1    2    0    0  0.55538636585E+01  0.19551843165E+01 -0.17848110132E+03  0.17857819485E+03  0.00000000000E+00 0.  1.
        -15    1    1    2    0    0 -0.55118812675E+01 -0.70026103527E+01  0.39633066505E+01  0.99137740273E+01  0.17770000000E+01 0.  1.
         15    1    1    2    0    0 -0.14624910506E+01  0.21796253727E+01  0.15819738435E+01  0.35426003275E+01  0.17770000000E+01 0. -1.
</event>
<event>
 6    1  0.1196607E-002  0.1762721E+03  0.7546771E-02  0.1073523E+00
        -11   -1    0    0    0    0  0.00000000000E+00  0.00000000000E+00  0.18250000000E+03  0.18250000000E+03  0.00000000000E+00 0. -1.
         11   -1    0    0    0    0 -0.00000000000E+00 -0.00000000000E+00 -0.18250000000E+03  0.18250000000E+03  0.00000000000E+00 0.  1.
        -11    1    1    2    0    0 -0.43991690096E+01 -0.32057280479E+01  0.17618188105E+03  0.17626594847E+03  0.00000000000E+00 0. -1.
         11    1    1    2    0    0 -0.84408176818E+00  0.34430991424E+01 -0.17628170629E+03  0.17631734849E+03  0.00000000000E+00 0.  1.
        -15    1    1    2    0    0  0.29216011821E+00 -0.41543467642E+01 -0.27152302225E+01  0.52795983496E+01  0.17770000000E+01 0. -1.
         15    1    1    2    0    0  0.49510906595E+01  0.39169756696E+01  0.28150554642E+01  0.71371046918E+01  0.17770000000E+01 0. -1.
</event>
<event>
 6    1  0.1196607E-002  0.1770040E+03  0.7546771E-02  0.1072916E+00
        -11   -1    0    0    0    0  0.00000000000E+00  0.00000000000E+00  0.18250000000E+03  0.18250000000E+03  0.00000000000E+00 0.  1.
         11   -1    0    0    0    0 -0.00000000000E+00 -0.00000000000E+00 -0.18250000000E+03  0.18250000000E+03  0.00000000000E+00 0.  1.
        -11    1    1    2    0    0 -0.15486977364E+01 -0.40783173578E+01  0.17639256929E+03  0.17644650645E+03  0.00000000000E+00 0.  1.
         11    1    1    2    0    0 -0.63371186992E+00  0.23634867968E+01 -0.17755748011E+03  0.17757434050E+03  0.00000000000E+00 0.  1.
        -15    1    1    2    0    0 -0.16265127198E+01 -0.24676841944E+01  0.32055559853E+01  0.47083252953E+01  0.17770000000E+01 0.  1.
         15    1    1    2    0    0  0.38089223261E+01  0.41825147554E+01 -0.20406451650E+01  0.62708277488E+01  0.17770000000E+01 0. -1.
</event>
<event>
 6    1  0.1196607E-002  0.1864549E+03  0.7546771E-02  0.1065350E+00
        -11   -1    0    0    0    0  0.00000000000E+00  0.00000000000E+00  0.18250000000E+03  0.18250000000E+03  0.00000000000E+00 0. -1.
         11   -1    0    0    0    0 -0.00000000000E+00 -0.00000000000E+00 -0.18250000000E+03  0.18250000000E+03  0.00000000000E+00 0. -1.
        -11    1    1    2    0    0 -0.58355515102E+00 -0.62457688386E+01  0.17843487976E+03  0.17854511049E+03  0.00000000000E+00 0. -1.
         11    1    1    2    0    0 -0.17537236861E+01  0.10437900998E+01 -0.12410331611E+03  0.12412009553E+03  0.00000000000E+00 0. -1.
        -15    1    1    2    0    0  0.13181682535E+02 -0.18098292072E+01 -0.11875245630E+02  0.17922372165E+02  0.17770000000E+01 0.  1.
         15    1    1    2    0    0 -0.10844403698E+02  0.70118079460E+01 -0.42456318021E+02  0.44412421811E+02  0.17770000000E+01 0. -1.
</event>
<event>
 6    1  0.1196607E-002  0.1837154E+03  0.7546771E-02  0.1067491E+00
        -11   -1    0    0    0    0  0.00000000000E+00  0.00000000000E+00  0.18250000000E+03  0.18250000000E+03  0.00000000000E+00 0.  1.
         11   -1    0    0    0    0 -0.00000000000E+00 -0.00000000000E+00 -0.18250000000E+03  0.18250000000E+03  0.00000000000E+00 0. -1.
        -11    1    1    2    0    0  0.30573879544E+01 -0.76160853374E+01  0.18109872879E+03  0.18128458827E+03  0.00000000000E+00 0.  1.
         11    1    1    2    0    0  0.31437298253E+01 -0.10753698911E+01 -0.13928198005E+03  0.13932160430E+03  0.00000000000E+00 0. -1.
        -15    1    1    2    0    0 -0.62388201931E+01  0.10512284516E+02 -0.35212088962E+02  0.37315947546E+02  0.17770000000E+01 0. -1.
         15    1    1    2    0    0  0.37702413381E-01 -0.18208292872E+01 -0.66046597719E+01  0.70778598791E+01  0.17770000000E+01 0.  1.
</event>
<event>
 6    1  0.1196607E-002  0.1870272E+03  0.7546771E-02  0.1064907E+00
        -11   -1    0    0    0    0  0.00000000000E+00  0.00000000000E+00  0.18250000000E+03  0.18250000000E+03  0.00000000000E+00 0.  1.
         11   -1    0    0    0    0 -0.00000000000E+00 -0.00000000000E+00 -0.18250000000E+03  0.18250000000E+03  0.00000000000E+00 0.  1.
        -11    1    1    2    0    0  0.18249914129E+02  0.16875918524E+02  0.10886912203E+03  0.11167068426E+03  0.00000000000E+00 0.  1.
         11    1    1    2    0    0 -0.14005609563E+01 -0.83743473867E+01 -0.17777014372E+03  0.17797279360E+03  0.00000000000E+00 0.  1.
        -15    1    1    2    0    0  0.35373891234E+01 -0.97045194817E-01  0.12076168420E+01  0.41398800728E+01  0.17770000000E+01 0. -1.
         15    1    1    2    0    0 -0.20386742296E+02 -0.84045259427E+01  0.67693404844E+02  0.71216642059E+02  0.17770000000E+01 0.  1.
</event>
<event>
 6    1  0.1196607E-002  0.1890310E+03  0.7546771E-02  0.1063372E+00
        -11   -1    0    0    0    0  0.00000000000E+00  0.00000000000E+00  0.18250000000E+03  0.18250000000E+03  0.00000000000E+00 0.  1.
         11   -1    0    0    0    0 -0.00000000000E+00 -0.00000000000E+00 -0.18250000000E+03  0.18250000000E+03  0.00000000000E+00 0.  1.
        -11    1    1    2    0    0 -0.36415264842E+01  0.51599837599E+00  0.17593056624E+03  0.17596900610E+03  0.00000000000E+00 0.  1.
         11    1    1    2    0    0  0.15640417096E+01  0.79364433515E+01 -0.13066145427E+03  0.13091160755E+03  0.00000000000E+00 0.  1.
        -15    1    1    2    0    0 -0.73635953746E+01 -0.99997841574E+01 -0.46635424348E+02  0.48293257844E+02  0.17770000000E+01 0.  1.
         15    1    1    2    0    0  0.94410801492E+01  0.15473424299E+01  0.13663123773E+01  0.98261285098E+01  0.17770000000E+01 0. -1.
</event>
<event>
 6    1  0.1196607E-002  0.1831266E+03  0.7546771E-02  0.1067957E+00
        -11   -1    0    0    0    0  0.00000000000E+00  0.00000000000E+00  0.18250000000E+03  0.18250000000E+03  0.00000000000E+00 0. -1.
         11   -1    0    0    0    0 -0.00000000000E+00 -0.00000000000E+00 -0.18250000000E+03  0.18250000000E+03  0.00000000000E+00 0. -1.
        -11    1    1    2    0    0  0.19288649825E+01  0.14301640771E+01  0.16792183288E+03  0.16793900038E+03  0.00000000000E+00 0. -1.
         11    1    1    2    0    0 -0.16578547461E+01  0.22998236387E+01 -0.18185132234E+03  0.18187342056E+03  0.00000000000E+00 0. -1.
        -15    1    1    2    0    0  0.35688775965E+00 -0.36482840949E+01  0.10675055890E+02  0.11425930726E+02  0.17770000000E+01 0. -1.
         15    1    1    2    0    0 -0.62789799598E+00 -0.81703620923E-01  0.32544335637E+01  0.37616483350E+01  0.17770000000E+01 0. -1.
</event>
<event>
 6    1  0.1196607E-002  0.1856893E+03  0.7546771E-02  0.1065944E+00
        -11   -1    0    0    0    0  0.00000000000E+00  0.00000000000E+00  0.18250000000E+03  0.18250000000E+03  0.00000000000E+00 0. -1.
         11   -1    0    0    0    0 -0.00000000000E+00 -0.00000000000E+00 -0.18250000000E+03  0.18250000000E+03  0.00000000000E+00 0.  1.
        -11    1    1    2    0    0  0.48017957835E+01 -0.17204500373E+01  0.16892728922E+03  0.16900427874E+03  0.00000000000E+00 0. -1.
         11    1    1    2    0    0 -0.43600912842E+01  0.96163992469E+00 -0.17925506104E+03  0.17931065795E+03  0.00000000000E+00 0.  1.
        -15    1    1    2    0    0 -0.19347533008E+01 -0.13721032243E+01  0.12507443781E+02  0.12853786077E+02  0.17770000000E+01 0.  1.
         15    1    1    2    0    0  0.14930488016E+01  0.21309133369E+01 -0.21796719596E+01  0.38312772315E+01  0.17770000000E+01 0. -1.
</event>
<event>
 6    1  0.1196607E-002  0.1833740E+03  0.7546771E-02  0.1067761E+00
        -11   -1    0    0    0    0  0.00000000000E+00  0.00000000000E+00  0.18250000000E+03  0.18250000000E+03  0.00000000000E+00 0. -1.
         11   -1    0    0    0    0 -0.00000000000E+00 -0.00000000000E+00 -0.18250000000E+03  0.18250000000E+03  0.00000000000E+00 0.  1.
        -11    1    1    2    0    0 -0.49120732697E+01  0.27663858258E+01  0.18153844725E+03  0.18162595956E+03  0.00000000000E+00 0. -1.
         11    1    1    2    0    0 -0.37270134741E+01 -0.30366952822E+01 -0.12647909348E+03  0.12657042797E+03  0.00000000000E+00 0.  1.
        -15    1    1    2    0    0 -0.36837793675E+00  0.58664432961E+00 -0.14059866136E+01  0.23694685546E+01  0.17770000000E+01 0. -1.
         15    1    1    2    0    0  0.90074646805E+01 -0.31633487326E+00 -0.53653367156E+02  0.54434143917E+02  0.17770000000E+01 0. -1.
</event>
<event>
 6    1  0.1196607E-002  0.1655767E+03  0.7546771E-02  0.1082785E+00
        -11   -1    0    0    0    0  0.00000000000E+00  0.00000000000E+00  0.18250000000E+03  0.18250000000E+03  0.00000000000E+00 0. -1.
         11   -1    0    0    0    0 -0.00000000000E+00 -0.00000000000E+00 -0.18250000000E+03  0.18250000000E+03  0.00000000000E+00 0.  1.
        -11    1    1    2    0    0  0.21770375833E+02  0.76260054654E+01  0.17065427727E+03  0.17220623559E+03  0.00000000000E+00 0. -1.
         11    1    1    2    0    0  0.14869562556E+01 -0.33228302931E+01 -0.15992280149E+03  0.15996422937E+03  0.00000000000E+00 0.  1.
        -15    1    1    2    0    0  0.21318348753E+01  0.23004335013E+01  0.14060715156E+01  0.38692997217E+01  0.17770000000E+01 0. -1.
         15    1    1    2    0    0 -0.25389166964E+02 -0.66036086736E+01 -0.12137547297E+02  0.28960235323E+02  0.17770000000E+01 0.  1.
</event>
<event>
 6    1  0.1196607E-002  0.1831125E+03  0.7546771E-02  0.1067968E+00
        -11   -1    0    0    0    0  0.00000000000E+00  0.00000000000E+00  0.18250000000E+03  0.18250000000E+03  0.00000000000E+00 0. -1.
         11   -1    0    0    0    0 -0.00000000000E+00 -0.00000000000E+00 -0.18250000000E+03  0.18250000000E+03  0.00000000000E+00 0.  1.
        -11    1    1    2    0    0  0.10479733677E+01  0.99487505292E+00  0.29769864900E+02  0.29804913701E+02  0.00000000000E+00 0. -1.
         11    1    1    2    0    0  0.41288177456E+01 -0.15716246615E+01 -0.18183380552E+03  0.18188746513E+03  0.00000000000E+00 0.  1.
        -15    1    1    2    0    0 -0.32661622987E+01  0.77005327183E+01  0.36229249960E+02  0.37224753887E+02  0.17770000000E+01 0.  1.
         15    1    1    2    0    0 -0.19106288146E+01 -0.71237831097E+01  0.11583469066E+03  0.11608286729E+03  0.17770000000E+01 0. -1.
</event>
<event>
 6    1  0.1196607E-002  0.1491756E+03  0.7546771E-02  0.1098588E+00
        -11   -1    0    0    0    0  0.00000000000E+00  0.00000000000E+00  0.18250000000E+03  0.18250000000E+03  0.00000000000E+00 0.  1.
         11   -1    0    0    0    0 -0.00000000000E+00 -0.00000000000E+00 -0.18250000000E+03  0.18250000000E+03  0.00000000000E+00 0.  1.
        -11    1    1    2    0    0 -0.13731813960E+02 -0.70372932830E+01  0.14606884902E+03  0.14688156748E+03  0.00000000000E+00 0.  1.
         11    1    1    2    0    0  0.31932465446E+01 -0.23901807744E+01 -0.15180730053E+03  0.15185969275E+03  0.00000000000E+00 0.  1.
        -15    1    1    2    0    0  0.11037050009E+02 -0.67410854514E+01 -0.26837560076E+02  0.29844112750E+02  0.17770000000E+01 0.  1.
         15    1    1    2    0    0 -0.49848259399E+00  0.16168559509E+02  0.32576011580E+02  0.36414627019E+02  0.17770000000E+01 0. -1.
</event>
<event>
 6    1  0.1196607E-002  0.1871530E+03  0.7546771E-02  0.1064810E+00
        -11   -1    0    0    0    0  0.00000000000E+00  0.00000000000E+00  0.18250000000E+03  0.18250000000E+03  0.00000000000E+00 0. -1.
         11   -1    0    0    0    0 -0.00000000000E+00 -0.00000000000E+00 -0.18250000000E+03  0.18250000000E+03  0.00000000000E+00 0.  1.
        -11    1    1    2    0    0 -0.24858385810E+01 -0.16012535580E+02  0.11952969549E+03  0.12062308566E+03  0.00000000000E+00 0. -1.
         11    1    1    2    0    0 -0.81042114791E+01  0.26496752768E+01 -0.17764246532E+03  0.17784696936E+03  0.00000000000E+00 0.  1.
        -15    1    1    2    0    0  0.73443328009E+01  0.14651404602E+02  0.59969472256E+02  0.62194036795E+02  0.17770000000E+01 0. -1.
         15    1    1    2    0    0  0.32457172591E+01 -0.12885442987E+01 -0.18567024273E+01  0.43359081908E+01  0.17770000000E+01 0.  1.
</event>
<event>
 6    1  0.1196607E-002  0.1892602E+03  0.7546771E-02  0.1063197E+00
        -11   -1    0    0    0    0  0.00000000000E+00  0.00000000000E+00  0.18250000000E+03  0.18250000000E+03  0.00000000000E+00 0. -1.
         11   -1    0    0    0    0 -0.00000000000E+00 -0.00000000000E+00 -0.18250000000E+03  0.18250000000E+03  0.00000000000E+00 0.  1.
        -11    1    1    2    0    0  0.12854198014E+01 -0.75939766529E+00  0.74366918784E+02  0.74381903702E+02  0.00000000000E+00 0. -1.
         11    1    1    2    0    0 -0.71789623410E+01 -0.10541510653E+02 -0.17527635895E+03  0.17573975917E+03  0.00000000000E+00 0.  1.
        -15    1    1    2    0    0  0.39372167482E+01 -0.14588174589E+01  0.10172043390E+03  0.10182256246E+03  0.17770000000E+01 0. -1.
         15    1    1    2    0    0  0.19563257914E+01  0.12759725777E+02 -0.81099373521E+00  0.13055774674E+02  0.17770000000E+01 0.  1.
</event>
<event>
 6    1  0.1196607E-002  0.1862232E+03  0.7546771E-02  0.1065529E+00
        -11   -1    0    0    0    0  0.00000000000E+00  0.00000000000E+00  0.18250000000E+03  0.18250000000E+03  0.00000000000E+00 0. -1.
         11   -1    0    0    0    0 -0.00000000000E+00 -0.00000000000E+00 -0.18250000000E+03  0.18250000000E+03  0.00000000000E+00 0.  1.
        -11    1    1    2    0    0  0.18998090544E+01 -0.38968502347E+01  0.16677571149E+03  0.16683204926E+03  0.00000000000E+00 0. -1.
         11    1    1    2    0    0 -0.46699913956E+01  0.10737402953E+01 -0.17871261316E+03  0.17877684369E+03  0.00000000000E+00 0.  1.
        -15    1    1    2    0    0 -0.32394843605E+01  0.13689696089E+01  0.12331409263E+02  0.12945644833E+02  0.17770000000E+01 0.  1.
         15    1    1    2    0    0  0.60096667017E+01  0.14541403304E+01 -0.39450759855E+00  0.64454622186E+01  0.17770000000E+01 0.  1.
</event>
<event>
 6    1  0.1196607E-002  0.1853940E+03  0.7546771E-02  0.1066174E+00
        -11   -1    0    0    0    0  0.00000000000E+00  0.00000000000E+00  0.18250000000E+03  0.18250000000E+03  0.00000000000E+00 0. -1.
         11   -1    0    0    0    0 -0.00000000000E+00 -0.00000000000E+00 -0.18250000000E+03  0.18250000000E+03  0.00000000000E+00 0. -1.
        -11    1    1    2    0    0  0.23255271585E+01 -0.21344349618E+01  0.17957828545E+03  0.17960602577E+03  0.00000000000E+00 0. -1.
         11    1    1    2    0    0  0.47245210565E+01  0.12342064692E+00 -0.17058183114E+03  0.17064728959E+03  0.00000000000E+00 0. -1.
        -15    1    1    2    0    0 -0.76960784125E+01 -0.10104866269E+01 -0.50518421099E+01  0.94302462247E+01  0.17770000000E+01 0. -1.
         15    1    1    2    0    0  0.64603019758E+00  0.30215009417E+01 -0.39446122008E+01  0.53164384104E+01  0.17770000000E+01 0.  1.
</event>
<event>
 6    1  0.1196607E-002  0.1868297E+03  0.7546771E-02  0.1065060E+00
        -11   -1    0    0    0    0  0.00000000000E+00  0.00000000000E+00  0.18250000000E+03  0.18250000000E+03  0.00000000000E+00 0.  1.
         11   -1    0    0    0    0 -0.00000000000E+00 -0.00000000000E+00 -0.18250000000E+03  0.18250000000E+03  0.00000000000E+00 0.  1.
        -11    1    1    2    0    0 -0.53728848826E+00 -0.22570071490E+01  0.15917658980E+03  0.15919349705E+03  0.00000000000E+00 0.  1.
         11    1    1    2    0    0  0.17180351765E+00 -0.55595883696E+01 -0.17808347431E+03  0.17817031841E+03  0.00000000000E+00 0.  1.
        -15    1    1    2    0    0  0.34931865429E+01  0.64240980009E+01 -0.78867484985E+00  0.75664472751E+01  0.17770000000E+01 0.  1.
         15    1    1    2    0    0 -0.31277015722E+01  0.13924975176E+01  0.19695559360E+02  0.20069737267E+02  0.17770000000E+01 0. -1.
</event>
<event>
 6    1  0.1196607E-002  0.1825780E+03  0.7546771E-02  0.1068393E+00
        -11   -1    0    0    0    0  0.00000000000E+00  0.00000000000E+00  0.18250000000E+03  0.18250000000E+03  0.00000000000E+00 0. -1.
         11   -1    0    0    0    0 -0.00000000000E+00 -0.00000000000E+00 -0.18250000000E+03  0.18250000000E+03  0.00000000000E+00 0. -1.
        -11    1    1    2    0    0 -0.22603980864E+00 -0.93564903677E+00  0.61019429384E+02  0.61027021027E+02  0.00000000000E+00 0. -1.
         11    1    1    2    0    0  0.26584355246E+01  0.65793633416E+00 -0.18240145713E+03  0.18242201546E+03  0.00000000000E+00 0. -1.
        -15    1    1    2    0    0 -0.93070316559E+00  0.63316315129E+00  0.10266467117E+03  0.10268621883E+03  0.17770000000E+01 0. -1.
         15    1    1    2    0    0 -0.15016925504E+01 -0.35545044869E+00  0.18717356581E+02  0.18864744682E+02  0.17770000000E+01 0.  1.
</event>
<event>
 6    1  0.1196607E-002  0.1910336E+03  0.7546771E-02  0.1061858E+00
        -11   -1    0    0    0    0  0.00000000000E+00  0.00000000000E+00  0.18250000000E+03  0.18250000000E+03  0.00000000000E+00 0. -1.
         11   -1    0    0    0    0 -0.00000000000E+00 -0.00000000000E+00 -0.18250000000E+03  0.18250000000E+03  0.00000000000E+00 0.  1.
        -11    1    1    2    0    0  0.43731453262E+01 -0.28002310716E+00  0.17391124382E+03  0.17396644371E+03  0.00000000000E+00 0. -1.
         11    1    1    2    0    0 -0.17294313292E+01  0.41989575072E+01 -0.16730052143E+03  0.16736214222E+03  0.00000000000E+00 0.  1.
        -15    1    1    2    0    0  0.46659498669E-01 -0.40635442850E+01 -0.14491651806E+02  0.15155206047E+02  0.17770000000E+01 0. -1.
         15    1    1    2    0    0 -0.26903734957E+01  0.14460988497E+00  0.78809294198E+01  0.85162080226E+01  0.17770000000E+01 0. -1.
</event>
<event>
 6    1  0.1196607E-002  0.1831570E+03  0.7546771E-02  0.1067933E+00
        -11   -1    0    0    0    0  0.00000000000E+00  0.00000000000E+00  0.18250000000E+03  0.18250000000E+03  0.00000000000E+00 0.  1.
         11   -1    0    0    0    0 -0.00000000000E+00 -0.00000000000E+00 -0.18250000000E+03  0.18250000000E+03  0.00000000000E+00 0. -1.
        -11    1    1    2    0    0  0.33985640603E+00 -0.44505600239E+01  0.18178817356E+03  0.18184296257E+03  0.00000000000E+00 0.  1.
         11    1    1    2    0    0 -0.38382456153E+00  0.15057206364E+01 -0.11354489792E+03  0.11355552985E+03  0.00000000000E+00 0. -1.
        -15    1    1    2    0    0 -0.17003681876E+01  0.61703570578E+01 -0.17885475376E+02  0.19079112050E+02  0.17770000000E+01 0. -1.
         15    1    1    2    0    0  0.17443363431E+01 -0.32255176704E+01 -0.50357800264E+02  0.50522395529E+02  0.17770000000E+01 0. -1.
</event>
<event>
 6    1  0.1196607E-002  0.1833901E+03  0.7546771E-02  0.1067748E+00
        -11   -1    0    0    0    0  0.00000000000E+00  0.00000000000E+00  0.18250000000E+03  0.18250000000E+03  0.00000000000E+00 0.  1.
         11   -1    0    0    0    0 -0.00000000000E+00 -0.00000000000E+00 -0.18250000000E+03  0.18250000000E+03  0.00000000000E+00 0. -1.
        -11    1    1    2    0    0  0.33369186960E+01  0.56010483188E+01  0.18149280616E+03  0.18160987158E+03  0.00000000000E+00 0.  1.
         11    1    1    2    0    0 -0.68298219710E+00  0.21044408651E+01 -0.99485295177E+02  0.99509894446E+02  0.00000000000E+00 0. -1.
        -15    1    1    2    0    0 -0.65204733870E+01 -0.72941803431E+01 -0.28175392825E+02  0.29878623293E+02  0.17770000000E+01 0. -1.
         15    1    1    2    0    0  0.38665368882E+01 -0.41130884078E+00 -0.53832118153E+02  0.54001610683E+02  0.17770000000E+01 0.  1.
</event>
<event>
 6    1  0.1196607E-002  0.1857684E+03  0.7546771E-02  0.1065883E+00
        -11   -1    0    0    0    0  0.00000000000E+00  0.00000000000E+00  0.18250000000E+03  0.18250000000E+03  0.00000000000E+00 0. -1.
         11   -1    0    0    0    0 -0.00000000000E+00 -0.00000000000E+00 -0.18250000000E+03  0.18250000000E+03  0.00000000000E+00 0.  1.
        -11    1    1    2    0    0 -0.17050883788E+01  0.42563053932E+01  0.17917298072E+03  0.17923163918E+03  0.00000000000E+00 0. -1.
         11    1    1    2    0    0 -0.12417600416E+01 -0.31533620397E+01 -0.16875438501E+03  0.16878841228E+03  0.00000000000E+00 0.  1.
        -15    1    1    2    0    0  0.14279633020E+01 -0.25495557580E+01 -0.12857709760E+02  0.13304801502E+02  0.17770000000E+01 0.  1.
         15    1    1    2    0    0  0.15188851185E+01  0.14466124045E+01  0.24391140478E+01  0.36751470434E+01  0.17770000000E+01 0.  1.
</event>
<event>
 6    1  0.1196607E-002  0.1957467E+03  0.7546771E-02  0.1058374E+00
        -11   -1    0    0    0    0  0.00000000000E+00  0.00000000000E+00  0.18250000000E+03  0.18250000000E+03  0.00000000000E+00 0. -1.
         11   -1    0    0    0    0 -0.00000000000E+00 -0.00000000000E+00 -0.18250000000E+03  0.18250000000E+03  0.00000000000E+00 0.  1.
        -11    1    1    2    0    0  0.10733583032E+02  0.19436059632E+01  0.94167189079E+02  0.94796871826E+02  0.00000000000E+00 0. -1.
         11    1    1    2    0    0  0.29678818620E+01  0.56745122784E+01 -0.16913207696E+03  0.16925326546E+03  0.00000000000E+00 0.  1.
        -15    1    1    2    0    0 -0.95493583929E+01 -0.49177881806E+01 -0.10616611209E+02  0.15206743533E+02  0.17770000000E+01 0.  1.
         15    1    1    2    0    0 -0.41521065009E+01 -0.27003300609E+01  0.85581499091E+02  0.85743119179E+02  0.17770000000E+01 0. -1.
</event>
<event>
 6    1  0.1196607E-002  0.1833416E+03  0.7546771E-02  0.1067787E+00
        -11   -1    0    0    0    0  0.00000000000E+00  0.00000000000E+00  0.18250000000E+03  0.18250000000E+03  0.00000000000E+00 0. -1.
         11   -1    0    0    0    0 -0.00000000000E+00 -0.00000000000E+00 -0.18250000000E+03  0.18250000000E+03  0.00000000000E+00 0.  1.
        -11    1    1    2    0    0  0.26369833064E+01 -0.81592961536E+00  0.18163746463E+03  0.18165843768E+03  0.00000000000E+00 0. -1.
         11    1    1    2    0    0  0.21802219015E+01  0.49937209882E+00 -0.12500636485E+03  0.12502637319E+03  0.00000000000E+00 0.  1.
        -15    1    1    2    0    0 -0.69968997381E+01  0.74039992679E+00 -0.53852078877E+02  0.54338834423E+02  0.17770000000E+01 0.  1.
         15    1    1    2    0    0  0.21796945302E+01 -0.42384241025E+00 -0.27790209037E+01  0.39763547147E+01  0.17770000000E+01 0.  1.
</event>
<event>
 6    1  0.1196607E-002  0.1834888E+03  0.7546771E-02  0.1067670E+00
        -11   -1    0    0    0    0  0.00000000000E+00  0.00000000000E+00  0.18250000000E+03  0.18250000000E+03  0.00000000000E+00 0. -1.
         11   -1    0    0    0    0 -0.00000000000E+00 -0.00000000000E+00 -0.18250000000E+03  0.18250000000E+03  0.00000000000E+00 0. -1.
        -11    1    1    2    0    0 -0.99129428368E+00 -0.20625733753E+01  0.15354318089E+03  0.15356023337E+03  0.00000000000E+00 0. -1.
         11    1    1    2    0    0  0.41907540691E+01  0.43388052754E+01 -0.18141095155E+03  0.18151121451E+03  0.00000000000E+00 0. -1.
        -15    1    1    2    0    0 -0.24441583002E+01 -0.17862185550E+01  0.27708676463E+02  0.27930144412E+02  0.17770000000E+01 0.  1.
         15    1    1    2    0    0 -0.75530148526E+00 -0.49001334506E+00  0.15909419818E+00  0.19984077101E+01  0.17770000000E+01 0.  1.
</event>
<event>
 6    1  0.1196607E-002  0.1832398E+03  0.7546771E-02  0.1067867E+00
        -11   -1    0    0    0    0  0.00000000000E+00  0.00000000000E+00  0.18250000000E+03  0.18250000000E+03  0.00000000000E+00 0.  1.
         11   -1    0    0    0    0 -0.00000000000E+00 -0.00000000000E+00 -0.18250000000E+03  0.18250000000E+03  0.00000000000E+00 0.  1.
        -11    1    1    2    0    0  0.27369593844E+01 -0.20808861041E+01  0.18172767346E+03  0.18176019458E+03  0.00000000000E+00 0.  1.
         11    1    1    2    0    0 -0.29137137630E+01 -0.51810107271E+00 -0.17538540710E+03  0.17541037364E+03  0.00000000000E+00 0.  1.
        -15    1    1    2    0    0 -0.34059129116E-01  0.97768278860E+00 -0.38942250829E+01  0.43908702617E+01  0.17770000000E+01 0.  1.
         15    1    1    2    0    0  0.21081350773E+00  0.16213043882E+01 -0.24480412772E+01  0.34385615233E+01  0.17770000000E+01 0. -1.
</event>
<event>
 6    1  0.1196607E-002  0.1833397E+03  0.7546771E-02  0.1067788E+00
        -11   -1    0    0    0    0  0.00000000000E+00  0.00000000000E+00  0.18250000000E+03  0.18250000000E+03  0.00000000000E+00 0. -1.
         11   -1    0    0    0    0 -0.00000000000E+00 -0.00000000000E+00 -0.18250000000E+03  0.18250000000E+03  0.00000000000E+00 0.  1.
        -11    1    1    2    0    0  0.22775139442E+01 -0.14724256535E+00  0.24583593191E+02  0.24689305464E+02  0.00000000000E+00 0. -1.
         11    1    1    2    0    0 -0.29000273963E+01 -0.25861760421E+01 -0.18161875779E+03  0.18166031941E+03  0.00000000000E+00 0.  1.
        -15    1    1    2    0    0 -0.44639176395E+01  0.72788091768E+01  0.13919625845E+03  0.13946922140E+03  0.17770000000E+01 0. -1.
         15    1    1    2    0    0  0.50864310916E+01 -0.45453905693E+01  0.17838906153E+02  0.19181153730E+02  0.17770000000E+01 0.  1.
</event>
<event>
 6    1  0.1196607E-002  0.1793706E+03  0.7546771E-02  0.1070973E+00
        -11   -1    0    0    0    0  0.00000000000E+00  0.00000000000E+00  0.18250000000E+03  0.18250000000E+03  0.00000000000E+00 0.  1.
         11   -1    0    0    0    0 -0.00000000000E+00 -0.00000000000E+00 -0.18250000000E+03  0.18250000000E+03  0.00000000000E+00 0. -1.
        -11    1    1    2    0    0 -0.35417416579E+01 -0.50486984378E+01  0.18175220900E+03  0.18185680841E+03  0.00000000000E+00 0.  1.
         11    1    1    2    0    0  0.18952527076E+01  0.22550381489E+01 -0.62163401064E+01  0.68789580750E+01  0.00000000000E+00 0. -1.
        -15    1    1    2    0    0  0.80950015183E+00 -0.34309696099E+01 -0.14428475850E+03  0.14433875470E+03  0.17770000000E+01 0.  1.
         15    1    1    2    0    0  0.83698879850E+00  0.62246298987E+01 -0.31251110395E+02  0.31925478815E+02  0.17770000000E+01 0. -1.
</event>
<event>
 6    1  0.1196607E-002  0.1838933E+03  0.7546771E-02  0.1067351E+00
        -11   -1    0    0    0    0  0.00000000000E+00  0.00000000000E+00  0.18250000000E+03  0.18250000000E+03  0.00000000000E+00 0. -1.
         11   -1    0    0    0    0 -0.00000000000E+00 -0.00000000000E+00 -0.18250000000E+03  0.18250000000E+03  0.00000000000E+00 0. -1.
        -11    1    1    2    0    0 -0.71341952677E+00 -0.86298805933E+01  0.18089957484E+03  0.18110670883E+03  0.00000000000E+00 0. -1.
         11    1    1    2    0    0  0.21098898315E+01 -0.78172544328E+01 -0.92902475807E+02  0.93254657326E+02  0.00000000000E+00 0. -1.
        -15    1    1    2    0    0 -0.17411791401E+01  0.13980846260E+02 -0.85551358978E+02  0.86721903340E+02  0.17770000000E+01 0. -1.
         15    1    1    2    0    0  0.34470883538E+00  0.24662887657E+01 -0.24457400522E+01  0.39167305064E+01  0.17770000000E+01 0.  1.
</event>
<event>
 6    1  0.1196607E-002  0.1849023E+03  0.7546771E-02  0.1066558E+00
        -11   -1    0    0    0    0  0.00000000000E+00  0.00000000000E+00  0.18250000000E+03  0.18250000000E+03  0.00000000000E+00 0.  1.
         11   -1    0    0    0    0 -0.00000000000E+00 -0.00000000000E+00 -0.18250000000E+03  0.18250000000E+03  0.00000000000E+00 0. -1.
        -11    1    1    2    0    0  0.19441211693E+01  0.14936325460E+01  0.17181237521E+03  0.17182986591E+03  0.00000000000E+00 0.  1.
         11    1    1    2    0    0  0.30992307901E+01  0.19020463201E+00 -0.18007090833E+03  0.18009767749E+03  0.00000000000E+00 0. -1.
        -15    1    1    2    0    0  0.51457092073E-01  0.93428997124E+00  0.65285772414E+01  0.68304901274E+01  0.17770000000E+01 0.  1.
         15    1    1    2    0    0 -0.50948090515E+01 -0.26181271492E+01  0.17299558843E+01  0.62419664692E+01  0.17770000000E+01 0.  1.
</event>
<event>
 6    1  0.1196607E-002  0.1703392E+03  0.7546771E-02  0.1078569E+00
        -11   -1    0    0    0    0  0.00000000000E+00  0.00000000000E+00  0.18250000000E+03  0.18250000000E+03  0.00000000000E+00 0. -1.
         11   -1    0    0    0    0 -0.00000000000E+00 -0.00000000000E+00 -0.18250000000E+03  0.18250000000E+03  0.00000000000E+00 0.  1.
        -11    1    1    2    0    0  0.85706713247E+01 -0.10601045280E+01  0.16951694271E+03  0.16973677885E+03  0.00000000000E+00 0. -1.
         11    1    1    2    0    0 -0.49502281081E+01 -0.19130897942E-02 -0.17089370292E+03  0.17096538381E+03  0.00000000000E+00 0.  1.
        -15    1    1    2    0    0  0.52072124017E+01 -0.40801308362E+00 -0.89524740225E+01  0.10515990481E+02  0.17770000000E+01 0. -1.
         15    1    1    2    0    0 -0.88276556183E+01  0.14700307014E+01  0.10329234231E+02  0.13781846857E+02  0.17770000000E+01 0. -1.
</event>
<event>
 6    1  0.1196607E-002  0.1861703E+03  0.7546771E-02  0.1065570E+00
        -11   -1    0    0    0    0  0.00000000000E+00  0.00000000000E+00  0.18250000000E+03  0.18250000000E+03  0.00000000000E+00 0.  1.
         11   -1    0    0    0    0 -0.00000000000E+00 -0.00000000000E+00 -0.18250000000E+03  0.18250000000E+03  0.00000000000E+00 0. -1.
        -11    1    1    2    0    0 -0.84966142254E+01  0.57752141628E+01  0.17853433764E+03  0.17882968229E+03  0.00000000000E+00 0.  1.
         11    1    1    2    0    0 -0.28838056717E+01  0.63671089682E+00 -0.15199325009E+03  0.15202193858E+03  0.00000000000E+00 0. -1.
        -15    1    1    2    0    0  0.33323195742E+01 -0.51797689409E+01 -0.24825915507E+02  0.25640167117E+02  0.17770000000E+01 0.  1.
         15    1    1    2    0    0  0.80481003229E+01 -0.12321561188E+01 -0.17151720447E+01  0.85082120126E+01  0.17770000000E+01 0. -1.
</event>
<event>
 6    1  0.1196607E-002  0.1827472E+03  0.7546771E-02  0.1068258E+00
        -11   -1    0    0    0    0  0.00000000000E+00  0.00000000000E+00  0.18250000000E+03  0.18250000000E+03  0.00000000000E+00 0.  1.
         11   -1    0    0    0    0 -0.00000000000E+00 -0.00000000000E+00 -0.18250000000E+03  0.18250000000E+03  0.00000000000E+00 0.  1.
        -11    1    1    2    0    0  0.88565969691E+00  0.19440963557E+01  0.81626743212E+02  0.81654694361E+02  0.00000000000E+00 0.  1.
         11    1    1    2    0    0  0.33365331058E+01  0.52704363740E+00 -0.18222149194E+03  0.18225279793E+03  0.00000000000E+00 0.  1.
        -15    1    1    2    0    0 -0.50553368484E+01 -0.21196848730E+01  0.94590462493E+02  0.94765831491E+02  0.17770000000E+01 0.  1.
         15    1    1    2    0    0  0.83314404570E+00 -0.35145512006E+00  0.60042862383E+01  0.63266762154E+01  0.17770000000E+01 0. -1.
</event>
<event>
 6    1  0.1196607E-002  0.1828624E+03  0.7546771E-02  0.1068167E+00
        -11   -1    0    0    0    0  0.00000000000E+00  0.00000000000E+00  0.18250000000E+03  0.18250000000E+03  0.00000000000E+00 0.  1.
         11   -1    0    0    0    0 -0.00000000000E+00 -0.00000000000E+00 -0.18250000000E+03  0.18250000000E+03  0.00000000000E+00 0. -1.
        -11    1    1    2    0    0  0.48109409684E+01  0.11178483415E+01  0.18207060280E+03  0.18213758300E+03  0.00000000000E+00 0.  1.
         11    1    1    2    0    0 -0.37404696887E+00  0.31095167676E+01 -0.10426490431E+03  0.10431193257E+03  0.00000000000E+00 0. -1.
        -15    1    1    2    0    0 -0.54528243576E+01 -0.73994105619E+00 -0.60632279732E+02  0.60907404154E+02  0.17770000000E+01 0. -1.
         15    1    1    2    0    0  0.10159303581E+01 -0.34874240529E+01 -0.17173418750E+02  0.17643080275E+02  0.17770000000E+01 0. -1.
</event>
<event>
 6    1  0.1196607E-002  0.1838681E+03  0.7546771E-02  0.1067371E+00
        -11   -1    0    0    0    0  0.00000000000E+00  0.00000000000E+00  0.18250000000E+03  0.18250000000E+03  0.00000000000E+00 0. -1.
         11   -1    0    0    0    0 -0.00000000000E+00 -0.00000000000E+00 -0.18250000000E+03  0.18250000000E+03  0.00000000000E+00 0.  1.
        -11    1    1    2    0    0  0.10439617367E+01  0.25364590101E+01  0.17415252859E+03  0.17417412751E+03  0.00000000000E+00 0. -1.
         11    1    1    2    0    0  0.24757268605E+01  0.36486356587E-01 -0.18111494807E+03  0.18113187176E+03  0.00000000000E+00 0.  1.
        -15    1    1    2    0    0 -0.36995948006E+01 -0.77740566685E+00  0.48067500228E+01  0.63681972364E+01  0.17770000000E+01 0. -1.
         15    1    1    2    0    0  0.17990620344E+00 -0.17955396999E+01  0.21556694599E+01  0.33258034933E+01  0.17770000000E+01 0.  1.
</event>
<event>
 6    1  0.1196607E-002  0.1892764E+03  0.7546771E-02  0.1063185E+00
        -11   -1    0    0    0    0  0.00000000000E+00  0.00000000000E+00  0.18250000000E+03  0.18250000000E+03  0.00000000000E+00 0.  1.
         11   -1    0    0    0    0 -0.00000000000E+00 -0.00000000000E+00 -0.18250000000E+03  0.18250000000E+03  0.00000000000E+00 0.  1.
        -11    1    1    2    0    0  0.13085214225E+01 -0.21382658168E+01  0.17570575142E+03  0.17572363384E+03  0.00000000000E+00 0.  1.
         11    1    1    2    0    0 -0.16179909594E+01 -0.38613570201E+01 -0.16894141543E+03  0.16899328336E+03  0.00000000000E+00 0.  1.
        -15    1    1    2    0    0  0.53591736649E+01  0.87867671581E+01  0.95095873971E+00  0.10487615124E+02  0.17770000000E+01 0.  1.
         15    1    1    2    0    0 -0.50497041281E+01 -0.27871443212E+01 -0.77152947281E+01  0.97954676759E+01  0.17770000000E+01 0. -1.
</event>
<event>
 6    1  0.1196607E-002  0.1783986E+03  0.7546771E-02  0.1071767E+00
        -11   -1    0    0    0    0  0.00000000000E+00  0.00000000000E+00  0.18250000000E+03  0.18250000000E+03  0.00000000000E+00 0. -1.
         11   -1    0    0    0    0 -0.00000000000E+00 -0.00000000000E+00 -0.18250000000E+03  0.18250000000E+03  0.00000000000E+00 0.  1.
        -11    1    1    2    0    0  0.72062872888E+00  0.39956650761E+00  0.83577808985E+01  0.83983010607E+01  0.00000000000E+00 0. -1.
         11    1    1    2    0    0  0.58863151731E+01  0.13038748366E+01 -0.18221231328E+03  0.18231202897E+03  0.00000000000E+00 0.  1.
        -15    1    1    2    0    0 -0.57516239748E+01 -0.49358701554E+01  0.85384141097E+02  0.85738283587E+02  0.17770000000E+01 0. -1.
         15    1    1    2    0    0 -0.85531992718E+00  0.32324288112E+01  0.88470391282E+02  0.88551386385E+02  0.17770000000E+01 0.  1.
</event>
<event>
 6    1  0.1196607E-002  0.1831605E+03  0.7546771E-02  0.1067930E+00
        -11   -1    0    0    0    0  0.00000000000E+00  0.00000000000E+00  0.18250000000E+03  0.18250000000E+03  0.00000000000E+00 0. -1.
         11   -1    0    0    0    0 -0.00000000000E+00 -0.00000000000E+00 -0.18250000000E+03  0.18250000000E+03  0.00000000000E+00 0.  1.
        -11    1    1    2    0    0 -0.29067807818E+00 -0.21440615265E+01  0.15741797698E+03  0.15743284591E+03  0.00000000000E+00 0. -1.
         11    1    1    2    0    0  0.38937527992E+01  0.64734844077E+00 -0.18179667678E+03  0.18183952282E+03  0.00000000000E+00 0.  1.
        -15    1    1    2    0    0 -0.46440343045E+01  0.30560934985E+00  0.10209728117E+02  0.11360313769E+02  0.17770000000E+01 0. -1.
         15    1    1    2    0    0  0.10409595836E+01  0.11911037359E+01  0.14168971676E+02  0.14367317506E+02  0.17770000000E+01 0.  1.
</event>
<event>
 6    1  0.1196607E-002  0.1952897E+03  0.7546771E-02  0.1058707E+00
        -11   -1    0    0    0    0  0.00000000000E+00  0.00000000000E+00  0.18250000000E+03  0.18250000000E+03  0.00000000000E+00 0.  1.
         11   -1    0    0    0    0 -0.00000000000E+00 -0.00000000000E+00 -0.18250000000E+03  0.18250000000E+03  0.00000000000E+00 0. -1.
        -11    1    1    2    0    0 -0.12835140013E+02  0.14583937982E+02  0.16859460847E+03  0.16971026507E+03  0.00000000000E+00 0.  1.
         11    1    1    2    0    0 -0.42450415630E+01 -0.33686631304E+01 -0.12347394370E+03  0.12359281145E+03  0.00000000000E+00 0. -1.
        -15    1    1    2    0    0  0.66338090929E+01 -0.27019390127E+02 -0.44679903329E+02  0.52664089818E+02  0.17770000000E+01 0. -1.
         15    1    1    2    0    0  0.10446372483E+02  0.15804115276E+02 -0.44076144058E+00  0.19032833666E+02  0.17770000000E+01 0.  1.
</event>
<event>
 6    1  0.1196607E-002  0.1701594E+03  0.7546771E-02  0.1078726E+00
        -11   -1    0    0    0    0  0.00000000000E+00  0.00000000000E+00  0.18250000000E+03  0.18250000000E+03  0.00000000000E+00 0. -1.
         11   -1    0    0    0    0 -0.00000000000E+00 -0.00000000000E+00 -0.18250000000E+03  0.18250000000E+03  0.00000000000E+00 0.  1.
        -11    1    1    2    0    0  0.36788086037E+00 -0.41658823091E+01  0.17172359156E+03  0.17177450861E+03  0.00000000000E+00 0. -1.
         11    1    1    2    0    0 -0.73199732414E+01 -0.32861481161E+01 -0.16852098379E+03  0.16871189275E+03  0.00000000000E+00 0.  1.
        -15    1    1    2    0    0  0.28892970224E+01  0.12118570678E+01 -0.12188114876E+02  0.12709229248E+02  0.17770000000E+01 0. -1.
         15    1    1    2    0    0  0.40627953587E+01  0.62401733574E+01  0.89855071100E+01  0.11804369389E+02  0.17770000000E+01 0. -1.
</event>
<event>
 6    1  0.1196607E-002  0.1834618E+03  0.7546771E-02  0.1067692E+00
        -11   -1    0    0    0    0  0.00000000000E+00  0.00000000000E+00  0.18250000000E+03  0.18250000000E+03  0.00000000000E+00 0. -1.
         11   -1    0    0    0    0 -0.00000000000E+00 -0.00000000000E+00 -0.18250000000E+03  0.18250000000E+03  0.00000000000E+00 0. -1.
        -11    1    1    2    0    0  0.31071142517E+01 -0.40847384014E+01  0.11688271523E+03  0.11699533481E+03  0.00000000000E+00 0. -1.
         11    1    1    2    0    0  0.27893111141E+01 -0.30888636251E+01 -0.18149053488E+03  0.18153824827E+03  0.00000000000E+00 0. -1.
        -15    1    1    2    0    0 -0.33853833781E+01  0.37945362446E+01  0.78241473736E+01  0.94991755985E+01  0.17770000000E+01 0. -1.
         15    1    1    2    0    0 -0.25110419877E+01  0.33790657820E+01  0.56783672276E+02  0.56967241319E+02  0.17770000000E+01 0. -1.
</event>
<event>
 6    1  0.1196607E-002  0.1832871E+03  0.7546771E-02  0.1067830E+00
        -11   -1    0    0    0    0  0.00000000000E+00  0.00000000000E+00  0.18250000000E+03  0.18250000000E+03  0.00000000000E+00 0.  1.
         11   -1    0    0    0    0 -0.00000000000E+00 -0.00000000000E+00 -0.18250000000E+03  0.18250000000E+03  0.00000000000E+00 0. -1.
        -11    1    1    2    0    0 -0.16025349977E+00  0.85724461995E+00  0.60359497495E+02  0.60365797331E+02  0.00000000000E+00 0.  1.
         11    1    1    2    0    0 -0.17405055615E+02  0.67930974772E+01 -0.18074978688E+03  0.18171287129E+03  0.00000000000E+00 0. -1.
        -15    1    1    2    0    0  0.17826657437E+02 -0.63584059184E+01  0.71590980602E+02  0.74071892603E+02  0.17770000000E+01 0.  1.
         15    1    1    2    0    0 -0.26134832250E+00 -0.12919361787E+01  0.48799308784E+02  0.48849438777E+02  0.17770000000E+01 0.  1.
</event>
<event>
 6    1  0.1196607E-002  0.1826035E+03  0.7546771E-02  0.1068372E+00
        -11   -1    0    0    0    0  0.00000000000E+00  0.00000000000E+00  0.18250000000E+03  0.18250000000E+03  0.00000000000E+00 0. -1.
         11   -1    0    0    0    0 -0.00000000000E+00 -0.00000000000E+00 -0.18250000000E+03  0.18250000000E+03  0.00000000000E+00 0.  1.
        -11    1    1    2    0    0 -0.15777257685E+01 -0.23855113833E+01  0.18237411340E+03  0.18239653813E+03  0.00000000000E+00 0. -1.
         11    1    1    2    0    0  0.25288909703E+01  0.13733709113E+01 -0.75290254823E+02  0.75345231492E+02  0.00000000000E+00 0.  1.
        -15    1    1    2    0    0 -0.81606573483E+00 -0.14834742764E+01 -0.25785073870E+02  0.25901629730E+02  0.17770000000E+01 0. -1.
         15    1    1    2    0    0 -0.13509946704E+00  0.24956147484E+01 -0.81298784708E+02  0.81356600647E+02  0.17770000000E+01 0. -1.
</event>
<event>
 6    1  0.1196607E-002  0.1863424E+03  0.7546771E-02  0.1065437E+00
        -11   -1    0    0    0    0  0.00000000000E+00  0.00000000000E+00  0.18250000000E+03  0.18250000000E+03  0.00000000000E+00 0. -1.
         11   -1    0    0    0    0 -0.00000000000E+00 -0.00000000000E+00 -0.18250000000E+03  0.18250000000E+03  0.00000000000E+00 0. -1.
        -11    1    1    2    0    0  0.70183459512E+00 -0.32429382981E+01  0.46021210274E+02  0.46140665532E+02  0.00000000000E+00 0. -1.
         11    1    1    2    0    0  0.24462978791E+01  0.26914217917E+01 -0.17862062453E+03  0.17865764924E+03  0.00000000000E+00 0. -1.
        -15    1    1    2    0    0  0.36786710177E+00  0.84779390776E+00  0.13536461643E+03  0.13537943415E+03  0.17770000000E+01 0. -1.
         15    1    1    2    0    0 -0.35159995760E+01 -0.29627740137E+00 -0.27652021748E+01  0.48222510702E+01  0.17770000000E+01 0.  1.
</event>
<event>
 6    1  0.1196607E-002  0.1972885E+03  0.7546771E-02  0.1057257E+00
        -11   -1    0    0    0    0  0.00000000000E+00  0.00000000000E+00  0.18250000000E+03  0.18250000000E+03  0.00000000000E+00 0.  1.
         11   -1    0    0    0    0 -0.00000000000E+00 -0.00000000000E+00 -0.18250000000E+03  0.18250000000E+03  0.00000000000E+00 0.  1.
        -11    1    1    2    0    0  0.47622211594E+01 -0.45255525035E+01  0.16758277435E+03  0.16771149524E+03  0.00000000000E+00 0.  1.
         11    1    1    2    0    0  0.38933622454E+01  0.43168469885E+01 -0.15641780208E+03  0.15652578780E+03  0.00000000000E+00 0.  1.
        -15    1    1    2    0    0  0.92548063778E+01  0.12381476547E+02  0.14678791030E+01  0.15628973115E+02  0.17770000000E+01 0. -1.
         15    1    1    2    0    0 -0.17910389783E+02 -0.12172771032E+02 -0.12632851374E+02  0.25133743844E+02  0.17770000000E+01 0.  1.
</event>
<event>
 6    1  0.1196607E-002  0.1836670E+03  0.7546771E-02  0.1067530E+00
        -11   -1    0    0    0    0  0.00000000000E+00  0.00000000000E+00  0.18250000000E+03  0.18250000000E+03  0.00000000000E+00 0.  1.
         11   -1    0    0    0    0 -0.00000000000E+00 -0.00000000000E+00 -0.18250000000E+03  0.18250000000E+03  0.00000000000E+00 0. -1.
        -11    1    1    2    0    0 -0.23302176962E+01 -0.34365819334E+01  0.18128543326E+03  0.18133297638E+03  0.00000000000E+00 0.  1.
         11    1    1    2    0    0  0.38954407179E+01 -0.40658729614E+00 -0.16232352288E+03  0.16237076662E+03  0.00000000000E+00 0. -1.
        -15    1    1    2    0    0 -0.16151389513E+01  0.22940732746E+01 -0.14456924037E+01  0.36220438356E+01  0.17770000000E+01 0. -1.
         15    1    1    2    0    0  0.49915929514E-01  0.15490959549E+01 -0.17516217978E+02  0.17674213168E+02  0.17770000000E+01 0.  1.
</event>
<event>
 6    1  0.1196607E-002  0.1830652E+03  0.7546771E-02  0.1068006E+00
        -11   -1    0    0    0    0  0.00000000000E+00  0.00000000000E+00  0.18250000000E+03  0.18250000000E+03  0.00000000000E+00 0.  1.
         11   -1    0    0    0    0 -0.00000000000E+00 -0.00000000000E+00 -0.18250000000E+03  0.18250000000E+03  0.00000000000E+00 0. -1.
        -11    1    1    2    0    0 -0.68816724319E+00 -0.15952527175E+01  0.92783894005E+02  0.92800158363E+02  0.00000000000E+00 0.  1.
         11    1    1    2    0    0 -0.75790431528E+01  0.59934945670E+01 -0.18167799772E+03  0.18193476503E+03  0.00000000000E+00 0. -1.
        -15    1    1    2    0    0  0.47237843690E+01 -0.42926302368E+01  0.16760627775E+02  0.18022685303E+02  0.17770000000E+01 0. -1.
         15    1    1    2    0    0  0.35434260270E+01 -0.10561161274E+00  0.72133475936E+02  0.72242391305E+02  0.17770000000E+01 0.  1.
</event>
<event>
 6    1  0.1196607E-002  0.1775737E+03  0.7546771E-02  0.1072445E+00
        -11   -1    0    0    0    0  0.00000000000E+00  0.00000000000E+00  0.18250000000E+03  0.18250000000E+03  0.00000000000E+00 0. -1.
         11   -1    0    0    0    0 -0.00000000000E+00 -0.00000000000E+00 -0.18250000000E+03  0.18250000000E+03  0.00000000000E+00 0. -1.
        -11    1    1    2    0    0  0.63581499521E+01  0.24140569927E+01  0.17900621559E+03  0.17913536491E+03  0.00000000000E+00 0. -1.
         11    1    1    2    0    0 -0.36613561753E+01  0.20588044843E+01 -0.17601295270E+03  0.17606306745E+03  0.00000000000E+00 0. -1.
        -15    1    1    2    0    0 -0.36277787101E+01 -0.12413905464E+00 -0.29647386470E+01  0.50123440743E+01  0.17770000000E+01 0. -1.
         15    1    1    2    0    0  0.93098493328E+00 -0.43487224224E+01 -0.28524250095E-01  0.47892235577E+01  0.17770000000E+01 0.  1.
</event>
<event>
 6    1  0.1196607E-002  0.1831800E+03  0.7546771E-02  0.1067915E+00
        -11   -1    0    0    0    0  0.00000000000E+00  0.00000000000E+00  0.18250000000E+03  0.18250000000E+03  0.00000000000E+00 0. -1.
         11   -1    0    0    0    0 -0.00000000000E+00 -0.00000000000E+00 -0.18250000000E+03  0.18250000000E+03  0.00000000000E+00 0. -1.
        -11    1    1    2    0    0 -0.66080364311E+00 -0.18256729073E+01  0.96696355970E+02  0.96715846690E+02  0.00000000000E+00 0. -1.
         11    1    1    2    0    0 -0.71132617101E+01 -0.40524757357E+01 -0.18163563843E+03  0.18182003795E+03  0.00000000000E+00 0. -1.
        -15    1    1    2    0    0  0.10503611608E+02  0.17331531060E+01  0.52320828714E+02  0.53422434640E+02  0.17770000000E+01 0. -1.
         15    1    1    2    0    0 -0.27295462547E+01  0.41449955370E+01  0.32618453749E+02  0.33041680718E+02  0.17770000000E+01 0.  1.
</event>
<event>
 6    1  0.1196607E-002  0.1839446E+03  0.7546771E-02  0.1067311E+00
        -11   -1    0    0    0    0  0.00000000000E+00  0.00000000000E+00  0.18250000000E+03  0.18250000000E+03  0.00000000000E+00 0. -1.
         11   -1    0    0    0    0 -0.00000000000E+00 -0.00000000000E+00 -0.18250000000E+03  0.18250000000E+03  0.00000000000E+00 0.  1.
        -11    1    1    2    0    0 -0.84394259625E+00  0.11596967410E+01  0.10338530324E+03  0.10339525164E+03  0.00000000000E+00 0. -1.
         11    1    1    2    0    0 -0.29103669778E+01  0.25288218813E+00 -0.18103184242E+03  0.18105541184E+03  0.00000000000E+00 0.  1.
        -15    1    1    2    0    0  0.85901977156E+01  0.53435464818E+01  0.61011950744E+02  0.61870516794E+02  0.17770000000E+01 0. -1.
         15    1    1    2    0    0 -0.48358881415E+01 -0.67561254110E+01  0.16634588438E+02  0.18678819721E+02  0.17770000000E+01 0.  1.
</event>
<event>
 6    1  0.1196607E-002  0.1908051E+03  0.7546771E-02  0.1062030E+00
        -11   -1    0    0    0    0  0.00000000000E+00  0.00000000000E+00  0.18250000000E+03  0.18250000000E+03  0.00000000000E+00 0.  1.
         11   -1    0    0    0    0 -0.00000000000E+00 -0.00000000000E+00 -0.18250000000E+03  0.18250000000E+03  0.00000000000E+00 0. -1.
        -11    1    1    2    0    0 -0.17605726414E+01 -0.44189496661E+01  0.12122960362E+03  0.12132288954E+03  0.00000000000E+00 0.  1.
         11    1    1    2    0    0 -0.43739718472E+00  0.55528076023E+01 -0.17410580597E+03  0.17419488127E+03  0.00000000000E+00 0. -1.
        -15    1    1    2    0    0 -0.15194897167E+02 -0.95661997751E+01  0.64495803753E+01  0.19161208053E+02  0.17770000000E+01 0.  1.
         15    1    1    2    0    0  0.17392866993E+02  0.84323418390E+01  0.46426621976E+02  0.50321021136E+02  0.17770000000E+01 0. -1.
</event>
<event>
 6    1  0.1196607E-002  0.1829804E+03  0.7546771E-02  0.1068073E+00
        -11   -1    0    0    0    0  0.00000000000E+00  0.00000000000E+00  0.18250000000E+03  0.18250000000E+03  0.00000000000E+00 0. -1.
         11   -1    0    0    0    0 -0.00000000000E+00 -0.00000000000E+00 -0.18250000000E+03  0.18250000000E+03  0.00000000000E+00 0. -1.
        -11    1    1    2    0    0 -0.17527592579E+01  0.28270951188E+00  0.10385624337E+03  0.10387141751E+03  0.00000000000E+00 0. -1.
         11    1    1    2    0    0 -0.97224122230E+00  0.73697480567E+01 -0.18186776735E+03  0.18201962323E+03  0.00000000000E+00 0. -1.
        -15    1    1    2    0    0  0.17058184635E+01 -0.53905853573E+01  0.16681518911E+02  0.17703079656E+02  0.17770000000E+01 0. -1.
         15    1    1    2    0    0  0.10191820166E+01 -0.22618722113E+01  0.61330005073E+02  0.61405879598E+02  0.17770000000E+01 0.  1.
</event>
<event>
 6    1  0.1196607E-002  0.1769442E+03  0.7546771E-02  0.1072965E+00
        -11   -1    0    0    0    0  0.00000000000E+00  0.00000000000E+00  0.18250000000E+03  0.18250000000E+03  0.00000000000E+00 0. -1.
         11   -1    0    0    0    0 -0.00000000000E+00 -0.00000000000E+00 -0.18250000000E+03  0.18250000000E+03  0.00000000000E+00 0. -1.
        -11    1    1    2    0    0 -0.25318709263E+01 -0.52942735471E+00  0.17781531612E+03  0.17783412864E+03  0.00000000000E+00 0. -1.
         11    1    1    2    0    0 -0.30312873788E+01  0.50593076340E+01 -0.17603275125E+03  0.17613152701E+03  0.00000000000E+00 0. -1.
        -15    1    1    2    0    0  0.60093489148E+01 -0.20420077941E+01  0.12462501791E+01  0.67076775951E+01  0.17770000000E+01 0.  1.
         15    1    1    2    0    0 -0.44619060976E+00 -0.24878724852E+01 -0.30288150498E+01  0.43266667504E+01  0.17770000000E+01 0. -1.
</event>
<event>
 6    1  0.1196607E-002  0.1844938E+03  0.7546771E-02  0.1066879E+00
        -11   -1    0    0    0    0  0.00000000000E+00  0.00000000000E+00  0.18250000000E+03  0.18250000000E+03  0.00000000000E+00 0. -1.
         11   -1    0    0    0    0 -0.00000000000E+00 -0.00000000000E+00 -0.18250000000E+03  0.18250000000E+03  0.00000000000E+00 0.  1.
        -11    1    1    2    0    0  0.20896196219E+01 -0.24128144358E+01  0.18047796964E+03  0.18050619300E+03  0.00000000000E+00 0. -1.
         11    1    1    2    0    0 -0.28132080402E+01  0.20680615363E+01 -0.17580450509E+03  0.17583917376E+03  0.00000000000E+00 0.  1.
        -15    1    1    2    0    0 -0.85500016889E-01 -0.74299203699E+00  0.12673960009E+01  0.23072427361E+01  0.17770000000E+01 0.  1.
         15    1    1    2    0    0  0.80908843516E+00  0.10877449366E+01 -0.59408605547E+01  0.63473905090E+01  0.17770000000E+01 0. -1.
</event>
<event>
 6    1  0.1196607E-002  0.1878429E+03  0.7546771E-02  0.1064280E+00
        -11   -1    0    0    0    0  0.00000000000E+00  0.00000000000E+00  0.18250000000E+03  0.18250000000E+03  0.00000000000E+00 0.  1.
         11   -1    0    0    0    0 -0.00000000000E+00 -0.00000000000E+00 -0.18250000000E+03  0.18250000000E+03  0.00000000000E+00 0. -1.
        -11    1    1    2    0    0 -0.72884463792E+00 -0.28216713545E+01  0.17713311690E+03  0.17715708889E+03  0.00000000000E+00 0.  1.
         11    1    1    2    0    0  0.27881915946E+01 -0.67434819727E+01 -0.16389322734E+03  0.16405559585E+03  0.00000000000E+00 0. -1.
        -15    1    1    2    0    0  0.38078048349E+01  0.57665883891E+00  0.22941155666E+01  0.48220958421E+01  0.17770000000E+01 0.  1.
         15    1    1    2    0    0 -0.58671517916E+01  0.89884944883E+01 -0.15534005122E+02  0.18965219414E+02  0.17770000000E+01 0. -1.
</event>
<event>
 6    1  0.1196607E-002  0.1847751E+03  0.7546771E-02  0.1066658E+00
        -11   -1    0    0    0    0  0.00000000000E+00  0.00000000000E+00  0.18250000000E+03  0.18250000000E+03  0.00000000000E+00 0. -1.
         11   -1    0    0    0    0 -0.00000000000E+00 -0.00000000000E+00 -0.18250000000E+03  0.18250000000E+03  0.00000000000E+00 0. -1.
        -11    1    1    2    0    0 -0.54907148622E+01 -0.39266260937E+01  0.62103277135E+02  0.62469059326E+02  0.00000000000E+00 0. -1.
         11    1    1    2    0    0  0.25480757403E+01 -0.69493980580E+01 -0.18007288408E+03  0.18022494391E+03  0.00000000000E+00 0. -1.
        -15    1    1    2    0    0  0.32466741809E+01  0.46755936122E+01  0.21994382601E+01  0.63558891214E+01  0.17770000000E+01 0.  1.
         15    1    1    2    0    0 -0.30403505899E+00  0.62004305396E+01  0.11577016869E+03  0.11595010765E+03  0.17770000000E+01 0. -1.
</event>
<event>
 6    1  0.1196607E-002  0.1828029E+03  0.7546771E-02  0.1068214E+00
        -11   -1    0    0    0    0  0.00000000000E+00  0.00000000000E+00  0.18250000000E+03  0.18250000000E+03  0.00000000000E+00 0. -1.
         11   -1    0    0    0    0 -0.00000000000E+00 -0.00000000000E+00 -0.18250000000E+03  0.18250000000E+03  0.00000000000E+00 0. -1.
        -11    1    1    2    0    0 -0.31051413094E+01 -0.66662658252E+00  0.18216938619E+03  0.18219706792E+03  0.00000000000E+00 0. -1.
         11    1    1    2    0    0  0.12730491141E+01  0.40085691516E+01 -0.14077846936E+03  0.14084128201E+03  0.00000000000E+00 0. -1.
        -15    1    1    2    0    0 -0.31531489539E+00 -0.34332014843E+01 -0.29159711138E+02  0.29416539201E+02  0.17770000000E+01 0.  1.
         15    1    1    2    0    0  0.21474070907E+01  0.91258915237E-01 -0.12231205684E+02  0.12545110876E+02  0.17770000000E+01 0. -1.
</event>
<event>
 6    1  0.1196607E-002  0.1734314E+03  0.7546771E-02  0.1075912E+00
        -11   -1    0    0    0    0  0.00000000000E+00  0.00000000000E+00  0.18250000000E+03  0.18250000000E+03  0.00000000000E+00 0.  1.
         11   -1    0    0    0    0 -0.00000000000E+00 -0.00000000000E+00 -0.18250000000E+03  0.18250000000E+03  0.00000000000E+00 0.  1.
        -11    1    1    2    0    0 -0.34212290919E+01 -0.19088843602E+01  0.17220723085E+03  0.17225178955E+03  0.00000000000E+00 0.  1.
         11    1    1    2    0    0 -0.18206227246E+01 -0.21752695894E+01 -0.17466028682E+03  0.17468331992E+03  0.00000000000E+00 0.  1.
        -15    1    1    2    0    0  0.69920605819E+01  0.20951007865E+01  0.84289059687E+01  0.11290816769E+02  0.17770000000E+01 0. -1.
         15    1    1    2    0    0 -0.17502087654E+01  0.19890531632E+01 -0.59758499943E+01  0.67740737642E+01  0.17770000000E+01 0.  1.
</event>
<event>
 6    1  0.1196607E-002  0.1825668E+03  0.7546771E-02  0.1068402E+00
        -11   -1    0    0    0    0  0.00000000000E+00  0.00000000000E+00  0.18250000000E+03  0.18250000000E+03  0.00000000000E+00 0. -1.
         11   -1    0    0    0    0 -0.00000000000E+00 -0.00000000000E+00 -0.18250000000E+03  0.18250000000E+03  0.00000000000E+00 0. -1.
        -11    1    1    2    0    0  0.26069702537E+01  0.22397442789E+01  0.69488660669E+02  0.69573606417E+02  0.00000000000E+00 0. -1.
         11    1    1    2    0    0 -0.34915848321E+01 -0.18176526878E+01 -0.18239074611E+03  0.18243321872E+03  0.00000000000E+00 0. -1.
        -15    1    1    2    0    0  0.49851434798E+00 -0.12849585277E+01  0.78539727781E+02  0.78571917400E+02  0.17770000000E+01 0. -1.
         15    1    1    2    0    0  0.38610023042E+00  0.86286693662E+00  0.34362357657E+02  0.34421257466E+02  0.17770000000E+01 0.  1.
</event>
<event>
 6    1  0.1196607E-002  0.1830725E+03  0.7546771E-02  0.1068000E+00
        -11   -1    0    0    0    0  0.00000000000E+00  0.00000000000E+00  0.18250000000E+03  0.18250000000E+03  0.00000000000E+00 0.  1.
         11   -1    0    0    0    0 -0.00000000000E+00 -0.00000000000E+00 -0.18250000000E+03  0.18250000000E+03  0.00000000000E+00 0.  1.
        -11    1    1    2    0    0 -0.18288648425E+01 -0.15994628129E+00  0.12682442787E+03  0.12683771456E+03  0.00000000000E+00 0.  1.
         11    1    1    2    0    0 -0.52388731863E+00  0.26403095076E+01 -0.18190763263E+03  0.18192754739E+03  0.00000000000E+00 0.  1.
        -15    1    1    2    0    0  0.33659642561E+01 -0.39887256444E+01  0.51751230059E+02  0.52044088899E+02  0.17770000000E+01 0.  1.
         15    1    1    2    0    0 -0.10132120949E+01  0.15083624180E+01  0.33319746965E+01  0.41906491516E+01  0.17770000000E+01 0. -1.
</event>
<event>
 6    1  0.1196607E-002  0.1852179E+03  0.7546771E-02  0.1066312E+00
        -11   -1    0    0    0    0  0.00000000000E+00  0.00000000000E+00  0.18250000000E+03  0.18250000000E+03  0.00000000000E+00 0.  1.
         11   -1    0    0    0    0 -0.00000000000E+00 -0.00000000000E+00 -0.18250000000E+03  0.18250000000E+03  0.00000000000E+00 0. -1.
        -11    1    1    2    0    0 -0.28411045147E+01  0.14908058257E+01  0.17975348815E+03  0.17978212057E+03  0.00000000000E+00 0.  1.
         11    1    1    2    0    0 -0.68275395546E+01  0.89223694630E+00 -0.15434452168E+03  0.15449803479E+03  0.00000000000E+00 0. -1.
        -15    1    1    2    0    0  0.12031408704E+02 -0.49558276444E+01 -0.21436336992E+02  0.25139397281E+02  0.17770000000E+01 0.  1.
         15    1    1    2    0    0 -0.23627646344E+01  0.25727848724E+01 -0.39726294756E+01  0.55804473537E+01  0.17770000000E+01 0. -1.
</event>
<event>
 6    1  0.1196607E-002  0.1898828E+03  0.7546771E-02  0.1062725E+00
        -11   -1    0    0    0    0  0.00000000000E+00  0.00000000000E+00  0.18250000000E+03  0.18250000000E+03  0.00000000000E+00 0.  1.
         11   -1    0    0    0    0 -0.00000000000E+00 -0.00000000000E+00 -0.18250000000E+03  0.18250000000E+03  0.00000000000E+00 0. -1.
        -11    1    1    2    0    0 -0.18013359443E+00 -0.30743774859E+01  0.17509006846E+03  0.17511715027E+03  0.00000000000E+00 0.  1.
         11    1    1    2    0    0 -0.25345456154E+01 -0.38744607025E+01 -0.14748315947E+03  0.14755581213E+03  0.00000000000E+00 0. -1.
        -15    1    1    2    0    0  0.25824379368E+01 -0.87440733251E+01 -0.24538704796E+02  0.26238017571E+02  0.17770000000E+01 0. -1.
         15    1    1    2    0    0  0.13224127312E+00  0.15692911513E+02 -0.30682041957E+01  0.16089020030E+02  0.17770000000E+01 0.  1.
</event>
<event>
 6    1  0.1196607E-002  0.1834015E+03  0.7546771E-02  0.1067739E+00
        -11   -1    0    0    0    0  0.00000000000E+00  0.00000000000E+00  0.18250000000E+03  0.18250000000E+03  0.00000000000E+00 0. -1.
         11   -1    0    0    0    0 -0.00000000000E+00 -0.00000000000E+00 -0.18250000000E+03  0.18250000000E+03  0.00000000000E+00 0.  1.
        -11    1    1    2    0    0 -0.18431241516E+00  0.23164101428E+01  0.15685945436E+03  0.15687666540E+03  0.00000000000E+00 0. -1.
         11    1    1    2    0    0 -0.53237153179E+01 -0.86049671545E+00 -0.18151841862E+03  0.18159850963E+03  0.00000000000E+00 0.  1.
        -15    1    1    2    0    0  0.89090168290E+00 -0.21970895080E+01  0.17746407745E+02  0.17992043379E+02  0.17770000000E+01 0. -1.
         15    1    1    2    0    0  0.46171260502E+01  0.74117608067E+00  0.69125565238E+01  0.85327815887E+01  0.17770000000E+01 0. -1.
</event>
<event>
 6    1  0.1196607E-002  0.1731839E+03  0.7546771E-02  0.1076122E+00
        -11   -1    0    0    0    0  0.00000000000E+00  0.00000000000E+00  0.18250000000E+03  0.18250000000E+03  0.00000000000E+00 0. -1.
         11   -1    0    0    0    0 -0.00000000000E+00 -0.00000000000E+00 -0.18250000000E+03  0.18250000000E+03  0.00000000000E+00 0.  1.
        -11    1    1    2    0    0 -0.39668792591E+01 -0.63610568161E+01  0.17550736100E+03  0.17566739294E+03  0.00000000000E+00 0. -1.
         11    1    1    2    0    0  0.51735591393E+01 -0.30726372838E+01 -0.17075748524E+03  0.17086347058E+03  0.00000000000E+00 0.  1.
        -15    1    1    2    0    0 -0.47306160030E+01  0.40651643041E+01 -0.86017739302E+01  0.10772768091E+02  0.17770000000E+01 0.  1.
         15    1    1    2    0    0  0.35239361227E+01  0.53685297958E+01  0.38518981665E+01  0.76963683936E+01  0.17770000000E+01 0.  1.
</event>
<event>
 6    1  0.1196607E-002  0.1838054E+03  0.7546771E-02  0.1067420E+00
        -11   -1    0    0    0    0  0.00000000000E+00  0.00000000000E+00  0.18250000000E+03  0.18250000000E+03  0.00000000000E+00 0.  1.
         11   -1    0    0    0    0 -0.00000000000E+00 -0.00000000000E+00 -0.18250000000E+03  0.18250000000E+03  0.00000000000E+00 0.  1.
        -11    1    1    2    0    0 -0.27551291451E+00  0.24488141559E+01  0.16642345969E+03  0.16644170311E+03  0.00000000000E+00 0.  1.
         11    1    1    2    0    0 -0.48640994386E+01  0.19213931143E+01 -0.18111909596E+03  0.18119458639E+03  0.00000000000E+00 0.  1.
        -15    1    1    2    0    0  0.30460957039E+01 -0.11947441954E+01  0.25497411449E+01  0.45127620849E+01  0.17770000000E+01 0.  1.
         15    1    1    2    0    0  0.20935166492E+01 -0.31754630747E+01  0.12145895129E+02  0.12850948415E+02  0.17770000000E+01 0.  1.
</event>
<event>
 6    1  0.1196607E-002  0.1826156E+03  0.7546771E-02  0.1068363E+00
        -11   -1    0    0    0    0  0.00000000000E+00  0.00000000000E+00  0.18250000000E+03  0.18250000000E+03  0.00000000000E+00 0. -1.
         11   -1    0    0    0    0 -0.00000000000E+00 -0.00000000000E+00 -0.18250000000E+03  0.18250000000E+03  0.00000000000E+00 0. -1.
        -11    1    1    2    0    0 -0.10590994458E+01  0.35099458609E+01  0.18234751894E+03  0.18238437179E+03  0.00000000000E+00 0. -1.
         11    1    1    2    0    0  0.16000479619E+01 -0.17485166274E+01 -0.27674378517E+02  0.27775685233E+02  0.00000000000E+00 0. -1.
        -15    1    1    2    0    0 -0.22542014492E+01 -0.77670332886E+00 -0.31962163839E+02  0.32100192188E+02  0.17770000000E+01 0. -1.
         15    1    1    2    0    0  0.17132529332E+01 -0.98472590461E+00 -0.12271097658E+03  0.12273975079E+03  0.17770000000E+01 0. -1.
</event>
<event>
 6    1  0.1667089E-002  0.1474888E+03  0.7546771E-02  0.1100340E+00
        -11   -1    0    0    0    0  0.00000000000E+00  0.00000000000E+00  0.18250000000E+03  0.18250000000E+03  0.00000000000E+00 0.  1.
         11   -1    0    0    0    0 -0.00000000000E+00 -0.00000000000E+00 -0.18250000000E+03  0.18250000000E+03  0.00000000000E+00 0.  1.
        -11    1    1    2    0    0 -0.23475395034E+01  0.12443096650E+01  0.15942935200E+03  0.15945148957E+03  0.00000000000E+00 0.  1.
         11    1    1    2    0    0  0.80689999262E+01 -0.37672088247E+02 -0.13350251661E+03  0.13895041178E+03  0.00000000000E+00 0.  1.
        -15    1    1    2    0    0 -0.12476536053E+02  0.29537195222E+02 -0.38829588103E+02  0.50388535350E+02  0.17770000000E+01 0.  1.
         15    1    1    2    0    0  0.67550756299E+01  0.68905833598E+01  0.12902752716E+02  0.16209563302E+02  0.17770000000E+01 0. -1.
</event>
<event>
 6    1  0.1196607E-002  0.1894189E+03  0.7546771E-02  0.1063077E+00
        -11   -1    0    0    0    0  0.00000000000E+00  0.00000000000E+00  0.18250000000E+03  0.18250000000E+03  0.00000000000E+00 0. -1.
         11   -1    0    0    0    0 -0.00000000000E+00 -0.00000000000E+00 -0.18250000000E+03  0.18250000000E+03  0.00000000000E+00 0.  1.
        -11    1    1    2    0    0 -0.27693833492E+01  0.96998219243E+00  0.14803069502E+03  0.14805977515E+03  0.00000000000E+00 0. -1.
         11    1    1    2    0    0 -0.44323774292E-01 -0.27910320391E+01 -0.17555889396E+03  0.17558108404E+03  0.00000000000E+00 0.  1.
        -15    1    1    2    0    0 -0.13885490279E+02  0.13923829518E+01  0.12640514593E+02  0.18912585988E+02  0.17770000000E+01 0. -1.
         15    1    1    2    0    0  0.16699197402E+02  0.42866689485E+00  0.14887684349E+02  0.22446554824E+02  0.17770000000E+01 0.  1.
</event>
<event>
 6    1  0.1196607E-002  0.1912775E+03  0.7546771E-02  0.1061675E+00
        -11   -1    0    0    0    0  0.00000000000E+00  0.00000000000E+00  0.18250000000E+03  0.18250000000E+03  0.00000000000E+00 0. -1.
         11   -1    0    0    0    0 -0.00000000000E+00 -0.00000000000E+00 -0.18250000000E+03  0.18250000000E+03  0.00000000000E+00 0. -1.
        -11    1    1    2    0    0 -0.36761311173E+00 -0.52903382797E+00  0.46087087667E+02  0.46091589969E+02  0.00000000000E+00 0. -1.
         11    1    1    2    0    0 -0.65290776686E+00 -0.22984620010E+01 -0.17370610305E+03  0.17372253582E+03  0.00000000000E+00 0. -1.
        -15    1    1    2    0    0 -0.33255773191E+01  0.36334792482E+01  0.13570222804E+03  0.13580321815E+03  0.17770000000E+01 0. -1.
         15    1    1    2    0    0  0.43460981977E+01 -0.80598341919E+00 -0.80832126585E+01  0.93826560578E+01  0.17770000000E+01 0.  1.
</event>
<event>
 6    1  0.1196607E-002  0.1827974E+03  0.7546771E-02  0.1068218E+00
        -11   -1    0    0    0    0  0.00000000000E+00  0.00000000000E+00  0.18250000000E+03  0.18250000000E+03  0.00000000000E+00 0.  1.
         11   -1    0    0    0    0 -0.00000000000E+00 -0.00000000000E+00 -0.18250000000E+03  0.18250000000E+03  0.00000000000E+00 0. -1.
        -11    1    1    2    0    0 -0.44422159697E+01  0.31041935307E+01  0.77108050182E+02  0.77298258086E+02  0.00000000000E+00 0.  1.
         11    1    1    2    0    0  0.95734090804E+00  0.24678876496E+01 -0.18218340612E+03  0.18220263564E+03  0.00000000000E+00 0. -1.
        -15    1    1    2    0    0  0.27315779858E+01  0.20314055437E+00  0.43990384294E+02  0.44111386554E+02  0.17770000000E+01 0.  1.
         15    1    1    2    0    0  0.75329707580E+00 -0.57752217346E+01  0.61084971641E+02  0.61387719716E+02  0.17770000000E+01 0. -1.
</event>
<event>
 6    1  0.1196607E-002  0.1874202E+03  0.7546771E-02  0.1064604E+00
        -11   -1    0    0    0    0  0.00000000000E+00  0.00000000000E+00  0.18250000000E+03  0.18250000000E+03  0.00000000000E+00 0.  1.
         11   -1    0    0    0    0 -0.00000000000E+00 -0.00000000000E+00 -0.18250000000E+03  0.18250000000E+03  0.00000000000E+00 0. -1.
        -11    1    1    2    0    0  0.30140233735E+01  0.57827461806E+01  0.16674757975E+03  0.16687504260E+03  0.00000000000E+00 0.  1.
         11    1    1    2    0    0  0.52236484847E+01 -0.28664798277E+01 -0.17747977634E+03  0.17757976861E+03  0.00000000000E+00 0. -1.
        -15    1    1    2    0    0 -0.52453102768E+01 -0.83456812609E+01  0.98289667983E+01  0.14033174727E+02  0.17770000000E+01 0. -1.
         15    1    1    2    0    0 -0.29923615815E+01  0.54294149081E+01  0.90322979270E+00  0.65120140615E+01  0.17770000000E+01 0.  1.
</event>
<event>
 6    1  0.1196607E-002  0.1871607E+03  0.7546771E-02  0.1064804E+00
        -11   -1    0    0    0    0  0.00000000000E+00  0.00000000000E+00  0.18250000000E+03  0.18250000000E+03  0.00000000000E+00 0. -1.
         11   -1    0    0    0    0 -0.00000000000E+00 -0.00000000000E+00 -0.18250000000E+03  0.18250000000E+03  0.00000000000E+00 0.  1.
        -11    1    1    2    0    0  0.41770967480E+01  0.32691533563E+01  0.17580533579E+03  0.17588533649E+03  0.00000000000E+00 0. -1.
         11    1    1    2    0    0 -0.28146933071E+01 -0.22742697414E+01 -0.17780251289E+03  0.17783933308E+03  0.00000000000E+00 0.  1.
        -15    1    1    2    0    0  0.18951997104E+01  0.21842946612E+01 -0.28206442211E+01  0.44132400718E+01  0.17770000000E+01 0. -1.
         15    1    1    2    0    0 -0.32576031513E+01 -0.31791782761E+01  0.48178213201E+01  0.68620903576E+01  0.17770000000E+01 0.  1.
</event>
<event>
 6    1  0.1196607E-002  0.1840204E+03  0.7546771E-02  0.1067251E+00
        -11   -1    0    0    0    0  0.00000000000E+00  0.00000000000E+00  0.18250000000E+03  0.18250000000E+03  0.00000000000E+00 0. -1.
         11   -1    0    0    0    0 -0.00000000000E+00 -0.00000000000E+00 -0.18250000000E+03  0.18250000000E+03  0.00000000000E+00 0.  1.
        -11    1    1    2    0    0  0.27104195240E+01  0.22148844999E+01  0.18094570523E+03  0.18097955776E+03  0.00000000000E+00 0. -1.
         11    1    1    2    0    0  0.29952358004E+01 -0.32918685225E+01 -0.16556051877E+03  0.16562032849E+03  0.00000000000E+00 0.  1.
        -15    1    1    2    0    0  0.31184110666E+00  0.12092527594E+01 -0.47537523407E+00  0.22233415674E+01  0.17770000000E+01 0. -1.
         15    1    1    2    0    0 -0.60174964311E+01 -0.13226873684E+00 -0.14909811228E+02  0.16176772180E+02  0.17770000000E+01 0. -1.
</event>
<event>
 6    1  0.1196607E-002  0.1829959E+03  0.7546771E-02  0.1068061E+00
        -11   -1    0    0    0    0  0.00000000000E+00  0.00000000000E+00  0.18250000000E+03  0.18250000000E+03  0.00000000000E+00 0.  1.
         11   -1    0    0    0    0 -0.00000000000E+00 -0.00000000000E+00 -0.18250000000E+03  0.18250000000E+03  0.00000000000E+00 0. -1.
        -11    1    1    2    0    0 -0.82782646856E+00 -0.28493920805E+01  0.18197992221E+03  0.18200411100E+03  0.00000000000E+00 0.  1.
         11    1    1    2    0    0  0.34025109958E+01  0.92863066834E+00 -0.12355531242E+03  0.12360564172E+03  0.00000000000E+00 0. -1.
        -15    1    1    2    0    0 -0.60148267529E+01  0.23783016294E+01 -0.33837971462E+02  0.34496383885E+02  0.17770000000E+01 0. -1.
         15    1    1    2    0    0  0.34401422257E+01 -0.45754021725E+00 -0.24586638329E+02  0.24893863399E+02  0.17770000000E+01 0.  1.
</event>
<event>
 6    1  0.1196607E-002  0.1859583E+03  0.7546771E-02  0.1065735E+00
        -11   -1    0    0    0    0  0.00000000000E+00  0.00000000000E+00  0.18250000000E+03  0.18250000000E+03  0.00000000000E+00 0.  1.
         11   -1    0    0    0    0 -0.00000000000E+00 -0.00000000000E+00 -0.18250000000E+03  0.18250000000E+03  0.00000000000E+00 0. -1.
        -11    1    1    2    0    0  0.21519432441E+01 -0.43417212917E+01  0.17199559633E+03  0.17206384444E+03  0.00000000000E+00 0.  1.
         11    1    1    2    0    0 -0.33743761452E+01 -0.53128561624E+01 -0.17893104846E+03  0.17904170731E+03  0.00000000000E+00 0. -1.
        -15    1    1    2    0    0  0.27501175566E+01  0.21586360626E+01  0.99200970586E+00  0.40453267460E+01  0.17770000000E+01 0. -1.
         15    1    1    2    0    0 -0.15276846555E+01  0.74959413915E+01  0.59434424152E+01  0.98491215088E+01  0.17770000000E+01 0.  1.
</event>
<event>
 6    1  0.1196607E-002  0.1828722E+03  0.7546771E-02  0.1068159E+00
        -11   -1    0    0    0    0  0.00000000000E+00  0.00000000000E+00  0.18250000000E+03  0.18250000000E+03  0.00000000000E+00 0.  1.
         11   -1    0    0    0    0 -0.00000000000E+00 -0.00000000000E+00 -0.18250000000E+03  0.18250000000E+03  0.00000000000E+00 0. -1.
        -11    1    1    2    0    0  0.20496492428E+01 -0.20421860245E+01  0.10522348978E+03  0.10526326229E+03  0.00000000000E+00 0.  1.
         11    1    1    2    0    0  0.23227403205E+01  0.17114895185E+01 -0.18210490721E+03  0.18212776161E+03  0.00000000000E+00 0. -1.
        -15    1    1    2    0    0 -0.39228162223E+01 -0.39484277806E+01  0.37313172784E+02  0.37767832361E+02  0.17770000000E+01 0.  1.
         15    1    1    2    0    0 -0.44957334098E+00  0.42791242866E+01  0.39568244650E+02  0.39841143741E+02  0.17770000000E+01 0.  1.
</event>
<event>
 6    1  0.1196607E-002  0.2044228E+03  0.7546771E-02  0.1052231E+00
        -11   -1    0    0    0    0  0.00000000000E+00  0.00000000000E+00  0.18250000000E+03  0.18250000000E+03  0.00000000000E+00 0.  1.
         11   -1    0    0    0    0 -0.00000000000E+00 -0.00000000000E+00 -0.18250000000E+03  0.18250000000E+03  0.00000000000E+00 0. -1.
        -11    1    1    2    0    0  0.24125352123E+01  0.96663028692E+01  0.14908644875E+03  0.14941896446E+03  0.00000000000E+00 0.  1.
         11    1    1    2    0    0  0.22500497303E+01 -0.75980613456E+01 -0.16038152933E+03  0.16057717213E+03  0.00000000000E+00 0. -1.
        -15    1    1    2    0    0 -0.10580788271E+01 -0.10481078995E+02  0.31224447966E+02  0.33001460990E+02  0.17770000000E+01 0. -1.
         15    1    1    2    0    0 -0.36045061155E+01  0.84128374717E+01 -0.19929367394E+02  0.22002402423E+02  0.17770000000E+01 0. -1.
</event>
<event>
 6    1  0.1196607E-002  0.1827291E+03  0.7546771E-02  0.1068273E+00
        -11   -1    0    0    0    0  0.00000000000E+00  0.00000000000E+00  0.18250000000E+03  0.18250000000E+03  0.00000000000E+00 0. -1.
         11   -1    0    0    0    0 -0.00000000000E+00 -0.00000000000E+00 -0.18250000000E+03  0.18250000000E+03  0.00000000000E+00 0. -1.
        -11    1    1    2    0    0  0.16216406898E+01  0.18332534095E+00  0.11616835737E+03  0.11617982003E+03  0.00000000000E+00 0. -1.
         11    1    1    2    0    0  0.52969039227E-01  0.39768426822E+01 -0.18222753951E+03  0.18227093635E+03  0.00000000000E+00 0. -1.
        -15    1    1    2    0    0 -0.31200340725E+00 -0.40922818547E+01  0.58349752581E+02  0.58520897739E+02  0.17770000000E+01 0. -1.
         15    1    1    2    0    0 -0.13626063218E+01 -0.67886168409E-01  0.77094295532E+01  0.80283458791E+01  0.17770000000E+01 0.  1.
</event>
<event>
 6    1  0.1196607E-002  0.1825704E+03  0.7546771E-02  0.1068399E+00
        -11   -1    0    0    0    0  0.00000000000E+00  0.00000000000E+00  0.18250000000E+03  0.18250000000E+03  0.00000000000E+00 0. -1.
         11   -1    0    0    0    0 -0.00000000000E+00 -0.00000000000E+00 -0.18250000000E+03  0.18250000000E+03  0.00000000000E+00 0. -1.
        -11    1    1    2    0    0  0.22899453941E+00 -0.87398015517E+00  0.64286379953E+02  0.64292728417E+02  0.00000000000E+00 0. -1.
         11    1    1    2    0    0 -0.35769284262E+01  0.54223436171E+00 -0.18239374392E+03  0.18242962001E+03  0.00000000000E+00 0. -1.
        -15    1    1    2    0    0  0.23877300831E+01  0.10877587870E+01  0.98693445915E+02  0.98744308543E+02  0.17770000000E+01 0. -1.
         15    1    1    2    0    0  0.96020380373E+00 -0.75601299356E+00  0.19413918051E+02  0.19533343034E+02  0.17770000000E+01 0.  1.
</event>
<event>
 6    1  0.1196607E-002  0.1831863E+03  0.7546771E-02  0.1067910E+00
        -11   -1    0    0    0    0  0.00000000000E+00  0.00000000000E+00  0.18250000000E+03  0.18250000000E+03  0.00000000000E+00 0.  1.
         11   -1    0    0    0    0 -0.00000000000E+00 -0.00000000000E+00 -0.18250000000E+03  0.18250000000E+03  0.00000000000E+00 0. -1.
        -11    1    1    2    0    0 -0.71887174607E+00 -0.65796105436E+01  0.18169322885E+03  0.18181374387E+03  0.00000000000E+00 0.  1.
         11    1    1    2    0    0 -0.10864838747E+01  0.10488194192E+01 -0.94312040371E+02  0.94324129618E+02  0.00000000000E+00 0. -1.
        -15    1    1    2    0    0 -0.11557646099E+01 -0.37408745936E+00 -0.71955918321E+02  0.71988107655E+02  0.17770000000E+01 0. -1.
         15    1    1    2    0    0  0.29611202307E+01  0.59048785837E+01 -0.15425270154E+02  0.16874018858E+02  0.17770000000E+01 0.  1.
</event>
<event>
 6    1  0.1196607E-002  0.1826629E+03  0.7546771E-02  0.1068325E+00
        -11   -1    0    0    0    0  0.00000000000E+00  0.00000000000E+00  0.18250000000E+03  0.18250000000E+03  0.00000000000E+00 0. -1.
         11   -1    0    0    0    0 -0.00000000000E+00 -0.00000000000E+00 -0.18250000000E+03  0.18250000000E+03  0.00000000000E+00 0. -1.
        -11    1    1    2    0    0  0.51742233952E+01 -0.18871641861E+01  0.18225394064E+03  0.18233714063E+03  0.00000000000E+00 0. -1.
         11    1    1    2    0    0  0.10110549092E+01  0.26488295818E+01 -0.53498287772E+02  0.53573363948E+02  0.00000000000E+00 0. -1.
        -15    1    1    2    0    0 -0.20236695161E+00  0.17859447570E+01 -0.32602493581E+02  0.32700319077E+02  0.17770000000E+01 0.  1.
         15    1    1    2    0    0 -0.59829113528E+01 -0.25476101527E+01 -0.96153159287E+02  0.96389176340E+02  0.17770000000E+01 0. -1.
</event>
<event>
 6    1  0.1196607E-002  0.1837032E+03  0.7546771E-02  0.1067501E+00
        -11   -1    0    0    0    0  0.00000000000E+00  0.00000000000E+00  0.18250000000E+03  0.18250000000E+03  0.00000000000E+00 0. -1.
         11   -1    0    0    0    0 -0.00000000000E+00 -0.00000000000E+00 -0.18250000000E+03  0.18250000000E+03  0.00000000000E+00 0. -1.
        -11    1    1    2    0    0 -0.29194245111E+00 -0.21863733577E+01  0.16004097051E+03  0.16005617046E+03  0.00000000000E+00 0. -1.
         11    1    1    2    0    0  0.28290105955E+00 -0.41535003325E+01 -0.18124896125E+03  0.18129676653E+03  0.00000000000E+00 0. -1.
        -15    1    1    2    0    0 -0.23014755557E+01  0.68880384055E+01  0.15779950375E+02  0.17461569965E+02  0.17770000000E+01 0. -1.
         15    1    1    2    0    0  0.23105169473E+01 -0.54816471530E+00  0.54280403648E+01  0.61854930540E+01  0.17770000000E+01 0.  1.
</event>
<event>
 6    1  0.1196607E-002  0.1825912E+03  0.7546771E-02  0.1068382E+00
        -11   -1    0    0    0    0  0.00000000000E+00  0.00000000000E+00  0.18250000000E+03  0.18250000000E+03  0.00000000000E+00 0.  1.
         11   -1    0    0    0    0 -0.00000000000E+00 -0.00000000000E+00 -0.18250000000E+03  0.18250000000E+03  0.00000000000E+00 0. -1.
        -11    1    1    2    0    0  0.71263829752E+00  0.37426222157E+01  0.18236896353E+03  0.18240875509E+03  0.00000000000E+00 0.  1.
         11    1    1    2    0    0 -0.27106449008E+00  0.11088917842E+01 -0.48397273583E+02  0.48410734421E+02  0.00000000000E+00 0. -1.
        -15    1    1    2    0    0 -0.14268180286E+01 -0.18317057201E+01 -0.93437705345E+02  0.93483439521E+02  0.17770000000E+01 0. -1.
         15    1    1    2    0    0  0.98524422117E+00 -0.30198082798E+01 -0.40533984604E+02  0.40697070965E+02  0.17770000000E+01 0.  1.
</event>
<event>
 6    1  0.1196607E-002  0.1838380E+03  0.7546771E-02  0.1067395E+00
        -11   -1    0    0    0    0  0.00000000000E+00  0.00000000000E+00  0.18250000000E+03  0.18250000000E+03  0.00000000000E+00 0.  1.
         11   -1    0    0    0    0 -0.00000000000E+00 -0.00000000000E+00 -0.18250000000E+03  0.18250000000E+03  0.00000000000E+00 0. -1.
        -11    1    1    2    0    0 -0.36003746601E+01  0.16447195863E+01  0.18111879211E+03  0.18116203977E+03  0.00000000000E+00 0.  1.
         11    1    1    2    0    0  0.68712876323E+01  0.15432116802E+01 -0.12385245431E+03  0.12405251523E+03  0.00000000000E+00 0. -1.
        -15    1    1    2    0    0 -0.72669884964E+01 -0.74174866920E+01 -0.28550547743E+02  0.30432215432E+02  0.17770000000E+01 0. -1.
         15    1    1    2    0    0  0.39960755243E+01  0.42295554255E+01 -0.28715790048E+02  0.29353229563E+02  0.17770000000E+01 0.  1.
</event>
<event>
 6    1  0.1196607E-002  0.1830984E+03  0.7546771E-02  0.1067979E+00
        -11   -1    0    0    0    0  0.00000000000E+00  0.00000000000E+00  0.18250000000E+03  0.18250000000E+03  0.00000000000E+00 0. -1.
         11   -1    0    0    0    0 -0.00000000000E+00 -0.00000000000E+00 -0.18250000000E+03  0.18250000000E+03  0.00000000000E+00 0. -1.
        -11    1    1    2    0    0  0.44137623166E+01  0.15168141136E+01  0.18184169706E+03  0.18190158001E+03  0.00000000000E+00 0. -1.
         11    1    1    2    0    0  0.41590627493E+01 -0.23658873462E+01 -0.99900469284E+02  0.10001499382E+03  0.00000000000E+00 0. -1.
        -15    1    1    2    0    0 -0.86168583598E+01 -0.82600854858E+00 -0.35689391768E+02  0.36767145006E+02  0.17770000000E+01 0. -1.
         15    1    1    2    0    0  0.44033293928E-01  0.16750817812E+01 -0.46251836003E+02  0.46316281161E+02  0.17770000000E+01 0.  1.
</event>
<event>
 6    1  0.1196607E-002  0.1891941E+03  0.7546771E-02  0.1063248E+00
        -11   -1    0    0    0    0  0.00000000000E+00  0.00000000000E+00  0.18250000000E+03  0.18250000000E+03  0.00000000000E+00 0.  1.
         11   -1    0    0    0    0 -0.00000000000E+00 -0.00000000000E+00 -0.18250000000E+03  0.18250000000E+03  0.00000000000E+00 0.  1.
        -11    1    1    2    0    0 -0.28897024904E+01 -0.90810538157E+01  0.16908969483E+03  0.16935802555E+03  0.00000000000E+00 0.  1.
         11    1    1    2    0    0  0.44379288225E+01  0.23754359185E+01 -0.17573381465E+03  0.17580589159E+03  0.00000000000E+00 0.  1.
        -15    1    1    2    0    0 -0.14962096497E+01 -0.19622751636E+01 -0.46084499098E+01  0.55212957451E+01  0.17770000000E+01 0. -1.
         15    1    1    2    0    0 -0.52016682425E-01  0.86678930608E+01  0.11252569725E+02  0.14314787119E+02  0.17770000000E+01 0.  1.
</event>
<event>
 6    1  0.1196607E-002  0.1767069E+03  0.7546771E-02  0.1073162E+00
        -11   -1    0    0    0    0  0.00000000000E+00  0.00000000000E+00  0.18250000000E+03  0.18250000000E+03  0.00000000000E+00 0.  1.
         11   -1    0    0    0    0 -0.00000000000E+00 -0.00000000000E+00 -0.18250000000E+03  0.18250000000E+03  0.00000000000E+00 0. -1.
        -11    1    1    2    0    0  0.32885277205E+01 -0.16536585268E+01  0.17717808464E+03  0.17721631606E+03  0.00000000000E+00 0.  1.
         11    1    1    2    0    0 -0.24082149165E+01 -0.42140806634E+01 -0.17618192471E+03  0.17624876899E+03  0.00000000000E+00 0. -1.
        -15    1    1    2    0    0  0.35213929415E+01  0.28891642552E+01  0.18771391001E+01  0.52372567766E+01  0.17770000000E+01 0. -1.
         15    1    1    2    0    0 -0.44017057455E+01  0.29785749349E+01 -0.28732990367E+01  0.62976581733E+01  0.17770000000E+01 0.  1.
</event>
<event>
 6    1  0.1196607E-002  0.1862806E+03  0.7546771E-02  0.1065485E+00
        -11   -1    0    0    0    0  0.00000000000E+00  0.00000000000E+00  0.18250000000E+03  0.18250000000E+03  0.00000000000E+00 0. -1.
         11   -1    0    0    0    0 -0.00000000000E+00 -0.00000000000E+00 -0.18250000000E+03  0.18250000000E+03  0.00000000000E+00 0. -1.
        -11    1    1    2    0    0  0.14613270181E+01 -0.24028262351E+01  0.17869722221E+03  0.17871935059E+03  0.00000000000E+00 0. -1.
         11    1    1    2    0    0 -0.22402215653E+01 -0.19176108594E+01 -0.17594247442E+03  0.17596718481E+03  0.00000000000E+00 0. -1.
        -15    1    1    2    0    0 -0.30973650135E-01  0.40748224440E+01  0.22159856546E+01  0.49672385426E+01  0.17770000000E+01 0.  1.
         15    1    1    2    0    0  0.80986819740E+00  0.24561465049E+00 -0.49707334464E+01  0.53462260567E+01  0.17770000000E+01 0.  1.
</event>
<event>
 6    1  0.1196607E-002  0.1829831E+03  0.7546771E-02  0.1068071E+00
        -11   -1    0    0    0    0  0.00000000000E+00  0.00000000000E+00  0.18250000000E+03  0.18250000000E+03  0.00000000000E+00 0.  1.
         11   -1    0    0    0    0 -0.00000000000E+00 -0.00000000000E+00 -0.18250000000E+03  0.18250000000E+03  0.00000000000E+00 0. -1.
        -11    1    1    2    0    0  0.36701268934E+01  0.49778537486E+01  0.18191177354E+03  0.18201687342E+03  0.00000000000E+00 0.  1.
         11    1    1    2    0    0 -0.37381075287E+01 -0.43402730022E+01 -0.90149709557E+02  0.90331509180E+02  0.00000000000E+00 0. -1.
        -15    1    1    2    0    0 -0.10201170899E+01 -0.26422467357E+01 -0.62288125517E+01  0.70695078678E+01  0.17770000000E+01 0.  1.
         15    1    1    2    0    0  0.10880977253E+01  0.20046659893E+01 -0.85533251429E+02  0.85582109529E+02  0.17770000000E+01 0. -1.
</event>
<event>
 6    1  0.1196607E-002  0.1873380E+03  0.7546771E-02  0.1064668E+00
        -11   -1    0    0    0    0  0.00000000000E+00  0.00000000000E+00  0.18250000000E+03  0.18250000000E+03  0.00000000000E+00 0.  1.
         11   -1    0    0    0    0 -0.00000000000E+00 -0.00000000000E+00 -0.18250000000E+03  0.18250000000E+03  0.00000000000E+00 0.  1.
        -11    1    1    2    0    0  0.46799346143E+00 -0.27811736603E+01  0.17441887686E+03  0.17444167665E+03  0.00000000000E+00 0.  1.
         11    1    1    2    0    0 -0.27494898522E+01 -0.13862524129E+00 -0.17764066287E+03  0.17766199373E+03  0.00000000000E+00 0.  1.
        -15    1    1    2    0    0  0.30673067928E+01  0.20136704123E+01 -0.37885871808E+01  0.55654614648E+01  0.17770000000E+01 0. -1.
         15    1    1    2    0    0 -0.78581040201E+00  0.90612848929E+00  0.70103731836E+01  0.73308681614E+01  0.17770000000E+01 0. -1.
</event>
<event>
 6    1  0.1196607E-002  0.1832813E+03  0.7546771E-02  0.1067835E+00
        -11   -1    0    0    0    0  0.00000000000E+00  0.00000000000E+00  0.18250000000E+03  0.18250000000E+03  0.00000000000E+00 0.  1.
         11   -1    0    0    0    0 -0.00000000000E+00 -0.00000000000E+00 -0.18250000000E+03  0.18250000000E+03  0.00000000000E+00 0.  1.
        -11    1    1    2    0    0 -0.21470625077E+01 -0.39259346919E+01  0.71373189845E+02  0.71513320922E+02  0.00000000000E+00 0.  1.
         11    1    1    2    0    0 -0.18401688649E+01  0.26906149979E+01 -0.18168948041E+03  0.18171871924E+03  0.00000000000E+00 0.  1.
        -15    1    1    2    0    0 -0.68791279949E+00 -0.23822814332E+01  0.30144487109E+01  0.42887199579E+01  0.17770000000E+01 0.  1.
         15    1    1    2    0    0  0.46751441720E+01  0.36176011271E+01  0.10730184185E+03  0.10747923988E+03  0.17770000000E+01 0. -1.
</event>
<event>
 6    1  0.1196607E-002  0.1848204E+03  0.7546771E-02  0.1066623E+00
        -11   -1    0    0    0    0  0.00000000000E+00  0.00000000000E+00  0.18250000000E+03  0.18250000000E+03  0.00000000000E+00 0.  1.
         11   -1    0    0    0    0 -0.00000000000E+00 -0.00000000000E+00 -0.18250000000E+03  0.18250000000E+03  0.00000000000E+00 0. -1.
        -11    1    1    2    0    0 -0.26646920090E+01  0.12779955152E+01  0.13280713078E+03  0.13284000844E+03  0.00000000000E+00 0.  1.
         11    1    1    2    0    0  0.13262770816E+01 -0.31883261284E+01 -0.18014650830E+03  0.18017960175E+03  0.00000000000E+00 0. -1.
        -15    1    1    2    0    0 -0.31426159939E+01  0.10109169591E+02  0.33578357845E+02  0.35252449414E+02  0.17770000000E+01 0.  1.
         15    1    1    2    0    0  0.44810309213E+01 -0.81988389779E+01  0.13761019669E+02  0.16727940400E+02  0.17770000000E+01 0. -1.
</event>
<event>
 6    1  0.1196607E-002  0.1833407E+03  0.7546771E-02  0.1067788E+00
        -11   -1    0    0    0    0  0.00000000000E+00  0.00000000000E+00  0.18250000000E+03  0.18250000000E+03  0.00000000000E+00 0. -1.
         11   -1    0    0    0    0 -0.00000000000E+00 -0.00000000000E+00 -0.18250000000E+03  0.18250000000E+03  0.00000000000E+00 0. -1.
        -11    1    1    2    0    0  0.32780934371E+01 -0.39742565841E+00  0.18162924836E+03  0.18165926264E+03  0.00000000000E+00 0. -1.
         11    1    1    2    0    0 -0.31775904037E+01 -0.64662455912E+00 -0.17419858083E+03  0.17422875987E+03  0.00000000000E+00 0. -1.
        -15    1    1    2    0    0 -0.13224064611E+01  0.60278172512E+00 -0.61518822486E+01  0.65662385623E+01  0.17770000000E+01 0. -1.
         15    1    1    2    0    0  0.12219034277E+01  0.44126849240E+00 -0.12787852810E+01  0.25457389230E+01  0.17770000000E+01 0.  1.
</event>
<event>
 6    1  0.1196607E-002  0.1907792E+03  0.7546771E-02  0.1062049E+00
        -11   -1    0    0    0    0  0.00000000000E+00  0.00000000000E+00  0.18250000000E+03  0.18250000000E+03  0.00000000000E+00 0.  1.
         11   -1    0    0    0    0 -0.00000000000E+00 -0.00000000000E+00 -0.18250000000E+03  0.18250000000E+03  0.00000000000E+00 0. -1.
        -11    1    1    2    0    0  0.20560889108E+01  0.37186467867E+01  0.17416895526E+03  0.17422078180E+03  0.00000000000E+00 0.  1.
         11    1    1    2    0    0  0.26256643646E+01  0.68646191914E+01 -0.15923643053E+03  0.15940595321E+03  0.00000000000E+00 0. -1.
        -15    1    1    2    0    0 -0.38571914234E+00 -0.19708076216E+01  0.69242039808E+01  0.74253075159E+01  0.17770000000E+01 0.  1.
         15    1    1    2    0    0 -0.42960341330E+01 -0.86124583565E+01 -0.21856728712E+02  0.23947957475E+02  0.17770000000E+01 0. -1.
</event>
<event>
 6    1  0.1196607E-002  0.1827695E+03  0.7546771E-02  0.1068240E+00
        -11   -1    0    0    0    0  0.00000000000E+00  0.00000000000E+00  0.18250000000E+03  0.18250000000E+03  0.00000000000E+00 0. -1.
         11   -1    0    0    0    0 -0.00000000000E+00 -0.00000000000E+00 -0.18250000000E+03  0.18250000000E+03  0.00000000000E+00 0.  1.
        -11    1    1    2    0    0 -0.13716373411E+01 -0.34777851261E+01  0.11009360966E+03  0.11015706634E+03  0.00000000000E+00 0. -1.
         11    1    1    2    0    0  0.31485781076E+00 -0.32428057819E+01 -0.18220136519E+03  0.18223049252E+03  0.00000000000E+00 0.  1.
        -15    1    1    2    0    0  0.55351673512E+00  0.63961610294E+01  0.57649371794E+02  0.58032965235E+02  0.17770000000E+01 0. -1.
         15    1    1    2    0    0  0.50326279525E+00  0.32442987860E+00  0.14458383742E+02  0.14579475903E+02  0.17770000000E+01 0.  1.
</event>
<event>
 6    1  0.1196607E-002  0.1839266E+03  0.7546771E-02  0.1067325E+00
        -11   -1    0    0    0    0  0.00000000000E+00  0.00000000000E+00  0.18250000000E+03  0.18250000000E+03  0.00000000000E+00 0. -1.
         11   -1    0    0    0    0 -0.00000000000E+00 -0.00000000000E+00 -0.18250000000E+03  0.18250000000E+03  0.00000000000E+00 0. -1.
        -11    1    1    2    0    0  0.41202980893E+01 -0.47714336701E+00  0.18102586576E+03  0.18107337903E+03  0.00000000000E+00 0. -1.
         11    1    1    2    0    0 -0.26391214470E+01 -0.16805778078E+01 -0.12563017538E+03  0.12566913014E+03  0.00000000000E+00 0. -1.
        -15    1    1    2    0    0  0.34427686090E+01 -0.23368773981E+01 -0.47730291377E+02  0.47944260299E+02  0.17770000000E+01 0.  1.
         15    1    1    2    0    0 -0.49239452514E+01  0.44945985730E+01 -0.76653990013E+01  0.10313230533E+02  0.17770000000E+01 0. -1.
</event>
<event>
 6    1  0.1196607E-002  0.1881108E+03  0.7546771E-02  0.1064074E+00
        -11   -1    0    0    0    0  0.00000000000E+00  0.00000000000E+00  0.18250000000E+03  0.18250000000E+03  0.00000000000E+00 0.  1.
         11   -1    0    0    0    0 -0.00000000000E+00 -0.00000000000E+00 -0.18250000000E+03  0.18250000000E+03  0.00000000000E+00 0.  1.
        -11    1    1    2    0    0  0.81200711652E-01 -0.53648968795E+01  0.16160091661E+03  0.16168996555E+03  0.00000000000E+00 0.  1.
         11    1    1    2    0    0 -0.10005355447E+02 -0.49559788307E+01 -0.17653643077E+03  0.17688917506E+03  0.00000000000E+00 0.  1.
        -15    1    1    2    0    0  0.55225678754E+01  0.11877295105E+02  0.16540959585E+02  0.21173803814E+02  0.17770000000E+01 0.  1.
         15    1    1    2    0    0  0.44015868596E+01 -0.15564193944E+01 -0.16054454259E+01  0.52470555771E+01  0.17770000000E+01 0. -1.
</event>
<event>
 6    1  0.1813787E-002  0.1827299E+03  0.7546771E-02  0.1068272E+00
        -11   -1    0    0    0    0  0.00000000000E+00  0.00000000000E+00  0.18250000000E+03  0.18250000000E+03  0.00000000000E+00 0. -1.
         11   -1    0    0    0    0 -0.00000000000E+00 -0.00000000000E+00 -0.18250000000E+03  0.18250000000E+03  0.00000000000E+00 0.  1.
        -11    1    1    2    0    0 -0.22781687072E+01  0.93019713036E+00  0.18225351521E+03  0.18227012681E+03  0.00000000000E+00 0. -1.
         11    1    1    2    0    0 -0.13715076294E+01 -0.23092232906E+00 -0.91684110737E+02  0.91694659168E+02  0.00000000000E+00 0.  1.
        -15    1    1    2    0    0  0.38228083339E+01 -0.57890920526E-01 -0.19963635294E+02  0.20403962313E+02  0.17770000000E+01 0.  1.
         15    1    1    2    0    0 -0.17313199722E+00 -0.64138388077E+00 -0.70605769180E+02  0.70631251712E+02  0.17770000000E+01 0.  1.
</event>
<event>
 6    1  0.1196607E-002  0.1837596E+03  0.7546771E-02  0.1067457E+00
        -11   -1    0    0    0    0  0.00000000000E+00  0.00000000000E+00  0.18250000000E+03  0.18250000000E+03  0.00000000000E+00 0. -1.
         11   -1    0    0    0    0 -0.00000000000E+00 -0.00000000000E+00 -0.18250000000E+03  0.18250000000E+03  0.00000000000E+00 0. -1.
        -11    1    1    2    0    0 -0.29846565759E+01 -0.16994818959E+01  0.16525625225E+03  0.16529193968E+03  0.00000000000E+00 0. -1.
         11    1    1    2    0    0 -0.11788251354E+01  0.21959655806E+01 -0.18122330081E+03  0.18124043878E+03  0.00000000000E+00 0. -1.
        -15    1    1    2    0    0  0.19925547640E+01 -0.24320276311E+01  0.20783280156E+01  0.41667984384E+01  0.17770000000E+01 0.  1.
         15    1    1    2    0    0  0.21709269472E+01  0.19355439464E+01  0.13888720540E+02  0.14300823102E+02  0.17770000000E+01 0.  1.
</event>
<event>
 6    1  0.1196607E-002  0.1829686E+03  0.7546771E-02  0.1068082E+00
        -11   -1    0    0    0    0  0.00000000000E+00  0.00000000000E+00  0.18250000000E+03  0.18250000000E+03  0.00000000000E+00 0. -1.
         11   -1    0    0    0    0 -0.00000000000E+00 -0.00000000000E+00 -0.18250000000E+03  0.18250000000E+03  0.00000000000E+00 0.  1.
        -11    1    1    2    0    0  0.35696110905E+01 -0.52568931841E+01  0.18192050511E+03  0.18203144572E+03  0.00000000000E+00 0. -1.
         11    1    1    2    0    0  0.28382145499E-01 -0.19911256920E+01 -0.10220732590E+03  0.10222672280E+03  0.00000000000E+00 0.  1.
        -15    1    1    2    0    0 -0.37386032515E+01  0.38953547584E+01 -0.71124144450E+02  0.71350911667E+02  0.17770000000E+01 0.  1.
         15    1    1    2    0    0  0.14061001543E+00  0.33526641177E+01 -0.85890347619E+01  0.93909198167E+01  0.17770000000E+01 0. -1.
</event>
<event>
 6    1  0.1196607E-002  0.1828876E+03  0.7546771E-02  0.1068147E+00
        -11   -1    0    0    0    0  0.00000000000E+00  0.00000000000E+00  0.18250000000E+03  0.18250000000E+03  0.00000000000E+00 0.  1.
         11   -1    0    0    0    0 -0.00000000000E+00 -0.00000000000E+00 -0.18250000000E+03  0.18250000000E+03  0.00000000000E+00 0. -1.
        -11    1    1    2    0    0  0.15378557754E+01  0.94069874633E+00  0.75853928761E+02  0.75875347927E+02  0.00000000000E+00 0.  1.
         11    1    1    2    0    0 -0.29232163567E+01  0.13021708454E+01 -0.18208428028E+03  0.18211239927E+03  0.00000000000E+00 0. -1.
        -15    1    1    2    0    0 -0.21950422832E+01 -0.28756189186E+00  0.93197186819E+02  0.93240411102E+02  0.17770000000E+01 0.  1.
         15    1    1    2    0    0  0.35804028645E+01 -0.19553076998E+01  0.13033164697E+02  0.13771841703E+02  0.17770000000E+01 0.  1.
</event>
<event>
 6    1  0.1196607E-002  0.1850695E+03  0.7546771E-02  0.1066428E+00
        -11   -1    0    0    0    0  0.00000000000E+00  0.00000000000E+00  0.18250000000E+03  0.18250000000E+03  0.00000000000E+00 0.  1.
         11   -1    0    0    0    0 -0.00000000000E+00 -0.00000000000E+00 -0.18250000000E+03  0.18250000000E+03  0.00000000000E+00 0.  1.
        -11    1    1    2    0    0 -0.20029242327E+01 -0.95127581310E+00  0.15065666594E+03  0.15067298240E+03  0.00000000000E+00 0.  1.
         11    1    1    2    0    0  0.52666503477E+01 -0.34705201966E+01 -0.17981994160E+03  0.17993052413E+03  0.00000000000E+00 0.  1.
        -15    1    1    2    0    0  0.65698125497E+01  0.44767808729E+01  0.11335516454E+02  0.13959071108E+02  0.17770000000E+01 0.  1.
         15    1    1    2    0    0 -0.98335386647E+01 -0.54984863147E-01  0.17827759199E+02  0.20437422368E+02  0.17770000000E+01 0. -1.
</event>
<event>
 6    1  0.1196607E-002  0.1722862E+03  0.7546771E-02  0.1076889E+00
        -11   -1    0    0    0    0  0.00000000000E+00  0.00000000000E+00  0.18250000000E+03  0.18250000000E+03  0.00000000000E+00 0. -1.
         11   -1    0    0    0    0 -0.00000000000E+00 -0.00000000000E+00 -0.18250000000E+03  0.18250000000E+03  0.00000000000E+00 0.  1.
        -11    1    1    2    0    0 -0.69916870059E+01 -0.11531591181E+01  0.16901036776E+03  0.16915885396E+03  0.00000000000E+00 0. -1.
         11    1    1    2    0    0 -0.16480878802E+01 -0.58312825605E+01 -0.17554997328E+03  0.17565452789E+03  0.00000000000E+00 0.  1.
        -15    1    1    2    0    0  0.12762395158E+02  0.35586161191E+01  0.54456077239E+01  0.14434502116E+02  0.17770000000E+01 0.  1.
         15    1    1    2    0    0 -0.41226202717E+01  0.34258255595E+01  0.10939977987E+01  0.57521160326E+01  0.17770000000E+01 0. -1.
</event>
<event>
 6    1  0.1196607E-002  0.1828286E+03  0.7546771E-02  0.1068194E+00
        -11   -1    0    0    0    0  0.00000000000E+00  0.00000000000E+00  0.18250000000E+03  0.18250000000E+03  0.00000000000E+00 0. -1.
         11   -1    0    0    0    0 -0.00000000000E+00 -0.00000000000E+00 -0.18250000000E+03  0.18250000000E+03  0.00000000000E+00 0.  1.
        -11    1    1    2    0    0 -0.16626489298E+01  0.31813666041E+00  0.91305455948E+02  0.91321147049E+02  0.00000000000E+00 0. -1.
         11    1    1    2    0    0 -0.13116476114E+01 -0.46545429508E+01 -0.18210718664E+03  0.18217138253E+03  0.00000000000E+00 0.  1.
        -15    1    1    2    0    0  0.52024644015E+01  0.26538109161E+01  0.79421163529E+02  0.79655428525E+02  0.17770000000E+01 0. -1.
         15    1    1    2    0    0 -0.22281678603E+01  0.16825953743E+01  0.11380567158E+02  0.11852041894E+02  0.17770000000E+01 0.  1.
</event>
<event>
 6    1  0.1196607E-002  0.1578172E+03  0.7546771E-02  0.1089999E+00
        -11   -1    0    0    0    0  0.00000000000E+00  0.00000000000E+00  0.18250000000E+03  0.18250000000E+03  0.00000000000E+00 0. -1.
         11   -1    0    0    0    0 -0.00000000000E+00 -0.00000000000E+00 -0.18250000000E+03  0.18250000000E+03  0.00000000000E+00 0.  1.
        -11    1    1    2    0    0  0.47271189857E+01  0.27083576452E+02  0.15582583042E+03  0.15823259839E+03  0.00000000000E+00 0. -1.
         11    1    1    2    0    0 -0.73134921071E+01 -0.15275548677E+01 -0.15827861498E+03  0.15845485335E+03  0.00000000000E+00 0.  1.
        -15    1    1    2    0    0 -0.10148644157E+02 -0.20546689447E+02  0.16750815846E+02  0.28441325320E+02  0.17770000000E+01 0.  1.
         15    1    1    2    0    0  0.12735017278E+02 -0.50093321379E+01 -0.14298031285E+02  0.19871222941E+02  0.17770000000E+01 0.  1.
</event>
<event>
 6    1  0.1196607E-002  0.1847202E+03  0.7546771E-02  0.1066701E+00
        -11   -1    0    0    0    0  0.00000000000E+00  0.00000000000E+00  0.18250000000E+03  0.18250000000E+03  0.00000000000E+00 0. -1.
         11   -1    0    0    0    0 -0.00000000000E+00 -0.00000000000E+00 -0.18250000000E+03  0.18250000000E+03  0.00000000000E+00 0.  1.
        -11    1    1    2    0    0  0.93734767136E-01  0.42455621868E+01  0.16776896880E+03  0.16782270549E+03  0.00000000000E+00 0. -1.
         11    1    1    2    0    0 -0.19363707966E+01 -0.25978172784E+01 -0.18025064659E+03  0.18027976531E+03  0.00000000000E+00 0.  1.
        -15    1    1    2    0    0 -0.10413728247E+01 -0.24332356686E+01  0.12996916309E+02  0.13382176793E+02  0.17770000000E+01 0. -1.
         15    1    1    2    0    0  0.28840088542E+01  0.78549076018E+00 -0.51523852136E+00  0.35153524061E+01  0.17770000000E+01 0.  1.
</event>
<event>
 6    1  0.1196607E-002  0.1832255E+03  0.7546771E-02  0.1067879E+00
        -11   -1    0    0    0    0  0.00000000000E+00  0.00000000000E+00  0.18250000000E+03  0.18250000000E+03  0.00000000000E+00 0. -1.
         11   -1    0    0    0    0 -0.00000000000E+00 -0.00000000000E+00 -0.18250000000E+03  0.18250000000E+03  0.00000000000E+00 0.  1.
        -11    1    1    2    0    0  0.16032907611E+01 -0.21429382009E+01  0.18175482504E+03  0.18177452834E+03  0.00000000000E+00 0. -1.
         11    1    1    2    0    0 -0.41325902565E+00 -0.48328674316E+01 -0.14662494838E+03  0.14670515627E+03  0.00000000000E+00 0.  1.
        -15    1    1    2    0    0 -0.57764092703E+00  0.56106028287E+01 -0.32402499368E+02  0.32937702219E+02  0.17770000000E+01 0. -1.
         15    1    1    2    0    0 -0.61239080839E+00  0.13652028037E+01 -0.27273773001E+01  0.35826131712E+01  0.17770000000E+01 0.  1.
</event>
<event>
 6    1  0.1196607E-002  0.1825817E+03  0.7546771E-02  0.1068390E+00
        -11   -1    0    0    0    0  0.00000000000E+00  0.00000000000E+00  0.18250000000E+03  0.18250000000E+03  0.00000000000E+00 0. -1.
         11   -1    0    0    0    0 -0.00000000000E+00 -0.00000000000E+00 -0.18250000000E+03  0.18250000000E+03  0.00000000000E+00 0.  1.
        -11    1    1    2    0    0  0.15194317762E+01 -0.76025215451E-01  0.70120223715E+02  0.70136725234E+02  0.00000000000E+00 0. -1.
         11    1    1    2    0    0 -0.29345648795E+01 -0.26803171188E+01 -0.18237495044E+03  0.18241825106E+03  0.00000000000E+00 0.  1.
        -15    1    1    2    0    0  0.18797499067E+01  0.10018237334E+01  0.25016398594E+02  0.25169724633E+02  0.17770000000E+01 0. -1.
         15    1    1    2    0    0 -0.46461680344E+00  0.17545186008E+01  0.87238328132E+02  0.87275299075E+02  0.17770000000E+01 0. -1.
</event>
<event>
 6    1  0.1196607E-002  0.1825924E+03  0.7546771E-02  0.1068381E+00
        -11   -1    0    0    0    0  0.00000000000E+00  0.00000000000E+00  0.18250000000E+03  0.18250000000E+03  0.00000000000E+00 0.  1.
         11   -1    0    0    0    0 -0.00000000000E+00 -0.00000000000E+00 -0.18250000000E+03  0.18250000000E+03  0.00000000000E+00 0. -1.
        -11    1    1    2    0    0  0.15065850246E+01 -0.21783713960E+01  0.18238834041E+03  0.18240757061E+03  0.00000000000E+00 0.  1.
         11    1    1    2    0    0  0.59583730576E+00  0.11358748203E+01 -0.39419708404E+02  0.39440571045E+02  0.00000000000E+00 0. -1.
        -15    1    1    2    0    0  0.15383774735E+01 -0.72393371123E+00 -0.74595831021E+02  0.74636361245E+02  0.17770000000E+01 0. -1.
         15    1    1    2    0    0 -0.36407998039E+01  0.17664302870E+01 -0.68372800983E+02  0.68515497096E+02  0.17770000000E+01 0. -1.
</event>
<event>
 6    1  0.1196607E-002  0.1874570E+03  0.7546771E-02  0.1064576E+00
        -11   -1    0    0    0    0  0.00000000000E+00  0.00000000000E+00  0.18250000000E+03  0.18250000000E+03  0.00000000000E+00 0.  1.
         11   -1    0    0    0    0 -0.00000000000E+00 -0.00000000000E+00 -0.18250000000E+03  0.18250000000E+03  0.00000000000E+00 0. -1.
        -11    1    1    2    0    0 -0.49377318189E+00 -0.60804643450E+01  0.17743817883E+03  0.17754301779E+03  0.00000000000E+00 0.  1.
         11    1    1    2    0    0  0.28251829438E+01  0.80345023280E+00 -0.15447757972E+03  0.15450550096E+03  0.00000000000E+00 0. -1.
        -15    1    1    2    0    0  0.24405837685E+01  0.62596186198E+00 -0.25437492627E+02  0.25623661673E+02  0.17770000000E+01 0.  1.
         15    1    1    2    0    0 -0.47719935305E+01  0.46510522503E+01  0.24768935131E+01  0.73278195778E+01  0.17770000000E+01 0. -1.
</event>
<event>
 6    1  0.1196607E-002  0.1869228E+03  0.7546771E-02  0.1064988E+00
        -11   -1    0    0    0    0  0.00000000000E+00  0.00000000000E+00  0.18250000000E+03  0.18250000000E+03  0.00000000000E+00 0. -1.
         11   -1    0    0    0    0 -0.00000000000E+00 -0.00000000000E+00 -0.18250000000E+03  0.18250000000E+03  0.00000000000E+00 0. -1.
        -11    1    1    2    0    0  0.44743725094E+01 -0.10261135015E+01  0.81044449726E+02  0.81174354014E+02  0.00000000000E+00 0. -1.
         11    1    1    2    0    0 -0.45872120724E+01  0.43665925458E+01 -0.17796451490E+03  0.17807716925E+03  0.00000000000E+00 0. -1.
        -15    1    1    2    0    0  0.16613222013E+02  0.15275660743E+00  0.16223710775E+02  0.23289246457E+02  0.17770000000E+01 0.  1.
         15    1    1    2    0    0 -0.16500382450E+02 -0.34932356518E+01  0.80696354397E+02  0.82459230280E+02  0.17770000000E+01 0. -1.
</event>
<event>
 6    1  0.1196607E-002  0.1784351E+03  0.7546771E-02  0.1071737E+00
        -11   -1    0    0    0    0  0.00000000000E+00  0.00000000000E+00  0.18250000000E+03  0.18250000000E+03  0.00000000000E+00 0. -1.
         11   -1    0    0    0    0 -0.00000000000E+00 -0.00000000000E+00 -0.18250000000E+03  0.18250000000E+03  0.00000000000E+00 0.  1.
        -11    1    1    2    0    0  0.60666641956E+01 -0.19952016582E+00  0.17841314331E+03  0.17851636880E+03  0.00000000000E+00 0. -1.
         11    1    1    2    0    0 -0.23783371401E+01 -0.14341992804E+01 -0.17835503753E+03  0.17837665998E+03  0.00000000000E+00 0.  1.
        -15    1    1    2    0    0  0.85527713578E+00  0.20108051776E+01 -0.12330987393E+01  0.30745890688E+01  0.17770000000E+01 0. -1.
         15    1    1    2    0    0 -0.45436041913E+01 -0.37708573139E+00  0.11749929559E+01  0.50323821539E+01  0.17770000000E+01 0. -1.
</event>
<event>
 6    1  0.1196607E-002  0.1838354E+03  0.7546771E-02  0.1067397E+00
        -11   -1    0    0    0    0  0.00000000000E+00  0.00000000000E+00  0.18250000000E+03  0.18250000000E+03  0.00000000000E+00 0.  1.
         11   -1    0    0    0    0 -0.00000000000E+00 -0.00000000000E+00 -0.18250000000E+03  0.18250000000E+03  0.00000000000E+00 0. -1.
        -11    1    1    2    0    0  0.19104104438E+01 -0.71961966203E+01  0.15377261947E+03  0.15395276358E+03  0.00000000000E+00 0.  1.
         11    1    1    2    0    0 -0.59802415020E+01  0.21092186717E+01 -0.18105363088E+03  0.18116464707E+03  0.00000000000E+00 0. -1.
        -15    1    1    2    0    0  0.35705296266E+01 -0.22704905533E+01  0.94625860581E+01  0.10516752021E+02  0.17770000000E+01 0.  1.
         15    1    1    2    0    0  0.49930143153E+00  0.73574685018E+01  0.17818425351E+02  0.19365837335E+02  0.17770000000E+01 0. -1.
</event>
<event>
 6    1  0.1196607E-002  0.1848379E+03  0.7546771E-02  0.1066609E+00
        -11   -1    0    0    0    0  0.00000000000E+00  0.00000000000E+00  0.18250000000E+03  0.18250000000E+03  0.00000000000E+00 0. -1.
         11   -1    0    0    0    0 -0.00000000000E+00 -0.00000000000E+00 -0.18250000000E+03  0.18250000000E+03  0.00000000000E+00 0. -1.
        -11    1    1    2    0    0  0.44468222477E+01 -0.54285625719E+01  0.13955933923E+03  0.13973565288E+03  0.00000000000E+00 0. -1.
         11    1    1    2    0    0  0.75052881302E+00  0.33290785537E+01 -0.18012973085E+03  0.18016205481E+03  0.00000000000E+00 0. -1.
        -15    1    1    2    0    0 -0.21186023871E+01  0.49877881715E+01  0.40093731424E+02  0.40497302817E+02  0.17770000000E+01 0. -1.
         15    1    1    2    0    0 -0.30787486737E+01 -0.28883041533E+01  0.47666019700E+00  0.46049894920E+01  0.17770000000E+01 0.  1.
</event>
<event>
 6    1  0.1196607E-002  0.1847777E+03  0.7546771E-02  0.1066656E+00
        -11   -1    0    0    0    0  0.00000000000E+00  0.00000000000E+00  0.18250000000E+03  0.18250000000E+03  0.00000000000E+00 0.  1.
         11   -1    0    0    0    0 -0.00000000000E+00 -0.00000000000E+00 -0.18250000000E+03  0.18250000000E+03  0.00000000000E+00 0. -1.
        -11    1    1    2    0    0  0.20740012349E+01  0.60370616353E+00  0.57743137383E+02  0.57783525828E+02  0.00000000000E+00 0.  1.
         11    1    1    2    0    0 -0.32015719823E+01 -0.37679220203E+01 -0.18015443195E+03  0.18022227013E+03  0.00000000000E+00 0. -1.
        -15    1    1    2    0    0 -0.14290370882E+02  0.35881493911E+01  0.32184481377E+02  0.35441333024E+02  0.17770000000E+01 0. -1.
         15    1    1    2    0    0  0.15417941629E+02 -0.42393353434E+00  0.90226813191E+02  0.91552871017E+02  0.17770000000E+01 0.  1.
</event>
<event>
 6    1  0.1196607E-002  0.1910785E+03  0.7546771E-02  0.1061824E+00
        -11   -1    0    0    0    0  0.00000000000E+00  0.00000000000E+00  0.18250000000E+03  0.18250000000E+03  0.00000000000E+00 0. -1.
         11   -1    0    0    0    0 -0.00000000000E+00 -0.00000000000E+00 -0.18250000000E+03  0.18250000000E+03  0.00000000000E+00 0.  1.
        -11    1    1    2    0    0 -0.59648113960E+01  0.66106711605E+01  0.17369344072E+03  0.17392150901E+03  0.00000000000E+00 0. -1.
         11    1    1    2    0    0  0.14180167306E+02  0.47937660408E+01 -0.15407847599E+03  0.15480385687E+03  0.00000000000E+00 0.  1.
        -15    1    1    2    0    0  0.64285831240E+01 -0.10981944597E+02 -0.16964626112E+02  0.21281119713E+02  0.17770000000E+01 0.  1.
         15    1    1    2    0    0 -0.14643939034E+02 -0.42249260404E+00 -0.26503386149E+01  0.14993514405E+02  0.17770000000E+01 0. -1.
</event>
<event>
 6    1  0.1196607E-002  0.1829863E+03  0.7546771E-02  0.1068068E+00
        -11   -1    0    0    0    0  0.00000000000E+00  0.00000000000E+00  0.18250000000E+03  0.18250000000E+03  0.00000000000E+00 0. -1.
         11   -1    0    0    0    0 -0.00000000000E+00 -0.00000000000E+00 -0.18250000000E+03  0.18250000000E+03  0.00000000000E+00 0. -1.
        -11    1    1    2    0    0  0.82442119311E+00 -0.35096820241E+01  0.12851229032E+02  0.13347345274E+02  0.00000000000E+00 0. -1.
         11    1    1    2    0    0 -0.22900363957E+01  0.21014701675E+01 -0.18198719416E+03  0.18201373377E+03  0.00000000000E+00 0. -1.
        -15    1    1    2    0    0 -0.33522834735E+01 -0.38772271688E+01  0.88854264958E+02  0.89019710319E+02  0.17770000000E+01 0. -1.
         15    1    1    2    0    0  0.48178986760E+01  0.52854390255E+01  0.80281700166E+02  0.80619210638E+02  0.17770000000E+01 0.  1.
</event>
<event>
 6    1  0.1196607E-002  0.1833504E+03  0.7546771E-02  0.1067780E+00
        -11   -1    0    0    0    0  0.00000000000E+00  0.00000000000E+00  0.18250000000E+03  0.18250000000E+03  0.00000000000E+00 0. -1.
         11   -1    0    0    0    0 -0.00000000000E+00 -0.00000000000E+00 -0.18250000000E+03  0.18250000000E+03  0.00000000000E+00 0.  1.
        -11    1    1    2    0    0 -0.40507263673E+00  0.23380271591E+01  0.15965451606E+03  0.15967214833E+03  0.00000000000E+00 0. -1.
         11    1    1    2    0    0  0.32666470712E+01 -0.32341487263E+00 -0.18161990212E+03  0.18164956489E+03  0.00000000000E+00 0.  1.
        -15    1    1    2    0    0 -0.15530056021E+01  0.26374328861E+01  0.11181400421E+02  0.11728142351E+02  0.17770000000E+01 0. -1.
         15    1    1    2    0    0 -0.13085688324E+01 -0.46520451725E+01  0.10783985638E+02  0.11950144431E+02  0.17770000000E+01 0.  1.
</event>
<event>
 6    1  0.1196607E-002  0.2115168E+03  0.7546771E-02  0.1047450E+00
        -11   -1    0    0    0    0  0.00000000000E+00  0.00000000000E+00  0.18250000000E+03  0.18250000000E+03  0.00000000000E+00 0. -1.
         11   -1    0    0    0    0 -0.00000000000E+00 -0.00000000000E+00 -0.18250000000E+03  0.18250000000E+03  0.00000000000E+00 0. -1.
        -11    1    1    2    0    0 -0.15180757517E+02  0.45204586101E+01  0.15266371946E+03  0.15348322770E+03  0.00000000000E+00 0. -1.
         11    1    1    2    0    0 -0.22023135259E+01  0.14701488973E+00 -0.13360308439E+03  0.13362131550E+03  0.00000000000E+00 0. -1.
        -15    1    1    2    0    0 -0.64671496760E+01 -0.34904485846E+00 -0.43154130343E+02  0.43673591013E+02  0.17770000000E+01 0. -1.
         15    1    1    2    0    0  0.23850220719E+02 -0.43184286414E+01  0.24093495273E+02  0.34221865784E+02  0.17770000000E+01 0.  1.
</event>
<event>
 6    1  0.1196607E-002  0.1840071E+03  0.7546771E-02  0.1067261E+00
        -11   -1    0    0    0    0  0.00000000000E+00  0.00000000000E+00  0.18250000000E+03  0.18250000000E+03  0.00000000000E+00 0. -1.
         11   -1    0    0    0    0 -0.00000000000E+00 -0.00000000000E+00 -0.18250000000E+03  0.18250000000E+03  0.00000000000E+00 0. -1.
        -11    1    1    2    0    0  0.19775213992E+01 -0.56051661361E+01  0.18089523557E+03  0.18099285823E+03  0.00000000000E+00 0. -1.
         11    1    1    2    0    0  0.70067576105E+00  0.71299785504E+00 -0.34456746435E+02  0.34471244355E+02  0.00000000000E+00 0. -1.
        -15    1    1    2    0    0 -0.48826029066E+01  0.76543001508E+01 -0.12561830518E+02  0.15600815264E+02  0.17770000000E+01 0.  1.
         15    1    1    2    0    0  0.22044057464E+01 -0.27621318697E+01 -0.13387665862E+03  0.13393508215E+03  0.17770000000E+01 0. -1.
</event>
<event>
 6    1  0.1196607E-002  0.1844987E+03  0.7546771E-02  0.1066875E+00
        -11   -1    0    0    0    0  0.00000000000E+00  0.00000000000E+00  0.18250000000E+03  0.18250000000E+03  0.00000000000E+00 0.  1.
         11   -1    0    0    0    0 -0.00000000000E+00 -0.00000000000E+00 -0.18250000000E+03  0.18250000000E+03  0.00000000000E+00 0. -1.
        -11    1    1    2    0    0  0.42060292137E+01 -0.60174447012E+01  0.27320703156E+02  0.28289947745E+02  0.00000000000E+00 0.  1.
         11    1    1    2    0    0 -0.65925015499E+01 -0.73945278646E+01 -0.18022920451E+03  0.18050126392E+03  0.00000000000E+00 0. -1.
        -15    1    1    2    0    0  0.65495795915E+01  0.55461036026E+01  0.11255411601E+02  0.14265282237E+02  0.17770000000E+01 0. -1.
         15    1    1    2    0    0 -0.41631072553E+01  0.78658689631E+01  0.14165308975E+03  0.14194350609E+03  0.17770000000E+01 0.  1.
</event>
<event>
 6    1  0.1196607E-002  0.1912134E+03  0.7546771E-02  0.1061723E+00
        -11   -1    0    0    0    0  0.00000000000E+00  0.00000000000E+00  0.18250000000E+03  0.18250000000E+03  0.00000000000E+00 0. -1.
         11   -1    0    0    0    0 -0.00000000000E+00 -0.00000000000E+00 -0.18250000000E+03  0.18250000000E+03  0.00000000000E+00 0.  1.
        -11    1    1    2    0    0  0.12684687672E+02 -0.41535918027E+01  0.15421106928E+03  0.15478762068E+03  0.00000000000E+00 0. -1.
         11    1    1    2    0    0  0.95504357249E+00 -0.49172605069E+01 -0.17371437516E+03  0.17378658089E+03  0.00000000000E+00 0.  1.
        -15    1    1    2    0    0 -0.94289486272E+01  0.15523660167E+01  0.24464666220E+02  0.26324751371E+02  0.17770000000E+01 0.  1.
         15    1    1    2    0    0 -0.42107826172E+01  0.75184862930E+01 -0.49613603356E+01  0.10101047063E+02  0.17770000000E+01 0. -1.
</event>
<event>
 6    1  0.1196607E-002  0.1833653E+03  0.7546771E-02  0.1067768E+00
        -11   -1    0    0    0    0  0.00000000000E+00  0.00000000000E+00  0.18250000000E+03  0.18250000000E+03  0.00000000000E+00 0. -1.
         11   -1    0    0    0    0 -0.00000000000E+00 -0.00000000000E+00 -0.18250000000E+03  0.18250000000E+03  0.00000000000E+00 0.  1.
        -11    1    1    2    0    0  0.33114670067E+01 -0.17898907412E+01  0.16267083336E+03  0.16271438027E+03  0.00000000000E+00 0. -1.
         11    1    1    2    0    0 -0.26249426689E+01 -0.61033351230E+00 -0.18161472801E+03  0.18163472207E+03  0.00000000000E+00 0.  1.
        -15    1    1    2    0    0 -0.41913064388E+00  0.41995492497E+00  0.40060414415E+00  0.19157884319E+01  0.17770000000E+01 0. -1.
         15    1    1    2    0    0 -0.26739369390E+00  0.19802693285E+01  0.18543290505E+02  0.18735109227E+02  0.17770000000E+01 0. -1.
</event>
<event>
 6    1  0.1196607E-002  0.1851849E+03  0.7546771E-02  0.1066337E+00
        -11   -1    0    0    0    0  0.00000000000E+00  0.00000000000E+00  0.18250000000E+03  0.18250000000E+03  0.00000000000E+00 0. -1.
         11   -1    0    0    0    0 -0.00000000000E+00 -0.00000000000E+00 -0.18250000000E+03  0.18250000000E+03  0.00000000000E+00 0. -1.
        -11    1    1    2    0    0 -0.23866176843E+01 -0.38336838241E+01  0.17975836381E+03  0.17981507844E+03  0.00000000000E+00 0. -1.
         11    1    1    2    0    0 -0.12900016914E+01 -0.20329213867E+01 -0.17498745637E+03  0.17500401927E+03  0.00000000000E+00 0. -1.
        -15    1    1    2    0    0  0.34136406673E+01  0.41519553008E+01 -0.51688114459E+01  0.76658995681E+01  0.17770000000E+01 0.  1.
         15    1    1    2    0    0  0.26297870845E+00  0.17146499100E+01  0.39790400510E+00  0.25150027261E+01  0.17770000000E+01 0. -1.
</event>
<event>
 6    1  0.1196607E-002  0.1741462E+03  0.7546771E-02  0.1075306E+00
        -11   -1    0    0    0    0  0.00000000000E+00  0.00000000000E+00  0.18250000000E+03  0.18250000000E+03  0.00000000000E+00 0. -1.
         11   -1    0    0    0    0 -0.00000000000E+00 -0.00000000000E+00 -0.18250000000E+03  0.18250000000E+03  0.00000000000E+00 0.  1.
        -11    1    1    2    0    0  0.51129706802E+01  0.22647262489E+01  0.17226719723E+03  0.17235793772E+03  0.00000000000E+00 0. -1.
         11    1    1    2    0    0  0.30055929336E+01  0.22036577965E+01 -0.17603871781E+03  0.17607816408E+03  0.00000000000E+00 0.  1.
        -15    1    1    2    0    0  0.32076212188E+01 -0.25108150543E+01  0.16543356637E+01  0.47421072962E+01  0.17770000000E+01 0.  1.
         15    1    1    2    0    0 -0.11326184833E+02 -0.19575689910E+01  0.21171849215E+01  0.11821790905E+02  0.17770000000E+01 0. -1.
</event>
<event>
 6    1  0.1196607E-002  0.1170081E+03  0.7546771E-02  0.1137276E+00
        -11   -1    0    0    0    0  0.00000000000E+00  0.00000000000E+00  0.18250000000E+03  0.18250000000E+03  0.00000000000E+00 0.  1.
         11   -1    0    0    0    0 -0.00000000000E+00 -0.00000000000E+00 -0.18250000000E+03  0.18250000000E+03  0.00000000000E+00 0. -1.
        -11    1    1    2    0    0  0.80545691546E+01 -0.29018685730E+01  0.15769466837E+02  0.17943606377E+02  0.00000000000E+00 0.  1.
         11    1    1    2    0    0  0.23789422776E+02  0.21752847099E+02 -0.94789489060E+02  0.10012077821E+03  0.00000000000E+00 0. -1.
        -15    1    1    2    0    0 -0.11217349158E+03  0.21491333900E+02  0.10308224611E+03  0.15386317570E+03  0.17770000000E+01 0.  1.
         15    1    1    2    0    0  0.80329499653E+02 -0.40342312426E+02 -0.24062223883E+02  0.93072439710E+02  0.17770000000E+01 0. -1.
</event>
<event>
 6    1  0.1196607E-002  0.1826015E+03  0.7546771E-02  0.1068374E+00
        -11   -1    0    0    0    0  0.00000000000E+00  0.00000000000E+00  0.18250000000E+03  0.18250000000E+03  0.00000000000E+00 0.  1.
         11   -1    0    0    0    0 -0.00000000000E+00 -0.00000000000E+00 -0.18250000000E+03  0.18250000000E+03  0.00000000000E+00 0.  1.
        -11    1    1    2    0    0  0.31154595193E+01 -0.27980548612E-01  0.18237192011E+03  0.18239853101E+03  0.00000000000E+00 0.  1.
         11    1    1    2    0    0  0.13775911047E+01 -0.10359517372E+01 -0.35794981633E+02  0.35836457182E+02  0.00000000000E+00 0.  1.
        -15    1    1    2    0    0 -0.11085343608E+00 -0.81916060843E+00 -0.23019986381E+02  0.23103264154E+02  0.17770000000E+01 0.  1.
         15    1    1    2    0    0 -0.43821971879E+01  0.18830928942E+01 -0.12355695210E+03  0.12366174765E+03  0.17770000000E+01 0.  1.
</event>
<event>
 6    1  0.1196607E-002  0.1842950E+03  0.7546771E-02  0.1067035E+00
        -11   -1    0    0    0    0  0.00000000000E+00  0.00000000000E+00  0.18250000000E+03  0.18250000000E+03  0.00000000000E+00 0.  1.
         11   -1    0    0    0    0 -0.00000000000E+00 -0.00000000000E+00 -0.18250000000E+03  0.18250000000E+03  0.00000000000E+00 0. -1.
        -11    1    1    2    0    0 -0.45409070347E+00  0.29063030835E+01  0.18068109365E+03  0.18070503700E+03  0.00000000000E+00 0.  1.
         11    1    1    2    0    0  0.47655072035E+01 -0.39144286029E+00 -0.17535951976E+03  0.17542469739E+03  0.00000000000E+00 0. -1.
        -15    1    1    2    0    0 -0.40801909933E+01 -0.18830009656E+01 -0.24265043388E+01  0.54073379296E+01  0.17770000000E+01 0. -1.
         15    1    1    2    0    0 -0.23122550677E+00 -0.63185925753E+00 -0.28950695544E+01  0.34629276748E+01  0.17770000000E+01 0.  1.
</event>
<event>
 6    1  0.1196607E-002  0.1845664E+03  0.7546771E-02  0.1066822E+00
        -11   -1    0    0    0    0  0.00000000000E+00  0.00000000000E+00  0.18250000000E+03  0.18250000000E+03  0.00000000000E+00 0.  1.
         11   -1    0    0    0    0 -0.00000000000E+00 -0.00000000000E+00 -0.18250000000E+03  0.18250000000E+03  0.00000000000E+00 0. -1.
        -11    1    1    2    0    0  0.40213984100E+01 -0.38528460649E+01  0.18034765236E+03  0.18043362153E+03  0.00000000000E+00 0.  1.
         11    1    1    2    0    0 -0.14723980510E+01 -0.26952365897E+01 -0.17250446291E+03  0.17253179991E+03  0.00000000000E+00 0. -1.
        -15    1    1    2    0    0 -0.21630780966E+01  0.27301188229E+01 -0.65215081600E+01  0.76039630010E+01  0.17770000000E+01 0. -1.
         15    1    1    2    0    0 -0.38592226236E+00  0.38179638318E+01 -0.13216812893E+01  0.44306155603E+01  0.17770000000E+01 0.  1.
</event>
<event>
 6    1  0.1196607E-002  0.1826214E+03  0.7546771E-02  0.1068358E+00
        -11   -1    0    0    0    0  0.00000000000E+00  0.00000000000E+00  0.18250000000E+03  0.18250000000E+03  0.00000000000E+00 0.  1.
         11   -1    0    0    0    0 -0.00000000000E+00 -0.00000000000E+00 -0.18250000000E+03  0.18250000000E+03  0.00000000000E+00 0. -1.
        -11    1    1    2    0    0  0.80197317726E+00 -0.25234643331E+00  0.59378400786E+02  0.59384352481E+02  0.00000000000E+00 0.  1.
         11    1    1    2    0    0  0.26901550903E+01  0.57496921378E+00 -0.18235781859E+03  0.18237856652E+03  0.00000000000E+00 0. -1.
        -15    1    1    2    0    0 -0.32343495236E+01 -0.29228694010E+01  0.63869834913E+02  0.64043092704E+02  0.17770000000E+01 0.  1.
         15    1    1    2    0    0 -0.25777874394E+00  0.26002466206E+01  0.59109582889E+02  0.59193988299E+02  0.17770000000E+01 0. -1.
</event>
<event>
 6    1  0.1196607E-002  0.1897144E+03  0.7546771E-02  0.1062853E+00
        -11   -1    0    0    0    0  0.00000000000E+00  0.00000000000E+00  0.18250000000E+03  0.18250000000E+03  0.00000000000E+00 0. -1.
         11   -1    0    0    0    0 -0.00000000000E+00 -0.00000000000E+00 -0.18250000000E+03  0.18250000000E+03  0.00000000000E+00 0. -1.
        -11    1    1    2    0    0  0.13715175921E+01  0.21647816056E+01  0.17526690489E+03  0.17528563915E+03  0.00000000000E+00 0. -1.
         11    1    1    2    0    0 -0.49594833105E+01 -0.15982426520E+01 -0.93568768606E+02  0.93713741323E+02  0.00000000000E+00 0. -1.
        -15    1    1    2    0    0 -0.51024246521E+01 -0.24287071400E+02 -0.44846927284E+02  0.51286462057E+02  0.17770000000E+01 0.  1.
         15    1    1    2    0    0  0.86903903704E+01  0.23720532447E+02 -0.36851209005E+02  0.44714157472E+02  0.17770000000E+01 0. -1.
</event>
<event>
 6    1  0.1196607E-002  0.1831558E+03  0.7546771E-02  0.1067934E+00
        -11   -1    0    0    0    0  0.00000000000E+00  0.00000000000E+00  0.18250000000E+03  0.18250000000E+03  0.00000000000E+00 0. -1.
         11   -1    0    0    0    0 -0.00000000000E+00 -0.00000000000E+00 -0.18250000000E+03  0.18250000000E+03  0.00000000000E+00 0.  1.
        -11    1    1    2    0    0  0.23691510593E+01  0.96346463658E+00  0.12917712625E+03  0.12920244226E+03  0.00000000000E+00 0. -1.
         11    1    1    2    0    0  0.40637241600E+01 -0.34441771700E+01 -0.18176613447E+03  0.18184417464E+03  0.00000000000E+00 0.  1.
        -15    1    1    2    0    0 -0.82003068051E+01  0.38001977284E+01  0.39120567913E+02  0.40190335870E+02  0.17770000000E+01 0.  1.
         15    1    1    2    0    0  0.17674315858E+01 -0.13194851949E+01  0.13468440307E+02  0.13763047224E+02  0.17770000000E+01 0. -1.
</event>
<event>
 6    1  0.1196607E-002  0.1863670E+03  0.7546771E-02  0.1065418E+00
        -11   -1    0    0    0    0  0.00000000000E+00  0.00000000000E+00  0.18250000000E+03  0.18250000000E+03  0.00000000000E+00 0.  1.
         11   -1    0    0    0    0 -0.00000000000E+00 -0.00000000000E+00 -0.18250000000E+03  0.18250000000E+03  0.00000000000E+00 0. -1.
        -11    1    1    2    0    0 -0.13409847402E+01 -0.20540059318E+01  0.16434755826E+03  0.16436586351E+03  0.00000000000E+00 0.  1.
         11    1    1    2    0    0  0.64244196316E+01  0.26835596333E+01 -0.17849729774E+03  0.17863303155E+03  0.00000000000E+00 0. -1.
        -15    1    1    2    0    0  0.54505916902E+01  0.65551126785E+00  0.29897650234E+01  0.64988513363E+01  0.17770000000E+01 0.  1.
         15    1    1    2    0    0 -0.10534026582E+02 -0.12850649694E+01  0.11159974455E+02  0.15502253605E+02  0.17770000000E+01 0. -1.
</event>
<event>
 6    1  0.1196607E-002  0.1827870E+03  0.7546771E-02  0.1068227E+00
        -11   -1    0    0    0    0  0.00000000000E+00  0.00000000000E+00  0.18250000000E+03  0.18250000000E+03  0.00000000000E+00 0. -1.
         11   -1    0    0    0    0 -0.00000000000E+00 -0.00000000000E+00 -0.18250000000E+03  0.18250000000E+03  0.00000000000E+00 0. -1.
        -11    1    1    2    0    0 -0.23527154303E+01  0.21244744279E+01  0.14837093029E+03  0.14840478974E+03  0.00000000000E+00 0. -1.
         11    1    1    2    0    0  0.32238935467E+01  0.74695046693E+00 -0.18218292346E+03  0.18221297710E+03  0.00000000000E+00 0. -1.
        -15    1    1    2    0    0 -0.49212884154E+00 -0.24876280113E+01  0.29809609102E+02  0.29970001797E+02  0.17770000000E+01 0. -1.
         15    1    1    2    0    0 -0.37904927483E+00 -0.38379688357E+00  0.40023840648E+01  0.44122313632E+01  0.17770000000E+01 0.  1.
</event>
<event>
 6    1  0.1196607E-002  0.1832730E+03  0.7546771E-02  0.1067841E+00
        -11   -1    0    0    0    0  0.00000000000E+00  0.00000000000E+00  0.18250000000E+03  0.18250000000E+03  0.00000000000E+00 0.  1.
         11   -1    0    0    0    0 -0.00000000000E+00 -0.00000000000E+00 -0.18250000000E+03  0.18250000000E+03  0.00000000000E+00 0. -1.
        -11    1    1    2    0    0  0.34421964415E+01  0.77225546048E+00  0.12605602535E+03  0.12610537904E+03  0.00000000000E+00 0.  1.
         11    1    1    2    0    0  0.27322042515E+01  0.98106006623E+00 -0.18170382260E+03  0.18172701111E+03  0.00000000000E+00 0. -1.
        -15    1    1    2    0    0 -0.49096700252E+01 -0.44342977008E+01  0.50529328574E+02  0.50991554506E+02  0.17770000000E+01 0.  1.
         15    1    1    2    0    0 -0.12647306678E+01  0.26809821741E+01  0.51184686721E+01  0.61760553452E+01  0.17770000000E+01 0. -1.
</event>
<event>
 6    1  0.1196607E-002  0.1752975E+03  0.7546771E-02  0.1074337E+00
        -11   -1    0    0    0    0  0.00000000000E+00  0.00000000000E+00  0.18250000000E+03  0.18250000000E+03  0.00000000000E+00 0.  1.
         11   -1    0    0    0    0 -0.00000000000E+00 -0.00000000000E+00 -0.18250000000E+03  0.18250000000E+03  0.00000000000E+00 0.  1.
        -11    1    1    2    0    0  0.85841702550E+01  0.22507586258E+01  0.17489327203E+03  0.17511827573E+03  0.00000000000E+00 0.  1.
         11    1    1    2    0    0 -0.10925238957E+01 -0.56928351897E+01 -0.17547850341E+03  0.17557422117E+03  0.00000000000E+00 0.  1.
        -15    1    1    2    0    0 -0.98339861598E+01  0.35020832299E+01  0.23922031913E+01  0.10855976964E+02  0.17770000000E+01 0.  1.
         15    1    1    2    0    0  0.23423398005E+01 -0.60006666049E-01 -0.18069718098E+01  0.34515261352E+01  0.17770000000E+01 0. -1.
</event>
<event>
 6    1  0.1550724E-002  0.1128672E+03  0.7546771E-02  0.1143254E+00
        -11   -1    0    0    0    0  0.00000000000E+00  0.00000000000E+00  0.18250000000E+03  0.18250000000E+03  0.00000000000E+00 0. -1.
         11   -1    0    0    0    0 -0.00000000000E+00 -0.00000000000E+00 -0.18250000000E+03  0.18250000000E+03  0.00000000000E+00 0. -1.
        -11    1    1    2    0    0  0.47837912990E+01  0.34034481641E+01  0.70326782114E+02  0.70571413484E+02  0.00000000000E+00 0. -1.
         11    1    1    2    0    0 -0.18210446944E+02 -0.32139117612E+02 -0.12398514880E+03  0.12937101832E+03  0.00000000000E+00 0. -1.
        -15    1    1    2    0    0 -0.82307363511E+01 -0.57670334580E+01  0.10160539575E+03  0.10211668752E+03  0.17770000000E+01 0. -1.
         15    1    1    2    0    0  0.21657391996E+02  0.34502702905E+02 -0.47947029058E+02  0.62940880677E+02  0.17770000000E+01 0.  1.
</event>
<event>
 6    1  0.1196607E-002  0.1789853E+03  0.7546771E-02  0.1071287E+00
        -11   -1    0    0    0    0  0.00000000000E+00  0.00000000000E+00  0.18250000000E+03  0.18250000000E+03  0.00000000000E+00 0. -1.
         11   -1    0    0    0    0 -0.00000000000E+00 -0.00000000000E+00 -0.18250000000E+03  0.18250000000E+03  0.00000000000E+00 0. -1.
        -11    1    1    2    0    0  0.88492495630E+00  0.28211521732E+01  0.17924639606E+03  0.17927077980E+03  0.00000000000E+00 0. -1.
         11    1    1    2    0    0 -0.25993587653E+01 -0.67536859273E+00 -0.17869067626E+03  0.17871085745E+03  0.00000000000E+00 0. -1.
        -15    1    1    2    0    0  0.34389861720E+01 -0.12178214950E+01  0.65401889633E+00  0.41103752628E+01  0.17770000000E+01 0. -1.
         15    1    1    2    0    0 -0.17245523629E+01 -0.92796208547E+00 -0.12097386894E+01  0.29079874796E+01  0.17770000000E+01 0. -1.
</event>
<event>
 6    1  0.1196607E-002  0.1765907E+03  0.7546771E-02  0.1073258E+00
        -11   -1    0    0    0    0  0.00000000000E+00  0.00000000000E+00  0.18250000000E+03  0.18250000000E+03  0.00000000000E+00 0.  1.
         11   -1    0    0    0    0 -0.00000000000E+00 -0.00000000000E+00 -0.18250000000E+03  0.18250000000E+03  0.00000000000E+00 0.  1.
        -11    1    1    2    0    0 -0.35874940377E+01 -0.16629677989E+01  0.17613566208E+03  0.17618004152E+03  0.00000000000E+00 0.  1.
         11    1    1    2    0    0  0.20817632776E+01 -0.58214883094E+01 -0.17697698986E+03  0.17708494686E+03  0.00000000000E+00 0.  1.
        -15    1    1    2    0    0  0.43262006385E+01  0.51241375732E+01  0.24321144655E+01  0.73515785792E+01  0.17770000000E+01 0.  1.
         15    1    1    2    0    0 -0.28204698784E+01  0.23603185351E+01 -0.15907866795E+01  0.43834330361E+01  0.17770000000E+01 0. -1.
</event>
<event>
 6    1  0.1196607E-002  0.9914647E+02  0.7546771E-02  0.1165300E+00
        -11   -1    0    0    0    0  0.00000000000E+00  0.00000000000E+00  0.18250000000E+03  0.18250000000E+03  0.00000000000E+00 0.  1.
         11   -1    0    0    0    0 -0.00000000000E+00 -0.00000000000E+00 -0.18250000000E+03  0.18250000000E+03  0.00000000000E+00 0. -1.
        -11    1    1    2    0    0 -0.14300688490E+01  0.32971247727E+01  0.12104982759E+03  0.12110316630E+03  0.00000000000E+00 0.  1.
         11    1    1    2    0    0 -0.61854878490E+01 -0.59176927004E+01 -0.10079744695E+03  0.10116029191E+03  0.00000000000E+00 0. -1.
        -15    1    1    2    0    0  0.90541800850E+01  0.99597231295E+01 -0.80683820775E+02  0.81818157677E+02  0.17770000000E+01 0. -1.
         15    1    1    2    0    0 -0.14386233869E+01 -0.73391552018E+01  0.60431440139E+02  0.60918384110E+02  0.17770000000E+01 0.  1.
</event>
<event>
 6    1  0.1196607E-002  0.1841443E+03  0.7546771E-02  0.1067153E+00
        -11   -1    0    0    0    0  0.00000000000E+00  0.00000000000E+00  0.18250000000E+03  0.18250000000E+03  0.00000000000E+00 0. -1.
         11   -1    0    0    0    0 -0.00000000000E+00 -0.00000000000E+00 -0.18250000000E+03  0.18250000000E+03  0.00000000000E+00 0.  1.
        -11    1    1    2    0    0  0.79044352564E+00 -0.23542677504E+01  0.16986407451E+03  0.16988222740E+03  0.00000000000E+00 0. -1.
         11    1    1    2    0    0 -0.20934592156E+01  0.29029941483E+01 -0.18082031501E+03  0.18085573330E+03  0.00000000000E+00 0.  1.
        -15    1    1    2    0    0  0.30293069536E+01 -0.17119316105E+01  0.11379444727E+01  0.40694050033E+01  0.17770000000E+01 0.  1.
         15    1    1    2    0    0 -0.17262912636E+01  0.11632052126E+01  0.98182960297E+01  0.10192634292E+02  0.17770000000E+01 0.  1.
</event>
<event>
 6    1  0.1196607E-002  0.1845036E+03  0.7546771E-02  0.1066871E+00
        -11   -1    0    0    0    0  0.00000000000E+00  0.00000000000E+00  0.18250000000E+03  0.18250000000E+03  0.00000000000E+00 0. -1.
         11   -1    0    0    0    0 -0.00000000000E+00 -0.00000000000E+00 -0.18250000000E+03  0.18250000000E+03  0.00000000000E+00 0.  1.
        -11    1    1    2    0    0  0.21437782179E+01  0.78395880452E+00  0.16573518313E+03  0.16575090137E+03  0.00000000000E+00 0. -1.
         11    1    1    2    0    0 -0.15159164270E+01  0.49176391211E+01 -0.18042305462E+03  0.18049642605E+03  0.00000000000E+00 0.  1.
        -15    1    1    2    0    0  0.13767965919E+01 -0.55402307637E+00  0.12235854272E+02  0.12452966281E+02  0.17770000000E+01 0. -1.
         15    1    1    2    0    0 -0.20046583828E+01 -0.51475748492E+01  0.24520172146E+01  0.62997063011E+01  0.17770000000E+01 0.  1.
</event>
<event>
 6    1  0.1196607E-002  0.1836901E+03  0.7546771E-02  0.1067511E+00
        -11   -1    0    0    0    0  0.00000000000E+00  0.00000000000E+00  0.18250000000E+03  0.18250000000E+03  0.00000000000E+00 0. -1.
         11   -1    0    0    0    0 -0.00000000000E+00 -0.00000000000E+00 -0.18250000000E+03  0.18250000000E+03  0.00000000000E+00 0. -1.
        -11    1    1    2    0    0 -0.16756607735E+01 -0.25672139239E+01  0.13308388885E+03  0.13311919433E+03  0.00000000000E+00 0. -1.
         11    1    1    2    0    0  0.42878005272E+01 -0.34085369326E+01 -0.18122718662E+03  0.18130994603E+03  0.00000000000E+00 0. -1.
        -15    1    1    2    0    0  0.29035833564E+01  0.84226979707E+01  0.31281306022E+02  0.32573769706E+02  0.17770000000E+01 0. -1.
         15    1    1    2    0    0 -0.55157231100E+01 -0.24469471142E+01  0.16861991749E+02  0.17997089941E+02  0.17770000000E+01 0.  1.
</event>
<event>
 6    1  0.1196607E-002  0.1863376E+03  0.7546771E-02  0.1065440E+00
        -11   -1    0    0    0    0  0.00000000000E+00  0.00000000000E+00  0.18250000000E+03  0.18250000000E+03  0.00000000000E+00 0. -1.
         11   -1    0    0    0    0 -0.00000000000E+00 -0.00000000000E+00 -0.18250000000E+03  0.18250000000E+03  0.00000000000E+00 0.  1.
        -11    1    1    2    0    0  0.73890033665E+00 -0.25278065577E+01  0.16611027670E+03  0.16613115242E+03  0.00000000000E+00 0. -1.
         11    1    1    2    0    0  0.26764452857E+01 -0.10649593884E+01 -0.17863914993E+03  0.17866237260E+03  0.00000000000E+00 0.  1.
        -15    1    1    2    0    0  0.16657173846E-01  0.53892287009E+01  0.14455435137E+02  0.15529372088E+02  0.17770000000E+01 0. -1.
         15    1    1    2    0    0 -0.34320027962E+01 -0.17964627549E+01 -0.19265619090E+01  0.46771028866E+01  0.17770000000E+01 0.  1.
</event>
<event>
 6    1  0.1196607E-002  0.1846904E+03  0.7546771E-02  0.1066725E+00
        -11   -1    0    0    0    0  0.00000000000E+00  0.00000000000E+00  0.18250000000E+03  0.18250000000E+03  0.00000000000E+00 0.  1.
         11   -1    0    0    0    0 -0.00000000000E+00 -0.00000000000E+00 -0.18250000000E+03  0.18250000000E+03  0.00000000000E+00 0. -1.
        -11    1    1    2    0    0  0.76792566720E+01 -0.50112859816E+01  0.18007629904E+03  0.18030961551E+03  0.00000000000E+00 0.  1.
         11    1    1    2    0    0  0.10297100466E+01 -0.28161563878E+01 -0.13388017488E+03  0.13391374935E+03  0.00000000000E+00 0. -1.
        -15    1    1    2    0    0 -0.34688971567E+01 -0.94446533080E-01 -0.37725987413E+02  0.37926903682E+02  0.17770000000E+01 0. -1.
         15    1    1    2    0    0 -0.52400695618E+01  0.79218889025E+01 -0.84701367483E+01  0.12849731450E+02  0.17770000000E+01 0.  1.
</event>
<event>
 6    1  0.1196607E-002  0.1774966E+03  0.7546771E-02  0.1072509E+00
        -11   -1    0    0    0    0  0.00000000000E+00  0.00000000000E+00  0.18250000000E+03  0.18250000000E+03  0.00000000000E+00 0. -1.
         11   -1    0    0    0    0 -0.00000000000E+00 -0.00000000000E+00 -0.18250000000E+03  0.18250000000E+03  0.00000000000E+00 0.  1.
        -11    1    1    2    0    0 -0.33205349725E+00  0.38366248813E+01  0.17796542531E+03  0.17800708569E+03  0.00000000000E+00 0. -1.
         11    1    1    2    0    0  0.29215897518E+01 -0.32478731389E+01 -0.17694359618E+03  0.17699751579E+03  0.00000000000E+00 0.  1.
        -15    1    1    2    0    0 -0.29249936788E+01  0.17252918045E+01  0.31033391670E+01  0.49315984039E+01  0.17770000000E+01 0. -1.
         15    1    1    2    0    0  0.33545742425E+00 -0.23140435470E+01 -0.41251682960E+01  0.50638001235E+01  0.17770000000E+01 0.  1.
</event>
<event>
 6    1  0.1196607E-002  0.1885744E+03  0.7546771E-02  0.1063720E+00
        -11   -1    0    0    0    0  0.00000000000E+00  0.00000000000E+00  0.18250000000E+03  0.18250000000E+03  0.00000000000E+00 0.  1.
         11   -1    0    0    0    0 -0.00000000000E+00 -0.00000000000E+00 -0.18250000000E+03  0.18250000000E+03  0.00000000000E+00 0.  1.
        -11    1    1    2    0    0 -0.51743982191E+01  0.19741525248E+01  0.17217873218E+03  0.17226777844E+03  0.00000000000E+00 0.  1.
         11    1    1    2    0    0  0.37524639361E+01  0.12451147565E+01 -0.17638129637E+03  0.17642560190E+03  0.00000000000E+00 0.  1.
        -15    1    1    2    0    0  0.46551959238E+00 -0.37982307660E+01  0.96157057622E+01  0.10500609113E+02  0.17770000000E+01 0. -1.
         15    1    1    2    0    0  0.95641469063E+00  0.57896348461E+00 -0.54131415668E+01  0.58060105408E+01  0.17770000000E+01 0.  1.
</event>
<event>
 6    1  0.1196607E-002  0.1848866E+03  0.7546771E-02  0.1066571E+00
        -11   -1    0    0    0    0  0.00000000000E+00  0.00000000000E+00  0.18250000000E+03  0.18250000000E+03  0.00000000000E+00 0.  1.
         11   -1    0    0    0    0 -0.00000000000E+00 -0.00000000000E+00 -0.18250000000E+03  0.18250000000E+03  0.00000000000E+00 0.  1.
        -11    1    1    2    0    0 -0.21670489035E+01 -0.98193032253E-01  0.11970031761E+03  0.11971997235E+03  0.00000000000E+00 0.  1.
         11    1    1    2    0    0  0.37317716587E+01  0.70370699692E+00 -0.18007332565E+03  0.18011336411E+03  0.00000000000E+00 0.  1.
        -15    1    1    2    0    0  0.54494716573E+00  0.12346002885E+01 -0.18235932809E+01  0.28817402277E+01  0.17770000000E+01 0. -1.
         15    1    1    2    0    0 -0.21096699209E+01 -0.18401142532E+01  0.62196601316E+02  0.62284923311E+02  0.17770000000E+01 0.  1.
</event>
<event>
 6    1  0.1196607E-002  0.1480961E+03  0.7546771E-02  0.1099706E+00
        -11   -1    0    0    0    0  0.00000000000E+00  0.00000000000E+00  0.18250000000E+03  0.18250000000E+03  0.00000000000E+00 0.  1.
         11   -1    0    0    0    0 -0.00000000000E+00 -0.00000000000E+00 -0.18250000000E+03  0.18250000000E+03  0.00000000000E+00 0.  1.
        -11    1    1    2    0    0  0.24708030124E+01  0.72642863575E+00  0.14641053643E+03  0.14643318525E+03  0.00000000000E+00 0.  1.
         11    1    1    2    0    0 -0.42463710916E+02  0.10658625226E+02 -0.14625124078E+03  0.15266367762E+03  0.00000000000E+00 0.  1.
        -15    1    1    2    0    0  0.81000947096E+01 -0.17086116076E+02 -0.20231687890E+02  0.27749339105E+02  0.17770000000E+01 0. -1.
         15    1    1    2    0    0  0.31892813194E+02  0.57010622151E+01  0.20072392240E+02  0.38153798016E+02  0.17770000000E+01 0.  1.
</event>
<event>
 6    1  0.1196607E-002  0.1826466E+03  0.7546771E-02  0.1068338E+00
        -11   -1    0    0    0    0  0.00000000000E+00  0.00000000000E+00  0.18250000000E+03  0.18250000000E+03  0.00000000000E+00 0.  1.
         11   -1    0    0    0    0 -0.00000000000E+00 -0.00000000000E+00 -0.18250000000E+03  0.18250000000E+03  0.00000000000E+00 0. -1.
        -11    1    1    2    0    0 -0.18183971312E+01  0.27219816037E+01  0.18232396821E+03  0.18235335241E+03  0.00000000000E+00 0.  1.
         11    1    1    2    0    0 -0.12548107170E+01  0.75538904455E+00 -0.95199167755E+02  0.95210433797E+02  0.00000000000E+00 0. -1.
        -15    1    1    2    0    0  0.57358336102E+00  0.77574722344E+00 -0.18117804949E+02  0.18230287074E+02  0.17770000000E+01 0. -1.
         15    1    1    2    0    0  0.24996244872E+01 -0.42531178717E+01 -0.69006995509E+02  0.69205926714E+02  0.17770000000E+01 0. -1.
</event>
<event>
 6    1  0.1196607E-002  0.1839796E+03  0.7546771E-02  0.1067283E+00
        -11   -1    0    0    0    0  0.00000000000E+00  0.00000000000E+00  0.18250000000E+03  0.18250000000E+03  0.00000000000E+00 0. -1.
         11   -1    0    0    0    0 -0.00000000000E+00 -0.00000000000E+00 -0.18250000000E+03  0.18250000000E+03  0.00000000000E+00 0.  1.
        -11    1    1    2    0    0 -0.42496914479E+01  0.41764400728E+01  0.18092234318E+03  0.18102043197E+03  0.00000000000E+00 0. -1.
         11    1    1    2    0    0  0.19741153829E+00 -0.28849658141E+01 -0.16309298927E+03  0.16311862294E+03  0.00000000000E+00 0.  1.
        -15    1    1    2    0    0  0.33536810747E+01 -0.47709193662E+01 -0.67670848025E+01  0.91082388020E+01  0.17770000000E+01 0.  1.
         15    1    1    2    0    0  0.69859883492E+00  0.34794451075E+01 -0.11062269102E+02  0.11752706296E+02  0.17770000000E+01 0. -1.
</event>
<event>
 6    1  0.1196607E-002  0.1882566E+03  0.7546771E-02  0.1063963E+00
        -11   -1    0    0    0    0  0.00000000000E+00  0.00000000000E+00  0.18250000000E+03  0.18250000000E+03  0.00000000000E+00 0. -1.
         11   -1    0    0    0    0 -0.00000000000E+00 -0.00000000000E+00 -0.18250000000E+03  0.18250000000E+03  0.00000000000E+00 0. -1.
        -11    1    1    2    0    0 -0.82294393545E+01 -0.14825145569E+01  0.14694122810E+03  0.14717895922E+03  0.00000000000E+00 0. -1.
         11    1    1    2    0    0  0.14417037355E+01 -0.60425359811E+01 -0.17663419225E+03  0.17674339767E+03  0.00000000000E+00 0. -1.
        -15    1    1    2    0    0  0.52299877697E+01  0.29536353118E+01  0.33873325624E+02  0.34447592826E+02  0.17770000000E+01 0.  1.
         15    1    1    2    0    0  0.15577478494E+01  0.45714152262E+01 -0.41803614829E+01  0.66300502758E+01  0.17770000000E+01 0. -1.
</event>
<event>
 6    1  0.1196607E-002  0.1828512E+03  0.7546771E-02  0.1068176E+00
        -11   -1    0    0    0    0  0.00000000000E+00  0.00000000000E+00  0.18250000000E+03  0.18250000000E+03  0.00000000000E+00 0. -1.
         11   -1    0    0    0    0 -0.00000000000E+00 -0.00000000000E+00 -0.18250000000E+03  0.18250000000E+03  0.00000000000E+00 0.  1.
        -11    1    1    2    0    0  0.38604573054E+01  0.28348211120E+01  0.18208584883E+03  0.18214882839E+03  0.00000000000E+00 0. -1.
         11    1    1    2    0    0 -0.24618188786E+01  0.15891662646E+00 -0.14035446116E+03  0.14037613962E+03  0.00000000000E+00 0.  1.
        -15    1    1    2    0    0 -0.31412200468E+01 -0.20402881933E+01 -0.13605009621E+02  0.14222659916E+02  0.17770000000E+01 0.  1.
         15    1    1    2    0    0  0.17425816200E+01 -0.95344954512E+00 -0.28126378049E+02  0.28252372076E+02  0.17770000000E+01 0.  1.
</event>
<event>
 6    1  0.1196607E-002  0.1804675E+03  0.7546771E-02  0.1070084E+00
        -11   -1    0    0    0    0  0.00000000000E+00  0.00000000000E+00  0.18250000000E+03  0.18250000000E+03  0.00000000000E+00 0. -1.
         11   -1    0    0    0    0 -0.00000000000E+00 -0.00000000000E+00 -0.18250000000E+03  0.18250000000E+03  0.00000000000E+00 0.  1.
        -11    1    1    2    0    0  0.85072362281E+00  0.99417057693E-01  0.41377512828E+01  0.42254704013E+01  0.00000000000E+00 0. -1.
         11    1    1    2    0    0 -0.25193853804E-01 -0.65278678146E+01 -0.18224510397E+03  0.18236197962E+03  0.00000000000E+00 0.  1.
        -15    1    1    2    0    0  0.16378661502E+00  0.11344219736E+01  0.12219832525E+03  0.12221661983E+03  0.17770000000E+01 0. -1.
         15    1    1    2    0    0 -0.98931638402E+00  0.52940287833E+01  0.55909027432E+02  0.56195930147E+02  0.17770000000E+01 0.  1.
</event>
<event>
 6    1  0.1196607E-002  0.1835498E+03  0.7546771E-02  0.1067622E+00
        -11   -1    0    0    0    0  0.00000000000E+00  0.00000000000E+00  0.18250000000E+03  0.18250000000E+03  0.00000000000E+00 0.  1.
         11   -1    0    0    0    0 -0.00000000000E+00 -0.00000000000E+00 -0.18250000000E+03  0.18250000000E+03  0.00000000000E+00 0. -1.
        -11    1    1    2    0    0  0.23054316509E+01  0.12536429271E+01  0.18143122743E+03  0.18145020507E+03  0.00000000000E+00 0.  1.
         11    1    1    2    0    0 -0.33243617081E+01  0.32394474795E+01 -0.13811314100E+03  0.13819111808E+03  0.00000000000E+00 0. -1.
        -15    1    1    2    0    0  0.28250417531E+01 -0.36839014456E+01 -0.42169500118E+02  0.42461470300E+02  0.17770000000E+01 0. -1.
         15    1    1    2    0    0 -0.18061116959E+01 -0.80918896092E+00 -0.11485863109E+01  0.28972065418E+01  0.17770000000E+01 0.  1.
</event>
<event>
 6    1  0.1196607E-002  0.1787285E+03  0.7546771E-02  0.1071497E+00
        -11   -1    0    0    0    0  0.00000000000E+00  0.00000000000E+00  0.18250000000E+03  0.18250000000E+03  0.00000000000E+00 0.  1.
         11   -1    0    0    0    0 -0.00000000000E+00 -0.00000000000E+00 -0.18250000000E+03  0.18250000000E+03  0.00000000000E+00 0.  1.
        -11    1    1    2    0    0 -0.23500186090E+01  0.16420185743E+01  0.17776258106E+03  0.17778569694E+03  0.00000000000E+00 0.  1.
         11    1    1    2    0    0 -0.21103478311E+01 -0.13740642601E+01 -0.17968682736E+03  0.17970447281E+03  0.00000000000E+00 0.  1.
        -15    1    1    2    0    0  0.93762478247E-01  0.97972300189E+00  0.16646229510E+01  0.26262800939E+01  0.17770000000E+01 0.  1.
         15    1    1    2    0    0  0.43666039618E+01 -0.12476773161E+01  0.25962334866E+00  0.48835501562E+01  0.17770000000E+01 0. -1.
</event>
<event>
 6    1  0.1196607E-002  0.1764965E+03  0.7546771E-02  0.1073337E+00
        -11   -1    0    0    0    0  0.00000000000E+00  0.00000000000E+00  0.18250000000E+03  0.18250000000E+03  0.00000000000E+00 0.  1.
         11   -1    0    0    0    0 -0.00000000000E+00 -0.00000000000E+00 -0.18250000000E+03  0.18250000000E+03  0.00000000000E+00 0.  1.
        -11    1    1    2    0    0 -0.14656998599E+01 -0.24434314994E+01  0.17783300198E+02  0.18010119364E+02  0.00000000000E+00 0.  1.
         11    1    1    2    0    0  0.58503319184E+01  0.16833192482E+02 -0.17818269260E+03  0.17907164682E+03  0.00000000000E+00 0.  1.
        -15    1    1    2    0    0 -0.24978977437E+02 -0.12996030825E+02  0.10651414655E+03  0.11018741886E+03  0.17770000000E+01 0.  1.
         15    1    1    2    0    0  0.20594345379E+02 -0.13937301577E+01  0.53885245851E+02  0.57730814950E+02  0.17770000000E+01 0. -1.
</event>
<event>
 6    1  0.1196607E-002  0.1825837E+03  0.7546771E-02  0.1068388E+00
        -11   -1    0    0    0    0  0.00000000000E+00  0.00000000000E+00  0.18250000000E+03  0.18250000000E+03  0.00000000000E+00 0. -1.
         11   -1    0    0    0    0 -0.00000000000E+00 -0.00000000000E+00 -0.18250000000E+03  0.18250000000E+03  0.00000000000E+00 0.  1.
        -11    1    1    2    0    0  0.20099100616E+01 -0.28395436739E-01  0.61770717588E+02  0.61803414922E+02  0.00000000000E+00 0. -1.
         11    1    1    2    0    0 -0.22402667884E+01 -0.11749916311E+01 -0.18239880088E+03  0.18241634237E+03  0.00000000000E+00 0.  1.
        -15    1    1    2    0    0  0.81724521854E+00  0.23011448043E+01  0.36677702301E+02  0.36801830555E+02  0.17770000000E+01 0.  1.
         15    1    1    2    0    0 -0.58688849175E+00 -0.10977577365E+01  0.83950380992E+02  0.83978412154E+02  0.17770000000E+01 0. -1.
</event>
<event>
 6    1  0.1196607E-002  0.1869918E+03  0.7546771E-02  0.1064935E+00
        -11   -1    0    0    0    0  0.00000000000E+00  0.00000000000E+00  0.18250000000E+03  0.18250000000E+03  0.00000000000E+00 0. -1.
         11   -1    0    0    0    0 -0.00000000000E+00 -0.00000000000E+00 -0.18250000000E+03  0.18250000000E+03  0.00000000000E+00 0. -1.
        -11    1    1    2    0    0 -0.53334359616E+01  0.48091463273E+00  0.17792763130E+03  0.17800819868E+03  0.00000000000E+00 0. -1.
         11    1    1    2    0    0  0.31877419636E+01  0.33990597150E+01 -0.11177851860E+03  0.11187561185E+03  0.00000000000E+00 0. -1.
        -15    1    1    2    0    0  0.85259237958E+01 -0.49069601756E+01 -0.14854645249E+01  0.10106135196E+02  0.17770000000E+01 0.  1.
         15    1    1    2    0    0 -0.63802297979E+01  0.10269858279E+01 -0.64663648174E+02  0.65010054271E+02  0.17770000000E+01 0. -1.
</event>
<event>
 6    1  0.1196607E-002  0.1863689E+03  0.7546771E-02  0.1065416E+00
        -11   -1    0    0    0    0  0.00000000000E+00  0.00000000000E+00  0.18250000000E+03  0.18250000000E+03  0.00000000000E+00 0. -1.
         11   -1    0    0    0    0 -0.00000000000E+00 -0.00000000000E+00 -0.18250000000E+03  0.18250000000E+03  0.00000000000E+00 0.  1.
        -11    1    1    2    0    0 -0.42911046072E+00 -0.36487964392E+01  0.17859331993E+03  0.17863110528E+03  0.00000000000E+00 0. -1.
         11    1    1    2    0    0 -0.74092355379E+00 -0.33686098127E+00 -0.43919108525E+02  0.43926649504E+02  0.00000000000E+00 0.  1.
        -15    1    1    2    0    0  0.56772397680E+01  0.12619759915E+02 -0.95041183003E+01  0.16881213978E+02  0.17770000000E+01 0. -1.
         15    1    1    2    0    0 -0.45072057535E+01 -0.86341024948E+01 -0.12517009310E+03  0.12556103124E+03  0.17770000000E+01 0.  1.
</event>
<event>
 6    1  0.1196607E-002  0.1849285E+03  0.7546771E-02  0.1066538E+00
        -11   -1    0    0    0    0  0.00000000000E+00  0.00000000000E+00  0.18250000000E+03  0.18250000000E+03  0.00000000000E+00 0.  1.
         11   -1    0    0    0    0 -0.00000000000E+00 -0.00000000000E+00 -0.18250000000E+03  0.18250000000E+03  0.00000000000E+00 0.  1.
        -11    1    1    2    0    0 -0.20624006014E+01 -0.32244953831E+01  0.14658384431E+03  0.14663381015E+03  0.00000000000E+00 0.  1.
         11    1    1    2    0    0 -0.49535332271E+01 -0.35697074807E+01 -0.17996792783E+03  0.18007147290E+03  0.00000000000E+00 0.  1.
        -15    1    1    2    0    0  0.30462931865E+01  0.10719484076E+02  0.13657015723E+02  0.17716067523E+02  0.17770000000E+01 0.  1.
         15    1    1    2    0    0  0.39696406419E+01 -0.39252812125E+01  0.19727067799E+02  0.20578649431E+02  0.17770000000E+01 0. -1.
</event>
<event>
 6    1  0.1196607E-002  0.1633642E+03  0.7546771E-02  0.1084797E+00
        -11   -1    0    0    0    0  0.00000000000E+00  0.00000000000E+00  0.18250000000E+03  0.18250000000E+03  0.00000000000E+00 0.  1.
         11   -1    0    0    0    0 -0.00000000000E+00 -0.00000000000E+00 -0.18250000000E+03  0.18250000000E+03  0.00000000000E+00 0.  1.
        -11    1    1    2    0    0  0.54098424893E+01  0.39204797249E+01  0.16451175759E+03  0.16464736543E+03  0.00000000000E+00 0.  1.
         11    1    1    2    0    0  0.33841543729E+01  0.61560123262E+00 -0.16220252511E+03  0.16223899229E+03  0.00000000000E+00 0.  1.
        -15    1    1    2    0    0  0.10801678800E+01  0.14838947313E+01  0.16099700213E+02  0.16301128249E+02  0.17770000000E+01 0.  1.
         15    1    1    2    0    0 -0.98741647422E+01 -0.60199756888E+01 -0.18408932694E+02  0.21812514036E+02  0.17770000000E+01 0. -1.
</event>
<event>
 6    1  0.1196607E-002  0.1633638E+03  0.7546771E-02  0.1084798E+00
        -11   -1    0    0    0    0  0.00000000000E+00  0.00000000000E+00  0.18250000000E+03  0.18250000000E+03  0.00000000000E+00 0. -1.
         11   -1    0    0    0    0 -0.00000000000E+00 -0.00000000000E+00 -0.18250000000E+03  0.18250000000E+03  0.00000000000E+00 0. -1.
        -11    1    1    2    0    0 -0.10840818095E+02  0.28254006105E+01  0.16144708944E+03  0.16183531417E+03  0.00000000000E+00 0. -1.
         11    1    1    2    0    0  0.24622587371E+01 -0.61834202794E+01 -0.16490088419E+03  0.16503514478E+03  0.00000000000E+00 0. -1.
        -15    1    1    2    0    0  0.23388775705E+01  0.18534966426E+02 -0.53160215259E+01  0.19504695398E+02  0.17770000000E+01 0.  1.
         15    1    1    2    0    0  0.60396817876E+01 -0.15176946757E+02  0.87698162802E+01  0.18624845651E+02  0.17770000000E+01 0. -1.
</event>
<event>
 6    1  0.1196607E-002  0.1826609E+03  0.7546771E-02  0.1068327E+00
        -11   -1    0    0    0    0  0.00000000000E+00  0.00000000000E+00  0.18250000000E+03  0.18250000000E+03  0.00000000000E+00 0.  1.
         11   -1    0    0    0    0 -0.00000000000E+00 -0.00000000000E+00 -0.18250000000E+03  0.18250000000E+03  0.00000000000E+00 0.  1.
        -11    1    1    2    0    0 -0.23667795698E+01 -0.19741779689E+01  0.79231159714E+02  0.79291082057E+02  0.00000000000E+00 0.  1.
         11    1    1    2    0    0  0.44685371156E+01 -0.14575621330E+01 -0.18227850723E+03  0.18233909759E+03  0.00000000000E+00 0.  1.
        -15    1    1    2    0    0  0.16449800786E+01 -0.93621196744E-01  0.45881764758E+02  0.45945715694E+02  0.17770000000E+01 0.  1.
         15    1    1    2    0    0 -0.37467376243E+01  0.35253612987E+01  0.57165582758E+02  0.57424104661E+02  0.17770000000E+01 0. -1.
</event>
<event>
 6    1  0.1196607E-002  0.1887833E+03  0.7546771E-02  0.1063560E+00
        -11   -1    0    0    0    0  0.00000000000E+00  0.00000000000E+00  0.18250000000E+03  0.18250000000E+03  0.00000000000E+00 0.  1.
         11   -1    0    0    0    0 -0.00000000000E+00 -0.00000000000E+00 -0.18250000000E+03  0.18250000000E+03  0.00000000000E+00 0. -1.
        -11    1    1    2    0    0  0.15336346471E+01  0.27998472447E+01  0.12022501023E+03  0.12026738654E+03  0.00000000000E+00 0.  1.
         11    1    1    2    0    0 -0.58357457227E+00  0.29148703866E+01 -0.17619159403E+03  0.17621667014E+03  0.00000000000E+00 0. -1.
        -15    1    1    2    0    0  0.20328805000E+01 -0.78018095991E+01 -0.34599212885E+01  0.89515149819E+01  0.17770000000E+01 0. -1.
         15    1    1    2    0    0 -0.29829405749E+01  0.20870919678E+01  0.59426505089E+02  0.59564428340E+02  0.17770000000E+01 0.  1.
</event>
<event>
 6    1  0.1196607E-002  0.1849188E+03  0.7546771E-02  0.1066546E+00
        -11   -1    0    0    0    0  0.00000000000E+00  0.00000000000E+00  0.18250000000E+03  0.18250000000E+03  0.00000000000E+00 0.  1.
         11   -1    0    0    0    0 -0.00000000000E+00 -0.00000000000E+00 -0.18250000000E+03  0.18250000000E+03  0.00000000000E+00 0.  1.
        -11    1    1    2    0    0  0.13212669535E+01  0.79118749683E+01  0.17990243392E+03  0.18008117403E+03  0.00000000000E+00 0.  1.
         11    1    1    2    0    0  0.15721566371E+01  0.13185056234E+02 -0.49214883054E+02  0.50974720189E+02  0.00000000000E+00 0.  1.
        -15    1    1    2    0    0 -0.69519289979E+00 -0.49090956762E+01 -0.52563909199E+01  0.74410945451E+01  0.17770000000E+01 0. -1.
         15    1    1    2    0    0 -0.21982306909E+01 -0.16187835526E+02 -0.12543115994E+03  0.12650301123E+03  0.17770000000E+01 0.  1.
</event>
<event>
 6    1  0.1196607E-002  0.1851414E+03  0.7546771E-02  0.1066371E+00
        -11   -1    0    0    0    0  0.00000000000E+00  0.00000000000E+00  0.18250000000E+03  0.18250000000E+03  0.00000000000E+00 0. -1.
         11   -1    0    0    0    0 -0.00000000000E+00 -0.00000000000E+00 -0.18250000000E+03  0.18250000000E+03  0.00000000000E+00 0.  1.
        -11    1    1    2    0    0  0.90838834252E+00 -0.27870076371E+01  0.16774352443E+03  0.16776913473E+03  0.00000000000E+00 0. -1.
         11    1    1    2    0    0  0.26337999757E+01  0.32848775533E+01 -0.17980930928E+03  0.17985859731E+03  0.00000000000E+00 0.  1.
        -15    1    1    2    0    0 -0.26926880269E+01  0.34574719878E+01  0.12059632994E+02  0.12953654245E+02  0.17770000000E+01 0. -1.
         15    1    1    2    0    0 -0.84950029130E+00 -0.39553419039E+01  0.61518609482E-02  0.44186137155E+01  0.17770000000E+01 0. -1.
</event>
<event>
 6    1  0.1196607E-002  0.1843732E+03  0.7546771E-02  0.1066973E+00
        -11   -1    0    0    0    0  0.00000000000E+00  0.00000000000E+00  0.18250000000E+03  0.18250000000E+03  0.00000000000E+00 0. -1.
         11   -1    0    0    0    0 -0.00000000000E+00 -0.00000000000E+00 -0.18250000000E+03  0.18250000000E+03  0.00000000000E+00 0.  1.
        -11    1    1    2    0    0  0.53518242034E-01 -0.28519978944E+01  0.15350639651E+03  0.15353289721E+03  0.00000000000E+00 0. -1.
         11    1    1    2    0    0  0.38868912443E+01  0.23422995325E+01 -0.18056977398E+03  0.18062679083E+03  0.00000000000E+00 0.  1.
        -15    1    1    2    0    0 -0.13796204301E+01  0.32725265724E+01  0.26309438567E+02  0.26607462664E+02  0.17770000000E+01 0. -1.
         15    1    1    2    0    0 -0.25607890562E+01 -0.27628282105E+01  0.75393890535E+00  0.42328492986E+01  0.17770000000E+01 0. -1.
</event>
<event>
 6    1  0.1196607E-002  0.1752310E+03  0.7546771E-02  0.1074393E+00
        -11   -1    0    0    0    0  0.00000000000E+00  0.00000000000E+00  0.18250000000E+03  0.18250000000E+03  0.00000000000E+00 0.  1.
         11   -1    0    0    0    0 -0.00000000000E+00 -0.00000000000E+00 -0.18250000000E+03  0.18250000000E+03  0.00000000000E+00 0.  1.
        -11    1    1    2    0    0 -0.10162481211E+00  0.40886024462E+01  0.17423398792E+03  0.17428198285E+03  0.00000000000E+00 0.  1.
         11    1    1    2    0    0 -0.56324126000E+01  0.48770063790E+01 -0.17618953310E+03  0.17634698987E+03  0.00000000000E+00 0.  1.
        -15    1    1    2    0    0  0.28146844880E+01 -0.21293155140E+01  0.47987936416E+01  0.62163158494E+01  0.17770000000E+01 0.  1.
         15    1    1    2    0    0  0.29193529241E+01 -0.68362933112E+01 -0.28432484694E+01  0.81547114352E+01  0.17770000000E+01 0. -1.
</event>
<event>
 6    1  0.1196607E-002  0.1832252E+03  0.7546771E-02  0.1067879E+00
        -11   -1    0    0    0    0  0.00000000000E+00  0.00000000000E+00  0.18250000000E+03  0.18250000000E+03  0.00000000000E+00 0.  1.
         11   -1    0    0    0    0 -0.00000000000E+00 -0.00000000000E+00 -0.18250000000E+03  0.18250000000E+03  0.00000000000E+00 0. -1.
        -11    1    1    2    0    0  0.32983776983E+01  0.28260506071E+01  0.18172291754E+03  0.18177481843E+03  0.00000000000E+00 0.  1.
         11    1    1    2    0    0  0.55434219504E+00  0.19641761427E+01 -0.12210570160E+03  0.12212275646E+03  0.00000000000E+00 0. -1.
        -15    1    1    2    0    0 -0.21641168247E+01  0.28086532625E+00 -0.49025389367E+02  0.49106097570E+02  0.17770000000E+01 0.  1.
         15    1    1    2    0    0 -0.16886030686E+01 -0.50710920760E+01 -0.10591826576E+02  0.11996327537E+02  0.17770000000E+01 0. -1.
</event>
<event>
 6    1  0.1196607E-002  0.1829988E+03  0.7546771E-02  0.1068058E+00
        -11   -1    0    0    0    0  0.00000000000E+00  0.00000000000E+00  0.18250000000E+03  0.18250000000E+03  0.00000000000E+00 0. -1.
         11   -1    0    0    0    0 -0.00000000000E+00 -0.00000000000E+00 -0.18250000000E+03  0.18250000000E+03  0.00000000000E+00 0.  1.
        -11    1    1    2    0    0 -0.11636208442E+01 -0.33057731330E+01  0.18196745875E+03  0.18200120383E+03  0.00000000000E+00 0. -1.
         11    1    1    2    0    0  0.39833269484E+01 -0.17025669074E+01 -0.10840348346E+03  0.10849000347E+03  0.00000000000E+00 0.  1.
        -15    1    1    2    0    0 -0.41329623783E+01  0.58576001696E+01 -0.68736435497E+02  0.69132106518E+02  0.17770000000E+01 0.  1.
         15    1    1    2    0    0  0.13132562740E+01 -0.84926012907E+00 -0.48275397962E+01  0.53766861813E+01  0.17770000000E+01 0.  1.
</event>
<event>
 6    1  0.1196607E-002  0.1867910E+03  0.7546771E-02  0.1065090E+00
        -11   -1    0    0    0    0  0.00000000000E+00  0.00000000000E+00  0.18250000000E+03  0.18250000000E+03  0.00000000000E+00 0. -1.
         11   -1    0    0    0    0 -0.00000000000E+00 -0.00000000000E+00 -0.18250000000E+03  0.18250000000E+03  0.00000000000E+00 0.  1.
        -11    1    1    2    0    0 -0.34311240593E+01 -0.45031909535E+00  0.17130131794E+03  0.17133626857E+03  0.00000000000E+00 0. -1.
         11    1    1    2    0    0  0.34178211039E+01 -0.29233173807E+01 -0.17815220443E+03  0.17820896506E+03  0.00000000000E+00 0.  1.
        -15    1    1    2    0    0  0.35701738554E+01  0.25517387774E+01  0.94947626690E+01  0.10609701187E+02  0.17770000000E+01 0. -1.
         15    1    1    2    0    0 -0.35568709000E+01  0.82189769864E+00 -0.26438761794E+01  0.48450651883E+01  0.17770000000E+01 0.  1.
</event>
<event>
 6    1  0.1196607E-002  0.1851058E+03  0.7546771E-02  0.1066399E+00
        -11   -1    0    0    0    0  0.00000000000E+00  0.00000000000E+00  0.18250000000E+03  0.18250000000E+03  0.00000000000E+00 0.  1.
         11   -1    0    0    0    0 -0.00000000000E+00 -0.00000000000E+00 -0.18250000000E+03  0.18250000000E+03  0.00000000000E+00 0.  1.
        -11    1    1    2    0    0  0.23769075106E+01  0.36313337319E+01  0.17984187534E+03  0.17989423671E+03  0.00000000000E+00 0.  1.
         11    1    1    2    0    0  0.21172274057E+01  0.36971005536E+01 -0.15011220620E+03  0.15017265282E+03  0.00000000000E+00 0.  1.
        -15    1    1    2    0    0  0.29302226372E+01  0.30612340960E+01 -0.37531991015E+01  0.59330929025E+01  0.17770000000E+01 0. -1.
         15    1    1    2    0    0 -0.74243575535E+01 -0.10389668382E+02 -0.25976470046E+02  0.29000017573E+02  0.17770000000E+01 0. -1.
</event>
<event>
 6    1  0.1196607E-002  0.1890583E+03  0.7546771E-02  0.1063351E+00
        -11   -1    0    0    0    0  0.00000000000E+00  0.00000000000E+00  0.18250000000E+03  0.18250000000E+03  0.00000000000E+00 0.  1.
         11   -1    0    0    0    0 -0.00000000000E+00 -0.00000000000E+00 -0.18250000000E+03  0.18250000000E+03  0.00000000000E+00 0.  1.
        -11    1    1    2    0    0 -0.27919122673E+01 -0.48850749467E+01  0.17585169179E+03  0.17594168420E+03  0.00000000000E+00 0.  1.
         11    1    1    2    0    0 -0.42163317361E+00 -0.28382573346E+01 -0.15971159075E+03  0.15973736475E+03  0.00000000000E+00 0.  1.
        -15    1    1    2    0    0  0.11999085984E+02  0.10171963399E+01 -0.40130582742E+01  0.12816985549E+02  0.17770000000E+01 0.  1.
         15    1    1    2    0    0 -0.87855405428E+01  0.67061359413E+01 -0.12127042774E+02  0.16503965504E+02  0.17770000000E+01 0. -1.
</event>
<event>
 6    1  0.1196607E-002  0.1837591E+03  0.7546771E-02  0.1067457E+00
        -11   -1    0    0    0    0  0.00000000000E+00  0.00000000000E+00  0.18250000000E+03  0.18250000000E+03  0.00000000000E+00 0. -1.
         11   -1    0    0    0    0 -0.00000000000E+00 -0.00000000000E+00 -0.18250000000E+03  0.18250000000E+03  0.00000000000E+00 0.  1.
        -11    1    1    2    0    0  0.66263300789E+01  0.61119348187E+01  0.18101656025E+03  0.18124088690E+03  0.00000000000E+00 0. -1.
         11    1    1    2    0    0 -0.20930864998E+01 -0.73541589447E+01 -0.13711280305E+03  0.13732583670E+03  0.00000000000E+00 0.  1.
        -15    1    1    2    0    0 -0.41265985489E+01 -0.18540237721E+01 -0.38018772406E+01  0.61707551632E+01  0.17770000000E+01 0. -1.
         15    1    1    2    0    0 -0.40664503013E+00  0.30962478982E+01 -0.40101879958E+02  0.40262521238E+02  0.17770000000E+01 0.  1.
</event>
<event>
 6    1  0.1196607E-002  0.1916725E+03  0.7546771E-02  0.1061379E+00
        -11   -1    0    0    0    0  0.00000000000E+00  0.00000000000E+00  0.18250000000E+03  0.18250000000E+03  0.00000000000E+00 0. -1.
         11   -1    0    0    0    0 -0.00000000000E+00 -0.00000000000E+00 -0.18250000000E+03  0.18250000000E+03  0.00000000000E+00 0. -1.
        -11    1    1    2    0    0 -0.17118602373E+01  0.48608621309E+01  0.17325082998E+03  0.17332746042E+03  0.00000000000E+00 0. -1.
         11    1    1    2    0    0  0.17772785115E+01  0.60012139680E+01 -0.15280853129E+03  0.15293665526E+03  0.00000000000E+00 0. -1.
        -15    1    1    2    0    0  0.44937344604E+01 -0.77133833702E+01 -0.27859476166E+02  0.29308668917E+02  0.17770000000E+01 0. -1.
         15    1    1    2    0    0 -0.45591527346E+01 -0.31486927288E+01  0.74171774781E+01  0.94272154053E+01  0.17770000000E+01 0. -1.
</event>
<event>
 6    1  0.1196607E-002  0.1826459E+03  0.7546771E-02  0.1068339E+00
        -11   -1    0    0    0    0  0.00000000000E+00  0.00000000000E+00  0.18250000000E+03  0.18250000000E+03  0.00000000000E+00 0.  1.
         11   -1    0    0    0    0 -0.00000000000E+00 -0.00000000000E+00 -0.18250000000E+03  0.18250000000E+03  0.00000000000E+00 0. -1.
        -11    1    1    2    0    0  0.29248213760E+01 -0.67076636387E+00  0.18232942203E+03  0.18235411332E+03  0.00000000000E+00 0.  1.
         11    1    1    2    0    0 -0.16963828522E+01 -0.17965516045E+01 -0.14708664111E+03  0.14710739378E+03  0.00000000000E+00 0. -1.
        -15    1    1    2    0    0 -0.95100592381E+00  0.98254868855E+00 -0.17560384592E+02  0.17702955973E+02  0.17770000000E+01 0. -1.
         15    1    1    2    0    0 -0.27743259999E+00  0.14847692798E+01 -0.17682396324E+02  0.17835536925E+02  0.17770000000E+01 0.  1.
</event>
<event>
 6    1  0.1196607E-002  0.1825774E+03  0.7546771E-02  0.1068393E+00
        -11   -1    0    0    0    0  0.00000000000E+00  0.00000000000E+00  0.18250000000E+03  0.18250000000E+03  0.00000000000E+00 0. -1.
         11   -1    0    0    0    0 -0.00000000000E+00 -0.00000000000E+00 -0.18250000000E+03  0.18250000000E+03  0.00000000000E+00 0. -1.
        -11    1    1    2    0    0  0.25166508336E+01 -0.30304098104E+01  0.18238011172E+03  0.18242264680E+03  0.00000000000E+00 0. -1.
         11    1    1    2    0    0 -0.10693440372E+01 -0.44312865379E-01 -0.70592714245E+02  0.70600826941E+02  0.00000000000E+00 0. -1.
        -15    1    1    2    0    0  0.74923967266E+00  0.20354293690E+01 -0.29209102826E+02  0.29343376590E+02  0.17770000000E+01 0. -1.
         15    1    1    2    0    0 -0.21965464691E+01  0.10392933067E+01 -0.82578294652E+02  0.82633149665E+02  0.17770000000E+01 0. -1.
</event>
<event>
 6    1  0.1196607E-002  0.1880914E+03  0.7546771E-02  0.1064089E+00
        -11   -1    0    0    0    0  0.00000000000E+00  0.00000000000E+00  0.18250000000E+03  0.18250000000E+03  0.00000000000E+00 0.  1.
         11   -1    0    0    0    0 -0.00000000000E+00 -0.00000000000E+00 -0.18250000000E+03  0.18250000000E+03  0.00000000000E+00 0. -1.
        -11    1    1    2    0    0 -0.23197601163E+01 -0.23955409221E+01  0.17687721646E+03  0.17690864762E+03  0.00000000000E+00 0.  1.
         11    1    1    2    0    0 -0.15637237282E+01  0.33842521612E+01 -0.14737007741E+03  0.14741722460E+03  0.00000000000E+00 0. -1.
        -15    1    1    2    0    0  0.10706561842E+02  0.18180511930E+01 -0.31039269138E+02  0.32932199049E+02  0.17770000000E+01 0. -1.
         15    1    1    2    0    0 -0.68230779972E+01 -0.28067624321E+01  0.15321300912E+01  0.77419287211E+01  0.17770000000E+01 0.  1.
</event>
<event>
 6    1  0.1196607E-002  0.1892790E+03  0.7546771E-02  0.1063183E+00
        -11   -1    0    0    0    0  0.00000000000E+00  0.00000000000E+00  0.18250000000E+03  0.18250000000E+03  0.00000000000E+00 0. -1.
         11   -1    0    0    0    0 -0.00000000000E+00 -0.00000000000E+00 -0.18250000000E+03  0.18250000000E+03  0.00000000000E+00 0.  1.
        -11    1    1    2    0    0  0.79025435763E+00  0.29220585193E+00  0.45502864837E+02  0.45510664625E+02  0.00000000000E+00 0. -1.
         11    1    1    2    0    0 -0.15226968431E+02 -0.11108788845E+02 -0.17470715482E+03  0.17572095977E+03  0.00000000000E+00 0.  1.
        -15    1    1    2    0    0  0.99897007364E+00 -0.45597985214E+01 -0.55485065402E+01  0.74654777202E+01  0.17770000000E+01 0.  1.
         15    1    1    2    0    0  0.13437744000E+02  0.15376381515E+02  0.13475279652E+03  0.13630289789E+03  0.17770000000E+01 0. -1.
</event>
<event>
 6    1  0.1196607E-002  0.1882561E+03  0.7546771E-02  0.1063963E+00
        -11   -1    0    0    0    0  0.00000000000E+00  0.00000000000E+00  0.18250000000E+03  0.18250000000E+03  0.00000000000E+00 0. -1.
         11   -1    0    0    0    0 -0.00000000000E+00 -0.00000000000E+00 -0.18250000000E+03  0.18250000000E+03  0.00000000000E+00 0.  1.
        -11    1    1    2    0    0  0.41854438232E+01  0.11797665872E+02  0.17630003840E+03  0.17674390061E+03  0.00000000000E+00 0. -1.
         11    1    1    2    0    0 -0.98232687219E+01 -0.82779713069E+01 -0.10268472771E+03  0.10348514252E+03  0.00000000000E+00 0.  1.
        -15    1    1    2    0    0  0.63066506573E+01  0.16467502014E+02 -0.53464153573E+02  0.56325180083E+02  0.17770000000E+01 0.  1.
         15    1    1    2    0    0 -0.66882575858E+00 -0.19987196579E+02 -0.20151157123E+02  0.28445776793E+02  0.17770000000E+01 0. -1.
</event>
<event>
 6    1  0.1196607E-002  0.1855915E+03  0.7546771E-02  0.1066020E+00
        -11   -1    0    0    0    0  0.00000000000E+00  0.00000000000E+00  0.18250000000E+03  0.18250000000E+03  0.00000000000E+00 0.  1.
         11   -1    0    0    0    0 -0.00000000000E+00 -0.00000000000E+00 -0.18250000000E+03  0.18250000000E+03  0.00000000000E+00 0.  1.
        -11    1    1    2    0    0  0.26061809595E+00 -0.28819906422E+01  0.17938515143E+03  0.17940849017E+03  0.00000000000E+00 0.  1.
         11    1    1    2    0    0  0.22568219957E+01  0.30109318158E+01 -0.17763101824E+03  0.17767086874E+03  0.00000000000E+00 0.  1.
        -15    1    1    2    0    0 -0.31496456472E+01 -0.27150190867E+01 -0.96263173083E+00  0.46234170473E+01  0.17770000000E+01 0. -1.
         15    1    1    2    0    0  0.63220555557E+00  0.25860779132E+01 -0.79150145896E+00  0.32972240441E+01  0.17770000000E+01 0.  1.
</event>
<event>
 6    1  0.1297234E-002  0.1831467E+03  0.7546771E-02  0.1067941E+00
        -11   -1    0    0    0    0  0.00000000000E+00  0.00000000000E+00  0.18250000000E+03  0.18250000000E+03  0.00000000000E+00 0. -1.
         11   -1    0    0    0    0 -0.00000000000E+00 -0.00000000000E+00 -0.18250000000E+03  0.18250000000E+03  0.00000000000E+00 0. -1.
        -11    1    1    2    0    0 -0.77782219911E+00 -0.13965100374E+01  0.11521507479E+03  0.11522616329E+03  0.00000000000E+00 0. -1.
         11    1    1    2    0    0 -0.32081941667E+01  0.36741358282E+01 -0.18178791778E+03  0.18185334430E+03  0.00000000000E+00 0. -1.
        -15    1    1    2    0    0  0.26217006460E+01 -0.32518507406E+01  0.72928562032E+01  0.85901878977E+01  0.17770000000E+01 0.  1.
         15    1    1    2    0    0  0.13643157199E+01  0.97422494992E+00  0.59279986781E+02  0.59330304512E+02  0.17770000000E+01 0. -1.
</event>
<event>
 6    1  0.1196607E-002  0.1826387E+03  0.7546771E-02  0.1068344E+00
        -11   -1    0    0    0    0  0.00000000000E+00  0.00000000000E+00  0.18250000000E+03  0.18250000000E+03  0.00000000000E+00 0.  1.
         11   -1    0    0    0    0 -0.00000000000E+00 -0.00000000000E+00 -0.18250000000E+03  0.18250000000E+03  0.00000000000E+00 0.  1.
        -11    1    1    2    0    0 -0.24510081602E+01 -0.22840989943E+01  0.18233055399E+03  0.18236133216E+03  0.00000000000E+00 0.  1.
         11    1    1    2    0    0 -0.12932272258E+01  0.70024357390E+00 -0.65256747920E+02  0.65273317112E+02  0.00000000000E+00 0.  1.
        -15    1    1    2    0    0  0.28333883496E+01  0.32554122993E+01 -0.98425409209E+02  0.98536007154E+02  0.17770000000E+01 0.  1.
         15    1    1    2    0    0  0.91084703632E+00 -0.16715568788E+01 -0.18648396863E+02  0.18829343570E+02  0.17770000000E+01 0. -1.
</event>
<event>
 6    1  0.1196607E-002  0.1852437E+03  0.7546771E-02  0.1066292E+00
        -11   -1    0    0    0    0  0.00000000000E+00  0.00000000000E+00  0.18250000000E+03  0.18250000000E+03  0.00000000000E+00 0.  1.
         11   -1    0    0    0    0 -0.00000000000E+00 -0.00000000000E+00 -0.18250000000E+03  0.18250000000E+03  0.00000000000E+00 0.  1.
        -11    1    1    2    0    0 -0.54660742436E+00 -0.22497348671E+01  0.15623546095E+03  0.15625261388E+03  0.00000000000E+00 0.  1.
         11    1    1    2    0    0  0.11177304462E+02  0.27112748529E+01 -0.17938798352E+03  0.17975631221E+03  0.00000000000E+00 0.  1.
        -15    1    1    2    0    0 -0.71054988927E+01  0.59149090847E+01  0.16345848704E+02  0.18863158878E+02  0.17770000000E+01 0.  1.
         15    1    1    2    0    0 -0.35251981446E+01 -0.63764490704E+01  0.68066738739E+01  0.10127915034E+02  0.17770000000E+01 0. -1.
</event>
<event>
 6    1  0.1196607E-002  0.1845365E+03  0.7546771E-02  0.1066845E+00
        -11   -1    0    0    0    0  0.00000000000E+00  0.00000000000E+00  0.18250000000E+03  0.18250000000E+03  0.00000000000E+00 0.  1.
         11   -1    0    0    0    0 -0.00000000000E+00 -0.00000000000E+00 -0.18250000000E+03  0.18250000000E+03  0.00000000000E+00 0.  1.
        -11    1    1    2    0    0 -0.21890518599E+01 -0.10530227000E+01  0.14068161083E+03  0.14070258146E+03  0.00000000000E+00 0.  1.
         11    1    1    2    0    0 -0.36940813879E+01  0.17047479693E+01 -0.18041763295E+03  0.18046349959E+03  0.00000000000E+00 0.  1.
        -15    1    1    2    0    0  0.68928133944E+01 -0.20434962332E+01  0.48325400230E+01  0.88429590873E+01  0.17770000000E+01 0.  1.
         15    1    1    2    0    0 -0.10096801466E+01  0.13917709639E+01  0.34903482103E+02  0.34990959866E+02  0.17770000000E+01 0. -1.
</event>
<event>
 6    1  0.1196607E-002  0.1621848E+03  0.7546771E-02  0.1085884E+00
        -11   -1    0    0    0    0  0.00000000000E+00  0.00000000000E+00  0.18250000000E+03  0.18250000000E+03  0.00000000000E+00 0.  1.
         11   -1    0    0    0    0 -0.00000000000E+00 -0.00000000000E+00 -0.18250000000E+03  0.18250000000E+03  0.00000000000E+00 0. -1.
        -11    1    1    2    0    0 -0.15245131617E+02 -0.40978634248E+01  0.15738385399E+03  0.15817358825E+03  0.00000000000E+00 0.  1.
         11    1    1    2    0    0 -0.41233165480E+01 -0.30998127518E+01 -0.16691343715E+03  0.16699313183E+03  0.00000000000E+00 0. -1.
        -15    1    1    2    0    0 -0.26931339629E+01 -0.82986934671E+01  0.92134566775E+01  0.12812759139E+02  0.17770000000E+01 0.  1.
         15    1    1    2    0    0  0.22061582128E+02  0.15496369644E+02  0.31612647845E+00  0.27020520777E+02  0.17770000000E+01 0. -1.
</event>
<event>
 6    1  0.1196607E-002  0.1945636E+03  0.7546771E-02  0.1059238E+00
        -11   -1    0    0    0    0  0.00000000000E+00  0.00000000000E+00  0.18250000000E+03  0.18250000000E+03  0.00000000000E+00 0. -1.
         11   -1    0    0    0    0 -0.00000000000E+00 -0.00000000000E+00 -0.18250000000E+03  0.18250000000E+03  0.00000000000E+00 0.  1.
        -11    1    1    2    0    0  0.32167766616E+02  0.56118632510E+01  0.96328802447E+02  0.10171281335E+03  0.00000000000E+00 0. -1.
         11    1    1    2    0    0  0.54252497769E+00  0.66035301802E+01 -0.17030759089E+03  0.17043642938E+03  0.00000000000E+00 0.  1.
        -15    1    1    2    0    0 -0.40978672554E+02 -0.15404287199E+02  0.70817266009E+02  0.83275365880E+02  0.17770000000E+01 0. -1.
         15    1    1    2    0    0  0.82683809606E+01  0.31888937675E+01  0.31615224375E+01  0.95753913911E+01  0.17770000000E+01 0.  1.
</event>
<event>
 6    1  0.1196607E-002  0.1831986E+03  0.7546771E-02  0.1067900E+00
        -11   -1    0    0    0    0  0.00000000000E+00  0.00000000000E+00  0.18250000000E+03  0.18250000000E+03  0.00000000000E+00 0. -1.
         11   -1    0    0    0    0 -0.00000000000E+00 -0.00000000000E+00 -0.18250000000E+03  0.18250000000E+03  0.00000000000E+00 0.  1.
        -11    1    1    2    0    0  0.37018192778E+01 -0.47682527836E+01  0.18170120085E+03  0.18180144688E+03  0.00000000000E+00 0. -1.
         11    1    1    2    0    0  0.26488683923E+01 -0.17819794743E+01 -0.13618864598E+03  0.13622605936E+03  0.00000000000E+00 0.  1.
        -15    1    1    2    0    0 -0.11941461091E+01  0.13089753476E+01 -0.24714598417E+02  0.24841668730E+02  0.17770000000E+01 0. -1.
         15    1    1    2    0    0 -0.51565415610E+01  0.52412569103E+01 -0.20797956448E+02  0.22130825024E+02  0.17770000000E+01 0.  1.
</event>
<event>
 6    1  0.1196607E-002  0.1853517E+03  0.7546771E-02  0.1066207E+00
        -11   -1    0    0    0    0  0.00000000000E+00  0.00000000000E+00  0.18250000000E+03  0.18250000000E+03  0.00000000000E+00 0.  1.
         11   -1    0    0    0    0 -0.00000000000E+00 -0.00000000000E+00 -0.18250000000E+03  0.18250000000E+03  0.00000000000E+00 0.  1.
        -11    1    1    2    0    0 -0.13057927076E+01 -0.39195627406E+01  0.13729478537E+03  0.13735692978E+03  0.00000000000E+00 0.  1.
         11    1    1    2    0    0 -0.26848122229E+01  0.98132801966E+00 -0.17962552721E+03  0.17964827093E+03  0.00000000000E+00 0.  1.
        -15    1    1    2    0    0 -0.85232875525E+01  0.46169784650E+01  0.19275701749E+02  0.21648864353E+02  0.17770000000E+01 0. -1.
         15    1    1    2    0    0  0.12513892483E+02 -0.16787437440E+01  0.23055040087E+02  0.26345934944E+02  0.17770000000E+01 0.  1.
</event>
<event>
 6    1  0.1196607E-002  0.1828386E+03  0.7546771E-02  0.1068186E+00
        -11   -1    0    0    0    0  0.00000000000E+00  0.00000000000E+00  0.18250000000E+03  0.18250000000E+03  0.00000000000E+00 0.  1.
         11   -1    0    0    0    0 -0.00000000000E+00 -0.00000000000E+00 -0.18250000000E+03  0.18250000000E+03  0.00000000000E+00 0. -1.
        -11    1    1    2    0    0  0.15896246764E+01 -0.19613380766E+01  0.77402369105E+02  0.77443531020E+02  0.00000000000E+00 0.  1.
         11    1    1    2    0    0 -0.12694235491E+01 -0.27203121563E+01 -0.18213666300E+03  0.18216139971E+03  0.00000000000E+00 0. -1.
        -15    1    1    2    0    0  0.37042588556E+01 -0.82684288706E+00  0.24908099874E+02  0.25258194139E+02  0.17770000000E+01 0. -1.
         15    1    1    2    0    0 -0.40244599830E+01  0.55084931200E+01  0.79826194023E+02  0.80136875131E+02  0.17770000000E+01 0.  1.
</event>
<event>
 6    1  0.1196607E-002  0.1832227E+03  0.7546771E-02  0.1067881E+00
        -11   -1    0    0    0    0  0.00000000000E+00  0.00000000000E+00  0.18250000000E+03  0.18250000000E+03  0.00000000000E+00 0.  1.
         11   -1    0    0    0    0 -0.00000000000E+00 -0.00000000000E+00 -0.18250000000E+03  0.18250000000E+03  0.00000000000E+00 0.  1.
        -11    1    1    2    0    0 -0.21381739591E+01 -0.20634910161E+01  0.12369562075E+03  0.12373130718E+03  0.00000000000E+00 0.  1.
         11    1    1    2    0    0  0.33387713665E+01  0.10849252883E+01 -0.18174340123E+03  0.18177730427E+03  0.00000000000E+00 0.  1.
        -15    1    1    2    0    0 -0.31292002415E+01 -0.49479463581E+01  0.20689975546E+02  0.21575608553E+02  0.17770000000E+01 0.  1.
         15    1    1    2    0    0  0.19286028341E+01  0.59265120858E+01  0.37357804931E+02  0.37915779995E+02  0.17770000000E+01 0. -1.
</event>
<event>
 6    1  0.1196607E-002  0.1961338E+03  0.7546771E-02  0.1058092E+00
        -11   -1    0    0    0    0  0.00000000000E+00  0.00000000000E+00  0.18250000000E+03  0.18250000000E+03  0.00000000000E+00 0.  1.
         11   -1    0    0    0    0 -0.00000000000E+00 -0.00000000000E+00 -0.18250000000E+03  0.18250000000E+03  0.00000000000E+00 0.  1.
        -11    1    1    2    0    0 -0.81034527435E+01  0.52990567799E+01  0.14823345492E+03  0.14854932886E+03  0.00000000000E+00 0.  1.
         11    1    1    2    0    0  0.59798171614E+00  0.10761726981E+02 -0.16852191399E+03  0.16886624247E+03  0.00000000000E+00 0.  1.
        -15    1    1    2    0    0  0.97059706543E+00 -0.11419878420E+02 -0.10545949678E+02  0.15675792338E+02  0.17770000000E+01 0.  1.
         15    1    1    2    0    0  0.65348739619E+01 -0.46409053408E+01  0.30834408756E+02  0.31908636330E+02  0.17770000000E+01 0.  1.
</event>
<event>
 6    1  0.1196607E-002  0.1847796E+03  0.7546771E-02  0.1066655E+00
        -11   -1    0    0    0    0  0.00000000000E+00  0.00000000000E+00  0.18250000000E+03  0.18250000000E+03  0.00000000000E+00 0.  1.
         11   -1    0    0    0    0 -0.00000000000E+00 -0.00000000000E+00 -0.18250000000E+03  0.18250000000E+03  0.00000000000E+00 0. -1.
        -11    1    1    2    0    0 -0.42255395530E+01 -0.35160820536E+01  0.16893657126E+03  0.16902598358E+03  0.00000000000E+00 0.  1.
         11    1    1    2    0    0 -0.50632887911E+00  0.43281647800E+01 -0.18016771788E+03  0.18022040935E+03  0.00000000000E+00 0. -1.
        -15    1    1    2    0    0  0.90346965856E+00 -0.40488278636E+01  0.16690368432E+01  0.48117229219E+01  0.17770000000E+01 0. -1.
         15    1    1    2    0    0  0.38283987735E+01  0.32367451371E+01  0.95621097798E+01  0.10941884147E+02  0.17770000000E+01 0.  1.
</event>
<event>
 6    1  0.1196607E-002  0.1906446E+03  0.7546771E-02  0.1062150E+00
        -11   -1    0    0    0    0  0.00000000000E+00  0.00000000000E+00  0.18250000000E+03  0.18250000000E+03  0.00000000000E+00 0.  1.
         11   -1    0    0    0    0 -0.00000000000E+00 -0.00000000000E+00 -0.18250000000E+03  0.18250000000E+03  0.00000000000E+00 0.  1.
        -11    1    1    2    0    0 -0.24455577697E+01  0.84125456505E+00  0.16953719989E+03  0.16955692439E+03  0.00000000000E+00 0.  1.
         11    1    1    2    0    0 -0.24218755374E+01 -0.30745647084E+01 -0.17431146689E+03  0.17435540118E+03  0.00000000000E+00 0.  1.
        -15    1    1    2    0    0 -0.21233273806E+01 -0.64031494484E+01  0.66990678918E+01  0.96718189418E+01  0.17770000000E+01 0. -1.
         15    1    1    2    0    0  0.69907606877E+01  0.86364595917E+01 -0.19248008853E+01  0.11415855497E+02  0.17770000000E+01 0.  1.
</event>
<event>
 6    1  0.1196607E-002  0.1825810E+03  0.7546771E-02  0.1068390E+00
        -11   -1    0    0    0    0  0.00000000000E+00  0.00000000000E+00  0.18250000000E+03  0.18250000000E+03  0.00000000000E+00 0.  1.
         11   -1    0    0    0    0 -0.00000000000E+00 -0.00000000000E+00 -0.18250000000E+03  0.18250000000E+03  0.00000000000E+00 0. -1.
        -11    1    1    2    0    0  0.25825291570E+01 -0.98617576107E+00  0.18239800397E+03  0.18241895146E+03  0.00000000000E+00 0.  1.
         11    1    1    2    0    0 -0.12584505534E+01  0.17806617858E+01 -0.98252158792E+02  0.98276350978E+02  0.00000000000E+00 0. -1.
        -15    1    1    2    0    0  0.50067886754E+00 -0.12428586128E+00 -0.57323259345E+02  0.57353116020E+02  0.17770000000E+01 0. -1.
         15    1    1    2    0    0 -0.18247574711E+01 -0.67020016347E+00 -0.26822585831E+02  0.26951581544E+02  0.17770000000E+01 0.  1.
</event>
<event>
 6    1  0.1196607E-002  0.1870438E+03  0.7546771E-02  0.1064894E+00
        -11   -1    0    0    0    0  0.00000000000E+00  0.00000000000E+00  0.18250000000E+03  0.18250000000E+03  0.00000000000E+00 0. -1.
         11   -1    0    0    0    0 -0.00000000000E+00 -0.00000000000E+00 -0.18250000000E+03  0.18250000000E+03  0.00000000000E+00 0. -1.
        -11    1    1    2    0    0 -0.13063404603E+01 -0.44846155552E+01  0.15869797172E+03  0.15876669843E+03  0.00000000000E+00 0. -1.
         11    1    1    2    0    0  0.81563773543E+01 -0.32789201652E+01 -0.17773891166E+03  0.17795617024E+03  0.00000000000E+00 0. -1.
        -15    1    1    2    0    0 -0.68172323522E+01 -0.40474196420E+01  0.39577195424E+01  0.90375624854E+01  0.17770000000E+01 0. -1.
         15    1    1    2    0    0 -0.32804541858E-01  0.11810955362E+02  0.15083220403E+02  0.19239568847E+02  0.17770000000E+01 0.  1.
</event>
<event>
 6    1  0.1196607E-002  0.1841346E+03  0.7546771E-02  0.1067161E+00
        -11   -1    0    0    0    0  0.00000000000E+00  0.00000000000E+00  0.18250000000E+03  0.18250000000E+03  0.00000000000E+00 0. -1.
         11   -1    0    0    0    0 -0.00000000000E+00 -0.00000000000E+00 -0.18250000000E+03  0.18250000000E+03  0.00000000000E+00 0.  1.
        -11    1    1    2    0    0 -0.24855450251E+01  0.14712312357E+02  0.18024889732E+03  0.18086540591E+03  0.00000000000E+00 0. -1.
         11    1    1    2    0    0 -0.95584240300E+00  0.13190653313E+01 -0.81633163197E+02  0.81649414582E+02  0.00000000000E+00 0.  1.
        -15    1    1    2    0    0 -0.85842905694E+01 -0.23539086600E+01 -0.42601878056E+02  0.43558106863E+02  0.17770000000E+01 0. -1.
         15    1    1    2    0    0  0.12025677998E+02 -0.13677469028E+02 -0.56013856067E+02  0.58927072648E+02  0.17770000000E+01 0.  1.
</event>
<event>
 6    1  0.1196607E-002  0.1893921E+03  0.7546771E-02  0.1063097E+00
        -11   -1    0    0    0    0  0.00000000000E+00  0.00000000000E+00  0.18250000000E+03  0.18250000000E+03  0.00000000000E+00 0. -1.
         11   -1    0    0    0    0 -0.00000000000E+00 -0.00000000000E+00 -0.18250000000E+03  0.18250000000E+03  0.00000000000E+00 0. -1.
        -11    1    1    2    0    0 -0.37428309498E+01 -0.63566693237E+00  0.17556688137E+03  0.17560792320E+03  0.00000000000E+00 0. -1.
         11    1    1    2    0    0  0.23290918507E+01  0.26723455820E+00 -0.16101958472E+03  0.16103665032E+03  0.00000000000E+00 0. -1.
        -15    1    1    2    0    0  0.19015852783E+01  0.48092390018E+01  0.54903851087E+01  0.77489911594E+01  0.17770000000E+01 0. -1.
         15    1    1    2    0    0 -0.48784617921E+00 -0.44408066276E+01 -0.20037681760E+02  0.20606435323E+02  0.17770000000E+01 0.  1.
</event>
<event>
 6    1  0.1196607E-002  0.1783388E+03  0.7546771E-02  0.1071816E+00
        -11   -1    0    0    0    0  0.00000000000E+00  0.00000000000E+00  0.18250000000E+03  0.18250000000E+03  0.00000000000E+00 0. -1.
         11   -1    0    0    0    0 -0.00000000000E+00 -0.00000000000E+00 -0.18250000000E+03  0.18250000000E+03  0.00000000000E+00 0. -1.
        -11    1    1    2    0    0 -0.43075651242E+01  0.23052918989E+01  0.17835246653E+03  0.17841937060E+03  0.00000000000E+00 0. -1.
         11    1    1    2    0    0  0.19207411792E+01  0.26070289340E+01 -0.17827067936E+03  0.17830008683E+03  0.00000000000E+00 0. -1.
        -15    1    1    2    0    0  0.28318524504E+01 -0.41676413589E+01  0.17122540037E+01  0.56105405774E+01  0.17770000000E+01 0. -1.
         15    1    1    2    0    0 -0.44502850543E+00 -0.74467947396E+00 -0.17940411763E+01  0.26700019910E+01  0.17770000000E+01 0.  1.
</event>
<event>
 6    1  0.1196607E-002  0.1833455E+03  0.7546771E-02  0.1067784E+00
        -11   -1    0    0    0    0  0.00000000000E+00  0.00000000000E+00  0.18250000000E+03  0.18250000000E+03  0.00000000000E+00 0.  1.
         11   -1    0    0    0    0 -0.00000000000E+00 -0.00000000000E+00 -0.18250000000E+03  0.18250000000E+03  0.00000000000E+00 0. -1.
        -11    1    1    2    0    0 -0.24313671833E+00 -0.32736191939E+01  0.12145596325E+03  0.12150031567E+03  0.00000000000E+00 0.  1.
         11    1    1    2    0    0  0.13495826115E+01  0.32585119006E+01 -0.18162022564E+03  0.18165446769E+03  0.00000000000E+00 0. -1.
        -15    1    1    2    0    0 -0.41200225019E+01 -0.23720962501E+01  0.54684274808E+02  0.54919295938E+02  0.17770000000E+01 0.  1.
         15    1    1    2    0    0  0.30135766087E+01  0.23872035435E+01  0.54799875769E+01  0.69259207025E+01  0.17770000000E+01 0. -1.
</event>
<event>
 6    1  0.1196607E-002  0.1828876E+03  0.7546771E-02  0.1068147E+00
        -11   -1    0    0    0    0  0.00000000000E+00  0.00000000000E+00  0.18250000000E+03  0.18250000000E+03  0.00000000000E+00 0.  1.
         11   -1    0    0    0    0 -0.00000000000E+00 -0.00000000000E+00 -0.18250000000E+03  0.18250000000E+03  0.00000000000E+00 0. -1.
        -11    1    1    2    0    0 -0.34920219468E+01  0.61450982285E-01  0.63578569182E+02  0.63674425421E+02  0.00000000000E+00 0.  1.
         11    1    1    2    0    0 -0.43636966552E+01 -0.21012031154E+01 -0.18204801800E+03  0.18211243164E+03  0.00000000000E+00 0. -1.
        -15    1    1    2    0    0  0.87952277701E+01 -0.15116602288E+01  0.74155295831E+02  0.74711490260E+02  0.17770000000E+01 0. -1.
         15    1    1    2    0    0 -0.93950916820E+00  0.35514123620E+01  0.44314152983E+02  0.44501652675E+02  0.17770000000E+01 0.  1.
</event>
<event>
 6    1  0.1196607E-002  0.1747123E+03  0.7546771E-02  0.1074829E+00
        -11   -1    0    0    0    0  0.00000000000E+00  0.00000000000E+00  0.18250000000E+03  0.18250000000E+03  0.00000000000E+00 0.  1.
         11   -1    0    0    0    0 -0.00000000000E+00 -0.00000000000E+00 -0.18250000000E+03  0.18250000000E+03  0.00000000000E+00 0. -1.
        -11    1    1    2    0    0  0.54823375405E+01  0.24871043217E+01  0.17412620645E+03  0.17423024274E+03  0.00000000000E+00 0.  1.
         11    1    1    2    0    0  0.61239425271E+01 -0.66379307452E+00 -0.17528552056E+03  0.17539371999E+03  0.00000000000E+00 0. -1.
        -15    1    1    2    0    0 -0.21948378448E+01 -0.41879162000E+01  0.20910529586E+01  0.54668260206E+01  0.17770000000E+01 0.  1.
         15    1    1    2    0    0 -0.94114422227E+01  0.23646049528E+01 -0.93173885006E+00  0.99092112491E+01  0.17770000000E+01 0. -1.
</event>
<event>
 6    1  0.1196607E-002  0.1381677E+03  0.7546771E-02  0.1110505E+00
        -11   -1    0    0    0    0  0.00000000000E+00  0.00000000000E+00  0.18250000000E+03  0.18250000000E+03  0.00000000000E+00 0. -1.
         11   -1    0    0    0    0 -0.00000000000E+00 -0.00000000000E+00 -0.18250000000E+03  0.18250000000E+03  0.00000000000E+00 0.  1.
        -11    1    1    2    0    0  0.26014234944E+01 -0.13043481421E+02  0.25818861188E+02  0.29043302237E+02  0.00000000000E+00 0. -1.
         11    1    1    2    0    0 -0.20356418443E+01  0.34438020921E+01 -0.15714082574E+03  0.15719173873E+03  0.00000000000E+00 0.  1.
        -15    1    1    2    0    0  0.33953986303E+02 -0.28893527761E+02  0.11679718056E+03  0.12502978944E+03  0.17770000000E+01 0. -1.
         15    1    1    2    0    0 -0.34519767953E+02  0.38493207090E+02  0.14524783992E+02  0.53735169588E+02  0.17770000000E+01 0.  1.
</event>
<event>
 6    1  0.1196607E-002  0.1918004E+03  0.7546771E-02  0.1061284E+00
        -11   -1    0    0    0    0  0.00000000000E+00  0.00000000000E+00  0.18250000000E+03  0.18250000000E+03  0.00000000000E+00 0. -1.
         11   -1    0    0    0    0 -0.00000000000E+00 -0.00000000000E+00 -0.18250000000E+03  0.18250000000E+03  0.00000000000E+00 0. -1.
        -11    1    1    2    0    0  0.37665678043E+01 -0.46494332901E+00  0.16448691674E+03  0.16453069314E+03  0.00000000000E+00 0. -1.
         11    1    1    2    0    0  0.30818004265E+01  0.26525957870E+01 -0.17315190553E+03  0.17319964246E+03  0.00000000000E+00 0. -1.
        -15    1    1    2    0    0 -0.21394193117E+01 -0.76405009438E+00 -0.86834277809E+01  0.91498925985E+01  0.17770000000E+01 0. -1.
         15    1    1    2    0    0 -0.47089489191E+01 -0.14236023636E+01  0.17348416575E+02  0.18119771805E+02  0.17770000000E+01 0.  1.
</event>
<event>
 6    1  0.1196607E-002  0.1841482E+03  0.7546771E-02  0.1067150E+00
        -11   -1    0    0    0    0  0.00000000000E+00  0.00000000000E+00  0.18250000000E+03  0.18250000000E+03  0.00000000000E+00 0. -1.
         11   -1    0    0    0    0 -0.00000000000E+00 -0.00000000000E+00 -0.18250000000E+03  0.18250000000E+03  0.00000000000E+00 0.  1.
        -11    1    1    2    0    0  0.32596209200E+01 -0.12308831978E+01  0.16300539092E+03  0.16304262532E+03  0.00000000000E+00 0. -1.
         11    1    1    2    0    0  0.23978902461E+01 -0.78108323721E+00 -0.18083425207E+03  0.18085183630E+03  0.00000000000E+00 0.  1.
        -15    1    1    2    0    0 -0.42987671685E+01 -0.20123871560E-01  0.17450475262E+02  0.18059806754E+02  0.17770000000E+01 0. -1.
         15    1    1    2    0    0 -0.13587439976E+01  0.20320903066E+01  0.37838589100E+00  0.30457316277E+01  0.17770000000E+01 0.  1.
</event>
<event>
 6    1  0.1196607E-002  0.1864747E+03  0.7546771E-02  0.1065334E+00
        -11   -1    0    0    0    0  0.00000000000E+00  0.00000000000E+00  0.18250000000E+03  0.18250000000E+03  0.00000000000E+00 0.  1.
         11   -1    0    0    0    0 -0.00000000000E+00 -0.00000000000E+00 -0.18250000000E+03  0.18250000000E+03  0.00000000000E+00 0. -1.
        -11    1    1    2    0    0 -0.23448751020E+01 -0.14565112533E+01  0.14504661219E+03  0.14507287676E+03  0.00000000000E+00 0.  1.
         11    1    1    2    0    0 -0.76120402075E+01 -0.41425915703E+01 -0.17831483109E+03  0.17852530131E+03  0.00000000000E+00 0. -1.
        -15    1    1    2    0    0  0.12328211451E+02  0.52293575699E+01  0.35295592530E+02  0.37792427274E+02  0.17770000000E+01 0.  1.
         15    1    1    2    0    0 -0.23712961416E+01  0.36974525375E+00 -0.20273736335E+01  0.36093946575E+01  0.17770000000E+01 0. -1.
</event>
<event>
 6    1  0.1196607E-002  0.1925906E+03  0.7546771E-02  0.1060695E+00
        -11   -1    0    0    0    0  0.00000000000E+00  0.00000000000E+00  0.18250000000E+03  0.18250000000E+03  0.00000000000E+00 0. -1.
         11   -1    0    0    0    0 -0.00000000000E+00 -0.00000000000E+00 -0.18250000000E+03  0.18250000000E+03  0.00000000000E+00 0. -1.
        -11    1    1    2    0    0 -0.44588928341E+01  0.11412605554E+02  0.17197347802E+03  0.17240941515E+03  0.00000000000E+00 0. -1.
         11    1    1    2    0    0  0.12026231751E+01  0.33756579202E-01 -0.74954282070E+02  0.74963936947E+02  0.00000000000E+00 0. -1.
        -15    1    1    2    0    0  0.49116101560E+00 -0.48388887648E+00 -0.10413354673E+03  0.10415098978E+03  0.17770000000E+01 0. -1.
         15    1    1    2    0    0  0.27651086434E+01 -0.10962473257E+02  0.71143507810E+01  0.13475658120E+02  0.17770000000E+01 0. -1.
</event>
<event>
 6    1  0.1196607E-002  0.1842637E+03  0.7546771E-02  0.1067060E+00
        -11   -1    0    0    0    0  0.00000000000E+00  0.00000000000E+00  0.18250000000E+03  0.18250000000E+03  0.00000000000E+00 0.  1.
         11   -1    0    0    0    0 -0.00000000000E+00 -0.00000000000E+00 -0.18250000000E+03  0.18250000000E+03  0.00000000000E+00 0. -1.
        -11    1    1    2    0    0 -0.17347500135E+01  0.16818677334E+01  0.20378210272E+02  0.20520952477E+02  0.00000000000E+00 0.  1.
         11    1    1    2    0    0 -0.12787346730E+01 -0.29385865265E+01 -0.18070792731E+03  0.18073634235E+03  0.00000000000E+00 0. -1.
        -15    1    1    2    0    0  0.28962525871E+01  0.41414986698E+01  0.16026233024E+03  0.16035183975E+03  0.17770000000E+01 0.  1.
         15    1    1    2    0    0  0.11723209936E+00 -0.28847798767E+01  0.67386799835E-01  0.33908654180E+01  0.17770000000E+01 0. -1.
</event>
<event>
 6    1  0.1196607E-002  0.1683643E+03  0.7546771E-02  0.1080299E+00
        -11   -1    0    0    0    0  0.00000000000E+00  0.00000000000E+00  0.18250000000E+03  0.18250000000E+03  0.00000000000E+00 0. -1.
         11   -1    0    0    0    0 -0.00000000000E+00 -0.00000000000E+00 -0.18250000000E+03  0.18250000000E+03  0.00000000000E+00 0.  1.
        -11    1    1    2    0    0 -0.69288468861E+01 -0.32662989787E+01  0.16919721746E+03  0.16937052880E+03  0.00000000000E+00 0. -1.
         11    1    1    2    0    0 -0.61831002702E-01  0.32967152127E+01 -0.16740290868E+03  0.16743537855E+03  0.00000000000E+00 0.  1.
        -15    1    1    2    0    0  0.49399075229E+01  0.33693187778E+01  0.12111640813E+02  0.13623676726E+02  0.17770000000E+01 0.  1.
         15    1    1    2    0    0  0.20507703659E+01 -0.33997350119E+01 -0.13905949592E+02  0.14570415928E+02  0.17770000000E+01 0.  1.
</event>
<event>
 6    1  0.1196607E-002  0.1828392E+03  0.7546771E-02  0.1068185E+00
        -11   -1    0    0    0    0  0.00000000000E+00  0.00000000000E+00  0.18250000000E+03  0.18250000000E+03  0.00000000000E+00 0. -1.
         11   -1    0    0    0    0 -0.00000000000E+00 -0.00000000000E+00 -0.18250000000E+03  0.18250000000E+03  0.00000000000E+00 0. -1.
        -11    1    1    2    0    0  0.51293136589E+01 -0.76461429918E+00  0.18208701052E+03  0.18216084622E+03  0.00000000000E+00 0. -1.
         11    1    1    2    0    0 -0.29956351437E-02 -0.17553929665E+01 -0.74488586039E+02  0.74509266964E+02  0.00000000000E+00 0. -1.
        -15    1    1    2    0    0  0.28308812559E+01  0.26497263437E+01 -0.45229638377E+02  0.45430307671E+02  0.17770000000E+01 0.  1.
         15    1    1    2    0    0 -0.79571992796E+01 -0.12971907802E+00 -0.62368786107E+02  0.62899579147E+02  0.17770000000E+01 0.  1.
</event>
<event>
 6    1  0.1196607E-002  0.1830984E+03  0.7546771E-02  0.1067979E+00
        -11   -1    0    0    0    0  0.00000000000E+00  0.00000000000E+00  0.18250000000E+03  0.18250000000E+03  0.00000000000E+00 0. -1.
         11   -1    0    0    0    0 -0.00000000000E+00 -0.00000000000E+00 -0.18250000000E+03  0.18250000000E+03  0.00000000000E+00 0. -1.
        -11    1    1    2    0    0  0.42357703499E+01  0.43992056430E+00  0.18185173643E+03  0.18190159241E+03  0.00000000000E+00 0. -1.
         11    1    1    2    0    0 -0.75818753313E+00 -0.33829175978E+01 -0.11911715556E+03  0.11916759513E+03  0.00000000000E+00 0. -1.
        -15    1    1    2    0    0  0.90498212347E-01  0.31789571094E+01 -0.55875144479E+02  0.55993780528E+02  0.17770000000E+01 0.  1.
         15    1    1    2    0    0 -0.35680810291E+01 -0.23596007589E+00 -0.68594363853E+01  0.79370319334E+01  0.17770000000E+01 0. -1.
</event>
<event>
 6    1  0.1196607E-002  0.1830433E+03  0.7546771E-02  0.1068023E+00
        -11   -1    0    0    0    0  0.00000000000E+00  0.00000000000E+00  0.18250000000E+03  0.18250000000E+03  0.00000000000E+00 0.  1.
         11   -1    0    0    0    0 -0.00000000000E+00 -0.00000000000E+00 -0.18250000000E+03  0.18250000000E+03  0.00000000000E+00 0.  1.
        -11    1    1    2    0    0 -0.19017880194E+00 -0.27609490988E+01  0.15364640386E+03  0.15367132598E+03  0.00000000000E+00 0.  1.
         11    1    1    2    0    0 -0.26131552392E+01  0.19596819735E+00 -0.18193786925E+03  0.18195674005E+03  0.00000000000E+00 0.  1.
        -15    1    1    2    0    0  0.36901458867E+01  0.10533904934E+01  0.24293811814E+02  0.24659153060E+02  0.17770000000E+01 0.  1.
         15    1    1    2    0    0 -0.88681184559E+00  0.15115904081E+01  0.39976535703E+01  0.47127809072E+01  0.17770000000E+01 0. -1.
</event>
<event>
 6    1  0.1196607E-002  0.1832491E+03  0.7546771E-02  0.1067860E+00
        -11   -1    0    0    0    0  0.00000000000E+00  0.00000000000E+00  0.18250000000E+03  0.18250000000E+03  0.00000000000E+00 0. -1.
         11   -1    0    0    0    0 -0.00000000000E+00 -0.00000000000E+00 -0.18250000000E+03  0.18250000000E+03  0.00000000000E+00 0.  1.
        -11    1    1    2    0    0 -0.90678898551E+00  0.52925429349E+00  0.71346525058E+02  0.71354250148E+02  0.00000000000E+00 0. -1.
         11    1    1    2    0    0  0.36643150321E+01 -0.47489526504E+01 -0.18165194042E+03  0.18175094832E+03  0.00000000000E+00 0.  1.
        -15    1    1    2    0    0 -0.27995890698E+01  0.28812192374E+01  0.10940704633E+03  0.10949519916E+03  0.17770000000E+01 0. -1.
         15    1    1    2    0    0  0.42063023169E-01  0.13384791196E+01  0.89836903346E+00  0.23996023778E+01  0.17770000000E+01 0. -1.
</event>
<event>
 6    1  0.1196607E-002  0.1842580E+03  0.7546771E-02  0.1067064E+00
        -11   -1    0    0    0    0  0.00000000000E+00  0.00000000000E+00  0.18250000000E+03  0.18250000000E+03  0.00000000000E+00 0. -1.
         11   -1    0    0    0    0 -0.00000000000E+00 -0.00000000000E+00 -0.18250000000E+03  0.18250000000E+03  0.00000000000E+00 0. -1.
        -11    1    1    2    0    0  0.21345681232E+01  0.38779860540E+01  0.18068783364E+03  0.18074204929E+03  0.00000000000E+00 0. -1.
         11    1    1    2    0    0  0.26647094234E+01 -0.14391429655E+01 -0.17330864830E+03  0.17333510719E+03  0.00000000000E+00 0. -1.
        -15    1    1    2    0    0 -0.36762297435E+01 -0.14060547251E+01 -0.14624477668E+01  0.45594010010E+01  0.17770000000E+01 0. -1.
         15    1    1    2    0    0 -0.11230478030E+01 -0.10327883635E+01 -0.59167375725E+01  0.63634425175E+01  0.17770000000E+01 0.  1.
</event>
<event>
 6    1  0.1196607E-002  0.1890582E+03  0.7546771E-02  0.1063351E+00
        -11   -1    0    0    0    0  0.00000000000E+00  0.00000000000E+00  0.18250000000E+03  0.18250000000E+03  0.00000000000E+00 0. -1.
         11   -1    0    0    0    0 -0.00000000000E+00 -0.00000000000E+00 -0.18250000000E+03  0.18250000000E+03  0.00000000000E+00 0. -1.
        -11    1    1    2    0    0 -0.26001412097E+01  0.91629938192E+00  0.16559858798E+03  0.16562153447E+03  0.00000000000E+00 0. -1.
         11    1    1    2    0    0 -0.31125371484E+01 -0.25478059164E+01 -0.17589579914E+03  0.17594178400E+03  0.00000000000E+00 0. -1.
        -15    1    1    2    0    0  0.17414077464E+01  0.18468983431E+00 -0.60046489754E+01  0.65023187858E+01  0.17770000000E+01 0.  1.
         15    1    1    2    0    0  0.39712706117E+01  0.14468167002E+01  0.16301860136E+02  0.16934362749E+02  0.17770000000E+01 0. -1.
</event>
<event>
 6    1  0.1196607E-002  0.1841706E+03  0.7546771E-02  0.1067133E+00
        -11   -1    0    0    0    0  0.00000000000E+00  0.00000000000E+00  0.18250000000E+03  0.18250000000E+03  0.00000000000E+00 0.  1.
         11   -1    0    0    0    0 -0.00000000000E+00 -0.00000000000E+00 -0.18250000000E+03  0.18250000000E+03  0.00000000000E+00 0.  1.
        -11    1    1    2    0    0 -0.22907574287E+01  0.38331788963E+01  0.18077423905E+03  0.18082938460E+03  0.00000000000E+00 0.  1.
         11    1    1    2    0    0 -0.39460710560E+00 -0.28217840013E+01 -0.16622048321E+03  0.16624490133E+03  0.00000000000E+00 0.  1.
        -15    1    1    2    0    0  0.70269705260E+00  0.20913607088E+01 -0.13373526392E+02  0.13670278341E+02  0.17770000000E+01 0.  1.
         15    1    1    2    0    0  0.19826674817E+01 -0.31027556038E+01 -0.11802294461E+01  0.42554357269E+01  0.17770000000E+01 0. -1.
</event>
<event>
 6    1  0.1196607E-002  0.1829948E+03  0.7546771E-02  0.1068062E+00
        -11   -1    0    0    0    0  0.00000000000E+00  0.00000000000E+00  0.18250000000E+03  0.18250000000E+03  0.00000000000E+00 0.  1.
         11   -1    0    0    0    0 -0.00000000000E+00 -0.00000000000E+00 -0.18250000000E+03  0.18250000000E+03  0.00000000000E+00 0.  1.
        -11    1    1    2    0    0  0.13386345081E+01  0.47801830276E+00  0.21794295054E+02  0.21840598452E+02  0.00000000000E+00 0.  1.
         11    1    1    2    0    0 -0.41194514851E+01  0.85425210150E+00 -0.18195661554E+03  0.18200524599E+03  0.00000000000E+00 0.  1.
        -15    1    1    2    0    0  0.53896512377E+01 -0.26870414464E+01  0.20283146498E+02  0.21232811708E+02  0.17770000000E+01 0.  1.
         15    1    1    2    0    0 -0.26088342607E+01  0.13547710421E+01  0.13987917399E+03  0.13992134385E+03  0.17770000000E+01 0.  1.
</event>
<event>
 6    1  0.1196607E-002  0.1874755E+03  0.7546771E-02  0.1064562E+00
        -11   -1    0    0    0    0  0.00000000000E+00  0.00000000000E+00  0.18250000000E+03  0.18250000000E+03  0.00000000000E+00 0.  1.
         11   -1    0    0    0    0 -0.00000000000E+00 -0.00000000000E+00 -0.18250000000E+03  0.18250000000E+03  0.00000000000E+00 0. -1.
        -11    1    1    2    0    0 -0.15630262619E+01  0.22254013508E+01  0.17750363231E+03  0.17752446295E+03  0.00000000000E+00 0.  1.
         11    1    1    2    0    0 -0.90743616801E+01 -0.10922762199E+02 -0.15832665895E+03  0.15896220213E+03  0.00000000000E+00 0. -1.
        -15    1    1    2    0    0  0.10226905837E+02  0.69282934098E+01 -0.39708862304E+01  0.13096431538E+02  0.17770000000E+01 0.  1.
         15    1    1    2    0    0  0.41048210469E+00  0.17690674385E+01 -0.15206087129E+02  0.15416903383E+02  0.17770000000E+01 0. -1.
</event>
<event>
 6    1  0.1196607E-002  0.1833794E+03  0.7546771E-02  0.1067757E+00
        -11   -1    0    0    0    0  0.00000000000E+00  0.00000000000E+00  0.18250000000E+03  0.18250000000E+03  0.00000000000E+00 0.  1.
         11   -1    0    0    0    0 -0.00000000000E+00 -0.00000000000E+00 -0.18250000000E+03  0.18250000000E+03  0.00000000000E+00 0.  1.
        -11    1    1    2    0    0  0.19660768717E+01  0.40516340463E+01  0.18156479203E+03  0.18162063457E+03  0.00000000000E+00 0.  1.
         11    1    1    2    0    0  0.35252867975E+01  0.13962429389E+01 -0.13264204332E+03  0.13269622752E+03  0.00000000000E+00 0.  1.
        -15    1    1    2    0    0 -0.74457720110E+00  0.11389249539E+00 -0.33162818748E+02  0.33218935007E+02  0.17770000000E+01 0.  1.
         15    1    1    2    0    0 -0.47467864680E+01 -0.55617694806E+01 -0.15759929960E+02  0.17464202899E+02  0.17770000000E+01 0. -1.
</event>
<event>
 6    1  0.1196607E-002  0.1531981E+03  0.7546771E-02  0.1094513E+00
        -11   -1    0    0    0    0  0.00000000000E+00  0.00000000000E+00  0.18250000000E+03  0.18250000000E+03  0.00000000000E+00 0.  1.
         11   -1    0    0    0    0 -0.00000000000E+00 -0.00000000000E+00 -0.18250000000E+03  0.18250000000E+03  0.00000000000E+00 0. -1.
        -11    1    1    2    0    0 -0.30157889594E+01 -0.84906323599E+01  0.16436990559E+03  0.16461668106E+03  0.00000000000E+00 0.  1.
         11    1    1    2    0    0  0.24110955029E+02 -0.23083777161E+02 -0.14110459053E+03  0.14499898065E+03  0.00000000000E+00 0. -1.
        -15    1    1    2    0    0 -0.28812803480E+02  0.30602374435E+02 -0.21357913015E+02  0.47180516560E+02  0.17770000000E+01 0. -1.
         15    1    1    2    0    0  0.77176374103E+01  0.97203508557E+00 -0.19074020365E+01  0.82038217273E+01  0.17770000000E+01 0.  1.
</event>
<event>
 6    1  0.1196607E-002  0.1763616E+03  0.7546771E-02  0.1073449E+00
        -11   -1    0    0    0    0  0.00000000000E+00  0.00000000000E+00  0.18250000000E+03  0.18250000000E+03  0.00000000000E+00 0. -1.
         11   -1    0    0    0    0 -0.00000000000E+00 -0.00000000000E+00 -0.18250000000E+03  0.18250000000E+03  0.00000000000E+00 0.  1.
        -11    1    1    2    0    0  0.59974039816E+01 -0.27721776441E+01  0.17480136750E+03  0.17492618987E+03  0.00000000000E+00 0. -1.
         11    1    1    2    0    0  0.24539317032E+01  0.54805847296E+01 -0.17782023754E+03  0.17792159922E+03  0.00000000000E+00 0.  1.
        -15    1    1    2    0    0 -0.51144077025E+01 -0.37363203376E+01 -0.86562551234E+00  0.66350804321E+01  0.17770000000E+01 0. -1.
         15    1    1    2    0    0 -0.33369279822E+01  0.10279132521E+01  0.38844955512E+01  0.55171304770E+01  0.17770000000E+01 0.  1.
</event>
<event>
 6    1  0.1196607E-002  0.1744684E+03  0.7546771E-02  0.1075034E+00
        -11   -1    0    0    0    0  0.00000000000E+00  0.00000000000E+00  0.18250000000E+03  0.18250000000E+03  0.00000000000E+00 0. -1.
         11   -1    0    0    0    0 -0.00000000000E+00 -0.00000000000E+00 -0.18250000000E+03  0.18250000000E+03  0.00000000000E+00 0. -1.
        -11    1    1    2    0    0 -0.32219226714E+01 -0.69043002643E+00  0.17516257552E+03  0.17519356536E+03  0.00000000000E+00 0. -1.
         11    1    1    2    0    0 -0.24393481693E+01 -0.54733016055E-01 -0.17377564254E+03  0.17379277130E+03  0.00000000000E+00 0. -1.
        -15    1    1    2    0    0 -0.32910697761E-01 -0.14072765272E+01 -0.71154677873E+01  0.74678726000E+01  0.17770000000E+01 0.  1.
         15    1    1    2    0    0  0.56941815384E+01  0.21524395697E+01  0.57285348031E+01  0.85457907466E+01  0.17770000000E+01 0. -1.
</event>
<event>
 6    1  0.1196607E-002  0.1839479E+03  0.7546771E-02  0.1067308E+00
        -11   -1    0    0    0    0  0.00000000000E+00  0.00000000000E+00  0.18250000000E+03  0.18250000000E+03  0.00000000000E+00 0.  1.
         11   -1    0    0    0    0 -0.00000000000E+00 -0.00000000000E+00 -0.18250000000E+03  0.18250000000E+03  0.00000000000E+00 0.  1.
        -11    1    1    2    0    0 -0.35065013754E+01 -0.32702619042E+01  0.16474171085E+03  0.16481147247E+03  0.00000000000E+00 0.  1.
         11    1    1    2    0    0 -0.10407492563E+01  0.30472749196E+01 -0.18102347792E+03  0.18105211571E+03  0.00000000000E+00 0.  1.
        -15    1    1    2    0    0  0.29986809730E+01 -0.39214579437E+01  0.76684631923E+01  0.92915540526E+01  0.17770000000E+01 0.  1.
         15    1    1    2    0    0  0.15485696588E+01  0.41444449283E+01  0.86133038833E+01  0.98448577713E+01  0.17770000000E+01 0.  1.
</event>
<event>
 6    1  0.1196607E-002  0.9909460E+02  0.7546771E-02  0.1165391E+00
        -11   -1    0    0    0    0  0.00000000000E+00  0.00000000000E+00  0.18250000000E+03  0.18250000000E+03  0.00000000000E+00 0. -1.
         11   -1    0    0    0    0 -0.00000000000E+00 -0.00000000000E+00 -0.18250000000E+03  0.18250000000E+03  0.00000000000E+00 0. -1.
        -11    1    1    2    0    0 -0.21203873970E+00  0.13771589383E+01  0.81387655471E+02  0.81399582249E+02  0.00000000000E+00 0. -1.
         11    1    1    2    0    0 -0.81584346593E+01  0.50871620395E+02 -0.57304005981E+02  0.77059917721E+02  0.00000000000E+00 0. -1.
        -15    1    1    2    0    0  0.59552808542E+02  0.37525807079E+02  0.43765024630E+02  0.82905116320E+02  0.17770000000E+01 0.  1.
         15    1    1    2    0    0 -0.51182335143E+02 -0.89774586412E+02 -0.67848674120E+02  0.12363538371E+03  0.17770000000E+01 0. -1.
</event>
<event>
 6    1  0.1196607E-002  0.1828189E+03  0.7546771E-02  0.1068201E+00
        -11   -1    0    0    0    0  0.00000000000E+00  0.00000000000E+00  0.18250000000E+03  0.18250000000E+03  0.00000000000E+00 0. -1.
         11   -1    0    0    0    0 -0.00000000000E+00 -0.00000000000E+00 -0.18250000000E+03  0.18250000000E+03  0.00000000000E+00 0. -1.
        -11    1    1    2    0    0  0.31801861096E+01  0.12687113033E+01  0.13511606812E+03  0.13515944316E+03  0.00000000000E+00 0. -1.
         11    1    1    2    0    0  0.83683626372E+00  0.41579220096E+01 -0.18213176054E+03  0.18218113736E+03  0.00000000000E+00 0. -1.
        -15    1    1    2    0    0 -0.18431529856E+01 -0.31399190621E+01  0.20388837159E+02  0.20787465318E+02  0.17770000000E+01 0. -1.
         15    1    1    2    0    0 -0.21738693877E+01 -0.22867142508E+01  0.26626855265E+02  0.26871954162E+02  0.17770000000E+01 0.  1.
</event>
<event>
 6    1  0.1196607E-002  0.1827855E+03  0.7546771E-02  0.1068228E+00
        -11   -1    0    0    0    0  0.00000000000E+00  0.00000000000E+00  0.18250000000E+03  0.18250000000E+03  0.00000000000E+00 0.  1.
         11   -1    0    0    0    0 -0.00000000000E+00 -0.00000000000E+00 -0.18250000000E+03  0.18250000000E+03  0.00000000000E+00 0.  1.
        -11    1    1    2    0    0  0.10783328885E+02  0.31405338743E+01  0.18186799330E+03  0.18221446189E+03  0.00000000000E+00 0.  1.
         11    1    1    2    0    0  0.24290141504E+00 -0.69821267660E+00 -0.35053557080E+02  0.35061351457E+02  0.00000000000E+00 0.  1.
        -15    1    1    2    0    0 -0.61418327418E+01 -0.23870799968E+01 -0.12864392136E+03  0.12882482872E+03  0.17770000000E+01 0.  1.
         15    1    1    2    0    0 -0.48843975580E+01 -0.55241200897E-01 -0.18170514859E+02  0.18899357935E+02  0.17770000000E+01 0. -1.
</event>
<event>
 6    1  0.1196607E-002  0.2000083E+03  0.7546771E-02  0.1055314E+00
        -11   -1    0    0    0    0  0.00000000000E+00  0.00000000000E+00  0.18250000000E+03  0.18250000000E+03  0.00000000000E+00 0. -1.
         11   -1    0    0    0    0 -0.00000000000E+00 -0.00000000000E+00 -0.18250000000E+03  0.18250000000E+03  0.00000000000E+00 0.  1.
        -11    1    1    2    0    0 -0.75574906620E-01 -0.74553859036E+01  0.10231821476E+03  0.10258950026E+03  0.00000000000E+00 0. -1.
         11    1    1    2    0    0 -0.14562630844E+01 -0.12237192836E+02 -0.16453079357E+03  0.16499167137E+03  0.00000000000E+00 0.  1.
        -15    1    1    2    0    0 -0.19404329084E+02  0.32321653065E+02  0.62374256356E+02  0.72903517261E+02  0.17770000000E+01 0. -1.
         15    1    1    2    0    0  0.20936167075E+02 -0.12629074326E+02 -0.16167755084E+00  0.24515311108E+02  0.17770000000E+01 0.  1.
</event>
<event>
 6    1  0.1196607E-002  0.1841464E+03  0.7546771E-02  0.1067152E+00
        -11   -1    0    0    0    0  0.00000000000E+00  0.00000000000E+00  0.18250000000E+03  0.18250000000E+03  0.00000000000E+00 0. -1.
         11   -1    0    0    0    0 -0.00000000000E+00 -0.00000000000E+00 -0.18250000000E+03  0.18250000000E+03  0.00000000000E+00 0. -1.
        -11    1    1    2    0    0 -0.32419893777E+01 -0.26049497253E+01  0.18080581481E+03  0.18085363952E+03  0.00000000000E+00 0. -1.
         11    1    1    2    0    0  0.26784494848E+01  0.82871508100E+00 -0.16410934289E+03  0.16413329121E+03  0.00000000000E+00 0. -1.
        -15    1    1    2    0    0 -0.15192008013E+01 -0.28770984520E+01 -0.12876016699E+02  0.13399074655E+02  0.17770000000E+01 0.  1.
         15    1    1    2    0    0  0.20827406942E+01  0.46533330963E+01 -0.38204552217E+01  0.66139946179E+01  0.17770000000E+01 0. -1.
</event>
<event>
 6    1  0.1196607E-002  0.1858315E+03  0.7546771E-02  0.1065833E+00
        -11   -1    0    0    0    0  0.00000000000E+00  0.00000000000E+00  0.18250000000E+03  0.18250000000E+03  0.00000000000E+00 0.  1.
         11   -1    0    0    0    0 -0.00000000000E+00 -0.00000000000E+00 -0.18250000000E+03  0.18250000000E+03  0.00000000000E+00 0. -1.
        -11    1    1    2    0    0 -0.23551441057E+01 -0.80934895265E+01  0.17897014488E+03  0.17916853528E+03  0.00000000000E+00 0.  1.
         11    1    1    2    0    0  0.35818497995E+01  0.31194173588E+01 -0.15702630734E+03  0.15709812733E+03  0.00000000000E+00 0. -1.
        -15    1    1    2    0    0  0.22715645231E+01  0.16033428739E+01  0.22492443143E+01  0.39934374591E+01  0.17770000000E+01 0. -1.
         15    1    1    2    0    0 -0.34982702169E+01  0.33707292938E+01 -0.24193081852E+02  0.24739899938E+02  0.17770000000E+01 0.  1.
</event>
<event>
 6    1  0.1196607E-002  0.1708663E+03  0.7546771E-02  0.1078112E+00
        -11   -1    0    0    0    0  0.00000000000E+00  0.00000000000E+00  0.18250000000E+03  0.18250000000E+03  0.00000000000E+00 0.  1.
         11   -1    0    0    0    0 -0.00000000000E+00 -0.00000000000E+00 -0.18250000000E+03  0.18250000000E+03  0.00000000000E+00 0.  1.
        -11    1    1    2    0    0 -0.77151917430E+01 -0.14062378511E+01  0.16759969695E+03  0.16778307455E+03  0.00000000000E+00 0.  1.
         11    1    1    2    0    0 -0.58090521635E+01  0.32762943183E+01 -0.17415726531E+03  0.17428491688E+03  0.00000000000E+00 0.  1.
        -15    1    1    2    0    0  0.11875119729E+02  0.10531197065E+01  0.11526708617E+02  0.16677837697E+02  0.17770000000E+01 0. -1.
         15    1    1    2    0    0  0.16491241772E+01 -0.29231761736E+01 -0.49691402548E+01  0.62541708776E+01  0.17770000000E+01 0.  1.
</event>
<event>
 6    1  0.1196607E-002  0.1828764E+03  0.7546771E-02  0.1068156E+00
        -11   -1    0    0    0    0  0.00000000000E+00  0.00000000000E+00  0.18250000000E+03  0.18250000000E+03  0.00000000000E+00 0.  1.
         11   -1    0    0    0    0 -0.00000000000E+00 -0.00000000000E+00 -0.18250000000E+03  0.18250000000E+03  0.00000000000E+00 0. -1.
        -11    1    1    2    0    0 -0.10307727114E+01 -0.10203789633E+01  0.69405642969E+02  0.69420796175E+02  0.00000000000E+00 0.  1.
         11    1    1    2    0    0  0.26071937182E+01 -0.78004881618E-01 -0.18210491201E+03  0.18212359134E+03  0.00000000000E+00 0. -1.
        -15    1    1    2    0    0  0.13392273304E+01  0.29049182564E+01  0.10224531054E+03  0.10231076843E+03  0.17770000000E+01 0.  1.
         15    1    1    2    0    0 -0.29156483371E+01 -0.18065344115E+01  0.10453958501E+02  0.11144844061E+02  0.17770000000E+01 0. -1.
</event>
<event>
 6    1  0.1196607E-002  0.1853412E+03  0.7546771E-02  0.1066215E+00
        -11   -1    0    0    0    0  0.00000000000E+00  0.00000000000E+00  0.18250000000E+03  0.18250000000E+03  0.00000000000E+00 0.  1.
         11   -1    0    0    0    0 -0.00000000000E+00 -0.00000000000E+00 -0.18250000000E+03  0.18250000000E+03  0.00000000000E+00 0. -1.
        -11    1    1    2    0    0  0.40670554323E+01 -0.85074480934E-02  0.17961271232E+03  0.17965875275E+03  0.00000000000E+00 0.  1.
         11    1    1    2    0    0  0.29574068947E+01 -0.28670438853E+01 -0.17409553017E+03  0.17414425003E+03  0.00000000000E+00 0. -1.
        -15    1    1    2    0    0 -0.72311712330E+01  0.18297164200E+01 -0.42228400529E+01  0.87537310154E+01  0.17770000000E+01 0. -1.
         15    1    1    2    0    0  0.20670890603E+00  0.10458349134E+01 -0.12943421031E+01  0.24432661987E+01  0.17770000000E+01 0.  1.
</event>
<event>
 6    1  0.1455741E-002  0.2033476E+03  0.7546771E-02  0.1052974E+00
        -11   -1    0    0    0    0  0.00000000000E+00  0.00000000000E+00  0.18250000000E+03  0.18250000000E+03  0.00000000000E+00 0.  1.
         11   -1    0    0    0    0 -0.00000000000E+00 -0.00000000000E+00 -0.18250000000E+03  0.18250000000E+03  0.00000000000E+00 0.  1.
        -11    1    1    2    0    0 -0.61058619612E+01  0.16605884239E+01 -0.10920218981E+02  0.12621025584E+02  0.00000000000E+00 0.  1.
         11    1    1    2    0    0  0.29248106754E+01  0.36949730796E+01 -0.14895681426E+03  0.14903133851E+03  0.00000000000E+00 0.  1.
        -15    1    1    2    0    0  0.21305274416E+02 -0.50696404060E+02  0.14031354539E+03  0.15071525752E+03  0.17770000000E+01 0.  1.
         15    1    1    2    0    0 -0.18124223130E+02  0.45340842557E+02  0.19563487858E+02  0.52632378381E+02  0.17770000000E+01 0. -1.
</event>
<event>
 6    1  0.1196607E-002  0.1867710E+03  0.7546771E-02  0.1065105E+00
        -11   -1    0    0    0    0  0.00000000000E+00  0.00000000000E+00  0.18250000000E+03  0.18250000000E+03  0.00000000000E+00 0.  1.
         11   -1    0    0    0    0 -0.00000000000E+00 -0.00000000000E+00 -0.18250000000E+03  0.18250000000E+03  0.00000000000E+00 0.  1.
        -11    1    1    2    0    0 -0.28343166153E+01  0.11085811972E+01  0.17820298717E+03  0.17822897335E+03  0.00000000000E+00 0.  1.
         11    1    1    2    0    0  0.46641363378E+00 -0.31037595923E+01 -0.15990362103E+03  0.15993442057E+03  0.00000000000E+00 0.  1.
        -15    1    1    2    0    0 -0.29349461351E+01  0.22760279250E+01  0.28180752157E+01  0.49893375164E+01  0.17770000000E+01 0.  1.
         15    1    1    2    0    0  0.53028491166E+01 -0.28084952988E+00 -0.21117441358E+02  0.21847268564E+02  0.17770000000E+01 0. -1.
</event>
<event>
 6    1  0.1196607E-002  0.1955849E+03  0.7546771E-02  0.1058491E+00
        -11   -1    0    0    0    0  0.00000000000E+00  0.00000000000E+00  0.18250000000E+03  0.18250000000E+03  0.00000000000E+00 0. -1.
         11   -1    0    0    0    0 -0.00000000000E+00 -0.00000000000E+00 -0.18250000000E+03  0.18250000000E+03  0.00000000000E+00 0.  1.
        -11    1    1    2    0    0 -0.71597125858E+00 -0.29090486988E+01  0.16433368194E+03  0.16436098747E+03  0.00000000000E+00 0. -1.
         11    1    1    2    0    0 -0.25117165071E+01  0.85870125962E+00 -0.16939429940E+03  0.16941509602E+03  0.00000000000E+00 0.  1.
        -15    1    1    2    0    0  0.43078598308E+01  0.64788504798E+00  0.17712037293E+02  0.18326249083E+02  0.17770000000E+01 0. -1.
         15    1    1    2    0    0 -0.10801720651E+01  0.14024623912E+01 -0.12651419834E+02  0.12897667435E+02  0.17770000000E+01 0. -1.
</event>
<event>
 6    1  0.1196607E-002  0.1837193E+03  0.7546771E-02  0.1067488E+00
        -11   -1    0    0    0    0  0.00000000000E+00  0.00000000000E+00  0.18250000000E+03  0.18250000000E+03  0.00000000000E+00 0.  1.
         11   -1    0    0    0    0 -0.00000000000E+00 -0.00000000000E+00 -0.18250000000E+03  0.18250000000E+03  0.00000000000E+00 0. -1.
        -11    1    1    2    0    0  0.14116522586E+01  0.38919314812E+01  0.54360611731E+02  0.54518033718E+02  0.00000000000E+00 0.  1.
         11    1    1    2    0    0 -0.21022641085E+01  0.61448885170E+01 -0.18116427790E+03  0.18128065191E+03  0.00000000000E+00 0. -1.
        -15    1    1    2    0    0 -0.80651978951E+01 -0.12123549670E+02  0.59826178856E+02  0.61598354517E+02  0.17770000000E+01 0.  1.
         15    1    1    2    0    0  0.87558097450E+01  0.20867296719E+01  0.66977487315E+02  0.67602959854E+02  0.17770000000E+01 0. -1.
</event>
<event>
 6    1  0.1196607E-002  0.1863331E+03  0.7546771E-02  0.1065444E+00
        -11   -1    0    0    0    0  0.00000000000E+00  0.00000000000E+00  0.18250000000E+03  0.18250000000E+03  0.00000000000E+00 0.  1.
         11   -1    0    0    0    0 -0.00000000000E+00 -0.00000000000E+00 -0.18250000000E+03  0.18250000000E+03  0.00000000000E+00 0. -1.
        -11    1    1    2    0    0  0.37932861807E+01 -0.35994634106E+01  0.17859034957E+03  0.17866689149E+03  0.00000000000E+00 0.  1.
         11    1    1    2    0    0  0.14996224882E+01  0.21495557594E+01 -0.14958887253E+03  0.14961183189E+03  0.00000000000E+00 0. -1.
        -15    1    1    2    0    0  0.39818277353E+01  0.68953176857E+01 -0.22719263531E+02  0.24139656636E+02  0.17770000000E+01 0.  1.
         15    1    1    2    0    0 -0.92747364041E+01 -0.54454100345E+01 -0.62822135058E+01  0.12581619981E+02  0.17770000000E+01 0. -1.
</event>
<event>
 6    1  0.1196607E-002  0.1902624E+03  0.7546771E-02  0.1062439E+00
        -11   -1    0    0    0    0  0.00000000000E+00  0.00000000000E+00  0.18250000000E+03  0.18250000000E+03  0.00000000000E+00 0. -1.
         11   -1    0    0    0    0 -0.00000000000E+00 -0.00000000000E+00 -0.18250000000E+03  0.18250000000E+03  0.00000000000E+00 0. -1.
        -11    1    1    2    0    0  0.16549790797E+01  0.19429243070E+01  0.17471894336E+03  0.17473758348E+03  0.00000000000E+00 0. -1.
         11    1    1    2    0    0 -0.58231133529E+01 -0.12066797320E+02 -0.16374763334E+03  0.16429486806E+03  0.00000000000E+00 0. -1.
        -15    1    1    2    0    0  0.40145544473E+01  0.53738500824E+01  0.54224484581E+01  0.88065650739E+01  0.17770000000E+01 0. -1.
         15    1    1    2    0    0  0.15357982584E+00  0.47500229308E+01 -0.16393758479E+02  0.17160983383E+02  0.17770000000E+01 0.  1.
</event>
<event>
 6    1  0.1196607E-002  0.1664619E+03  0.7546771E-02  0.1081990E+00
        -11   -1    0    0    0    0  0.00000000000E+00  0.00000000000E+00  0.18250000000E+03  0.18250000000E+03  0.00000000000E+00 0.  1.
         11   -1    0    0    0    0 -0.00000000000E+00 -0.00000000000E+00 -0.18250000000E+03  0.18250000000E+03  0.00000000000E+00 0. -1.
        -11    1    1    2    0    0  0.39751216969E+01  0.27650107931E+01  0.16711617405E+03  0.16718631076E+03  0.00000000000E+00 0.  1.
         11    1    1    2    0    0  0.39581886777E+01 -0.55986959525E+01 -0.16570518325E+03  0.16584697890E+03  0.00000000000E+00 0. -1.
        -15    1    1    2    0    0 -0.10161724447E+01 -0.62674118621E+01  0.12343446838E+02  0.13993979660E+02  0.17770000000E+01 0. -1.
         15    1    1    2    0    0 -0.69171379300E+01  0.91010970215E+01 -0.13754437642E+02  0.17972730677E+02  0.17770000000E+01 0.  1.
</event>
<event>
 6    1  0.1196607E-002  0.1838459E+03  0.7546771E-02  0.1067388E+00
        -11   -1    0    0    0    0  0.00000000000E+00  0.00000000000E+00  0.18250000000E+03  0.18250000000E+03  0.00000000000E+00 0.  1.
         11   -1    0    0    0    0 -0.00000000000E+00 -0.00000000000E+00 -0.18250000000E+03  0.18250000000E+03  0.00000000000E+00 0. -1.
        -11    1    1    2    0    0 -0.26066174573E+01 -0.21738496687E+01  0.81627233382E+02  0.81697768064E+02  0.00000000000E+00 0.  1.
         11    1    1    2    0    0  0.61159438096E+01  0.50223345316E+01 -0.18098114475E+03  0.18115408736E+03  0.00000000000E+00 0. -1.
        -15    1    1    2    0    0 -0.26218104924E+01 -0.94240850094E+01  0.18493848696E+02  0.20996843504E+02  0.17770000000E+01 0.  1.
         15    1    1    2    0    0 -0.88751585997E+00  0.65756001465E+01  0.80860062670E+02  0.81151301072E+02  0.17770000000E+01 0.  1.
</event>
<event>
 6    1  0.1196607E-002  0.1849672E+03  0.7546771E-02  0.1066508E+00
        -11   -1    0    0    0    0  0.00000000000E+00  0.00000000000E+00  0.18250000000E+03  0.18250000000E+03  0.00000000000E+00 0.  1.
         11   -1    0    0    0    0 -0.00000000000E+00 -0.00000000000E+00 -0.18250000000E+03  0.18250000000E+03  0.00000000000E+00 0.  1.
        -11    1    1    2    0    0 -0.10103733917E+01 -0.32938664506E+01  0.17999980606E+03  0.18003277644E+03  0.00000000000E+00 0.  1.
         11    1    1    2    0    0 -0.50965402739E+01 -0.40338425355E+01 -0.16248126754E+03  0.16261122013E+03  0.00000000000E+00 0.  1.
        -15    1    1    2    0    0 -0.11214515037E+00  0.70494983839E+01 -0.76553619946E+01  0.10557949624E+02  0.17770000000E+01 0.  1.
         15    1    1    2    0    0  0.62190588160E+01  0.27821060225E+00 -0.98631765215E+01  0.11798053814E+02  0.17770000000E+01 0. -1.
</event>
<event>
 6    1  0.1196607E-002  0.1826065E+03  0.7546771E-02  0.1068370E+00
        -11   -1    0    0    0    0  0.00000000000E+00  0.00000000000E+00  0.18250000000E+03  0.18250000000E+03  0.00000000000E+00 0. -1.
         11   -1    0    0    0    0 -0.00000000000E+00 -0.00000000000E+00 -0.18250000000E+03  0.18250000000E+03  0.00000000000E+00 0.  1.
        -11    1    1    2    0    0  0.80387243600E+01 -0.19550540003E+01  0.18220576596E+03  0.18239348803E+03  0.00000000000E+00 0. -1.
         11    1    1    2    0    0 -0.86520469127E+00 -0.69656825150E+00 -0.10560815252E+02  0.10619068004E+02  0.00000000000E+00 0.  1.
        -15    1    1    2    0    0 -0.15878879315E+01 -0.53878753708E+00 -0.14778339445E+02  0.14978942748E+02  0.17770000000E+01 0.  1.
         15    1    1    2    0    0 -0.55856317372E+01  0.31904097888E+01 -0.15686661126E+03  0.15700850122E+03  0.17770000000E+01 0.  1.
</event>
<event>
 6    1  0.1196607E-002  0.1883031E+03  0.7546771E-02  0.1063927E+00
        -11   -1    0    0    0    0  0.00000000000E+00  0.00000000000E+00  0.18250000000E+03  0.18250000000E+03  0.00000000000E+00 0.  1.
         11   -1    0    0    0    0 -0.00000000000E+00 -0.00000000000E+00 -0.18250000000E+03  0.18250000000E+03  0.00000000000E+00 0. -1.
        -11    1    1    2    0    0 -0.55176519031E+01  0.37505573398E+01  0.15707994302E+03  0.15722156233E+03  0.00000000000E+00 0.  1.
         11    1    1    2    0    0  0.21129057414E+01 -0.21257647902E+01 -0.17667145472E+03  0.17669687648E+03  0.00000000000E+00 0. -1.
        -15    1    1    2    0    0  0.59729955596E+01 -0.15847849781E+01  0.24463464053E+02  0.25294406929E+02  0.17770000000E+01 0. -1.
         15    1    1    2    0    0 -0.25682493978E+01 -0.40007571479E-01 -0.48719523567E+01  0.57871542524E+01  0.17770000000E+01 0.  1.
</event>
<event>
 6    1  0.1196607E-002  0.1845307E+03  0.7546771E-02  0.1066850E+00
        -11   -1    0    0    0    0  0.00000000000E+00  0.00000000000E+00  0.18250000000E+03  0.18250000000E+03  0.00000000000E+00 0.  1.
         11   -1    0    0    0    0 -0.00000000000E+00 -0.00000000000E+00 -0.18250000000E+03  0.18250000000E+03  0.00000000000E+00 0.  1.
        -11    1    1    2    0    0 -0.74818669970E+01 -0.69559384825E+01  0.18017996285E+03  0.18046933930E+03  0.00000000000E+00 0.  1.
         11    1    1    2    0    0  0.30383642414E+01  0.17311651757E+01 -0.15032213202E+03  0.15036280113E+03  0.00000000000E+00 0.  1.
        -15    1    1    2    0    0 -0.52849705810E+01  0.82677513481E+00 -0.81208540466E+01  0.98853664885E+01  0.17770000000E+01 0.  1.
         15    1    1    2    0    0  0.97284733367E+01  0.43979981721E+01 -0.21736976789E+02  0.24282493082E+02  0.17770000000E+01 0. -1.
</event>
<event>
 6    1  0.1196607E-002  0.1834787E+03  0.7546771E-02  0.1067678E+00
        -11   -1    0    0    0    0  0.00000000000E+00  0.00000000000E+00  0.18250000000E+03  0.18250000000E+03  0.00000000000E+00 0. -1.
         11   -1    0    0    0    0 -0.00000000000E+00 -0.00000000000E+00 -0.18250000000E+03  0.18250000000E+03  0.00000000000E+00 0.  1.
        -11    1    1    2    0    0 -0.20762077944E+00 -0.35030595412E+01  0.16861080303E+03  0.16864731670E+03  0.00000000000E+00 0. -1.
         11    1    1    2    0    0 -0.25405025990E+00  0.31867064606E+01 -0.18149317416E+03  0.18152132631E+03  0.00000000000E+00 0.  1.
        -15    1    1    2    0    0 -0.22558845340E+01 -0.72842929522E+00  0.97859889468E+01  0.10224623853E+02  0.17770000000E+01 0. -1.
         15    1    1    2    0    0  0.27175555733E+01  0.10447823759E+01  0.30963821826E+01  0.46067331297E+01  0.17770000000E+01 0. -1.
</event>
<event>
 6    1  0.1196607E-002  0.1838183E+03  0.7546771E-02  0.1067410E+00
        -11   -1    0    0    0    0  0.00000000000E+00  0.00000000000E+00  0.18250000000E+03  0.18250000000E+03  0.00000000000E+00 0. -1.
         11   -1    0    0    0    0 -0.00000000000E+00 -0.00000000000E+00 -0.18250000000E+03  0.18250000000E+03  0.00000000000E+00 0. -1.
        -11    1    1    2    0    0 -0.33261306643E+01 -0.24290436310E+00  0.18115103339E+03  0.18118172933E+03  0.00000000000E+00 0. -1.
         11    1    1    2    0    0  0.55203573640E+01 -0.77934159578E+00 -0.14572015063E+03  0.14582676029E+03  0.00000000000E+00 0. -1.
        -15    1    1    2    0    0 -0.76391593322E+01 -0.20276008444E+00 -0.20954034648E+02  0.22374699193E+02  0.17770000000E+01 0. -1.
         15    1    1    2    0    0  0.54449326325E+01  0.12250060433E+01 -0.14476848110E+02  0.15616811178E+02  0.17770000000E+01 0.  1.
</event>
<event>
 6    1  0.1196607E-002  0.1837583E+03  0.7546771E-02  0.1067458E+00
        -11   -1    0    0    0    0  0.00000000000E+00  0.00000000000E+00  0.18250000000E+03  0.18250000000E+03  0.00000000000E+00 0. -1.
         11   -1    0    0    0    0 -0.00000000000E+00 -0.00000000000E+00 -0.18250000000E+03  0.18250000000E+03  0.00000000000E+00 0.  1.
        -11    1    1    2    0    0 -0.23391647133E+01 -0.74442103417E+00  0.18122510158E+03  0.18124172615E+03  0.00000000000E+00 0. -1.
         11    1    1    2    0    0 -0.40640600210E+01  0.55637004924E+01 -0.47288829806E+02  0.47788123749E+02  0.00000000000E+00 0.  1.
        -15    1    1    2    0    0  0.49802018415E+01 -0.45155645628E+01 -0.13343919884E+03  0.13362024640E+03  0.17770000000E+01 0.  1.
         15    1    1    2    0    0  0.14230228928E+01 -0.30371489544E+00 -0.49707293519E+00  0.23499036989E+01  0.17770000000E+01 0. -1.
</event>
<event>
 6    1  0.1196607E-002  0.1831043E+03  0.7546771E-02  0.1067975E+00
        -11   -1    0    0    0    0  0.00000000000E+00  0.00000000000E+00  0.18250000000E+03  0.18250000000E+03  0.00000000000E+00 0.  1.
         11   -1    0    0    0    0 -0.00000000000E+00 -0.00000000000E+00 -0.18250000000E+03  0.18250000000E+03  0.00000000000E+00 0.  1.
        -11    1    1    2    0    0 -0.84035237534E+00 -0.20136807566E+00  0.12882488866E+02  0.12911439137E+02  0.00000000000E+00 0.  1.
         11    1    1    2    0    0 -0.39560684889E+01 -0.46285403239E+01 -0.18179379360E+03  0.18189573182E+03  0.00000000000E+00 0.  1.
        -15    1    1    2    0    0  0.14309923360E+01  0.29275738346E+00  0.15567693769E+03  0.15569393085E+03  0.17770000000E+01 0.  1.
         15    1    1    2    0    0  0.33654285282E+01  0.45371510161E+01  0.13234367045E+02  0.14498898186E+02  0.17770000000E+01 0. -1.
</event>
<event>
 6    1  0.1196607E-002  0.1830898E+03  0.7546771E-02  0.1067986E+00
        -11   -1    0    0    0    0  0.00000000000E+00  0.00000000000E+00  0.18250000000E+03  0.18250000000E+03  0.00000000000E+00 0.  1.
         11   -1    0    0    0    0 -0.00000000000E+00 -0.00000000000E+00 -0.18250000000E+03  0.18250000000E+03  0.00000000000E+00 0. -1.
        -11    1    1    2    0    0 -0.25953707792E+01  0.54728479747E+01  0.18180930462E+03  0.18191017361E+03  0.00000000000E+00 0.  1.
         11    1    1    2    0    0 -0.16195103035E+01 -0.43179463071E-01 -0.99632646344E+02  0.99645817251E+02  0.00000000000E+00 0. -1.
        -15    1    1    2    0    0  0.31951408570E+01 -0.55072640828E+01 -0.17072322065E+02  0.18307397207E+02  0.17770000000E+01 0.  1.
         15    1    1    2    0    0  0.10197402257E+01  0.77595571135E-01 -0.65104336215E+02  0.65136611933E+02  0.17770000000E+01 0.  1.
</event>
<event>
 6    1  0.1196607E-002  0.1831151E+03  0.7546771E-02  0.1067966E+00
        -11   -1    0    0    0    0  0.00000000000E+00  0.00000000000E+00  0.18250000000E+03  0.18250000000E+03  0.00000000000E+00 0.  1.
         11   -1    0    0    0    0 -0.00000000000E+00 -0.00000000000E+00 -0.18250000000E+03  0.18250000000E+03  0.00000000000E+00 0.  1.
        -11    1    1    2    0    0 -0.34773844178E+00  0.10618616392E+01  0.71023886336E+02  0.71032674893E+02  0.00000000000E+00 0.  1.
         11    1    1    2    0    0  0.20120538691E+01 -0.36443354453E+01 -0.18183727407E+03  0.18188491906E+03  0.00000000000E+00 0.  1.
        -15    1    1    2    0    0 -0.26631622282E+01  0.45424942293E+01  0.10782490203E+03  0.10796802264E+03  0.17770000000E+01 0.  1.
         15    1    1    2    0    0  0.99884680084E+00 -0.19600204232E+01  0.29884857049E+01  0.41143834045E+01  0.17770000000E+01 0. -1.
</event>
<event>
 6    1  0.1196607E-002  0.1891811E+03  0.7546771E-02  0.1063258E+00
        -11   -1    0    0    0    0  0.00000000000E+00  0.00000000000E+00  0.18250000000E+03  0.18250000000E+03  0.00000000000E+00 0. -1.
         11   -1    0    0    0    0 -0.00000000000E+00 -0.00000000000E+00 -0.18250000000E+03  0.18250000000E+03  0.00000000000E+00 0.  1.
        -11    1    1    2    0    0 -0.51969922759E+01  0.34984317127E+01  0.16812659327E+03  0.16824327362E+03  0.00000000000E+00 0. -1.
         11    1    1    2    0    0 -0.11155972710E+01  0.21017520737E+01 -0.17580283576E+03  0.17581893806E+03  0.00000000000E+00 0.  1.
        -15    1    1    2    0    0  0.10474180208E+02 -0.63842398882E+01  0.98737088603E+01  0.15846602969E+02  0.17770000000E+01 0. -1.
         15    1    1    2    0    0 -0.41615906614E+01  0.78405610181E+00 -0.21974663680E+01  0.50911853474E+01  0.17770000000E+01 0.  1.
</event>
<event>
 6    1  0.1196607E-002  0.1829756E+03  0.7546771E-02  0.1068077E+00
        -11   -1    0    0    0    0  0.00000000000E+00  0.00000000000E+00  0.18250000000E+03  0.18250000000E+03  0.00000000000E+00 0.  1.
         11   -1    0    0    0    0 -0.00000000000E+00 -0.00000000000E+00 -0.18250000000E+03  0.18250000000E+03  0.00000000000E+00 0. -1.
        -11    1    1    2    0    0  0.20258638966E+01  0.81825219476E+00  0.84080266001E+02  0.84108648735E+02  0.00000000000E+00 0.  1.
         11    1    1    2    0    0  0.54103698887E+01  0.35561137438E+01 -0.18190918935E+03  0.18202436984E+03  0.00000000000E+00 0. -1.
        -15    1    1    2    0    0 -0.75709217688E+01 -0.28573990873E+01  0.33989457495E+02  0.34984632852E+02  0.17770000000E+01 0.  1.
         15    1    1    2    0    0  0.13468798351E+00 -0.15169668512E+01  0.63839465853E+02  0.63882348569E+02  0.17770000000E+01 0. -1.
</event>
<event>
 6    1  0.1196607E-002  0.1825911E+03  0.7546771E-02  0.1068382E+00
        -11   -1    0    0    0    0  0.00000000000E+00  0.00000000000E+00  0.18250000000E+03  0.18250000000E+03  0.00000000000E+00 0. -1.
         11   -1    0    0    0    0 -0.00000000000E+00 -0.00000000000E+00 -0.18250000000E+03  0.18250000000E+03  0.00000000000E+00 0. -1.
        -11    1    1    2    0    0 -0.24766071931E+01  0.75651638292E+01  0.18223510726E+03  0.18240888028E+03  0.00000000000E+00 0. -1.
         11    1    1    2    0    0 -0.80701364880E-01  0.49716898384E+00 -0.18268909329E+02  0.18275851219E+02  0.00000000000E+00 0. -1.
        -15    1    1    2    0    0  0.15107672861E+01 -0.37127042516E+01 -0.12115069648E+03  0.12123001104E+03  0.17770000000E+01 0. -1.
         15    1    1    2    0    0  0.10465412719E+01 -0.43496285615E+01 -0.42815501452E+02  0.43085257465E+02  0.17770000000E+01 0.  1.
</event>
<event>
 6    1  0.1196607E-002  0.1864408E+03  0.7546771E-02  0.1065361E+00
        -11   -1    0    0    0    0  0.00000000000E+00  0.00000000000E+00  0.18250000000E+03  0.18250000000E+03  0.00000000000E+00 0. -1.
         11   -1    0    0    0    0 -0.00000000000E+00 -0.00000000000E+00 -0.18250000000E+03  0.18250000000E+03  0.00000000000E+00 0. -1.
        -11    1    1    2    0    0  0.30595208624E+00 -0.28229731307E+01  0.17853665510E+03  0.17855923386E+03  0.00000000000E+00 0. -1.
         11    1    1    2    0    0  0.14382863372E+01 -0.39936099863E+01 -0.12490544855E+03  0.12497755265E+03  0.00000000000E+00 0. -1.
        -15    1    1    2    0    0  0.91382735054E+00  0.61781096256E+00 -0.54405391879E+02  0.54445579851E+02  0.17770000000E+01 0. -1.
         15    1    1    2    0    0 -0.26580657739E+01  0.61987721544E+01  0.77418533169E+00  0.70176336331E+01  0.17770000000E+01 0. -1.
</event>
<event>
 6    1  0.1196607E-002  0.1705633E+03  0.7546771E-02  0.1078374E+00
        -11   -1    0    0    0    0  0.00000000000E+00  0.00000000000E+00  0.18250000000E+03  0.18250000000E+03  0.00000000000E+00 0.  1.
         11   -1    0    0    0    0 -0.00000000000E+00 -0.00000000000E+00 -0.18250000000E+03  0.18250000000E+03  0.00000000000E+00 0. -1.
        -11    1    1    2    0    0  0.29832002457E+01 -0.28547715116E+01  0.17148439609E+03  0.17153409955E+03  0.00000000000E+00 0.  1.
         11    1    1    2    0    0 -0.60651509812E+01 -0.32735216435E+01 -0.16952708968E+03  0.16966713334E+03  0.00000000000E+00 0. -1.
        -15    1    1    2    0    0  0.32942507209E+01  0.32819760899E+01 -0.12115647379E+02  0.13098476831E+02  0.17770000000E+01 0. -1.
         15    1    1    2    0    0 -0.21229998545E+00  0.28463170653E+01  0.10158340963E+02  0.10700290287E+02  0.17770000000E+01 0. -1.
</event>
<event>
 6    1  0.1196607E-002  0.1834956E+03  0.7546771E-02  0.1067665E+00
        -11   -1    0    0    0    0  0.00000000000E+00  0.00000000000E+00  0.18250000000E+03  0.18250000000E+03  0.00000000000E+00 0. -1.
         11   -1    0    0    0    0 -0.00000000000E+00 -0.00000000000E+00 -0.18250000000E+03  0.18250000000E+03  0.00000000000E+00 0. -1.
        -11    1    1    2    0    0  0.62824594614E+00 -0.98547187605E+00  0.49982700477E+02  0.49996361815E+02  0.00000000000E+00 0. -1.
         11    1    1    2    0    0  0.14826679386E+02  0.23457723994E+02 -0.17937047549E+03  0.18150444268E+03  0.00000000000E+00 0. -1.
        -15    1    1    2    0    0  0.17755377600E+01 -0.34312161540E+01  0.54303710630E+01  0.68972775437E+01  0.17770000000E+01 0.  1.
         15    1    1    2    0    0 -0.17230463092E+02 -0.19041035964E+02  0.12395740395E+03  0.12660191796E+03  0.17770000000E+01 0. -1.
</event>
<event>
 6    1  0.1196607E-002  0.1849867E+03  0.7546771E-02  0.1066492E+00
        -11   -1    0    0    0    0  0.00000000000E+00  0.00000000000E+00  0.18250000000E+03  0.18250000000E+03  0.00000000000E+00 0.  1.
         11   -1    0    0    0    0 -0.00000000000E+00 -0.00000000000E+00 -0.18250000000E+03  0.18250000000E+03  0.00000000000E+00 0. -1.
        -11    1    1    2    0    0  0.45691483114E+01 -0.78167404252E+01  0.12025269804E+03  0.12059307581E+03  0.00000000000E+00 0.  1.
         11    1    1    2    0    0 -0.27902338469E+00 -0.33995818245E+01 -0.17998098018E+03  0.18001330017E+03  0.00000000000E+00 0. -1.
        -15    1    1    2    0    0 -0.61094265419E+01  0.99362667601E+01  0.60338975618E+02  0.61481738731E+02  0.17770000000E+01 0. -1.
         15    1    1    2    0    0  0.18193016152E+01  0.12800554896E+01 -0.61069347324E+00  0.29118852899E+01  0.17770000000E+01 0.  1.
</event>
<event>
 6    1  0.1196607E-002  0.1854180E+03  0.7546771E-02  0.1066155E+00
        -11   -1    0    0    0    0  0.00000000000E+00  0.00000000000E+00  0.18250000000E+03  0.18250000000E+03  0.00000000000E+00 0. -1.
         11   -1    0    0    0    0 -0.00000000000E+00 -0.00000000000E+00 -0.18250000000E+03  0.18250000000E+03  0.00000000000E+00 0. -1.
        -11    1    1    2    0    0  0.19474678541E+01 -0.27283200466E+01  0.17955067698E+03  0.17958196448E+03  0.00000000000E+00 0. -1.
         11    1    1    2    0    0  0.37997122814E+01  0.20579745814E+01 -0.17388329824E+03  0.17393698422E+03  0.00000000000E+00 0. -1.
        -15    1    1    2    0    0 -0.10825769273E+01 -0.81402417704E+00 -0.58582737220E+01  0.62699049567E+01  0.17770000000E+01 0.  1.
         15    1    1    2    0    0 -0.46646032082E+01  0.14843696423E+01  0.19089498530E+00  0.52111463442E+01  0.17770000000E+01 0.  1.
</event>
<event>
 6    1  0.1196607E-002  0.1846367E+03  0.7546771E-02  0.1066767E+00
        -11   -1    0    0    0    0  0.00000000000E+00  0.00000000000E+00  0.18250000000E+03  0.18250000000E+03  0.00000000000E+00 0.  1.
         11   -1    0    0    0    0 -0.00000000000E+00 -0.00000000000E+00 -0.18250000000E+03  0.18250000000E+03  0.00000000000E+00 0. -1.
        -11    1    1    2    0    0 -0.25542654551E+01 -0.82265098786E-01  0.17494703935E+03  0.17496570412E+03  0.00000000000E+00 0.  1.
         11    1    1    2    0    0 -0.25938699371E+01  0.95954240817E+00 -0.18034212377E+03  0.18036332911E+03  0.00000000000E+00 0. -1.
        -15    1    1    2    0    0  0.11442473158E+01 -0.16070790203E+01  0.43698882653E+01  0.51132824437E+01  0.17770000000E+01 0. -1.
         15    1    1    2    0    0  0.40038880765E+01  0.72980171092E+00  0.10251961541E+01  0.45576843265E+01  0.17770000000E+01 0. -1.
</event>
<event>
 6    1  0.1196607E-002  0.1834059E+03  0.7546771E-02  0.1067736E+00
        -11   -1    0    0    0    0  0.00000000000E+00  0.00000000000E+00  0.18250000000E+03  0.18250000000E+03  0.00000000000E+00 0. -1.
         11   -1    0    0    0    0 -0.00000000000E+00 -0.00000000000E+00 -0.18250000000E+03  0.18250000000E+03  0.00000000000E+00 0. -1.
        -11    1    1    2    0    0  0.43057134322E+01 -0.48340826874E+01  0.18147872425E+03  0.18159414880E+03  0.00000000000E+00 0. -1.
         11    1    1    2    0    0 -0.24701442229E+01 -0.22099543472E+01 -0.15711306161E+03  0.15714801825E+03  0.00000000000E+00 0. -1.
        -15    1    1    2    0    0 -0.36780701267E+01  0.33698685991E+01 -0.13891836467E+02  0.14866911706E+02  0.17770000000E+01 0.  1.
         15    1    1    2    0    0  0.18425009175E+01  0.36741684355E+01 -0.10473826165E+02  0.11390921247E+02  0.17770000000E+01 0. -1.
</event>
<event>
 6    1  0.1196607E-002  0.1870210E+03  0.7546771E-02  0.1064912E+00
        -11   -1    0    0    0    0  0.00000000000E+00  0.00000000000E+00  0.18250000000E+03  0.18250000000E+03  0.00000000000E+00 0.  1.
         11   -1    0    0    0    0 -0.00000000000E+00 -0.00000000000E+00 -0.18250000000E+03  0.18250000000E+03  0.00000000000E+00 0.  1.
        -11    1    1    2    0    0  0.26490834115E+01  0.14007635787E+01  0.17795381999E+03  0.17797904886E+03  0.00000000000E+00 0.  1.
         11    1    1    2    0    0  0.55592128120E+01  0.24795563197E+01 -0.16944314645E+03  0.16955244889E+03  0.00000000000E+00 0.  1.
        -15    1    1    2    0    0  0.71406057065E+00 -0.25542251065E+01 -0.75835800408E+01  0.82281446042E+01  0.17770000000E+01 0. -1.
         15    1    1    2    0    0 -0.89223567941E+01 -0.13260947919E+01 -0.92709350515E+00  0.92403576514E+01  0.17770000000E+01 0.  1.
</event>
<event>
 6    1  0.1196607E-002  0.1618497E+03  0.7546771E-02  0.1086195E+00
        -11   -1    0    0    0    0  0.00000000000E+00  0.00000000000E+00  0.18250000000E+03  0.18250000000E+03  0.00000000000E+00 0.  1.
         11   -1    0    0    0    0 -0.00000000000E+00 -0.00000000000E+00 -0.18250000000E+03  0.18250000000E+03  0.00000000000E+00 0. -1.
        -11    1    1    2    0    0  0.32273165982E+01  0.19182195245E+01  0.16131750119E+03  0.16136118284E+03  0.00000000000E+00 0.  1.
         11    1    1    2    0    0  0.18886137110E+02 -0.13322312983E+02 -0.16164924732E+03  0.16329313935E+03  0.00000000000E+00 0. -1.
        -15    1    1    2    0    0 -0.21074397742E+02  0.15257900493E+02 -0.10922170179E+02  0.28273402661E+02  0.17770000000E+01 0.  1.
         15    1    1    2    0    0 -0.10390559670E+01 -0.38538070346E+01  0.11253916313E+02  0.12072275152E+02  0.17770000000E+01 0. -1.
</event>
<event>
 6    1  0.1196607E-002  0.1778275E+03  0.7546771E-02  0.1072236E+00
        -11   -1    0    0    0    0  0.00000000000E+00  0.00000000000E+00  0.18250000000E+03  0.18250000000E+03  0.00000000000E+00 0.  1.
         11   -1    0    0    0    0 -0.00000000000E+00 -0.00000000000E+00 -0.18250000000E+03  0.18250000000E+03  0.00000000000E+00 0.  1.
        -11    1    1    2    0    0  0.24127579828E+01  0.26225051981E+01  0.17878425807E+03  0.17881976923E+03  0.00000000000E+00 0.  1.
         11    1    1    2    0    0  0.24203656883E+00  0.26054998608E+01 -0.17686939327E+03  0.17688874890E+03  0.00000000000E+00 0.  1.
        -15    1    1    2    0    0 -0.22203490854E+01 -0.32798290129E+01  0.18131773146E+01  0.47045264788E+01  0.17770000000E+01 0. -1.
         15    1    1    2    0    0 -0.43444546624E+00 -0.19481760460E+01 -0.37280421163E+01  0.45869553944E+01  0.17770000000E+01 0. -1.
</event>
<event>
 6    1  0.1196607E-002  0.1185389E+03  0.7546771E-02  0.1135136E+00
        -11   -1    0    0    0    0  0.00000000000E+00  0.00000000000E+00  0.18250000000E+03  0.18250000000E+03  0.00000000000E+00 0. -1.
         11   -1    0    0    0    0 -0.00000000000E+00 -0.00000000000E+00 -0.18250000000E+03  0.18250000000E+03  0.00000000000E+00 0.  1.
        -11    1    1    2    0    0  0.44962098990E+01  0.20400074779E+01  0.16362414334E+03  0.16369861886E+03  0.00000000000E+00 0. -1.
         11    1    1    2    0    0  0.26970301874E+02 -0.54031842040E+01 -0.52689624296E+02  0.59437261808E+02  0.00000000000E+00 0.  1.
        -15    1    1    2    0    0 -0.27287593224E+02 -0.35903573466E+02 -0.79268952918E+02  0.91216248318E+02  0.17770000000E+01 0.  1.
         15    1    1    2    0    0 -0.41789185490E+01  0.39266750192E+02 -0.31665566125E+02  0.50647871011E+02  0.17770000000E+01 0. -1.
</event>
<event>
 6    1  0.1196607E-002  0.1829033E+03  0.7546771E-02  0.1068134E+00
        -11   -1    0    0    0    0  0.00000000000E+00  0.00000000000E+00  0.18250000000E+03  0.18250000000E+03  0.00000000000E+00 0. -1.
         11   -1    0    0    0    0 -0.00000000000E+00 -0.00000000000E+00 -0.18250000000E+03  0.18250000000E+03  0.00000000000E+00 0. -1.
        -11    1    1    2    0    0  0.42193870648E+01 -0.26296645279E+01  0.18202878966E+03  0.18209667385E+03  0.00000000000E+00 0. -1.
         11    1    1    2    0    0 -0.44482112816E+01  0.17297376798E+01 -0.12198229199E+03  0.12207562466E+03  0.00000000000E+00 0. -1.
        -15    1    1    2    0    0 -0.35961726269E+01  0.26404617680E+01 -0.38850768587E+02  0.39146448685E+02  0.17770000000E+01 0.  1.
         15    1    1    2    0    0  0.38249968437E+01 -0.17405349199E+01 -0.21195729086E+02  0.21681252804E+02  0.17770000000E+01 0. -1.
</event>
<event>
 6    1  0.1196607E-002  0.1845018E+03  0.7546771E-02  0.1066872E+00
        -11   -1    0    0    0    0  0.00000000000E+00  0.00000000000E+00  0.18250000000E+03  0.18250000000E+03  0.00000000000E+00 0.  1.
         11   -1    0    0    0    0 -0.00000000000E+00 -0.00000000000E+00 -0.18250000000E+03  0.18250000000E+03  0.00000000000E+00 0. -1.
        -11    1    1    2    0    0  0.53934964664E+01 -0.10433779329E+02  0.18011560863E+03  0.18049816073E+03  0.00000000000E+00 0.  1.
         11    1    1    2    0    0 -0.24700963889E+00  0.26586765808E+01 -0.94454546207E+02  0.94492279441E+02  0.00000000000E+00 0. -1.
        -15    1    1    2    0    0 -0.10865359834E+02  0.12159714555E+02 -0.33255378578E+02  0.37080893136E+02  0.17770000000E+01 0. -1.
         15    1    1    2    0    0  0.57188730069E+01 -0.43846118071E+01 -0.52405683846E+02  0.52928666690E+02  0.17770000000E+01 0.  1.
</event>
<event>
 6    1  0.1196607E-002  0.1849587E+03  0.7546771E-02  0.1066514E+00
        -11   -1    0    0    0    0  0.00000000000E+00  0.00000000000E+00  0.18250000000E+03  0.18250000000E+03  0.00000000000E+00 0. -1.
         11   -1    0    0    0    0 -0.00000000000E+00 -0.00000000000E+00 -0.18250000000E+03  0.18250000000E+03  0.00000000000E+00 0. -1.
        -11    1    1    2    0    0  0.96419074901E+00 -0.24207808090E+01  0.17564629574E+03  0.17566562285E+03  0.00000000000E+00 0. -1.
         11    1    1    2    0    0  0.34193152288E+01  0.17339891274E+00 -0.18000870495E+03  0.18004126095E+03  0.00000000000E+00 0. -1.
        -15    1    1    2    0    0 -0.58778772520E+00  0.46589861601E+00 -0.10689444531E+01  0.22052045651E+01  0.17770000000E+01 0. -1.
         15    1    1    2    0    0 -0.37957182526E+01  0.17814832802E+01  0.54313536631E+01  0.70879116349E+01  0.17770000000E+01 0.  1.
</event>
<event>
 6    1  0.1196607E-002  0.1933455E+03  0.7546771E-02  0.1060135E+00
        -11   -1    0    0    0    0  0.00000000000E+00  0.00000000000E+00  0.18250000000E+03  0.18250000000E+03  0.00000000000E+00 0.  1.
         11   -1    0    0    0    0 -0.00000000000E+00 -0.00000000000E+00 -0.18250000000E+03  0.18250000000E+03  0.00000000000E+00 0.  1.
        -11    1    1    2    0    0 -0.21073954234E+02  0.18029259222E+01  0.17034646521E+03  0.17165453765E+03  0.00000000000E+00 0.  1.
         11    1    1    2    0    0 -0.35178515250E+01 -0.11385980726E+01 -0.10638855692E+03  0.10645279107E+03  0.00000000000E+00 0.  1.
        -15    1    1    2    0    0  0.21062984427E+02  0.23892641574E+02 -0.46944338605E+02  0.56757698072E+02  0.17770000000E+01 0. -1.
         15    1    1    2    0    0  0.35288213320E+01 -0.24556969424E+02 -0.17013569687E+02  0.30134973200E+02  0.17770000000E+01 0.  1.
</event>
<event>
 6    1  0.1196607E-002  0.1833510E+03  0.7546771E-02  0.1067779E+00
        -11   -1    0    0    0    0  0.00000000000E+00  0.00000000000E+00  0.18250000000E+03  0.18250000000E+03  0.00000000000E+00 0.  1.
         11   -1    0    0    0    0 -0.00000000000E+00 -0.00000000000E+00 -0.18250000000E+03  0.18250000000E+03  0.00000000000E+00 0.  1.
        -11    1    1    2    0    0 -0.35118897349E+01  0.40735146445E+01  0.10518572698E+03  0.10532314110E+03  0.00000000000E+00 0.  1.
         11    1    1    2    0    0 -0.20715040766E+01  0.23497776402E+01 -0.18162196686E+03  0.18164897861E+03  0.00000000000E+00 0.  1.
        -15    1    1    2    0    0  0.41784007551E+01 -0.53687499041E+01  0.74590920405E+02  0.74921596648E+02  0.17770000000E+01 0.  1.
         15    1    1    2    0    0  0.14049930564E+01 -0.10545423805E+01  0.18453194740E+01  0.31062836448E+01  0.17770000000E+01 0. -1.
</event>
<event>
 6    1  0.1196607E-002  0.1881806E+03  0.7546771E-02  0.1064021E+00
        -11   -1    0    0    0    0  0.00000000000E+00  0.00000000000E+00  0.18250000000E+03  0.18250000000E+03  0.00000000000E+00 0. -1.
         11   -1    0    0    0    0 -0.00000000000E+00 -0.00000000000E+00 -0.18250000000E+03  0.18250000000E+03  0.00000000000E+00 0.  1.
        -11    1    1    2    0    0 -0.19206301431E+01  0.78282272048E+01  0.16584440092E+03  0.16604016164E+03  0.00000000000E+00 0. -1.
         11    1    1    2    0    0  0.45304761329E+01  0.33374220984E+01 -0.17672987241E+03  0.17681943163E+03  0.00000000000E+00 0.  1.
        -15    1    1    2    0    0  0.21534755127E+01 -0.58453849132E+01  0.12965115228E+02  0.14493375157E+02  0.17770000000E+01 0. -1.
         15    1    1    2    0    0 -0.47633215026E+01 -0.53202643900E+01 -0.20796437382E+01  0.76470315805E+01  0.17770000000E+01 0.  1.
</event>
<event>
 6    1  0.1196607E-002  0.2067057E+03  0.7546771E-02  0.1050669E+00
        -11   -1    0    0    0    0  0.00000000000E+00  0.00000000000E+00  0.18250000000E+03  0.18250000000E+03  0.00000000000E+00 0.  1.
         11   -1    0    0    0    0 -0.00000000000E+00 -0.00000000000E+00 -0.18250000000E+03  0.18250000000E+03  0.00000000000E+00 0.  1.
        -11    1    1    2    0    0 -0.23500182715E+01  0.43288933787E+01  0.13205493260E+03  0.13214676360E+03  0.00000000000E+00 0.  1.
         11    1    1    2    0    0 -0.20042416482E+01  0.84843428903E+00 -0.15827930260E+03  0.15829426539E+03  0.00000000000E+00 0.  1.
        -15    1    1    2    0    0 -0.23090163455E+02 -0.69114989416E+00 -0.12905956524E+02  0.26520836701E+02  0.17770000000E+01 0. -1.
         15    1    1    2    0    0  0.27444423374E+02 -0.44861777736E+01  0.39130326519E+02  0.48038134308E+02  0.17770000000E+01 0.  1.
</event>
<event>
 6    1  0.1196607E-002  0.1826620E+03  0.7546771E-02  0.1068326E+00
        -11   -1    0    0    0    0  0.00000000000E+00  0.00000000000E+00  0.18250000000E+03  0.18250000000E+03  0.00000000000E+00 0.  1.
         11   -1    0    0    0    0 -0.00000000000E+00 -0.00000000000E+00 -0.18250000000E+03  0.18250000000E+03  0.00000000000E+00 0.  1.
        -11    1    1    2    0    0  0.16788205008E+01 -0.17941404285E+01  0.12404905189E+03  0.12407338414E+03  0.00000000000E+00 0.  1.
         11    1    1    2    0    0 -0.34433620914E+01 -0.31817956051E+00 -0.18230516410E+03  0.18233795776E+03  0.00000000000E+00 0.  1.
        -15    1    1    2    0    0  0.30192597236E+01  0.14634084715E+01  0.29547008514E+02  0.29789946874E+02  0.17770000000E+01 0. -1.
         15    1    1    2    0    0 -0.12547181330E+01  0.64891151752E+00  0.28709103704E+02  0.28798711225E+02  0.17770000000E+01 0.  1.
</event>
<event>
 6    1  0.1196607E-002  0.1877726E+03  0.7546771E-02  0.1064334E+00
        -11   -1    0    0    0    0  0.00000000000E+00  0.00000000000E+00  0.18250000000E+03  0.18250000000E+03  0.00000000000E+00 0. -1.
         11   -1    0    0    0    0 -0.00000000000E+00 -0.00000000000E+00 -0.18250000000E+03  0.18250000000E+03  0.00000000000E+00 0.  1.
        -11    1    1    2    0    0  0.18951802136E+01 -0.36983730483E+01  0.17717871676E+03  0.17722744523E+03  0.00000000000E+00 0. -1.
         11    1    1    2    0    0  0.12627500910E+01  0.34397884678E+01 -0.17132730970E+03  0.17136648953E+03  0.00000000000E+00 0.  1.
        -15    1    1    2    0    0 -0.37138107817E+01 -0.20333924677E+01  0.40197285493E+01  0.61027061260E+01  0.17770000000E+01 0. -1.
         15    1    1    2    0    0  0.55588047715E+00  0.22919770481E+01 -0.98711356047E+01  0.10303359113E+02  0.17770000000E+01 0.  1.
</event>
<event>
 6    1  0.1196607E-002  0.1936438E+03  0.7546771E-02  0.1059915E+00
        -11   -1    0    0    0    0  0.00000000000E+00  0.00000000000E+00  0.18250000000E+03  0.18250000000E+03  0.00000000000E+00 0.  1.
         11   -1    0    0    0    0 -0.00000000000E+00 -0.00000000000E+00 -0.18250000000E+03  0.18250000000E+03  0.00000000000E+00 0.  1.
        -11    1    1    2    0    0  0.86088273539E+01  0.12702109850E+02  0.17334220825E+02  0.23150177422E+02  0.00000000000E+00 0.  1.
         11    1    1    2    0    0  0.29948435668E+01 -0.42240847025E+00 -0.17132946655E+03  0.17135616016E+03  0.00000000000E+00 0.  1.
        -15    1    1    2    0    0 -0.10304401620E+02 -0.11720511640E+02  0.16170002554E+03  0.16246109403E+03  0.17770000000E+01 0.  1.
         15    1    1    2    0    0 -0.12992693009E+01 -0.55918974036E+00 -0.77047798170E+01  0.80325683881E+01  0.17770000000E+01 0.  1.
</event>
<event>
 6    1  0.1196607E-002  0.1845710E+03  0.7546771E-02  0.1066818E+00
        -11   -1    0    0    0    0  0.00000000000E+00  0.00000000000E+00  0.18250000000E+03  0.18250000000E+03  0.00000000000E+00 0.  1.
         11   -1    0    0    0    0 -0.00000000000E+00 -0.00000000000E+00 -0.18250000000E+03  0.18250000000E+03  0.00000000000E+00 0.  1.
        -11    1    1    2    0    0  0.30348134865E+01 -0.34462965066E+01  0.18037051396E+03  0.18042895931E+03  0.00000000000E+00 0.  1.
         11    1    1    2    0    0  0.43540151771E+01  0.11049585562E+01 -0.16499793610E+03  0.16505907215E+03  0.00000000000E+00 0.  1.
        -15    1    1    2    0    0 -0.74804286255E+01  0.17579561601E+01 -0.58831070007E+01  0.98395070641E+01  0.17770000000E+01 0. -1.
         15    1    1    2    0    0  0.91599961872E-01  0.58338179025E+00 -0.94894708527E+01  0.96724614721E+01  0.17770000000E+01 0.  1.
</event>
<event>
 6    1  0.1196607E-002  0.1867510E+03  0.7546771E-02  0.1065120E+00
        -11   -1    0    0    0    0  0.00000000000E+00  0.00000000000E+00  0.18250000000E+03  0.18250000000E+03  0.00000000000E+00 0. -1.
         11   -1    0    0    0    0 -0.00000000000E+00 -0.00000000000E+00 -0.18250000000E+03  0.18250000000E+03  0.00000000000E+00 0.  1.
        -11    1    1    2    0    0  0.45453992700E+01 -0.16032952117E+01  0.16690355669E+03  0.16697313690E+03  0.00000000000E+00 0. -1.
         11    1    1    2    0    0  0.11245458831E+01  0.52847839134E+01 -0.17816710451E+03  0.17824901311E+03  0.00000000000E+00 0.  1.
        -15    1    1    2    0    0 -0.34897207770E+01  0.11808843778E+01  0.13213229180E+02  0.13831839841E+02  0.17770000000E+01 0. -1.
         15    1    1    2    0    0 -0.21802243761E+01 -0.48623730795E+01 -0.19496813660E+01  0.59460101516E+01  0.17770000000E+01 0. -1.
</event>
<event>
 6    1  0.1196607E-002  0.1897342E+03  0.7546771E-02  0.1062838E+00
        -11   -1    0    0    0    0  0.00000000000E+00  0.00000000000E+00  0.18250000000E+03  0.18250000000E+03  0.00000000000E+00 0. -1.
         11   -1    0    0    0    0 -0.00000000000E+00 -0.00000000000E+00 -0.18250000000E+03  0.18250000000E+03  0.00000000000E+00 0. -1.
        -11    1    1    2    0    0 -0.21336066728E+01 -0.48094969972E+01  0.17518676496E+03  0.17526575865E+03  0.00000000000E+00 0. -1.
         11    1    1    2    0    0  0.21095087844E+01  0.18685315994E+01 -0.17212295985E+03  0.17214602738E+03  0.00000000000E+00 0. -1.
        -15    1    1    2    0    0  0.26874848947E+01  0.59783702493E+01  0.49743802301E+01  0.84181751925E+01  0.17770000000E+01 0.  1.
         15    1    1    2    0    0 -0.26633870063E+01 -0.30374048515E+01 -0.80381853396E+01  0.91700387748E+01  0.17770000000E+01 0.  1.
</event>
<event>
 6    1  0.1196607E-002  0.1862322E+03  0.7546771E-02  0.1065522E+00
        -11   -1    0    0    0    0  0.00000000000E+00  0.00000000000E+00  0.18250000000E+03  0.18250000000E+03  0.00000000000E+00 0.  1.
         11   -1    0    0    0    0 -0.00000000000E+00 -0.00000000000E+00 -0.18250000000E+03  0.18250000000E+03  0.00000000000E+00 0. -1.
        -11    1    1    2    0    0  0.34714673474E+01  0.50548989773E+01  0.14352773835E+03  0.14365867452E+03  0.00000000000E+00 0.  1.
         11    1    1    2    0    0  0.30897361418E+01  0.67691891507E+01 -0.17861282957E+03  0.17876775794E+03  0.00000000000E+00 0. -1.
        -15    1    1    2    0    0 -0.82774943022E+01 -0.64946427975E+01  0.47584108257E+01  0.11683214437E+02  0.17770000000E+01 0.  1.
         15    1    1    2    0    0  0.17162908130E+01 -0.53294453305E+01  0.30326680395E+02  0.30890353098E+02  0.17770000000E+01 0. -1.
</event>
<event>
 6    1  0.1196607E-002  0.1827953E+03  0.7546771E-02  0.1068220E+00
        -11   -1    0    0    0    0  0.00000000000E+00  0.00000000000E+00  0.18250000000E+03  0.18250000000E+03  0.00000000000E+00 0.  1.
         11   -1    0    0    0    0 -0.00000000000E+00 -0.00000000000E+00 -0.18250000000E+03  0.18250000000E+03  0.00000000000E+00 0.  1.
        -11    1    1    2    0    0 -0.56019299555E+00 -0.37624108586E+01  0.18216502395E+03  0.18220473513E+03  0.00000000000E+00 0.  1.
         11    1    1    2    0    0 -0.13026785652E+01  0.12351721262E+01 -0.13070009264E+03  0.13071242036E+03  0.00000000000E+00 0.  1.
        -15    1    1    2    0    0  0.30132120905E+01  0.11110201180E+00 -0.40664386676E+02  0.40814726062E+02  0.17770000000E+01 0.  1.
         15    1    1    2    0    0 -0.11503405297E+01  0.24161367206E+01 -0.10800544636E+02  0.11268118450E+02  0.17770000000E+01 0. -1.
</event>
<event>
 6    1  0.1196607E-002  0.1920451E+03  0.7546771E-02  0.1061101E+00
        -11   -1    0    0    0    0  0.00000000000E+00  0.00000000000E+00  0.18250000000E+03  0.18250000000E+03  0.00000000000E+00 0. -1.
         11   -1    0    0    0    0 -0.00000000000E+00 -0.00000000000E+00 -0.18250000000E+03  0.18250000000E+03  0.00000000000E+00 0.  1.
        -11    1    1    2    0    0 -0.23757357318E+02 -0.16335202290E+02  0.17053491854E+03  0.17295493431E+03  0.00000000000E+00 0. -1.
         11    1    1    2    0    0  0.91219689209E+00  0.23022757954E+01 -0.12903185345E+03  0.12905561507E+03  0.00000000000E+00 0.  1.
        -15    1    1    2    0    0 -0.73647691224E+01  0.81391031737E+01 -0.26424898823E+02  0.28669109360E+02  0.17770000000E+01 0. -1.
         15    1    1    2    0    0  0.30209929548E+02  0.58938233209E+01 -0.15078166272E+02  0.34320341254E+02  0.17770000000E+01 0.  1.
</event>
<event>
 6    1  0.1196607E-002  0.1868505E+03  0.7546771E-02  0.1065044E+00
        -11   -1    0    0    0    0  0.00000000000E+00  0.00000000000E+00  0.18250000000E+03  0.18250000000E+03  0.00000000000E+00 0. -1.
         11   -1    0    0    0    0 -0.00000000000E+00 -0.00000000000E+00 -0.18250000000E+03  0.18250000000E+03  0.00000000000E+00 0.  1.
        -11    1    1    2    0    0 -0.98896737438E-01 -0.29899998302E+01  0.17812442349E+03  0.17814954427E+03  0.00000000000E+00 0. -1.
         11    1    1    2    0    0  0.84873397971E+00 -0.12822526181E+01 -0.10848335180E+03  0.10849424933E+03  0.00000000000E+00 0.  1.
        -15    1    1    2    0    0 -0.76803235883E+01 -0.53178529615E+01 -0.20672780066E+01  0.97313050459E+01  0.17770000000E+01 0. -1.
         15    1    1    2    0    0  0.69304863460E+01  0.95901054098E+01 -0.67573793688E+02  0.68624901349E+02  0.17770000000E+01 0.  1.
</event>
<event>
 6    1  0.1196607E-002  0.1834088E+03  0.7546771E-02  0.1067734E+00
        -11   -1    0    0    0    0  0.00000000000E+00  0.00000000000E+00  0.18250000000E+03  0.18250000000E+03  0.00000000000E+00 0. -1.
         11   -1    0    0    0    0 -0.00000000000E+00 -0.00000000000E+00 -0.18250000000E+03  0.18250000000E+03  0.00000000000E+00 0.  1.
        -11    1    1    2    0    0 -0.67267402056E+00  0.38072265615E+01  0.18155002180E+03  0.18159118338E+03  0.00000000000E+00 0. -1.
         11    1    1    2    0    0  0.16055869857E+01  0.56964784519E+01 -0.71948961607E+02  0.72191972217E+02  0.00000000000E+00 0.  1.
        -15    1    1    2    0    0  0.46889986417E+01 -0.11456435524E+02 -0.65832909417E+02  0.67010195601E+02  0.17770000000E+01 0. -1.
         15    1    1    2    0    0 -0.56219116068E+01  0.19527305111E+01 -0.43768150780E+02  0.44206648801E+02  0.17770000000E+01 0.  1.
</event>
<event>
 6    1  0.1196607E-002  0.1834656E+03  0.7546771E-02  0.1067689E+00
        -11   -1    0    0    0    0  0.00000000000E+00  0.00000000000E+00  0.18250000000E+03  0.18250000000E+03  0.00000000000E+00 0.  1.
         11   -1    0    0    0    0 -0.00000000000E+00 -0.00000000000E+00 -0.18250000000E+03  0.18250000000E+03  0.00000000000E+00 0.  1.
        -11    1    1    2    0    0  0.22821806076E+01  0.10887951441E+02  0.91334841919E+02  0.92009831992E+02  0.00000000000E+00 0.  1.
         11    1    1    2    0    0 -0.33671311551E+01 -0.42877516622E+01 -0.18145255122E+03  0.18153443401E+03  0.00000000000E+00 0.  1.
        -15    1    1    2    0    0 -0.40938937057E+01  0.22888879150E+01  0.35059990943E+02  0.35416940403E+02  0.17770000000E+01 0. -1.
         15    1    1    2    0    0  0.51788442532E+01 -0.88890876939E+01  0.55057718359E+02  0.56038793596E+02  0.17770000000E+01 0.  1.
</event>
<event>
 6    1  0.1196607E-002  0.1838113E+03  0.7546771E-02  0.1067416E+00
        -11   -1    0    0    0    0  0.00000000000E+00  0.00000000000E+00  0.18250000000E+03  0.18250000000E+03  0.00000000000E+00 0.  1.
         11   -1    0    0    0    0 -0.00000000000E+00 -0.00000000000E+00 -0.18250000000E+03  0.18250000000E+03  0.00000000000E+00 0. -1.
        -11    1    1    2    0    0  0.49418382316E+00 -0.42276264017E+01  0.18113869295E+03  0.18118869481E+03  0.00000000000E+00 0.  1.
         11    1    1    2    0    0  0.19862251436E+00 -0.16601250784E+01 -0.11581024812E+03  0.11582231666E+03  0.00000000000E+00 0. -1.
        -15    1    1    2    0    0  0.44798858579E+01  0.10578171360E+02 -0.39654222595E+02  0.41322901462E+02  0.17770000000E+01 0.  1.
         15    1    1    2    0    0 -0.51726921954E+01 -0.46904198796E+01 -0.25674222238E+02  0.26666087072E+02  0.17770000000E+01 0. -1.
</event>
<event>
 6    1  0.1196607E-002  0.1840401E+03  0.7546771E-02  0.1067235E+00
        -11   -1    0    0    0    0  0.00000000000E+00  0.00000000000E+00  0.18250000000E+03  0.18250000000E+03  0.00000000000E+00 0.  1.
         11   -1    0    0    0    0 -0.00000000000E+00 -0.00000000000E+00 -0.18250000000E+03  0.18250000000E+03  0.00000000000E+00 0.  1.
        -11    1    1    2    0    0  0.22994473531E+01 -0.13132855860E+01  0.18094051471E+03  0.18095989070E+03  0.00000000000E+00 0.  1.
         11    1    1    2    0    0 -0.64384154510E+00  0.24298509702E+01 -0.16017956455E+03  0.16019928716E+03  0.00000000000E+00 0.  1.
        -15    1    1    2    0    0 -0.51296043086E+01  0.25290516900E+01 -0.13986020901E+02  0.15214317351E+02  0.17770000000E+01 0.  1.
         15    1    1    2    0    0  0.34739985007E+01 -0.36456170742E+01 -0.67749292598E+01  0.86265047910E+01  0.17770000000E+01 0. -1.
</event>
<event>
 6    1  0.1196607E-002  0.1932626E+03  0.7546771E-02  0.1060197E+00
        -11   -1    0    0    0    0  0.00000000000E+00  0.00000000000E+00  0.18250000000E+03  0.18250000000E+03  0.00000000000E+00 0.  1.
         11   -1    0    0    0    0 -0.00000000000E+00 -0.00000000000E+00 -0.18250000000E+03  0.18250000000E+03  0.00000000000E+00 0. -1.
        -11    1    1    2    0    0  0.19580552963E+01  0.22202059646E+01  0.17171187723E+03  0.17173739277E+03  0.00000000000E+00 0.  1.
         11    1    1    2    0    0 -0.70883462737E+01  0.44446342176E+00 -0.16185766217E+03  0.16201340995E+03  0.00000000000E+00 0. -1.
        -15    1    1    2    0    0  0.42839112126E+01 -0.10969878384E+02 -0.16557702896E+02  0.20396209973E+02  0.17770000000E+01 0. -1.
         15    1    1    2    0    0  0.84637976479E+00  0.83052089979E+01  0.67034878373E+01  0.10852987303E+02  0.17770000000E+01 0.  1.
</event>
<event>
 6    1  0.1196607E-002  0.1828677E+03  0.7546771E-02  0.1068163E+00
        -11   -1    0    0    0    0  0.00000000000E+00  0.00000000000E+00  0.18250000000E+03  0.18250000000E+03  0.00000000000E+00 0. -1.
         11   -1    0    0    0    0 -0.00000000000E+00 -0.00000000000E+00 -0.18250000000E+03  0.18250000000E+03  0.00000000000E+00 0. -1.
        -11    1    1    2    0    0 -0.89362972654E-01 -0.83019755972E+00  0.58934720740E+02  0.58940635578E+02  0.00000000000E+00 0. -1.
         11    1    1    2    0    0 -0.29379321361E+01  0.36369503028E-01 -0.18210864235E+03  0.18213234305E+03  0.00000000000E+00 0. -1.
        -15    1    1    2    0    0  0.28929162992E+01 -0.57493009069E+01  0.71240776972E+02  0.71552983573E+02  0.17770000000E+01 0.  1.
         15    1    1    2    0    0  0.13437880956E+00  0.65431289636E+01  0.51933144637E+02  0.52374037797E+02  0.17770000000E+01 0. -1.
</event>
<event>
 6    1  0.1196607E-002  0.1828718E+03  0.7546771E-02  0.1068159E+00
        -11   -1    0    0    0    0  0.00000000000E+00  0.00000000000E+00  0.18250000000E+03  0.18250000000E+03  0.00000000000E+00 0. -1.
         11   -1    0    0    0    0 -0.00000000000E+00 -0.00000000000E+00 -0.18250000000E+03  0.18250000000E+03  0.00000000000E+00 0. -1.
        -11    1    1    2    0    0  0.69402083626E+00 -0.27872716982E+01  0.18210558332E+03  0.18212823511E+03  0.00000000000E+00 0. -1.
         11    1    1    2    0    0 -0.34196478053E+01  0.30828408242E+01 -0.97885304425E+02  0.97993523873E+02  0.00000000000E+00 0. -1.
        -15    1    1    2    0    0  0.47020550553E+01 -0.23591141014E+00 -0.77319595598E+02  0.77483176035E+02  0.17770000000E+01 0. -1.
         15    1    1    2    0    0 -0.19764280862E+01 -0.59657715893E-01 -0.69006833002E+01  0.73950649783E+01  0.17770000000E+01 0.  1.
</event>
<event>
 6    1  0.1196607E-002  0.1838962E+03  0.7546771E-02  0.1067349E+00
        -11   -1    0    0    0    0  0.00000000000E+00  0.00000000000E+00  0.18250000000E+03  0.18250000000E+03  0.00000000000E+00 0.  1.
         11   -1    0    0    0    0 -0.00000000000E+00 -0.00000000000E+00 -0.18250000000E+03  0.18250000000E+03  0.00000000000E+00 0.  1.
        -11    1    1    2    0    0  0.14621012310E+00  0.19065353918E+01  0.30870294049E+02  0.30929456983E+02  0.00000000000E+00 0.  1.
         11    1    1    2    0    0  0.18875786167E+02  0.29919695646E+01 -0.18009255441E+03  0.18110376954E+03  0.00000000000E+00 0.  1.
        -15    1    1    2    0    0 -0.80215728418E+01  0.64919447894E+00  0.90402289425E+01  0.12233174268E+02  0.17770000000E+01 0. -1.
         15    1    1    2    0    0 -0.11000423448E+02 -0.55476994354E+01  0.14018203142E+03  0.14073359921E+03  0.17770000000E+01 0.  1.
</event>
<event>
 6    1  0.1196607E-002  0.1868336E+03  0.7546771E-02  0.1065057E+00
        -11   -1    0    0    0    0  0.00000000000E+00  0.00000000000E+00  0.18250000000E+03  0.18250000000E+03  0.00000000000E+00 0. -1.
         11   -1    0    0    0    0 -0.00000000000E+00 -0.00000000000E+00 -0.18250000000E+03  0.18250000000E+03  0.00000000000E+00 0.  1.
        -11    1    1    2    0    0  0.89521414947E+01  0.24727199404E+01  0.70965107820E+02  0.71570257154E+02  0.00000000000E+00 0. -1.
         11    1    1    2    0    0  0.18373492602E+01  0.18871336770E+01 -0.17814693634E+03  0.17816640552E+03  0.00000000000E+00 0.  1.
        -15    1    1    2    0    0 -0.16034610163E+02  0.13138308906E+01  0.10602211857E+03  0.10725055818E+03  0.17770000000E+01 0.  1.
         15    1    1    2    0    0  0.52451194080E+01 -0.56736845081E+01  0.11597099502E+01  0.80127791477E+01  0.17770000000E+01 0. -1.
</event>
<event>
 6    1  0.1196607E-002  0.1827766E+03  0.7546771E-02  0.1068235E+00
        -11   -1    0    0    0    0  0.00000000000E+00  0.00000000000E+00  0.18250000000E+03  0.18250000000E+03  0.00000000000E+00 0.  1.
         11   -1    0    0    0    0 -0.00000000000E+00 -0.00000000000E+00 -0.18250000000E+03  0.18250000000E+03  0.00000000000E+00 0. -1.
        -11    1    1    2    0    0 -0.31480509108E+01  0.88305511766E+00  0.18219408249E+03  0.18222341700E+03  0.00000000000E+00 0.  1.
         11    1    1    2    0    0 -0.95808336118E+00  0.11354216950E+01 -0.96170185324E+02  0.96181659641E+02  0.00000000000E+00 0. -1.
        -15    1    1    2    0    0 -0.23890386635E+01 -0.65123117471E+00 -0.24750319637E+02  0.24937274489E+02  0.17770000000E+01 0.  1.
         15    1    1    2    0    0  0.64951729355E+01 -0.13672456380E+01 -0.61273577526E+02  0.61657648868E+02  0.17770000000E+01 0. -1.
</event>
<event>
 6    1  0.1276286E-002  0.1719778E+03  0.7546771E-02  0.1077153E+00
        -11   -1    0    0    0    0  0.00000000000E+00  0.00000000000E+00  0.18250000000E+03  0.18250000000E+03  0.00000000000E+00 0. -1.
         11   -1    0    0    0    0 -0.00000000000E+00 -0.00000000000E+00 -0.18250000000E+03  0.18250000000E+03  0.00000000000E+00 0.  1.
        -11    1    1    2    0    0 -0.19743935308E+00 -0.26606517869E+01  0.17579220732E+03  0.17581245179E+03  0.00000000000E+00 0. -1.
         11    1    1    2    0    0 -0.10737878765E+02 -0.60424862756E+01 -0.16806270522E+03  0.16851375780E+03  0.00000000000E+00 0.  1.
        -15    1    1    2    0    0  0.11530821087E+02  0.82332308205E+01 -0.10192065824E+02  0.17543712818E+02  0.17770000000E+01 0. -1.
         15    1    1    2    0    0 -0.59550296878E+00  0.46990724201E+00  0.24625637283E+01  0.31300775898E+01  0.17770000000E+01 0.  1.
</event>
<event>
 6    1  0.1196607E-002  0.1847669E+03  0.7546771E-02  0.1066665E+00
        -11   -1    0    0    0    0  0.00000000000E+00  0.00000000000E+00  0.18250000000E+03  0.18250000000E+03  0.00000000000E+00 0.  1.
         11   -1    0    0    0    0 -0.00000000000E+00 -0.00000000000E+00 -0.18250000000E+03  0.18250000000E+03  0.00000000000E+00 0.  1.
        -11    1    1    2    0    0  0.36662050590E+01  0.39419936620E+01  0.18015264066E+03  0.18023305555E+03  0.00000000000E+00 0.  1.
         11    1    1    2    0    0  0.21500035125E+01 -0.16096852139E+01 -0.72112575046E+02  0.72162573966E+02  0.00000000000E+00 0.  1.
        -15    1    1    2    0    0  0.79456168304E+01  0.91827562801E+01 -0.61094204349E+02  0.62314648148E+02  0.17770000000E+01 0. -1.
         15    1    1    2    0    0 -0.13761825402E+02 -0.11515064728E+02 -0.46945861267E+02  0.50289722341E+02  0.17770000000E+01 0.  1.
</event>
<event>
 6    1  0.1196607E-002  0.1857089E+03  0.7546771E-02  0.1065929E+00
        -11   -1    0    0    0    0  0.00000000000E+00  0.00000000000E+00  0.18250000000E+03  0.18250000000E+03  0.00000000000E+00 0.  1.
         11   -1    0    0    0    0 -0.00000000000E+00 -0.00000000000E+00 -0.18250000000E+03  0.18250000000E+03  0.00000000000E+00 0. -1.
        -11    1    1    2    0    0  0.15910175071E+02 -0.45994664968E+01  0.17852454410E+03  0.17929110856E+03  0.00000000000E+00 0.  1.
         11    1    1    2    0    0 -0.57542386102E+01 -0.48756039545E+01 -0.14107605116E+03  0.14127751055E+03  0.00000000000E+00 0. -1.
        -15    1    1    2    0    0 -0.10881063821E+02  0.15671577788E+01 -0.75719678865E+01  0.13466475413E+02  0.17770000000E+01 0.  1.
         15    1    1    2    0    0  0.72512735983E+00  0.79079126726E+01 -0.29876525052E+02  0.30964905470E+02  0.17770000000E+01 0. -1.
</event>
<event>
 6    1  0.1196607E-002  0.1846414E+03  0.7546771E-02  0.1066763E+00
        -11   -1    0    0    0    0  0.00000000000E+00  0.00000000000E+00  0.18250000000E+03  0.18250000000E+03  0.00000000000E+00 0. -1.
         11   -1    0    0    0    0 -0.00000000000E+00 -0.00000000000E+00 -0.18250000000E+03  0.18250000000E+03  0.00000000000E+00 0. -1.
        -11    1    1    2    0    0  0.57173207441E+01  0.72739838447E+00  0.18026644437E+03  0.18035855352E+03  0.00000000000E+00 0. -1.
         11    1    1    2    0    0  0.21524942964E+01 -0.19787778456E+01 -0.16528302351E+03  0.16530888256E+03  0.00000000000E+00 0. -1.
        -15    1    1    2    0    0 -0.82092285584E+01 -0.13542139854E+01 -0.13169112813E+02  0.15678284036E+02  0.17770000000E+01 0. -1.
         15    1    1    2    0    0  0.33941351786E+00  0.26055934465E+01 -0.18143080461E+01  0.36542798786E+01  0.17770000000E+01 0.  1.
</event>
<event>
 6    1  0.1196607E-002  0.1847114E+03  0.7546771E-02  0.1066708E+00
        -11   -1    0    0    0    0  0.00000000000E+00  0.00000000000E+00  0.18250000000E+03  0.18250000000E+03  0.00000000000E+00 0. -1.
         11   -1    0    0    0    0 -0.00000000000E+00 -0.00000000000E+00 -0.18250000000E+03  0.18250000000E+03  0.00000000000E+00 0. -1.
        -11    1    1    2    0    0 -0.32538111121E+01  0.26784760054E+01  0.17515937843E+03  0.17521007212E+03  0.00000000000E+00 0. -1.
         11    1    1    2    0    0  0.37135461485E+01 -0.26157036121E+01 -0.18023136745E+03  0.18028859682E+03  0.00000000000E+00 0. -1.
        -15    1    1    2    0    0  0.31148242824E+01 -0.12159900655E+01  0.31393132372E+01  0.49187171855E+01  0.17770000000E+01 0.  1.
         15    1    1    2    0    0 -0.35745593187E+01  0.11532176722E+01  0.19326757822E+01  0.45826138831E+01  0.17770000000E+01 0. -1.
</event>
<event>
 6    1  0.1196607E-002  0.1888074E+03  0.7546771E-02  0.1063542E+00
        -11   -1    0    0    0    0  0.00000000000E+00  0.00000000000E+00  0.18250000000E+03  0.18250000000E+03  0.00000000000E+00 0.  1.
         11   -1    0    0    0    0 -0.00000000000E+00 -0.00000000000E+00 -0.18250000000E+03  0.18250000000E+03  0.00000000000E+00 0.  1.
        -11    1    1    2    0    0  0.16453550032E+01  0.18241928939E+01  0.14988800532E+03  0.14990813524E+03  0.00000000000E+00 0.  1.
         11    1    1    2    0    0  0.15730100804E+02  0.16731170773E+02 -0.17468967088E+03  0.17619264814E+03  0.00000000000E+00 0.  1.
        -15    1    1    2    0    0 -0.16820765689E+02 -0.17624981986E+02  0.14538477355E+02  0.28427156051E+02  0.17770000000E+01 0. -1.
         15    1    1    2    0    0 -0.55469011824E+00 -0.93038168098E+00  0.10263188214E+02  0.10472060567E+02  0.17770000000E+01 0.  1.
</event>
<event>
 6    1  0.1196607E-002  0.1925369E+03  0.7546771E-02  0.1060735E+00
        -11   -1    0    0    0    0  0.00000000000E+00  0.00000000000E+00  0.18250000000E+03  0.18250000000E+03  0.00000000000E+00 0.  1.
         11   -1    0    0    0    0 -0.00000000000E+00 -0.00000000000E+00 -0.18250000000E+03  0.18250000000E+03  0.00000000000E+00 0.  1.
        -11    1    1    2    0    0 -0.16864184033E+02  0.37061681282E+01  0.16086261020E+03  0.16178663648E+03  0.00000000000E+00 0.  1.
         11    1    1    2    0    0  0.22110253856E+01 -0.41548794063E+01 -0.17239887703E+03  0.17246311043E+03  0.00000000000E+00 0.  1.
        -15    1    1    2    0    0 -0.38662346839E+01  0.46040172944E+01 -0.28317988169E+01  0.68790667548E+01  0.17770000000E+01 0.  1.
         15    1    1    2    0    0  0.18519393331E+02 -0.41553060163E+01  0.14368065654E+02  0.23871186336E+02  0.17770000000E+01 0. -1.
</event>
<event>
 6    1  0.1196607E-002  0.1829076E+03  0.7546771E-02  0.1068131E+00
        -11   -1    0    0    0    0  0.00000000000E+00  0.00000000000E+00  0.18250000000E+03  0.18250000000E+03  0.00000000000E+00 0.  1.
         11   -1    0    0    0    0 -0.00000000000E+00 -0.00000000000E+00 -0.18250000000E+03  0.18250000000E+03  0.00000000000E+00 0.  1.
        -11    1    1    2    0    0  0.39696122859E+00  0.28590662169E+01  0.16171650096E+03  0.16174225954E+03  0.00000000000E+00 0.  1.
         11    1    1    2    0    0 -0.22389710890E+01 -0.15959100703E+01 -0.18207163979E+03  0.18209239944E+03  0.00000000000E+00 0.  1.
        -15    1    1    2    0    0 -0.31944158473E+00 -0.14340760041E+01  0.14399170442E+02  0.14582607974E+02  0.17770000000E+01 0. -1.
         15    1    1    2    0    0  0.21614514451E+01  0.17091985753E+00  0.59559683815E+01  0.65827330425E+01  0.17770000000E+01 0. -1.
</event>
<event>
 6    1  0.1196607E-002  0.1845289E+03  0.7546771E-02  0.1066851E+00
        -11   -1    0    0    0    0  0.00000000000E+00  0.00000000000E+00  0.18250000000E+03  0.18250000000E+03  0.00000000000E+00 0.  1.
         11   -1    0    0    0    0 -0.00000000000E+00 -0.00000000000E+00 -0.18250000000E+03  0.18250000000E+03  0.00000000000E+00 0.  1.
        -11    1    1    2    0    0 -0.25511944346E+01  0.52906323175E+00  0.51999027239E+02  0.52064261588E+02  0.00000000000E+00 0.  1.
         11    1    1    2    0    0 -0.49528158544E+01  0.37657323600E+01 -0.18036379611E+03  0.18047107821E+03  0.00000000000E+00 0.  1.
        -15    1    1    2    0    0  0.47720051616E+01 -0.70530278774E+01  0.12787105460E+03  0.12816661644E+03  0.17770000000E+01 0.  1.
         15    1    1    2    0    0  0.27320051274E+01  0.27582322856E+01  0.49371426770E+00  0.42980437568E+01  0.17770000000E+01 0. -1.
</event>
<event>
 6    1  0.1196607E-002  0.1826695E+03  0.7546771E-02  0.1068320E+00
        -11   -1    0    0    0    0  0.00000000000E+00  0.00000000000E+00  0.18250000000E+03  0.18250000000E+03  0.00000000000E+00 0.  1.
         11   -1    0    0    0    0 -0.00000000000E+00 -0.00000000000E+00 -0.18250000000E+03  0.18250000000E+03  0.00000000000E+00 0. -1.
        -11    1    1    2    0    0 -0.20772686801E+00  0.22125398211E+01  0.79430533148E+02  0.79461613872E+02  0.00000000000E+00 0.  1.
         11    1    1    2    0    0  0.23697134947E+01  0.67308372505E+00 -0.18231390570E+03  0.18233054816E+03  0.00000000000E+00 0. -1.
        -15    1    1    2    0    0  0.95335283472E-01  0.18729212907E+01  0.28344078324E+02  0.28461578102E+02  0.17770000000E+01 0. -1.
         15    1    1    2    0    0 -0.22573219102E+01 -0.47585448368E+01  0.74539294223E+02  0.74746259863E+02  0.17770000000E+01 0.  1.
</event>
<event>
 6    1  0.1196607E-002  0.1895962E+03  0.7546771E-02  0.1062942E+00
        -11   -1    0    0    0    0  0.00000000000E+00  0.00000000000E+00  0.18250000000E+03  0.18250000000E+03  0.00000000000E+00 0.  1.
         11   -1    0    0    0    0 -0.00000000000E+00 -0.00000000000E+00 -0.18250000000E+03  0.18250000000E+03  0.00000000000E+00 0. -1.
        -11    1    1    2    0    0  0.76713163821E+00  0.25326050470E+01  0.17538386330E+03  0.17540382574E+03  0.00000000000E+00 0.  1.
         11    1    1    2    0    0 -0.53225718142E+01 -0.70505603900E+00 -0.16863334994E+03  0.16871880034E+03  0.00000000000E+00 0. -1.
        -15    1    1    2    0    0  0.37732758824E+00 -0.26415935838E+01  0.62819228259E+01  0.70527070095E+01  0.17770000000E+01 0.  1.
         15    1    1    2    0    0  0.41781125877E+01  0.81404457587E+00 -0.13032436184E+02  0.13824666914E+02  0.17770000000E+01 0.  1.
</event>
<event>
 6    1  0.1196607E-002  0.1866676E+03  0.7546771E-02  0.1065185E+00
        -11   -1    0    0    0    0  0.00000000000E+00  0.00000000000E+00  0.18250000000E+03  0.18250000000E+03  0.00000000000E+00 0.  1.
         11   -1    0    0    0    0 -0.00000000000E+00 -0.00000000000E+00 -0.18250000000E+03  0.18250000000E+03  0.00000000000E+00 0. -1.
        -11    1    1    2    0    0  0.47862337081E+00 -0.45288992570E+01  0.15374958910E+03  0.15381702168E+03  0.00000000000E+00 0.  1.
         11    1    1    2    0    0  0.35323165320E+01 -0.19806806435E+01 -0.17828645230E+03  0.17833244076E+03  0.00000000000E+00 0. -1.
        -15    1    1    2    0    0  0.14274849931E+01  0.12794484154E+02  0.17610195132E+02  0.21886371097E+02  0.17770000000E+01 0.  1.
         15    1    1    2    0    0 -0.54384248959E+01 -0.62849042540E+01  0.69266680622E+01  0.10964166465E+02  0.17770000000E+01 0. -1.
</event>
<event>
 6    1  0.1196607E-002  0.1826229E+03  0.7546771E-02  0.1068357E+00
        -11   -1    0    0    0    0  0.00000000000E+00  0.00000000000E+00  0.18250000000E+03  0.18250000000E+03  0.00000000000E+00 0.  1.
         11   -1    0    0    0    0 -0.00000000000E+00 -0.00000000000E+00 -0.18250000000E+03  0.18250000000E+03  0.00000000000E+00 0.  1.
        -11    1    1    2    0    0 -0.36965879450E+00  0.25500228218E+01  0.18235893055E+03  0.18237713348E+03  0.00000000000E+00 0.  1.
         11    1    1    2    0    0  0.20238315878E+01  0.89610485635E+00 -0.45459219959E+02  0.45513070403E+02  0.00000000000E+00 0.  1.
        -15    1    1    2    0    0 -0.12406823104E+00 -0.46295112372E+01 -0.89114202818E+02  0.89252152019E+02  0.17770000000E+01 0.  1.
         15    1    1    2    0    0 -0.15301045623E+01  0.11833835590E+01 -0.47785507774E+02  0.47857644100E+02  0.17770000000E+01 0.  1.
</event>
<event>
 6    1  0.1196607E-002  0.1829108E+03  0.7546771E-02  0.1068128E+00
        -11   -1    0    0    0    0  0.00000000000E+00  0.00000000000E+00  0.18250000000E+03  0.18250000000E+03  0.00000000000E+00 0. -1.
         11   -1    0    0    0    0 -0.00000000000E+00 -0.00000000000E+00 -0.18250000000E+03  0.18250000000E+03  0.00000000000E+00 0. -1.
        -11    1    1    2    0    0 -0.23979096522E+01  0.16519820060E+01  0.18206589912E+03  0.18208918320E+03  0.00000000000E+00 0. -1.
         11    1    1    2    0    0  0.12485186413E+01 -0.85741906110E+00 -0.83799247402E+02  0.83812933557E+02  0.00000000000E+00 0. -1.
        -15    1    1    2    0    0  0.73283418926E+00 -0.12812133433E+01 -0.96448300880E+02  0.96475960867E+02  0.17770000000E+01 0. -1.
         15    1    1    2    0    0  0.41655682166E+00  0.48665039846E+00 -0.18183508365E+01  0.26219223788E+01  0.17770000000E+01 0.  1.
</event>
<event>
 6    1  0.1196607E-002  0.1851710E+03  0.7546771E-02  0.1066348E+00
        -11   -1    0    0    0    0  0.00000000000E+00  0.00000000000E+00  0.18250000000E+03  0.18250000000E+03  0.00000000000E+00 0. -1.
         11   -1    0    0    0    0 -0.00000000000E+00 -0.00000000000E+00 -0.18250000000E+03  0.18250000000E+03  0.00000000000E+00 0. -1.
        -11    1    1    2    0    0 -0.40867043151E+01 -0.18708855979E+01  0.17977281739E+03  0.17982899443E+03  0.00000000000E+00 0. -1.
         11    1    1    2    0    0 -0.65436946181E+00 -0.21402517182E+01 -0.15364889568E+03  0.15366519456E+03  0.00000000000E+00 0. -1.
        -15    1    1    2    0    0 -0.39279147432E+00  0.85425569243E+01 -0.21078604772E+02  0.22816548207E+02  0.17770000000E+01 0. -1.
         15    1    1    2    0    0  0.51338652512E+01 -0.45314196083E+01 -0.50453169359E+01  0.86892628034E+01  0.17770000000E+01 0.  1.
</event>
<event>
 6    1  0.1196607E-002  0.1846822E+03  0.7546771E-02  0.1066731E+00
        -11   -1    0    0    0    0  0.00000000000E+00  0.00000000000E+00  0.18250000000E+03  0.18250000000E+03  0.00000000000E+00 0. -1.
         11   -1    0    0    0    0 -0.00000000000E+00 -0.00000000000E+00 -0.18250000000E+03  0.18250000000E+03  0.00000000000E+00 0. -1.
        -11    1    1    2    0    0 -0.31355283572E+01 -0.27267531280E+01  0.16837988138E+03  0.16843114668E+03  0.00000000000E+00 0. -1.
         11    1    1    2    0    0 -0.24036123780E+01 -0.11557960120E+01 -0.18029804095E+03  0.18031776614E+03  0.00000000000E+00 0. -1.
        -15    1    1    2    0    0  0.61737287331E+01  0.11628387290E+01  0.11040665666E+02  0.12826579736E+02  0.17770000000E+01 0. -1.
         15    1    1    2    0    0 -0.63458799787E+00  0.27197104111E+01  0.87749390312E+00  0.34245074386E+01  0.17770000000E+01 0.  1.
</event>
<event>
 6    1  0.1196607E-002  0.1829993E+03  0.7546771E-02  0.1068058E+00
        -11   -1    0    0    0    0  0.00000000000E+00  0.00000000000E+00  0.18250000000E+03  0.18250000000E+03  0.00000000000E+00 0.  1.
         11   -1    0    0    0    0 -0.00000000000E+00 -0.00000000000E+00 -0.18250000000E+03  0.18250000000E+03  0.00000000000E+00 0.  1.
        -11    1    1    2    0    0  0.63443570893E+00  0.21115898280E+01  0.85712584003E+02  0.85740937578E+02  0.00000000000E+00 0.  1.
         11    1    1    2    0    0 -0.28627832381E+01 -0.90477496388E+00 -0.18197595549E+03  0.18200072121E+03  0.00000000000E+00 0.  1.
        -15    1    1    2    0    0 -0.45624708090E+01  0.13052428152E+01  0.20020694531E+02  0.20652015330E+02  0.17770000000E+01 0.  1.
         15    1    1    2    0    0  0.67908183381E+01 -0.25120576794E+01  0.76242676952E+02  0.76606325883E+02  0.17770000000E+01 0.  1.
</event>
<event>
 6    1  0.1196607E-002  0.1844970E+03  0.7546771E-02  0.1066876E+00
        -11   -1    0    0    0    0  0.00000000000E+00  0.00000000000E+00  0.18250000000E+03  0.18250000000E+03  0.00000000000E+00 0. -1.
         11   -1    0    0    0    0 -0.00000000000E+00 -0.00000000000E+00 -0.18250000000E+03  0.18250000000E+03  0.00000000000E+00 0.  1.
        -11    1    1    2    0    0  0.30112755893E+01 -0.23103044540E+01  0.15866551906E+03  0.15871090771E+03  0.00000000000E+00 0. -1.
         11    1    1    2    0    0  0.52600711426E+01  0.51091642390E+01 -0.18035398886E+03  0.18050300055E+03  0.00000000000E+00 0.  1.
        -15    1    1    2    0    0 -0.43855143238E+01  0.31707837835E+01  0.14197940103E+02  0.15297903055E+02  0.17770000000E+01 0.  1.
         15    1    1    2    0    0 -0.38858324080E+01 -0.59696435685E+01  0.74905297019E+01  0.10488188693E+02  0.17770000000E+01 0.  1.
</event>
<event>
 6    1  0.1196607E-002  0.1858610E+03  0.7546771E-02  0.1065810E+00
        -11   -1    0    0    0    0  0.00000000000E+00  0.00000000000E+00  0.18250000000E+03  0.18250000000E+03  0.00000000000E+00 0. -1.
         11   -1    0    0    0    0 -0.00000000000E+00 -0.00000000000E+00 -0.18250000000E+03  0.18250000000E+03  0.00000000000E+00 0.  1.
        -11    1    1    2    0    0 -0.61118809683E+00  0.21636437168E+01  0.16125127744E+03  0.16126695068E+03  0.00000000000E+00 0. -1.
         11    1    1    2    0    0 -0.14109601061E+01 -0.29578022603E+01 -0.17910902833E+03  0.17913900589E+03  0.00000000000E+00 0.  1.
        -15    1    1    2    0    0  0.26665219647E+01 -0.22925908548E+01  0.20002458392E+02  0.20386818853E+02  0.17770000000E+01 0. -1.
         15    1    1    2    0    0 -0.64437376172E+00  0.30867493983E+01 -0.21447075050E+01  0.42072245810E+01  0.17770000000E+01 0.  1.
</event>
<event>
 6    1  0.1196607E-002  0.1859538E+03  0.7546771E-02  0.1065738E+00
        -11   -1    0    0    0    0  0.00000000000E+00  0.00000000000E+00  0.18250000000E+03  0.18250000000E+03  0.00000000000E+00 0.  1.
         11   -1    0    0    0    0 -0.00000000000E+00 -0.00000000000E+00 -0.18250000000E+03  0.18250000000E+03  0.00000000000E+00 0.  1.
        -11    1    1    2    0    0  0.32124172363E+01  0.79162520296E+00  0.17901562304E+03  0.17904619400E+03  0.00000000000E+00 0.  1.
         11    1    1    2    0    0  0.22401686343E+01  0.32582534486E+01 -0.16672026669E+03  0.16676714873E+03  0.00000000000E+00 0.  1.
        -15    1    1    2    0    0 -0.34945394387E+01  0.39238418034E+01 -0.19941351635E+01  0.58942891375E+01  0.17770000000E+01 0. -1.
         15    1    1    2    0    0 -0.19580464319E+01 -0.79737204549E+01 -0.10301221185E+02  0.13292368135E+02  0.17770000000E+01 0.  1.
</event>
<event>
 6    1  0.1196607E-002  0.1849710E+03  0.7546771E-02  0.1066505E+00
        -11   -1    0    0    0    0  0.00000000000E+00  0.00000000000E+00  0.18250000000E+03  0.18250000000E+03  0.00000000000E+00 0. -1.
         11   -1    0    0    0    0 -0.00000000000E+00 -0.00000000000E+00 -0.18250000000E+03  0.18250000000E+03  0.00000000000E+00 0. -1.
        -11    1    1    2    0    0  0.10199179549E+01  0.24416608063E+01  0.18000959146E+03  0.18002903921E+03  0.00000000000E+00 0. -1.
         11    1    1    2    0    0  0.21586955467E+01 -0.64210151672E+00 -0.16225320015E+03  0.16226883009E+03  0.00000000000E+00 0. -1.
        -15    1    1    2    0    0 -0.36370787754E+01 -0.31395712094E+01 -0.33560806829E+00  0.51337716324E+01  0.17770000000E+01 0.  1.
         15    1    1    2    0    0  0.45846527377E+00  0.13400119198E+01 -0.17420783244E+02  0.17568359063E+02  0.17770000000E+01 0. -1.
</event>
<event>
 6    1  0.1196607E-002  0.1833345E+03  0.7546771E-02  0.1067792E+00
        -11   -1    0    0    0    0  0.00000000000E+00  0.00000000000E+00  0.18250000000E+03  0.18250000000E+03  0.00000000000E+00 0. -1.
         11   -1    0    0    0    0 -0.00000000000E+00 -0.00000000000E+00 -0.18250000000E+03  0.18250000000E+03  0.00000000000E+00 0. -1.
        -11    1    1    2    0    0  0.66931030265E+01  0.63354158492E+01  0.18143159253E+03  0.18166551101E+03  0.00000000000E+00 0. -1.
         11    1    1    2    0    0 -0.28086845410E+00  0.87461823242E+00 -0.51544115314E+02  0.51552300313E+02  0.00000000000E+00 0. -1.
        -15    1    1    2    0    0 -0.46371902049E+01 -0.57578794440E+01 -0.14627443525E+02  0.16485646538E+02  0.17770000000E+01 0.  1.
         15    1    1    2    0    0 -0.17750443675E+01 -0.14521546376E+01 -0.11526003369E+03  0.11529654214E+03  0.17770000000E+01 0. -1.
</event>
<event>
 6    1  0.1196607E-002  0.1830031E+03  0.7546771E-02  0.1068055E+00
        -11   -1    0    0    0    0  0.00000000000E+00  0.00000000000E+00  0.18250000000E+03  0.18250000000E+03  0.00000000000E+00 0. -1.
         11   -1    0    0    0    0 -0.00000000000E+00 -0.00000000000E+00 -0.18250000000E+03  0.18250000000E+03  0.00000000000E+00 0. -1.
        -11    1    1    2    0    0  0.41281905574E+01 -0.11133688284E+01  0.18194665336E+03  0.18199688518E+03  0.00000000000E+00 0. -1.
         11    1    1    2    0    0 -0.10967389476E+01  0.33073930471E+01 -0.13835418243E+03  0.13839805447E+03  0.00000000000E+00 0. -1.
        -15    1    1    2    0    0 -0.56147774325E+01 -0.11884058434E+01 -0.31744241900E+02  0.32307780130E+02  0.17770000000E+01 0. -1.
         15    1    1    2    0    0  0.25833258226E+01 -0.10056183753E+01 -0.11848229033E+02  0.12297280222E+02  0.17770000000E+01 0.  1.
</event>
<event>
 6    1  0.1196607E-002  0.1712512E+03  0.7546771E-02  0.1077779E+00
        -11   -1    0    0    0    0  0.00000000000E+00  0.00000000000E+00  0.18250000000E+03  0.18250000000E+03  0.00000000000E+00 0.  1.
         11   -1    0    0    0    0 -0.00000000000E+00 -0.00000000000E+00 -0.18250000000E+03  0.18250000000E+03  0.00000000000E+00 0. -1.
        -11    1    1    2    0    0 -0.26462547490E+01 -0.10155758374E+01  0.17016500114E+03  0.17018860618E+03  0.00000000000E+00 0.  1.
         11    1    1    2    0    0  0.58741556038E+01 -0.10372878627E+02 -0.17211144583E+03  0.17252377256E+03  0.00000000000E+00 0. -1.
        -15    1    1    2    0    0 -0.10282342632E+01 -0.36732031757E+01  0.51305613162E+01  0.66355162338E+01  0.17770000000E+01 0.  1.
         15    1    1    2    0    0 -0.21996665916E+01  0.15061657640E+02 -0.31841166315E+01  0.15652105025E+02  0.17770000000E+01 0.  1.
</event>
<event>
 6    1  0.1196607E-002  0.1905253E+03  0.7546771E-02  0.1062240E+00
        -11   -1    0    0    0    0  0.00000000000E+00  0.00000000000E+00  0.18250000000E+03  0.18250000000E+03  0.00000000000E+00 0. -1.
         11   -1    0    0    0    0 -0.00000000000E+00 -0.00000000000E+00 -0.18250000000E+03  0.18250000000E+03  0.00000000000E+00 0.  1.
        -11    1    1    2    0    0 -0.99703017528E+01 -0.86582564342E+01  0.16417836280E+03  0.16470855210E+03  0.00000000000E+00 0. -1.
         11    1    1    2    0    0  0.83409188126E+01  0.18911961108E+01 -0.17426490606E+03  0.17447465442E+03  0.00000000000E+00 0.  1.
        -15    1    1    2    0    0 -0.21190267824E+01  0.40394825373E+01  0.16782030457E+02  0.17481475022E+02  0.17770000000E+01 0. -1.
         15    1    1    2    0    0  0.37484097226E+01  0.27275777861E+01 -0.66954871993E+01  0.83353184620E+01  0.17770000000E+01 0.  1.
</event>
<event>
 6    1  0.1196607E-002  0.1869877E+03  0.7546771E-02  0.1064938E+00
        -11   -1    0    0    0    0  0.00000000000E+00  0.00000000000E+00  0.18250000000E+03  0.18250000000E+03  0.00000000000E+00 0.  1.
         11   -1    0    0    0    0 -0.00000000000E+00 -0.00000000000E+00 -0.18250000000E+03  0.18250000000E+03  0.00000000000E+00 0. -1.
        -11    1    1    2    0    0  0.18838494207E+01  0.14904664505E+02  0.11744831844E+03  0.11840525924E+03  0.00000000000E+00 0.  1.
         11    1    1    2    0    0  0.25203669076E+01  0.12900664990E+00 -0.17799442654E+03  0.17801231634E+03  0.00000000000E+00 0. -1.
        -15    1    1    2    0    0 -0.54536702163E+01  0.67266630827E+01  0.91073693446E+01  0.12692218893E+02  0.17770000000E+01 0. -1.
         15    1    1    2    0    0  0.10494538880E+01 -0.21760334238E+02  0.51438738752E+02  0.55890205519E+02  0.17770000000E+01 0.  1.
</event>
<event>
 6    1  0.1196607E-002  0.1827846E+03  0.7546771E-02  0.1068228E+00
        -11   -1    0    0    0    0  0.00000000000E+00  0.00000000000E+00  0.18250000000E+03  0.18250000000E+03  0.00000000000E+00 0. -1.
         11   -1    0    0    0    0 -0.00000000000E+00 -0.00000000000E+00 -0.18250000000E+03  0.18250000000E+03  0.00000000000E+00 0.  1.
        -11    1    1    2    0    0  0.80857324509E+00  0.14538155476E+01  0.76949523924E+02  0.76967503548E+02  0.00000000000E+00 0. -1.
         11    1    1    2    0    0  0.36538787221E+01 -0.12672381168E+01 -0.18217435424E+03  0.18221540019E+03  0.00000000000E+00 0.  1.
        -15    1    1    2    0    0 -0.50313021657E+01  0.32645041959E+01  0.41197546783E+02  0.41669732170E+02  0.17770000000E+01 0. -1.
         15    1    1    2    0    0  0.56885019854E+00 -0.34510816267E+01  0.64027283533E+02  0.64147364096E+02  0.17770000000E+01 0. -1.
</event>
<event>
 6    1  0.1196607E-002  0.1843116E+03  0.7546771E-02  0.1067022E+00
        -11   -1    0    0    0    0  0.00000000000E+00  0.00000000000E+00  0.18250000000E+03  0.18250000000E+03  0.00000000000E+00 0. -1.
         11   -1    0    0    0    0 -0.00000000000E+00 -0.00000000000E+00 -0.18250000000E+03  0.18250000000E+03  0.00000000000E+00 0.  1.
        -11    1    1    2    0    0  0.34566462931E+01 -0.14403217124E+02  0.18008020158E+03  0.18068835067E+03  0.00000000000E+00 0. -1.
         11    1    1    2    0    0  0.59480234900E+01  0.10515663385E+02 -0.52643508119E+02  0.54012008914E+02  0.00000000000E+00 0.  1.
        -15    1    1    2    0    0 -0.67098640650E+01  0.67579251057E+01 -0.15491789206E+02  0.18271428223E+02  0.17770000000E+01 0. -1.
         15    1    1    2    0    0 -0.26948057181E+01 -0.28703713664E+01 -0.11194490425E+03  0.11202821219E+03  0.17770000000E+01 0.  1.
</event>
<event>
 6    1  0.1196607E-002  0.1828126E+03  0.7546771E-02  0.1068206E+00
        -11   -1    0    0    0    0  0.00000000000E+00  0.00000000000E+00  0.18250000000E+03  0.18250000000E+03  0.00000000000E+00 0.  1.
         11   -1    0    0    0    0 -0.00000000000E+00 -0.00000000000E+00 -0.18250000000E+03  0.18250000000E+03  0.00000000000E+00 0.  1.
        -11    1    1    2    0    0  0.31686267977E+01  0.46514417830E+00  0.18215924076E+03  0.18218739131E+03  0.00000000000E+00 0.  1.
         11    1    1    2    0    0 -0.16981230845E+01  0.14531800144E+01 -0.14973220679E+03  0.14974888683E+03  0.00000000000E+00 0.  1.
        -15    1    1    2    0    0  0.99662983632E+00 -0.25104066569E+01 -0.19804204647E+02  0.20066381421E+02  0.17770000000E+01 0. -1.
         15    1    1    2    0    0 -0.24671335496E+01  0.59208246420E+00 -0.12622829323E+02  0.12997340447E+02  0.17770000000E+01 0.  1.
</event>
<event>
 6    1  0.1196607E-002  0.1827269E+03  0.7546771E-02  0.1068274E+00
        -11   -1    0    0    0    0  0.00000000000E+00  0.00000000000E+00  0.18250000000E+03  0.18250000000E+03  0.00000000000E+00 0. -1.
         11   -1    0    0    0    0 -0.00000000000E+00 -0.00000000000E+00 -0.18250000000E+03  0.18250000000E+03  0.00000000000E+00 0.  1.
        -11    1    1    2    0    0 -0.84924429747E+00  0.10467488912E+01  0.59935775647E+02  0.59950930781E+02  0.00000000000E+00 0. -1.
         11    1    1    2    0    0  0.39569463005E+01 -0.59898332178E-01 -0.18223009457E+03  0.18227305994E+03  0.00000000000E+00 0.  1.
        -15    1    1    2    0    0 -0.49689470007E+01 -0.75893595309E+00  0.31725333169E+02  0.32170186691E+02  0.17770000000E+01 0. -1.
         15    1    1    2    0    0  0.18612449976E+01 -0.22791460596E+00  0.90568985754E+02  0.90605822591E+02  0.17770000000E+01 0. -1.
</event>
<event>
 6    1  0.1196607E-002  0.1829096E+03  0.7546771E-02  0.1068129E+00
        -11   -1    0    0    0    0  0.00000000000E+00  0.00000000000E+00  0.18250000000E+03  0.18250000000E+03  0.00000000000E+00 0. -1.
         11   -1    0    0    0    0 -0.00000000000E+00 -0.00000000000E+00 -0.18250000000E+03  0.18250000000E+03  0.00000000000E+00 0.  1.
        -11    1    1    2    0    0  0.99049467155E+00  0.33521661598E+01  0.18205688724E+03  0.18209043986E+03  0.00000000000E+00 0. -1.
         11    1    1    2    0    0  0.44168361605E+01 -0.16194795905E+01 -0.12614260386E+03  0.12623029615E+03  0.00000000000E+00 0.  1.
        -15    1    1    2    0    0 -0.36536531431E+01 -0.41385901850E+01 -0.33468054089E+02  0.33966829165E+02  0.17770000000E+01 0. -1.
         15    1    1    2    0    0 -0.17536776889E+01  0.24059036158E+01 -0.22446229286E+02  0.22712434828E+02  0.17770000000E+01 0.  1.
</event>
<event>
 6    1  0.1196607E-002  0.1872233E+03  0.7546771E-02  0.1064756E+00
        -11   -1    0    0    0    0  0.00000000000E+00  0.00000000000E+00  0.18250000000E+03  0.18250000000E+03  0.00000000000E+00 0. -1.
         11   -1    0    0    0    0 -0.00000000000E+00 -0.00000000000E+00 -0.18250000000E+03  0.18250000000E+03  0.00000000000E+00 0. -1.
        -11    1    1    2    0    0  0.67315936296E+01 -0.62259297392E+01  0.16900239989E+03  0.16925096077E+03  0.00000000000E+00 0. -1.
         11    1    1    2    0    0 -0.13226409152E+02  0.48826882236E+01 -0.17721677420E+03  0.17777672401E+03  0.00000000000E+00 0. -1.
        -15    1    1    2    0    0  0.83284557449E+01  0.23922288106E+01 -0.47172495508E+00  0.88581142017E+01  0.17770000000E+01 0.  1.
         15    1    1    2    0    0 -0.18336402229E+01 -0.10489872951E+01  0.86860992632E+01  0.91142010194E+01  0.17770000000E+01 0. -1.
</event>
<event>
 6    1  0.1196607E-002  0.1841303E+03  0.7546771E-02  0.1067164E+00
        -11   -1    0    0    0    0  0.00000000000E+00  0.00000000000E+00  0.18250000000E+03  0.18250000000E+03  0.00000000000E+00 0.  1.
         11   -1    0    0    0    0 -0.00000000000E+00 -0.00000000000E+00 -0.18250000000E+03  0.18250000000E+03  0.00000000000E+00 0.  1.
        -11    1    1    2    0    0 -0.94817371944E+00 -0.23308014402E+01  0.18085221038E+03  0.18086971462E+03  0.00000000000E+00 0.  1.
         11    1    1    2    0    0  0.86706560685E+01  0.42643287570E+01 -0.12673775010E+03  0.12710555486E+03  0.00000000000E+00 0.  1.
        -15    1    1    2    0    0  0.82425548449E+00  0.15290789719E+01 -0.42616987937E+00  0.25212753464E+01  0.17770000000E+01 0.  1.
         15    1    1    2    0    0 -0.85467378336E+01 -0.34626062887E+01 -0.53688290404E+02  0.54503455169E+02  0.17770000000E+01 0. -1.
</event>
<event>
 6    1  0.1196607E-002  0.2128694E+03  0.7546771E-02  0.1046561E+00
        -11   -1    0    0    0    0  0.00000000000E+00  0.00000000000E+00  0.18250000000E+03  0.18250000000E+03  0.00000000000E+00 0. -1.
         11   -1    0    0    0    0 -0.00000000000E+00 -0.00000000000E+00 -0.18250000000E+03  0.18250000000E+03  0.00000000000E+00 0.  1.
        -11    1    1    2    0    0  0.81908314437E+01  0.24654914280E+01  0.15188991384E+03  0.15213058303E+03  0.00000000000E+00 0. -1.
         11    1    1    2    0    0  0.62282526954E+01 -0.42860957293E+01 -0.14187855888E+03  0.14207986211E+03  0.00000000000E+00 0.  1.
        -15    1    1    2    0    0 -0.88176134992E+01  0.33789557949E+01 -0.39514773550E+02  0.40666235476E+02  0.17770000000E+01 0. -1.
         15    1    1    2    0    0 -0.56014706398E+01 -0.15583514935E+01  0.29503418591E+02  0.30123319376E+02  0.17770000000E+01 0.  1.
</event>
<event>
 6    1  0.1196607E-002  0.1829991E+03  0.7546771E-02  0.1068058E+00
        -11   -1    0    0    0    0  0.00000000000E+00  0.00000000000E+00  0.18250000000E+03  0.18250000000E+03  0.00000000000E+00 0.  1.
         11   -1    0    0    0    0 -0.00000000000E+00 -0.00000000000E+00 -0.18250000000E+03  0.18250000000E+03  0.00000000000E+00 0. -1.
        -11    1    1    2    0    0  0.39596900657E+01  0.17281215250E+01  0.11389926117E+03  0.11398117057E+03  0.00000000000E+00 0.  1.
         11    1    1    2    0    0 -0.14314382934E+01  0.24103899905E+01 -0.18197931743E+03  0.18200090925E+03  0.00000000000E+00 0. -1.
        -15    1    1    2    0    0  0.68590548588E+00  0.26432062578E+01  0.29132343142E+02  0.29313958306E+02  0.17770000000E+01 0.  1.
         15    1    1    2    0    0 -0.32141572582E+01 -0.67817177733E+01  0.38947713112E+02  0.39703961874E+02  0.17770000000E+01 0. -1.
</event>
<event>
 6    1  0.1196607E-002  0.1828018E+03  0.7546771E-02  0.1068215E+00
        -11   -1    0    0    0    0  0.00000000000E+00  0.00000000000E+00  0.18250000000E+03  0.18250000000E+03  0.00000000000E+00 0.  1.
         11   -1    0    0    0    0 -0.00000000000E+00 -0.00000000000E+00 -0.18250000000E+03  0.18250000000E+03  0.00000000000E+00 0. -1.
        -11    1    1    2    0    0 -0.24563589536E-01 -0.45559466236E+01  0.18214125312E+03  0.18219822541E+03  0.00000000000E+00 0.  1.
         11    1    1    2    0    0 -0.10049924087E+01 -0.30834709091E+00 -0.57512301080E+02  0.57521907680E+02  0.00000000000E+00 0. -1.
        -15    1    1    2    0    0  0.15080076105E+01  0.82044823133E+01 -0.99275023257E+02  0.99640732578E+02  0.17770000000E+01 0. -1.
         15    1    1    2    0    0 -0.47845161227E+00 -0.33401885988E+01 -0.25353928782E+02  0.25639134336E+02  0.17770000000E+01 0.  1.
</event>
<event>
 6    1  0.1196607E-002  0.1844875E+03  0.7546771E-02  0.1066884E+00
        -11   -1    0    0    0    0  0.00000000000E+00  0.00000000000E+00  0.18250000000E+03  0.18250000000E+03  0.00000000000E+00 0.  1.
         11   -1    0    0    0    0 -0.00000000000E+00 -0.00000000000E+00 -0.18250000000E+03  0.18250000000E+03  0.00000000000E+00 0. -1.
        -11    1    1    2    0    0  0.15644592263E+00  0.27820303457E+01  0.17675999041E+03  0.17678195151E+03  0.00000000000E+00 0.  1.
         11    1    1    2    0    0  0.23189989902E+01 -0.86192777347E+00 -0.18049553591E+03  0.18051249031E+03  0.00000000000E+00 0. -1.
        -15    1    1    2    0    0  0.10593985636E+00 -0.10188613079E+01  0.39361332654E+01  0.44384879972E+01  0.17770000000E+01 0. -1.
         15    1    1    2    0    0 -0.25813847692E+01 -0.90124126432E+00 -0.20058777274E+00  0.32670701856E+01  0.17770000000E+01 0.  1.
</event>
<event>
 6    1  0.1196607E-002  0.1842769E+03  0.7546771E-02  0.1067049E+00
        -11   -1    0    0    0    0  0.00000000000E+00  0.00000000000E+00  0.18250000000E+03  0.18250000000E+03  0.00000000000E+00 0. -1.
         11   -1    0    0    0    0 -0.00000000000E+00 -0.00000000000E+00 -0.18250000000E+03  0.18250000000E+03  0.00000000000E+00 0. -1.
        -11    1    1    2    0    0  0.12019913549E+01 -0.12037983274E+01  0.78061252020E+02  0.78079785992E+02  0.00000000000E+00 0. -1.
         11    1    1    2    0    0  0.13203210032E+02 -0.66791046388E+01 -0.18011635589E+03  0.18072309440E+03  0.00000000000E+00 0. -1.
        -15    1    1    2    0    0 -0.13561528065E+02  0.68028804007E+01  0.26342458834E+02  0.30451224797E+02  0.17770000000E+01 0.  1.
         15    1    1    2    0    0 -0.84367332177E+00  0.10800225655E+01  0.75712645031E+02  0.75745894806E+02  0.17770000000E+01 0. -1.
</event>
<event>
 6    1  0.1196607E-002  0.1845616E+03  0.7546771E-02  0.1066826E+00
        -11   -1    0    0    0    0  0.00000000000E+00  0.00000000000E+00  0.18250000000E+03  0.18250000000E+03  0.00000000000E+00 0. -1.
         11   -1    0    0    0    0 -0.00000000000E+00 -0.00000000000E+00 -0.18250000000E+03  0.18250000000E+03  0.00000000000E+00 0.  1.
        -11    1    1    2    0    0  0.21011363651E+01  0.14291584484E+01  0.17257010683E+03  0.17258881493E+03  0.00000000000E+00 0. -1.
         11    1    1    2    0    0 -0.52417208971E+01 -0.63448415559E+00 -0.18036114203E+03  0.18043840988E+03  0.00000000000E+00 0.  1.
        -15    1    1    2    0    0  0.44525009957E+01  0.15154628614E+01  0.21064432639E+01  0.54512590312E+01  0.17770000000E+01 0.  1.
         15    1    1    2    0    0 -0.13119164637E+01 -0.23101371542E+01  0.56845919315E+01  0.65215161509E+01  0.17770000000E+01 0.  1.
</event>
<event>
 6    1  0.1196607E-002  0.1844249E+03  0.7546771E-02  0.1066933E+00
        -11   -1    0    0    0    0  0.00000000000E+00  0.00000000000E+00  0.18250000000E+03  0.18250000000E+03  0.00000000000E+00 0.  1.
         11   -1    0    0    0    0 -0.00000000000E+00 -0.00000000000E+00 -0.18250000000E+03  0.18250000000E+03  0.00000000000E+00 0. -1.
        -11    1    1    2    0    0  0.13820628704E+01 -0.30524299961E+01  0.18054398988E+03  0.18057508053E+03  0.00000000000E+00 0.  1.
         11    1    1    2    0    0 -0.40151377317E+01  0.36137585470E+01 -0.11008194649E+03  0.11021440707E+03  0.00000000000E+00 0. -1.
        -15    1    1    2    0    0 -0.20314242765E+01 -0.10918627732E+02 -0.42825243152E+02  0.44277559736E+02  0.17770000000E+01 0.  1.
         15    1    1    2    0    0  0.46644991378E+01  0.10357299181E+02 -0.27636800238E+02  0.29932952659E+02  0.17770000000E+01 0. -1.
</event>
<event>
 6    1  0.1196607E-002  0.1873134E+03  0.7546771E-02  0.1064687E+00
        -11   -1    0    0    0    0  0.00000000000E+00  0.00000000000E+00  0.18250000000E+03  0.18250000000E+03  0.00000000000E+00 0. -1.
         11   -1    0    0    0    0 -0.00000000000E+00 -0.00000000000E+00 -0.18250000000E+03  0.18250000000E+03  0.00000000000E+00 0. -1.
        -11    1    1    2    0    0  0.29464410332E+01 -0.12338687985E+00  0.16849482833E+03  0.16852063349E+03  0.00000000000E+00 0. -1.
         11    1    1    2    0    0 -0.29595838408E+01 -0.20775706290E+01 -0.17764985100E+03  0.17768664833E+03  0.00000000000E+00 0. -1.
        -15    1    1    2    0    0  0.99740424337E+00  0.19665878332E+00  0.13467124197E+02  0.13621844701E+02  0.17770000000E+01 0. -1.
         15    1    1    2    0    0 -0.98426143583E+00  0.20042987255E+01 -0.43121015235E+01  0.51708734759E+01  0.17770000000E+01 0.  1.
</event>
<event>
 6    1  0.1196607E-002  0.1853552E+03  0.7546771E-02  0.1066205E+00
        -11   -1    0    0    0    0  0.00000000000E+00  0.00000000000E+00  0.18250000000E+03  0.18250000000E+03  0.00000000000E+00 0.  1.
         11   -1    0    0    0    0 -0.00000000000E+00 -0.00000000000E+00 -0.18250000000E+03  0.18250000000E+03  0.00000000000E+00 0.  1.
        -11    1    1    2    0    0  0.21779512281E+01  0.15997749145E+01  0.17962449602E+03  0.17964482269E+03  0.00000000000E+00 0.  1.
         11    1    1    2    0    0  0.63023815776E+01 -0.40503164992E+01 -0.17226264343E+03  0.17242547201E+03  0.00000000000E+00 0.  1.
        -15    1    1    2    0    0 -0.70468286688E+01  0.34917263317E+01 -0.50228315095E+01  0.94992901017E+01  0.17770000000E+01 0.  1.
         15    1    1    2    0    0 -0.14335041368E+01 -0.10411847470E+01 -0.23390210791E+01  0.34304151930E+01  0.17770000000E+01 0. -1.
</event>
<event>
 6    1  0.1196607E-002  0.1872536E+03  0.7546771E-02  0.1064733E+00
        -11   -1    0    0    0    0  0.00000000000E+00  0.00000000000E+00  0.18250000000E+03  0.18250000000E+03  0.00000000000E+00 0.  1.
         11   -1    0    0    0    0 -0.00000000000E+00 -0.00000000000E+00 -0.18250000000E+03  0.18250000000E+03  0.00000000000E+00 0. -1.
        -11    1    1    2    0    0  0.34074574015E+01  0.43135238918E+01  0.17766138537E+03  0.17774640673E+03  0.00000000000E+00 0.  1.
         11    1    1    2    0    0  0.46921597389E+01  0.11978462577E+02 -0.12810979841E+03  0.12875410820E+03  0.00000000000E+00 0. -1.
        -15    1    1    2    0    0 -0.88017533455E+01 -0.20718550985E+02 -0.48593729325E+02  0.53583929266E+02  0.17770000000E+01 0. -1.
         15    1    1    2    0    0  0.70213620514E+00  0.44265645162E+01 -0.95785762944E+00  0.49155558083E+01  0.17770000000E+01 0.  1.
</event>
<event>
 6    1  0.1196607E-002  0.1906507E+03  0.7546771E-02  0.1062146E+00
        -11   -1    0    0    0    0  0.00000000000E+00  0.00000000000E+00  0.18250000000E+03  0.18250000000E+03  0.00000000000E+00 0. -1.
         11   -1    0    0    0    0 -0.00000000000E+00 -0.00000000000E+00 -0.18250000000E+03  0.18250000000E+03  0.00000000000E+00 0. -1.
        -11    1    1    2    0    0 -0.51244876007E+01 -0.15030663794E+02  0.15526525939E+03  0.15607524467E+03  0.00000000000E+00 0. -1.
         11    1    1    2    0    0  0.10898756490E+02 -0.62060251260E+01 -0.17389757465E+03  0.17434925899E+03  0.00000000000E+00 0. -1.
        -15    1    1    2    0    0 -0.11687072176E+02  0.14520921500E+02  0.74696056684E+01  0.20159304430E+02  0.17770000000E+01 0. -1.
         15    1    1    2    0    0  0.59128032867E+01  0.67157674194E+01  0.11162709591E+02  0.14416191909E+02  0.17770000000E+01 0.  1.
</event>
<event>
 6    1  0.1196607E-002  0.1837144E+03  0.7546771E-02  0.1067492E+00
        -11   -1    0    0    0    0  0.00000000000E+00  0.00000000000E+00  0.18250000000E+03  0.18250000000E+03  0.00000000000E+00 0. -1.
         11   -1    0    0    0    0 -0.00000000000E+00 -0.00000000000E+00 -0.18250000000E+03  0.18250000000E+03  0.00000000000E+00 0.  1.
        -11    1    1    2    0    0 -0.44924048318E+01 -0.26994658036E+01  0.18120979514E+03  0.18128557215E+03  0.00000000000E+00 0. -1.
         11    1    1    2    0    0  0.27923391106E+01  0.17636128367E+01 -0.76540975284E+02  0.76612194757E+02  0.00000000000E+00 0.  1.
        -15    1    1    2    0    0 -0.23881914904E+01  0.30575503005E+00 -0.10162208060E+03  0.10166612976E+03  0.17770000000E+01 0.  1.
         15    1    1    2    0    0  0.40882572116E+01  0.63009793682E+00 -0.30467392479E+01  0.54361033363E+01  0.17770000000E+01 0.  1.
</event>
<event>
 6    1  0.1196607E-002  0.1829944E+03  0.7546771E-02  0.1068062E+00
        -11   -1    0    0    0    0  0.00000000000E+00  0.00000000000E+00  0.18250000000E+03  0.18250000000E+03  0.00000000000E+00 0.  1.
         11   -1    0    0    0    0 -0.00000000000E+00 -0.00000000000E+00 -0.18250000000E+03  0.18250000000E+03  0.00000000000E+00 0.  1.
        -11    1    1    2    0    0 -0.28757089002E+01  0.23790498398E+01  0.90018656687E+02  0.90095993982E+02  0.00000000000E+00 0.  1.
         11    1    1    2    0    0 -0.25622933115E+01  0.48599740502E+00 -0.18198696237E+03  0.18200564830E+03  0.00000000000E+00 0.  1.
        -15    1    1    2    0    0  0.19701207334E+01 -0.86518202851E+00  0.81538362431E+02  0.81586102938E+02  0.17770000000E+01 0.  1.
         15    1    1    2    0    0  0.34678814782E+01 -0.19998652163E+01  0.10429943255E+02  0.11312254777E+02  0.17770000000E+01 0. -1.
</event>
<event>
 6    1  0.1196607E-002  0.1847789E+03  0.7546771E-02  0.1066655E+00
        -11   -1    0    0    0    0  0.00000000000E+00  0.00000000000E+00  0.18250000000E+03  0.18250000000E+03  0.00000000000E+00 0.  1.
         11   -1    0    0    0    0 -0.00000000000E+00 -0.00000000000E+00 -0.18250000000E+03  0.18250000000E+03  0.00000000000E+00 0.  1.
        -11    1    1    2    0    0 -0.51227359782E+01  0.85077896532E+00  0.18014624384E+03  0.18022107374E+03  0.00000000000E+00 0.  1.
         11    1    1    2    0    0  0.84938043009E+01 -0.47624628977E+01 -0.17527707051E+03  0.17554736458E+03  0.00000000000E+00 0.  1.
        -15    1    1    2    0    0 -0.14325085621E+01  0.37464139197E+01 -0.91738038918E+00  0.44818538370E+01  0.17770000000E+01 0. -1.
         15    1    1    2    0    0 -0.19385597606E+01  0.16527001273E+00 -0.39517929496E+01  0.47497078478E+01  0.17770000000E+01 0.  1.
</event>
<event>
 6    1  0.1196607E-002  0.1841309E+03  0.7546771E-02  0.1067164E+00
        -11   -1    0    0    0    0  0.00000000000E+00  0.00000000000E+00  0.18250000000E+03  0.18250000000E+03  0.00000000000E+00 0.  1.
         11   -1    0    0    0    0 -0.00000000000E+00 -0.00000000000E+00 -0.18250000000E+03  0.18250000000E+03  0.00000000000E+00 0. -1.
        -11    1    1    2    0    0  0.10567062474E+01 -0.29145780939E+01  0.14904334429E+03  0.14907558442E+03  0.00000000000E+00 0.  1.
         11    1    1    2    0    0 -0.88262660779E+01 -0.47961387149E+01 -0.18058996127E+03  0.18086912404E+03  0.00000000000E+00 0. -1.
        -15    1    1    2    0    0  0.65756751841E+01  0.53259059550E+01  0.30472273846E+02  0.31675258179E+02  0.17770000000E+01 0. -1.
         15    1    1    2    0    0  0.11938846464E+01  0.23848108539E+01  0.10743431336E+01  0.33800333617E+01  0.17770000000E+01 0.  1.
</event>
<event>
 6    1  0.1196607E-002  0.1834538E+03  0.7546771E-02  0.1067698E+00
        -11   -1    0    0    0    0  0.00000000000E+00  0.00000000000E+00  0.18250000000E+03  0.18250000000E+03  0.00000000000E+00 0.  1.
         11   -1    0    0    0    0 -0.00000000000E+00 -0.00000000000E+00 -0.18250000000E+03  0.18250000000E+03  0.00000000000E+00 0. -1.
        -11    1    1    2    0    0  0.24085945358E+00 -0.23217761649E+01  0.17144578661E+03  0.17146167619E+03  0.00000000000E+00 0.  1.
         11    1    1    2    0    0 -0.30937368607E+01 -0.20977905648E+01 -0.18150774147E+03  0.18154622592E+03  0.00000000000E+00 0. -1.
        -15    1    1    2    0    0  0.21142152146E+01  0.22949963510E+01  0.64350137747E+01  0.73691278660E+01  0.17770000000E+01 0.  1.
         15    1    1    2    0    0  0.73866219250E+00  0.21245703787E+01  0.36269410892E+01  0.46229700186E+01  0.17770000000E+01 0. -1.
</event>
<event>
 6    1  0.1196607E-002  0.1932598E+03  0.7546771E-02  0.1060199E+00
        -11   -1    0    0    0    0  0.00000000000E+00  0.00000000000E+00  0.18250000000E+03  0.18250000000E+03  0.00000000000E+00 0. -1.
         11   -1    0    0    0    0 -0.00000000000E+00 -0.00000000000E+00 -0.18250000000E+03  0.18250000000E+03  0.00000000000E+00 0.  1.
        -11    1    1    2    0    0  0.41327437744E+01  0.17290426942E+01  0.17168178328E+03  0.17174022205E+03  0.00000000000E+00 0. -1.
         11    1    1    2    0    0  0.57048181745E+00 -0.97584423659E+00 -0.71235769912E+02  0.71244737605E+02  0.00000000000E+00 0.  1.
        -15    1    1    2    0    0  0.10586517814E+02  0.33121354149E+01 -0.10488691118E+03  0.10548680707E+03  0.17770000000E+01 0.  1.
         15    1    1    2    0    0 -0.15289743406E+02 -0.40653338725E+01  0.44408978137E+01  0.16528233278E+02  0.17770000000E+01 0. -1.
</event>
<event>
 6    1  0.1196607E-002  0.1838271E+03  0.7546771E-02  0.1067403E+00
        -11   -1    0    0    0    0  0.00000000000E+00  0.00000000000E+00  0.18250000000E+03  0.18250000000E+03  0.00000000000E+00 0.  1.
         11   -1    0    0    0    0 -0.00000000000E+00 -0.00000000000E+00 -0.18250000000E+03  0.18250000000E+03  0.00000000000E+00 0.  1.
        -11    1    1    2    0    0 -0.34723024429E+01  0.37028922054E+01  0.88350592659E+02  0.88496302285E+02  0.00000000000E+00 0.  1.
         11    1    1    2    0    0 -0.14870027691E+00 -0.42783711829E+01 -0.18112228058E+03  0.18117286523E+03  0.00000000000E+00 0.  1.
        -15    1    1    2    0    0 -0.12594091550E+01  0.22971812690E+01  0.89268193247E+00  0.32890368248E+01  0.17770000000E+01 0. -1.
         15    1    1    2    0    0  0.48804118748E+01 -0.17217022915E+01  0.91879005988E+02  0.92041795665E+02  0.17770000000E+01 0.  1.
</event>
<event>
 6    1  0.1196607E-002  0.1830063E+03  0.7546771E-02  0.1068053E+00
        -11   -1    0    0    0    0  0.00000000000E+00  0.00000000000E+00  0.18250000000E+03  0.18250000000E+03  0.00000000000E+00 0.  1.
         11   -1    0    0    0    0 -0.00000000000E+00 -0.00000000000E+00 -0.18250000000E+03  0.18250000000E+03  0.00000000000E+00 0. -1.
        -11    1    1    2    0    0  0.32323031829E+01  0.22637721514E+01  0.13411431381E+03  0.13417235787E+03  0.00000000000E+00 0.  1.
         11    1    1    2    0    0 -0.26873381898E+01 -0.45578053783E+01 -0.18191681464E+03  0.18199374392E+03  0.00000000000E+00 0. -1.
        -15    1    1    2    0    0  0.69742313694E+00  0.16756394175E+01  0.28214609904E+01  0.37963848079E+01  0.17770000000E+01 0. -1.
         15    1    1    2    0    0 -0.12423881300E+01  0.61839380937E+00  0.44981039843E+02  0.45037513403E+02  0.17770000000E+01 0.  1.
</event>
<event>
 6    1  0.1196607E-002  0.1969804E+03  0.7546771E-02  0.1057479E+00
        -11   -1    0    0    0    0  0.00000000000E+00  0.00000000000E+00  0.18250000000E+03  0.18250000000E+03  0.00000000000E+00 0.  1.
         11   -1    0    0    0    0 -0.00000000000E+00 -0.00000000000E+00 -0.18250000000E+03  0.18250000000E+03  0.00000000000E+00 0.  1.
        -11    1    1    2    0    0  0.29765489351E+01  0.17786196306E+01  0.16798379807E+03  0.16801958143E+03  0.00000000000E+00 0.  1.
         11    1    1    2    0    0  0.99127986490E+01  0.30437727232E+01 -0.15798707670E+03  0.15832701770E+03  0.00000000000E+00 0.  1.
        -15    1    1    2    0    0 -0.17394792744E+02 -0.15290557652E+02 -0.13155187854E+02  0.26694506259E+02  0.17770000000E+01 0.  1.
         15    1    1    2    0    0  0.45054451599E+01  0.10468165299E+02  0.31584664846E+01  0.11958894612E+02  0.17770000000E+01 0. -1.
</event>
<event>
 6    1  0.1196607E-002  0.2112562E+03  0.7546771E-02  0.1047622E+00
        -11   -1    0    0    0    0  0.00000000000E+00  0.00000000000E+00  0.18250000000E+03  0.18250000000E+03  0.00000000000E+00 0. -1.
         11   -1    0    0    0    0 -0.00000000000E+00 -0.00000000000E+00 -0.18250000000E+03  0.18250000000E+03  0.00000000000E+00 0. -1.
        -11    1    1    2    0    0 -0.51811310884E+01 -0.37078124014E+00  0.15365599340E+03  0.15374376704E+03  0.00000000000E+00 0. -1.
         11    1    1    2    0    0 -0.10816983887E+01  0.37342616214E+01 -0.12147634099E+03  0.12153853793E+03  0.00000000000E+00 0. -1.
        -15    1    1    2    0    0  0.19066117210E+01  0.56178832896E+01 -0.59890700228E+02  0.60210044708E+02  0.17770000000E+01 0. -1.
         15    1    1    2    0    0  0.43562177562E+01 -0.89813636708E+01  0.27711047828E+02  0.29507650317E+02  0.17770000000E+01 0.  1.
</event>
<event>
 6    1  0.1196607E-002  0.1788171E+03  0.7546771E-02  0.1071425E+00
        -11   -1    0    0    0    0  0.00000000000E+00  0.00000000000E+00  0.18250000000E+03  0.18250000000E+03  0.00000000000E+00 0. -1.
         11   -1    0    0    0    0 -0.00000000000E+00 -0.00000000000E+00 -0.18250000000E+03  0.18250000000E+03  0.00000000000E+00 0.  1.
        -11    1    1    2    0    0  0.15168827619E+01  0.33119898025E+01  0.17959643655E+03  0.17963337727E+03  0.00000000000E+00 0. -1.
         11    1    1    2    0    0 -0.38772418932E+01  0.36972857599E+00 -0.17798859203E+03  0.17803120119E+03  0.00000000000E+00 0.  1.
        -15    1    1    2    0    0  0.71610485559E-01 -0.27496066992E+01  0.89497966288E+00  0.33947286576E+01  0.17770000000E+01 0.  1.
         15    1    1    2    0    0  0.22887486457E+01 -0.93211167933E+00 -0.25028241815E+01  0.39406928870E+01  0.17770000000E+01 0. -1.
</event>
<event>
 6    1  0.1196607E-002  0.1869311E+03  0.7546771E-02  0.1064981E+00
        -11   -1    0    0    0    0  0.00000000000E+00  0.00000000000E+00  0.18250000000E+03  0.18250000000E+03  0.00000000000E+00 0. -1.
         11   -1    0    0    0    0 -0.00000000000E+00 -0.00000000000E+00 -0.18250000000E+03  0.18250000000E+03  0.00000000000E+00 0.  1.
        -11    1    1    2    0    0  0.66408863604E+01 -0.11725613390E+01  0.17794112688E+03  0.17806886563E+03  0.00000000000E+00 0. -1.
         11    1    1    2    0    0 -0.70748743739E+01 -0.82423881169E+01 -0.88121427106E+02  0.88788381697E+02  0.00000000000E+00 0.  1.
        -15    1    1    2    0    0  0.32488648076E+01  0.79547824668E+01 -0.92939329433E+02  0.93352613091E+02  0.17770000000E+01 0.  1.
         15    1    1    2    0    0 -0.28148767941E+01  0.14601669891E+01  0.31196296612E+01  0.47901395831E+01  0.17770000000E+01 0. -1.
</event>
<event>
 6    1  0.1196607E-002  0.1933812E+03  0.7546771E-02  0.1060109E+00
        -11   -1    0    0    0    0  0.00000000000E+00  0.00000000000E+00  0.18250000000E+03  0.18250000000E+03  0.00000000000E+00 0. -1.
         11   -1    0    0    0    0 -0.00000000000E+00 -0.00000000000E+00 -0.18250000000E+03  0.18250000000E+03  0.00000000000E+00 0.  1.
        -11    1    1    2    0    0  0.66863926883E+01 -0.13560305032E+01  0.16031336589E+03  0.16045847422E+03  0.00000000000E+00 0. -1.
         11    1    1    2    0    0  0.66849942182E+00  0.61974273618E+01 -0.17150556255E+03  0.17161880137E+03  0.00000000000E+00 0.  1.
        -15    1    1    2    0    0  0.90181314796E+01 -0.35040678501E+01 -0.38639945664E+01  0.10568508404E+02  0.17770000000E+01 0.  1.
         15    1    1    2    0    0 -0.16373023590E+02 -0.13373290085E+01  0.15056191225E+02  0.22354216013E+02  0.17770000000E+01 0. -1.
</event>
<event>
 6    1  0.1196607E-002  0.1828680E+03  0.7546771E-02  0.1068162E+00
        -11   -1    0    0    0    0  0.00000000000E+00  0.00000000000E+00  0.18250000000E+03  0.18250000000E+03  0.00000000000E+00 0. -1.
         11   -1    0    0    0    0 -0.00000000000E+00 -0.00000000000E+00 -0.18250000000E+03  0.18250000000E+03  0.00000000000E+00 0. -1.
        -11    1    1    2    0    0  0.31178041079E+01 -0.38421197158E+01  0.18206480278E+03  0.18213202628E+03  0.00000000000E+00 0. -1.
         11    1    1    2    0    0 -0.16556713260E+01  0.25145441222E+01 -0.16512767566E+03  0.16515511935E+03  0.00000000000E+00 0. -1.
        -15    1    1    2    0    0 -0.90436817011E+00 -0.93967043416E+00 -0.84538019430E+01  0.87364385537E+01  0.17770000000E+01 0.  1.
         15    1    1    2    0    0 -0.55776461182E+00  0.22672460278E+01 -0.84833251767E+01  0.89764158196E+01  0.17770000000E+01 0. -1.
</event>
<event>
 6    1  0.1196607E-002  0.1874583E+03  0.7546771E-02  0.1064575E+00
        -11   -1    0    0    0    0  0.00000000000E+00  0.00000000000E+00  0.18250000000E+03  0.18250000000E+03  0.00000000000E+00 0. -1.
         11   -1    0    0    0    0 -0.00000000000E+00 -0.00000000000E+00 -0.18250000000E+03  0.18250000000E+03  0.00000000000E+00 0.  1.
        -11    1    1    2    0    0  0.26976760390E+01 -0.51038113098E+00  0.15986609984E+03  0.15988967391E+03  0.00000000000E+00 0. -1.
         11    1    1    2    0    0  0.16834277495E+01 -0.45205866863E+01 -0.17747614455E+03  0.17754168952E+03  0.00000000000E+00 0.  1.
        -15    1    1    2    0    0  0.18514345787E+01 -0.75768721830E-02 -0.38302757825E+01  0.46104890172E+01  0.17770000000E+01 0. -1.
         15    1    1    2    0    0 -0.62325383672E+01  0.50385446895E+01  0.21440320490E+02  0.22958147547E+02  0.17770000000E+01 0.  1.
</event>
<event>
 6    1  0.1196607E-002  0.1912856E+03  0.7546771E-02  0.1061669E+00
        -11   -1    0    0    0    0  0.00000000000E+00  0.00000000000E+00  0.18250000000E+03  0.18250000000E+03  0.00000000000E+00 0.  1.
         11   -1    0    0    0    0 -0.00000000000E+00 -0.00000000000E+00 -0.18250000000E+03  0.18250000000E+03  0.00000000000E+00 0. -1.
        -11    1    1    2    0    0  0.75188875366E+01  0.17822410481E+02  0.17263406784E+03  0.17371440172E+03  0.00000000000E+00 0.  1.
         11    1    1    2    0    0  0.66731641370E+00  0.46075825945E+01 -0.12907981489E+03  0.12916374779E+03  0.00000000000E+00 0. -1.
        -15    1    1    2    0    0  0.69288607953E+00 -0.39683274454E+01 -0.41188775569E+02  0.41423431482E+02  0.17770000000E+01 0. -1.
         15    1    1    2    0    0 -0.88790900299E+01 -0.18461665630E+02 -0.23654773750E+01  0.20698419017E+02  0.17770000000E+01 0.  1.
</event>
<event>
 6    1  0.1196607E-002  0.1851150E+03  0.7546771E-02  0.1066392E+00
        -11   -1    0    0    0    0  0.00000000000E+00  0.00000000000E+00  0.18250000000E+03  0.18250000000E+03  0.00000000000E+00 0. -1.
         11   -1    0    0    0    0 -0.00000000000E+00 -0.00000000000E+00 -0.18250000000E+03  0.18250000000E+03  0.00000000000E+00 0.  1.
        -11    1    1    2    0    0 -0.30338003588E+00 -0.48942240639E+01  0.17981818529E+03  0.17988503336E+03  0.00000000000E+00 0. -1.
         11    1    1    2    0    0  0.33395018332E+01  0.52958806659E+00 -0.17610021973E+03  0.17613267761E+03  0.00000000000E+00 0.  1.
        -15    1    1    2    0    0  0.10525495198E+01  0.21348145880E+00 -0.11285598195E+01  0.23632204914E+01  0.17770000000E+01 0.  1.
         15    1    1    2    0    0 -0.40886713171E+01  0.41511545386E+01 -0.25894057406E+01  0.66190685320E+01  0.17770000000E+01 0.  1.
</event>
<event>
 6    1  0.1196607E-002  0.1884212E+03  0.7546771E-02  0.1063837E+00
        -11   -1    0    0    0    0  0.00000000000E+00  0.00000000000E+00  0.18250000000E+03  0.18250000000E+03  0.00000000000E+00 0.  1.
         11   -1    0    0    0    0 -0.00000000000E+00 -0.00000000000E+00 -0.18250000000E+03  0.18250000000E+03  0.00000000000E+00 0. -1.
        -11    1    1    2    0    0 -0.32735921584E+01  0.63042019771E+00  0.16635274973E+03  0.16638615080E+03  0.00000000000E+00 0.  1.
         11    1    1    2    0    0  0.33057631477E+01  0.62760403877E+01 -0.17643628934E+03  0.17657882362E+03  0.00000000000E+00 0. -1.
        -15    1    1    2    0    0 -0.24793861007E+01 -0.54563025874E+01 -0.40898719598E+01  0.74701656615E+01  0.17770000000E+01 0. -1.
         15    1    1    2    0    0  0.24472151115E+01 -0.14501579979E+01  0.14173411571E+02  0.14564859923E+02  0.17770000000E+01 0.  1.
</event>
<event>
 6    1  0.1196607E-002  0.1864758E+03  0.7546771E-02  0.1065333E+00
        -11   -1    0    0    0    0  0.00000000000E+00  0.00000000000E+00  0.18250000000E+03  0.18250000000E+03  0.00000000000E+00 0. -1.
         11   -1    0    0    0    0 -0.00000000000E+00 -0.00000000000E+00 -0.18250000000E+03  0.18250000000E+03  0.00000000000E+00 0. -1.
        -11    1    1    2    0    0  0.37355649311E+01  0.52275378229E+00  0.17848433042E+03  0.17852418301E+03  0.00000000000E+00 0. -1.
         11    1    1    2    0    0 -0.97467793014E+01 -0.31208797508E+01 -0.15095063281E+03  0.15129716833E+03  0.00000000000E+00 0. -1.
        -15    1    1    2    0    0  0.76223796113E+01  0.11003434454E+01 -0.30245192231E+02  0.31260851056E+02  0.17770000000E+01 0. -1.
         15    1    1    2    0    0 -0.16111652411E+01  0.14977825231E+01  0.27114946289E+01  0.39177976011E+01  0.17770000000E+01 0. -1.
</event>
<event>
 6    1  0.1196607E-002  0.1833338E+03  0.7546771E-02  0.1067793E+00
        -11   -1    0    0    0    0  0.00000000000E+00  0.00000000000E+00  0.18250000000E+03  0.18250000000E+03  0.00000000000E+00 0.  1.
         11   -1    0    0    0    0 -0.00000000000E+00 -0.00000000000E+00 -0.18250000000E+03  0.18250000000E+03  0.00000000000E+00 0. -1.
        -11    1    1    2    0    0 -0.75239773038E+00  0.96780994277E+00  0.19104960810E+02  0.19144249424E+02  0.00000000000E+00 0.  1.
         11    1    1    2    0    0  0.98768051532E+01  0.20716805779E+01 -0.18138572572E+03  0.18166624517E+03  0.00000000000E+00 0. -1.
        -15    1    1    2    0    0 -0.89186338417E+01  0.10254040023E+01  0.21857418832E+02  0.23695948387E+02  0.17770000000E+01 0. -1.
         15    1    1    2    0    0 -0.20577358107E+00 -0.40648945230E+01  0.14042334608E+03  0.14049355702E+03  0.17770000000E+01 0.  1.
</event>
<event>
 6    1  0.1196607E-002  0.1902391E+03  0.7546771E-02  0.1062456E+00
        -11   -1    0    0    0    0  0.00000000000E+00  0.00000000000E+00  0.18250000000E+03  0.18250000000E+03  0.00000000000E+00 0. -1.
         11   -1    0    0    0    0 -0.00000000000E+00 -0.00000000000E+00 -0.18250000000E+03  0.18250000000E+03  0.00000000000E+00 0. -1.
        -11    1    1    2    0    0  0.29800068858E+00  0.47118563484E+01  0.16117213964E+03  0.16124127570E+03  0.00000000000E+00 0. -1.
         11    1    1    2    0    0  0.76457770903E+00  0.44286538881E+01 -0.17470311428E+03  0.17476091008E+03  0.00000000000E+00 0. -1.
        -15    1    1    2    0    0 -0.34299501955E+01 -0.57217188171E+01 -0.58791923665E+01  0.90678143148E+01  0.17770000000E+01 0. -1.
         15    1    1    2    0    0  0.23673717979E+01 -0.34187914194E+01  0.19410167004E+02  0.19929999903E+02  0.17770000000E+01 0.  1.
</event>
<event>
 6    1  0.1196607E-002  0.1889309E+03  0.7546771E-02  0.1063448E+00
        -11   -1    0    0    0    0  0.00000000000E+00  0.00000000000E+00  0.18250000000E+03  0.18250000000E+03  0.00000000000E+00 0.  1.
         11   -1    0    0    0    0 -0.00000000000E+00 -0.00000000000E+00 -0.18250000000E+03  0.18250000000E+03  0.00000000000E+00 0.  1.
        -11    1    1    2    0    0 -0.10160862375E+01 -0.22546193093E+01  0.16816113718E+03  0.16817932036E+03  0.00000000000E+00 0.  1.
         11    1    1    2    0    0  0.66907108824E+01  0.67675374124E+01 -0.17581170472E+03  0.17606907932E+03  0.00000000000E+00 0.  1.
        -15    1    1    2    0    0 -0.13301150436E+01 -0.53668848744E+01 -0.47257639986E+01  0.74875385578E+01  0.17770000000E+01 0.  1.
         15    1    1    2    0    0 -0.43445096013E+01  0.85396677126E+00  0.12376331546E+02  0.13264061763E+02  0.17770000000E+01 0. -1.
</event>
<event>
 6    1  0.1196607E-002  0.1867291E+03  0.7546771E-02  0.1065137E+00
        -11   -1    0    0    0    0  0.00000000000E+00  0.00000000000E+00  0.18250000000E+03  0.18250000000E+03  0.00000000000E+00 0.  1.
         11   -1    0    0    0    0 -0.00000000000E+00 -0.00000000000E+00 -0.18250000000E+03  0.18250000000E+03  0.00000000000E+00 0.  1.
        -11    1    1    2    0    0  0.18661688838E+01 -0.18538733818E+01  0.17825149855E+03  0.17827090668E+03  0.00000000000E+00 0.  1.
         11    1    1    2    0    0  0.45913401694E+01  0.19964610296E+01 -0.13603127971E+03  0.13612338271E+03  0.00000000000E+00 0.  1.
        -15    1    1    2    0    0 -0.98427448377E+01  0.93439104378E+01 -0.10423617722E+02  0.17204587284E+02  0.17770000000E+01 0.  1.
         15    1    1    2    0    0  0.33852357846E+01 -0.94864980857E+01 -0.31796601120E+02  0.33401123320E+02  0.17770000000E+01 0.  1.
</event>
<event>
 6    1  0.1196607E-002  0.1827150E+03  0.7546771E-02  0.1068284E+00
        -11   -1    0    0    0    0  0.00000000000E+00  0.00000000000E+00  0.18250000000E+03  0.18250000000E+03  0.00000000000E+00 0.  1.
         11   -1    0    0    0    0 -0.00000000000E+00 -0.00000000000E+00 -0.18250000000E+03  0.18250000000E+03  0.00000000000E+00 0. -1.
        -11    1    1    2    0    0  0.15803052132E+01 -0.32239033594E+01  0.18224959120E+03  0.18228495387E+03  0.00000000000E+00 0.  1.
         11    1    1    2    0    0 -0.39118682143E+01  0.61756323975E+00 -0.99711866407E+02  0.99790482510E+02  0.00000000000E+00 0. -1.
        -15    1    1    2    0    0  0.13596148780E+01  0.64567909046E-01 -0.67613840764E+02  0.67650882577E+02  0.17770000000E+01 0. -1.
         15    1    1    2    0    0  0.97194812312E+00  0.25417722106E+01 -0.14923884025E+02  0.15273681040E+02  0.17770000000E+01 0.  1.
</event>
<event>
 6    1  0.1196607E-002  0.1833506E+03  0.7546771E-02  0.1067780E+00
        -11   -1    0    0    0    0  0.00000000000E+00  0.00000000000E+00  0.18250000000E+03  0.18250000000E+03  0.00000000000E+00 0.  1.
         11   -1    0    0    0    0 -0.00000000000E+00 -0.00000000000E+00 -0.18250000000E+03  0.18250000000E+03  0.00000000000E+00 0. -1.
        -11    1    1    2    0    0 -0.11171361136E+00 -0.41148919801E+01  0.12997130068E+03  0.13003647110E+03  0.00000000000E+00 0.  1.
         11    1    1    2    0    0 -0.11621894202E+01  0.30418196207E+01 -0.18162022979E+03  0.18164941844E+03  0.00000000000E+00 0. -1.
        -15    1    1    2    0    0 -0.37344274812E+01  0.68444670831E+00  0.42653365448E+02  0.42858858232E+02  0.17770000000E+01 0.  1.
         15    1    1    2    0    0  0.50083305128E+01  0.38862565102E+00  0.89955636642E+01  0.10455252224E+02  0.17770000000E+01 0. -1.
</event>
<event>
 6    1  0.1196607E-002  0.1844204E+03  0.7546771E-02  0.1066936E+00
        -11   -1    0    0    0    0  0.00000000000E+00  0.00000000000E+00  0.18250000000E+03  0.18250000000E+03  0.00000000000E+00 0. -1.
         11   -1    0    0    0    0 -0.00000000000E+00 -0.00000000000E+00 -0.18250000000E+03  0.18250000000E+03  0.00000000000E+00 0.  1.
        -11    1    1    2    0    0 -0.51924364200E+01  0.98875572323E+01  0.18023387431E+03  0.18057955209E+03  0.00000000000E+00 0. -1.
         11    1    1    2    0    0 -0.15732129703E+00  0.12827555904E+01 -0.76194399366E+02  0.76205358780E+02  0.00000000000E+00 0.  1.
        -15    1    1    2    0    0  0.17396756611E+01 -0.21135342710E+01 -0.94176983948E+02  0.94233515975E+02  0.17770000000E+01 0.  1.
         15    1    1    2    0    0  0.36100820560E+01 -0.90567785517E+01 -0.98624909978E+01  0.13981573154E+02  0.17770000000E+01 0. -1.
</event>
<event>
 6    1  0.1196607E-002  0.1924904E+03  0.7546771E-02  0.1060769E+00
        -11   -1    0    0    0    0  0.00000000000E+00  0.00000000000E+00  0.18250000000E+03  0.18250000000E+03  0.00000000000E+00 0. -1.
         11   -1    0    0    0    0 -0.00000000000E+00 -0.00000000000E+00 -0.18250000000E+03  0.18250000000E+03  0.00000000000E+00 0. -1.
        -11    1    1    2    0    0 -0.62543757744E+01  0.31690258997E+01  0.17236705896E+03  0.17250960250E+03  0.00000000000E+00 0. -1.
         11    1    1    2    0    0  0.44615525125E+01  0.48663728797E+01 -0.16306445890E+03  0.16319805389E+03  0.00000000000E+00 0. -1.
        -15    1    1    2    0    0  0.34842712812E+01 -0.28659390405E+01  0.89416818651E+01  0.10171782367E+02  0.17770000000E+01 0. -1.
         15    1    1    2    0    0 -0.16914480194E+01 -0.51694597389E+01 -0.18244281923E+02  0.19120561244E+02  0.17770000000E+01 0. -1.
</event>
<event>
 6    1  0.1196607E-002  0.1853733E+03  0.7546771E-02  0.1066190E+00
        -11   -1    0    0    0    0  0.00000000000E+00  0.00000000000E+00  0.18250000000E+03  0.18250000000E+03  0.00000000000E+00 0.  1.
         11   -1    0    0    0    0 -0.00000000000E+00 -0.00000000000E+00 -0.18250000000E+03  0.18250000000E+03  0.00000000000E+00 0. -1.
        -11    1    1    2    0    0  0.53501336923E+01 -0.21136222515E+01  0.17953460500E+03  0.17962674000E+03  0.00000000000E+00 0.  1.
         11    1    1    2    0    0 -0.44356017869E+01 -0.31889328853E+01 -0.16071844713E+03  0.16081126548E+03  0.00000000000E+00 0. -1.
        -15    1    1    2    0    0 -0.62401729514E+01  0.37966604050E+00 -0.14613447292E+02  0.15993576070E+02  0.17770000000E+01 0. -1.
         15    1    1    2    0    0  0.53256410461E+01  0.49228890963E+01 -0.42027105784E+01  0.85684184545E+01  0.17770000000E+01 0.  1.
</event>
<event>
 6    1  0.1196607E-002  0.1852701E+03  0.7546771E-02  0.1066271E+00
        -11   -1    0    0    0    0  0.00000000000E+00  0.00000000000E+00  0.18250000000E+03  0.18250000000E+03  0.00000000000E+00 0. -1.
         11   -1    0    0    0    0 -0.00000000000E+00 -0.00000000000E+00 -0.18250000000E+03  0.18250000000E+03  0.00000000000E+00 0. -1.
        -11    1    1    2    0    0 -0.29841298510E+01 -0.69006699087E+00  0.16043969679E+03  0.16046893011E+03  0.00000000000E+00 0. -1.
         11    1    1    2    0    0 -0.47447512846E+01  0.20098790605E+01 -0.17965599696E+03  0.17972987932E+03  0.00000000000E+00 0. -1.
        -15    1    1    2    0    0  0.55492094975E+00  0.26655589867E+00  0.16742214348E+02  0.16847506035E+02  0.17770000000E+01 0.  1.
         15    1    1    2    0    0  0.71739601859E+01 -0.15863679683E+01  0.24740858193E+01  0.79536845374E+01  0.17770000000E+01 0.  1.
</event>
<event>
 6    1  0.1196607E-002  0.1846861E+03  0.7546771E-02  0.1066728E+00
        -11   -1    0    0    0    0  0.00000000000E+00  0.00000000000E+00  0.18250000000E+03  0.18250000000E+03  0.00000000000E+00 0.  1.
         11   -1    0    0    0    0 -0.00000000000E+00 -0.00000000000E+00 -0.18250000000E+03  0.18250000000E+03  0.00000000000E+00 0. -1.
        -11    1    1    2    0    0 -0.31951605163E+01  0.45100972110E+01  0.18022911978E+03  0.18031385317E+03  0.00000000000E+00 0.  1.
         11    1    1    2    0    0 -0.61426763903E+01  0.38145772994E+01 -0.14694419640E+03  0.14712199131E+03  0.00000000000E+00 0. -1.
        -15    1    1    2    0    0 -0.17380270608E+01 -0.31219524366E+01 -0.34757172331E+01  0.52920378272E+01  0.17770000000E+01 0. -1.
         15    1    1    2    0    0  0.11075863967E+02 -0.52027220738E+01 -0.29809206151E+02  0.32272117687E+02  0.17770000000E+01 0.  1.
</event>
<event>
 6    1  0.1196607E-002  0.1836790E+03  0.7546771E-02  0.1067520E+00
        -11   -1    0    0    0    0  0.00000000000E+00  0.00000000000E+00  0.18250000000E+03  0.18250000000E+03  0.00000000000E+00 0. -1.
         11   -1    0    0    0    0 -0.00000000000E+00 -0.00000000000E+00 -0.18250000000E+03  0.18250000000E+03  0.00000000000E+00 0. -1.
        -11    1    1    2    0    0 -0.17899293583E+01  0.23763337078E+01  0.18129663565E+03  0.18132104375E+03  0.00000000000E+00 0. -1.
         11    1    1    2    0    0 -0.29404735764E+01  0.14324392944E+00 -0.16520086418E+03  0.16522709351E+03  0.00000000000E+00 0. -1.
        -15    1    1    2    0    0  0.39158907621E+01 -0.15417843340E+01 -0.37391173818E+01  0.59033911600E+01  0.17770000000E+01 0. -1.
         15    1    1    2    0    0  0.81451217256E+00 -0.97779330320E+00 -0.12356654084E+02  0.12548471579E+02  0.17770000000E+01 0. -1.
</event>
<event>
 6    1  0.1196607E-002  0.1876207E+03  0.7546771E-02  0.1064450E+00
        -11   -1    0    0    0    0  0.00000000000E+00  0.00000000000E+00  0.18250000000E+03  0.18250000000E+03  0.00000000000E+00 0.  1.
         11   -1    0    0    0    0 -0.00000000000E+00 -0.00000000000E+00 -0.18250000000E+03  0.18250000000E+03  0.00000000000E+00 0. -1.
        -11    1    1    2    0    0 -0.47221311592E+01  0.14804315605E+02  0.17669737476E+03  0.17737933513E+03  0.00000000000E+00 0.  1.
         11    1    1    2    0    0  0.84402280368E+00 -0.92564299086E+01 -0.14584230436E+03  0.14613819354E+03  0.00000000000E+00 0. -1.
        -15    1    1    2    0    0 -0.29582923587E+01  0.43544921750E+01 -0.28571156023E+02  0.29106387293E+02  0.17770000000E+01 0.  1.
         15    1    1    2    0    0  0.68364007142E+01 -0.99023778709E+01 -0.22839143819E+01  0.12376084038E+02  0.17770000000E+01 0. -1.
</event>
<event>
 6    1  0.1196607E-002  0.1825647E+03  0.7546771E-02  0.1068403E+00
        -11   -1    0    0    0    0  0.00000000000E+00  0.00000000000E+00  0.18250000000E+03  0.18250000000E+03  0.00000000000E+00 0.  1.
         11   -1    0    0    0    0 -0.00000000000E+00 -0.00000000000E+00 -0.18250000000E+03  0.18250000000E+03  0.00000000000E+00 0. -1.
        -11    1    1    2    0    0  0.35335123260E+00  0.93814177578E+00  0.58272514965E+02  0.58281137321E+02  0.00000000000E+00 0.  1.
         11    1    1    2    0    0  0.29261222881E+01 -0.77714621532E+00 -0.18241013019E+03  0.18243525356E+03  0.00000000000E+00 0. -1.
        -15    1    1    2    0    0 -0.35525422804E+01  0.48077129187E+00  0.72037700038E+02  0.72148732861E+02  0.17770000000E+01 0.  1.
         15    1    1    2    0    0  0.27306875967E+00 -0.64176685232E+00  0.52099915182E+02  0.52134876256E+02  0.17770000000E+01 0.  1.
</event>
<event>
 6    1  0.1196607E-002  0.1835886E+03  0.7546771E-02  0.1067592E+00
        -11   -1    0    0    0    0  0.00000000000E+00  0.00000000000E+00  0.18250000000E+03  0.18250000000E+03  0.00000000000E+00 0. -1.
         11   -1    0    0    0    0 -0.00000000000E+00 -0.00000000000E+00 -0.18250000000E+03  0.18250000000E+03  0.00000000000E+00 0. -1.
        -11    1    1    2    0    0 -0.16540694539E+01  0.48443623866E+01  0.16052614262E+03  0.16060774034E+03  0.00000000000E+00 0. -1.
         11    1    1    2    0    0  0.15893821964E+01 -0.52484658367E+01 -0.18132847651E+03  0.18141138035E+03  0.00000000000E+00 0. -1.
        -15    1    1    2    0    0  0.18797043663E+01 -0.35151799038E+01  0.14461212695E+02  0.15105435441E+02  0.17770000000E+01 0. -1.
         15    1    1    2    0    0 -0.18150171088E+01  0.39192833539E+01  0.63411211951E+01  0.78754438684E+01  0.17770000000E+01 0.  1.
</event>
<event>
 6    1  0.1196607E-002  0.1837823E+03  0.7546771E-02  0.1067439E+00
        -11   -1    0    0    0    0  0.00000000000E+00  0.00000000000E+00  0.18250000000E+03  0.18250000000E+03  0.00000000000E+00 0. -1.
         11   -1    0    0    0    0 -0.00000000000E+00 -0.00000000000E+00 -0.18250000000E+03  0.18250000000E+03  0.00000000000E+00 0. -1.
        -11    1    1    2    0    0 -0.13774085308E+01  0.38525325576E+01  0.18117146714E+03  0.18121765854E+03  0.00000000000E+00 0. -1.
         11    1    1    2    0    0 -0.10361492311E+01 -0.29327869013E+01 -0.17529065698E+03  0.17531825138E+03  0.00000000000E+00 0. -1.
        -15    1    1    2    0    0  0.12896583822E+01  0.74301617548E+00 -0.38547007994E+00  0.23498101971E+01  0.17770000000E+01 0. -1.
         15    1    1    2    0    0  0.11238993798E+01 -0.16627618318E+01 -0.54953400852E+01  0.61142798739E+01  0.17770000000E+01 0.  1.
</event>
<event>
 6    1  0.1196607E-002  0.1827650E+03  0.7546771E-02  0.1068244E+00
        -11   -1    0    0    0    0  0.00000000000E+00  0.00000000000E+00  0.18250000000E+03  0.18250000000E+03  0.00000000000E+00 0. -1.
         11   -1    0    0    0    0 -0.00000000000E+00 -0.00000000000E+00 -0.18250000000E+03  0.18250000000E+03  0.00000000000E+00 0.  1.
        -11    1    1    2    0    0  0.33669179893E+00  0.24715634926E+01  0.18221789816E+03  0.18223497029E+03  0.00000000000E+00 0. -1.
         11    1    1    2    0    0 -0.15627121543E+01  0.21729801875E+01 -0.26689706120E+02  0.26823577781E+02  0.00000000000E+00 0.  1.
        -15    1    1    2    0    0 -0.24497759106E+00 -0.25745078411E+01 -0.12778360351E+02  0.13157975790E+02  0.17770000000E+01 0. -1.
         15    1    1    2    0    0  0.14709979464E+01 -0.20700358389E+01 -0.14274983169E+03  0.14278347614E+03  0.17770000000E+01 0.  1.
</event>
<event>
 6    1  0.1196607E-002  0.1837636E+03  0.7546771E-02  0.1067453E+00
        -11   -1    0    0    0    0  0.00000000000E+00  0.00000000000E+00  0.18250000000E+03  0.18250000000E+03  0.00000000000E+00 0. -1.
         11   -1    0    0    0    0 -0.00000000000E+00 -0.00000000000E+00 -0.18250000000E+03  0.18250000000E+03  0.00000000000E+00 0.  1.
        -11    1    1    2    0    0  0.16380218235E+01 -0.21700926036E+01  0.16333884902E+03  0.16336147654E+03  0.00000000000E+00 0. -1.
         11    1    1    2    0    0  0.27457655745E+01  0.11293899052E+00 -0.18121557990E+03  0.18123641572E+03  0.00000000000E+00 0.  1.
        -15    1    1    2    0    0 -0.30114950568E+01  0.46746800650E+01  0.77390351784E+01  0.96939223579E+01  0.17770000000E+01 0. -1.
         15    1    1    2    0    0 -0.13722923412E+01 -0.26175264520E+01  0.10137695706E+02  0.10708185384E+02  0.17770000000E+01 0.  1.
</event>
<event>
 6    1  0.1196607E-002  0.1827604E+03  0.7546771E-02  0.1068248E+00
        -11   -1    0    0    0    0  0.00000000000E+00  0.00000000000E+00  0.18250000000E+03  0.18250000000E+03  0.00000000000E+00 0. -1.
         11   -1    0    0    0    0 -0.00000000000E+00 -0.00000000000E+00 -0.18250000000E+03  0.18250000000E+03  0.00000000000E+00 0.  1.
        -11    1    1    2    0    0 -0.22876910801E+01  0.66725527605E-03  0.73335989847E+02  0.73371663044E+02  0.00000000000E+00 0. -1.
         11    1    1    2    0    0 -0.39974456062E+01  0.47011478734E+01 -0.18213512199E+03  0.18223963077E+03  0.00000000000E+00 0.  1.
        -15    1    1    2    0    0  0.30216848920E+01 -0.14511342837E+01  0.84911270125E+02  0.84995987514E+02  0.17770000000E+01 0. -1.
         15    1    1    2    0    0  0.32634517943E+01 -0.32506808450E+01  0.23887862014E+02  0.24392718671E+02  0.17770000000E+01 0.  1.
</event>
<event>
 6    1  0.1196607E-002  0.1778460E+03  0.7546771E-02  0.1072221E+00
        -11   -1    0    0    0    0  0.00000000000E+00  0.00000000000E+00  0.18250000000E+03  0.18250000000E+03  0.00000000000E+00 0.  1.
         11   -1    0    0    0    0 -0.00000000000E+00 -0.00000000000E+00 -0.18250000000E+03  0.18250000000E+03  0.00000000000E+00 0. -1.
        -11    1    1    2    0    0  0.90414692023E+00  0.33157372008E+01  0.17845949054E+03  0.17849258068E+03  0.00000000000E+00 0.  1.
         11    1    1    2    0    0  0.22979830373E+01  0.20270629453E+01 -0.17722956237E+03  0.17725605063E+03  0.00000000000E+00 0. -1.
        -15    1    1    2    0    0 -0.20440810452E+01 -0.46012244468E+01 -0.32325387978E+01  0.62415198316E+01  0.17770000000E+01 0. -1.
         15    1    1    2    0    0 -0.11580489123E+01 -0.74157569924E+00  0.20026106223E+01  0.30098488509E+01  0.17770000000E+01 0.  1.
</event>
<event>
 6    1  0.1196607E-002  0.1839662E+03  0.7546771E-02  0.1067294E+00
        -11   -1    0    0    0    0  0.00000000000E+00  0.00000000000E+00  0.18250000000E+03  0.18250000000E+03  0.00000000000E+00 0.  1.
         11   -1    0    0    0    0 -0.00000000000E+00 -0.00000000000E+00 -0.18250000000E+03  0.18250000000E+03  0.00000000000E+00 0.  1.
        -11    1    1    2    0    0 -0.32686631825E+01 -0.92304605673E+00  0.18100198097E+03  0.18103384570E+03  0.00000000000E+00 0.  1.
         11    1    1    2    0    0 -0.21499331850E+01  0.13478000187E+01 -0.16374167875E+03  0.16376133896E+03  0.00000000000E+00 0.  1.
        -15    1    1    2    0    0  0.26891526538E+01  0.18472655515E+00 -0.16489879267E+02  0.16802961440E+02  0.17770000000E+01 0.  1.
         15    1    1    2    0    0  0.27294437138E+01 -0.60948051712E+00 -0.77042295169E+00  0.34018539081E+01  0.17770000000E+01 0. -1.
</event>
<event>
 6    1  0.1196607E-002  0.1838262E+03  0.7546771E-02  0.1067404E+00
        -11   -1    0    0    0    0  0.00000000000E+00  0.00000000000E+00  0.18250000000E+03  0.18250000000E+03  0.00000000000E+00 0.  1.
         11   -1    0    0    0    0 -0.00000000000E+00 -0.00000000000E+00 -0.18250000000E+03  0.18250000000E+03  0.00000000000E+00 0. -1.
        -11    1    1    2    0    0  0.73164341850E-02  0.35498919574E+01  0.17789860176E+03  0.17793401669E+03  0.00000000000E+00 0.  1.
         11    1    1    2    0    0 -0.12456902411E+00 -0.29069467983E+01 -0.18115047681E+03  0.18117384222E+03  0.00000000000E+00 0. -1.
        -15    1    1    2    0    0  0.62948859405E+00  0.11935603719E+01  0.98932794939E+00  0.24407664868E+01  0.17770000000E+01 0.  1.
         15    1    1    2    0    0 -0.51223600412E+00 -0.18365055310E+01  0.22625470963E+01  0.34513746033E+01  0.17770000000E+01 0.  1.
</event>
<event>
 6    1  0.1196607E-002  0.1827049E+03  0.7546771E-02  0.1068292E+00
        -11   -1    0    0    0    0  0.00000000000E+00  0.00000000000E+00  0.18250000000E+03  0.18250000000E+03  0.00000000000E+00 0. -1.
         11   -1    0    0    0    0 -0.00000000000E+00 -0.00000000000E+00 -0.18250000000E+03  0.18250000000E+03  0.00000000000E+00 0.  1.
        -11    1    1    2    0    0 -0.25534786646E+01  0.82961283503E+00  0.10051713669E+03  0.10055298742E+03  0.00000000000E+00 0. -1.
         11    1    1    2    0    0  0.49078842481E-01  0.52504947686E+01 -0.18221949991E+03  0.18229513501E+03  0.00000000000E+00 0.  1.
        -15    1    1    2    0    0  0.25026695218E+01 -0.14542008211E+01  0.42924452486E+02  0.43058615920E+02  0.17770000000E+01 0.  1.
         15    1    1    2    0    0  0.17303003070E-02 -0.46259067825E+01  0.38777910731E+02  0.39093261647E+02  0.17770000000E+01 0.  1.
</event>
<event>
 6    1  0.1196607E-002  0.1854232E+03  0.7546771E-02  0.1066151E+00
        -11   -1    0    0    0    0  0.00000000000E+00  0.00000000000E+00  0.18250000000E+03  0.18250000000E+03  0.00000000000E+00 0. -1.
         11   -1    0    0    0    0 -0.00000000000E+00 -0.00000000000E+00 -0.18250000000E+03  0.18250000000E+03  0.00000000000E+00 0.  1.
        -11    1    1    2    0    0  0.41319605962E+01  0.75539347197E+01  0.13004644247E+03  0.13033116369E+03  0.00000000000E+00 0. -1.
         11    1    1    2    0    0  0.53861883720E+01 -0.90518129040E+00 -0.17949370396E+03  0.17957678062E+03  0.00000000000E+00 0.  1.
        -15    1    1    2    0    0 -0.12912657883E+02  0.25702009084E+01  0.35779739567E+02  0.38166610523E+02  0.17770000000E+01 0.  1.
         15    1    1    2    0    0  0.33945089149E+01 -0.92189543377E+01  0.13667521915E+02  0.16925445168E+02  0.17770000000E+01 0. -1.
</event>
<event>
 6    1  0.1196607E-002  0.1843461E+03  0.7546771E-02  0.1066995E+00
        -11   -1    0    0    0    0  0.00000000000E+00  0.00000000000E+00  0.18250000000E+03  0.18250000000E+03  0.00000000000E+00 0.  1.
         11   -1    0    0    0    0 -0.00000000000E+00 -0.00000000000E+00 -0.18250000000E+03  0.18250000000E+03  0.00000000000E+00 0.  1.
        -11    1    1    2    0    0 -0.96037971246E+00 -0.50847448336E+01  0.15886294943E+03  0.15894720400E+03  0.00000000000E+00 0.  1.
         11    1    1    2    0    0  0.88742685290E+01  0.10153015064E+02 -0.18014989899E+03  0.18065387475E+03  0.00000000000E+00 0.  1.
        -15    1    1    2    0    0 -0.67033133430E+01 -0.43254058743E+01  0.21607443879E+02  0.23101577992E+02  0.17770000000E+01 0.  1.
         15    1    1    2    0    0 -0.12105754736E+01 -0.74286435633E+00 -0.32049432185E+00  0.22973432568E+01  0.17770000000E+01 0. -1.
</event>
<event>
 6    1  0.1196607E-002  0.1860968E+03  0.7546771E-02  0.1065627E+00
        -11   -1    0    0    0    0  0.00000000000E+00  0.00000000000E+00  0.18250000000E+03  0.18250000000E+03  0.00000000000E+00 0.  1.
         11   -1    0    0    0    0 -0.00000000000E+00 -0.00000000000E+00 -0.18250000000E+03  0.18250000000E+03  0.00000000000E+00 0.  1.
        -11    1    1    2    0    0  0.23509440647E+01  0.71060020332E+01  0.16119472791E+03  0.16136840616E+03  0.00000000000E+00 0.  1.
         11    1    1    2    0    0  0.18372224619E+01 -0.46966324200E+01 -0.17883214966E+03  0.17890324618E+03  0.00000000000E+00 0.  1.
        -15    1    1    2    0    0  0.33007002356E+01  0.21805740194E+01 -0.62897058423E+00  0.43821065819E+01  0.17770000000E+01 0. -1.
         15    1    1    2    0    0 -0.74888667622E+01 -0.45899436326E+01  0.18266392337E+02  0.20346241076E+02  0.17770000000E+01 0.  1.
</event>
<event>
 6    1  0.1196607E-002  0.1828408E+03  0.7546771E-02  0.1068184E+00
        -11   -1    0    0    0    0  0.00000000000E+00  0.00000000000E+00  0.18250000000E+03  0.18250000000E+03  0.00000000000E+00 0.  1.
         11   -1    0    0    0    0 -0.00000000000E+00 -0.00000000000E+00 -0.18250000000E+03  0.18250000000E+03  0.00000000000E+00 0. -1.
        -11    1    1    2    0    0  0.58962889533E+00  0.17166939483E+01  0.27372044861E+02  0.27432162514E+02  0.00000000000E+00 0.  1.
         11    1    1    2    0    0  0.32728785962E+01 -0.23255050885E+01 -0.18211496343E+03  0.18215921501E+03  0.00000000000E+00 0. -1.
        -15    1    1    2    0    0 -0.95497322668E+00  0.67043641416E+01  0.59612924865E+02  0.60022654159E+02  0.17770000000E+01 0. -1.
         15    1    1    2    0    0 -0.29075342648E+01 -0.60955530013E+01  0.95129993700E+02  0.95385968320E+02  0.17770000000E+01 0.  1.
</event>
<event>
 6    1  0.1196607E-002  0.2150557E+03  0.7546771E-02  0.1045140E+00
        -11   -1    0    0    0    0  0.00000000000E+00  0.00000000000E+00  0.18250000000E+03  0.18250000000E+03  0.00000000000E+00 0. -1.
         11   -1    0    0    0    0 -0.00000000000E+00 -0.00000000000E+00 -0.18250000000E+03  0.18250000000E+03  0.00000000000E+00 0. -1.
        -11    1    1    2    0    0 -0.29753328300E+01  0.44871065715E+00  0.14991414782E+03  0.14994434188E+03  0.00000000000E+00 0. -1.
         11    1    1    2    0    0 -0.15655013196E+01  0.67859713472E+00 -0.95202518278E+02  0.95217807027E+02  0.00000000000E+00 0. -1.
        -15    1    1    2    0    0  0.35455108079E+02  0.19260060308E+02 -0.69126226901E+02  0.80060024897E+02  0.17770000000E+01 0.  1.
         15    1    1    2    0    0 -0.30914273930E+02 -0.20387368099E+02  0.14414597363E+02  0.39777826194E+02  0.17770000000E+01 0. -1.
</event>
<event>
 6    1  0.1196607E-002  0.1827626E+03  0.7546771E-02  0.1068246E+00
        -11   -1    0    0    0    0  0.00000000000E+00  0.00000000000E+00  0.18250000000E+03  0.18250000000E+03  0.00000000000E+00 0.  1.
         11   -1    0    0    0    0 -0.00000000000E+00 -0.00000000000E+00 -0.18250000000E+03  0.18250000000E+03  0.00000000000E+00 0. -1.
        -11    1    1    2    0    0 -0.69742820089E+00  0.12415920569E+01  0.80593479321E+02  0.80606059735E+02  0.00000000000E+00 0.  1.
         11    1    1    2    0    0  0.22700356149E+01  0.32669020256E+01 -0.18219402100E+03  0.18223744675E+03  0.00000000000E+00 0. -1.
        -15    1    1    2    0    0 -0.36016791883E+01 -0.61884780672E+01  0.76709196926E+02  0.77063142784E+02  0.17770000000E+01 0.  1.
         15    1    1    2    0    0  0.20290717743E+01  0.16799839847E+01  0.24891344750E+02  0.25093350731E+02  0.17770000000E+01 0. -1.
</event>
<event>
 6    1  0.1196607E-002  0.1905117E+03  0.7546771E-02  0.1062250E+00
        -11   -1    0    0    0    0  0.00000000000E+00  0.00000000000E+00  0.18250000000E+03  0.18250000000E+03  0.00000000000E+00 0.  1.
         11   -1    0    0    0    0 -0.00000000000E+00 -0.00000000000E+00 -0.18250000000E+03  0.18250000000E+03  0.00000000000E+00 0. -1.
        -11    1    1    2    0    0  0.26701383849E+01 -0.73193018394E+01  0.15539654606E+03  0.15559173611E+03  0.00000000000E+00 0.  1.
         11    1    1    2    0    0  0.10623234294E+01  0.11632679240E+02 -0.17409684234E+03  0.17448827545E+03  0.00000000000E+00 0. -1.
        -15    1    1    2    0    0  0.48990579642E+01  0.10206966820E+02  0.31352916049E+01  0.11881528649E+02  0.17770000000E+01 0.  1.
         15    1    1    2    0    0 -0.86315197785E+01 -0.14520344220E+02  0.15565004671E+02  0.23038459787E+02  0.17770000000E+01 0. -1.
</event>
<event>
 6    1  0.1196607E-002  0.1879766E+03  0.7546771E-02  0.1064177E+00
        -11   -1    0    0    0    0  0.00000000000E+00  0.00000000000E+00  0.18250000000E+03  0.18250000000E+03  0.00000000000E+00 0. -1.
         11   -1    0    0    0    0 -0.00000000000E+00 -0.00000000000E+00 -0.18250000000E+03  0.18250000000E+03  0.00000000000E+00 0. -1.
        -11    1    1    2    0    0 -0.44336189815E+00 -0.82547922075E+01  0.17683031949E+03  0.17702344493E+03  0.00000000000E+00 0. -1.
         11    1    1    2    0    0  0.17022344069E+01 -0.68492542684E+01 -0.16628860815E+03  0.16643831015E+03  0.00000000000E+00 0. -1.
        -15    1    1    2    0    0 -0.30869877567E+01  0.50953428335E+00 -0.38871217524E+01  0.52968446375E+01  0.17770000000E+01 0. -1.
         15    1    1    2    0    0  0.18281152479E+01  0.14594512193E+02 -0.66545895912E+01  0.16241400282E+02  0.17770000000E+01 0.  1.
</event>
<event>
 6    1  0.1196607E-002  0.1826236E+03  0.7546771E-02  0.1068356E+00
        -11   -1    0    0    0    0  0.00000000000E+00  0.00000000000E+00  0.18250000000E+03  0.18250000000E+03  0.00000000000E+00 0. -1.
         11   -1    0    0    0    0 -0.00000000000E+00 -0.00000000000E+00 -0.18250000000E+03  0.18250000000E+03  0.00000000000E+00 0. -1.
        -11    1    1    2    0    0 -0.75599379513E+00  0.30262963499E+01  0.18234975507E+03  0.18237643260E+03  0.00000000000E+00 0. -1.
         11    1    1    2    0    0 -0.13089019469E+01 -0.15533454881E+01 -0.12935871619E+03  0.12937466352E+03  0.00000000000E+00 0. -1.
        -15    1    1    2    0    0  0.14809086017E+01 -0.34046918760E+00 -0.13780521442E+02  0.13977464354E+02  0.17770000000E+01 0. -1.
         15    1    1    2    0    0  0.58398714036E+00 -0.11324816743E+01 -0.39210517436E+02  0.39271439525E+02  0.17770000000E+01 0. -1.
</event>
<event>
 6    1  0.1196607E-002  0.1847158E+03  0.7546771E-02  0.1066705E+00
        -11   -1    0    0    0    0  0.00000000000E+00  0.00000000000E+00  0.18250000000E+03  0.18250000000E+03  0.00000000000E+00 0. -1.
         11   -1    0    0    0    0 -0.00000000000E+00 -0.00000000000E+00 -0.18250000000E+03  0.18250000000E+03  0.00000000000E+00 0.  1.
        -11    1    1    2    0    0  0.91917821858E+01  0.17908758244E+01  0.14647139538E+03  0.14677045261E+03  0.00000000000E+00 0. -1.
         11    1    1    2    0    0 -0.41516985497E+01  0.65270033680E+01 -0.18011817992E+03  0.18028421204E+03  0.00000000000E+00 0.  1.
        -15    1    1    2    0    0 -0.15064265619E+01 -0.27350040873E+01  0.29957315521E+02  0.30171974589E+02  0.17770000000E+01 0.  1.
         15    1    1    2    0    0 -0.35336570742E+01 -0.55828751051E+01  0.36894690203E+01  0.77733607538E+01  0.17770000000E+01 0. -1.
</event>
<event>
 6    1  0.1196607E-002  0.1844422E+03  0.7546771E-02  0.1066919E+00
        -11   -1    0    0    0    0  0.00000000000E+00  0.00000000000E+00  0.18250000000E+03  0.18250000000E+03  0.00000000000E+00 0. -1.
         11   -1    0    0    0    0 -0.00000000000E+00 -0.00000000000E+00 -0.18250000000E+03  0.18250000000E+03  0.00000000000E+00 0.  1.
        -11    1    1    2    0    0 -0.43670983544E+01 -0.32864503659E+01  0.18047505822E+03  0.18055779945E+03  0.00000000000E+00 0. -1.
         11    1    1    2    0    0  0.19055986343E+01  0.24168623917E+01 -0.12875349879E+03  0.12879027906E+03  0.00000000000E+00 0.  1.
        -15    1    1    2    0    0 -0.16825219159E+01  0.75957101854E+01 -0.43065765837E+02  0.43798899637E+02  0.17770000000E+01 0. -1.
         15    1    1    2    0    0  0.41440216361E+01 -0.67261222112E+01 -0.86557935880E+01  0.11853021849E+02  0.17770000000E+01 0.  1.
</event>
<event>
 6    1  0.1196607E-002  0.1855284E+03  0.7546771E-02  0.1066069E+00
        -11   -1    0    0    0    0  0.00000000000E+00  0.00000000000E+00  0.18250000000E+03  0.18250000000E+03  0.00000000000E+00 0. -1.
         11   -1    0    0    0    0 -0.00000000000E+00 -0.00000000000E+00 -0.18250000000E+03  0.18250000000E+03  0.00000000000E+00 0.  1.
        -11    1    1    2    0    0 -0.34527319684E+01 -0.51338740166E+00  0.17943767825E+03  0.17947162812E+03  0.00000000000E+00 0. -1.
         11    1    1    2    0    0  0.24001973433E+01  0.11260143083E+01 -0.17681904494E+03  0.17683891967E+03  0.00000000000E+00 0.  1.
        -15    1    1    2    0    0  0.24843808022E+01  0.27038173888E+01 -0.22194037689E+01  0.46439485927E+01  0.17770000000E+01 0. -1.
         15    1    1    2    0    0 -0.14318461770E+01 -0.33164442954E+01 -0.39922954047E+00  0.40455036108E+01  0.17770000000E+01 0.  1.
</event>
<event>
 6    1  0.1196607E-002  0.1880813E+03  0.7546771E-02  0.1064097E+00
        -11   -1    0    0    0    0  0.00000000000E+00  0.00000000000E+00  0.18250000000E+03  0.18250000000E+03  0.00000000000E+00 0. -1.
         11   -1    0    0    0    0 -0.00000000000E+00 -0.00000000000E+00 -0.18250000000E+03  0.18250000000E+03  0.00000000000E+00 0.  1.
        -11    1    1    2    0    0  0.46932555107E+01  0.22561803946E+01  0.17684203898E+03  0.17691869248E+03  0.00000000000E+00 0. -1.
         11    1    1    2    0    0 -0.15069348457E+01  0.10864177234E+02 -0.15114430617E+03  0.15154175163E+03  0.00000000000E+00 0.  1.
        -15    1    1    2    0    0  0.67901948710E+01 -0.49103414145E+01 -0.20995672562E+02  0.22675850470E+02  0.17770000000E+01 0. -1.
         15    1    1    2    0    0 -0.99765155360E+01 -0.82100162143E+01 -0.47020602471E+01  0.13863705423E+02  0.17770000000E+01 0. -1.
</event>
<event>
 6    1  0.1196607E-002  0.1858960E+03  0.7546771E-02  0.1065783E+00
        -11   -1    0    0    0    0  0.00000000000E+00  0.00000000000E+00  0.18250000000E+03  0.18250000000E+03  0.00000000000E+00 0.  1.
         11   -1    0    0    0    0 -0.00000000000E+00 -0.00000000000E+00 -0.18250000000E+03  0.18250000000E+03  0.00000000000E+00 0. -1.
        -11    1    1    2    0    0  0.36708311988E+01 -0.83151498990E+00  0.17906443781E+03  0.17910399020E+03  0.00000000000E+00 0.  1.
         11    1    1    2    0    0 -0.22009878599E+01 -0.37698095812E+01 -0.16169907168E+03  0.16175798464E+03  0.00000000000E+00 0. -1.
        -15    1    1    2    0    0 -0.77665080949E+01  0.40448014315E+01 -0.14368733055E+02  0.16920321664E+02  0.17770000000E+01 0.  1.
         15    1    1    2    0    0  0.62966647560E+01  0.55652313965E+00 -0.29966330720E+01  0.72177035006E+01  0.17770000000E+01 0. -1.
</event>
<event>
 6    1  0.1196607E-002  0.1872736E+03  0.7546771E-02  0.1064717E+00
        -11   -1    0    0    0    0  0.00000000000E+00  0.00000000000E+00  0.18250000000E+03  0.18250000000E+03  0.00000000000E+00 0.  1.
         11   -1    0    0    0    0 -0.00000000000E+00 -0.00000000000E+00 -0.18250000000E+03  0.18250000000E+03  0.00000000000E+00 0.  1.
        -11    1    1    2    0    0 -0.10951994498E+01 -0.31927581913E+01  0.17407103169E+03  0.17410375424E+03  0.00000000000E+00 0.  1.
         11    1    1    2    0    0 -0.14673800364E+01  0.19484868379E+01 -0.17770965475E+03  0.17772639420E+03  0.00000000000E+00 0.  1.
        -15    1    1    2    0    0  0.32671051811E+01  0.10276481626E+01 -0.38424484780E+01  0.54453811911E+01  0.17770000000E+01 0.  1.
         15    1    1    2    0    0 -0.70452569489E+00  0.21662319079E+00  0.74810715404E+01  0.77244703672E+01  0.17770000000E+01 0. -1.
</event>
<event>
 6    1  0.1196607E-002  0.1848585E+03  0.7546771E-02  0.1066593E+00
        -11   -1    0    0    0    0  0.00000000000E+00  0.00000000000E+00  0.18250000000E+03  0.18250000000E+03  0.00000000000E+00 0. -1.
         11   -1    0    0    0    0 -0.00000000000E+00 -0.00000000000E+00 -0.18250000000E+03  0.18250000000E+03  0.00000000000E+00 0.  1.
        -11    1    1    2    0    0 -0.17143318518E+00  0.25708563351E+01  0.15176305558E+03  0.15178492590E+03  0.00000000000E+00 0. -1.
         11    1    1    2    0    0  0.28154165197E+01  0.66837219120E+01 -0.17999548353E+03  0.18014153546E+03  0.00000000000E+00 0.  1.
        -15    1    1    2    0    0  0.43124382552E+01  0.39729329394E+00  0.46389931480E+01  0.65903681303E+01  0.17770000000E+01 0. -1.
         15    1    1    2    0    0 -0.69564215897E+01 -0.96518715411E+01  0.23593434798E+02  0.26483170508E+02  0.17770000000E+01 0.  1.
</event>
<event>
 6    1  0.1196607E-002  0.1848571E+03  0.7546771E-02  0.1066594E+00
        -11   -1    0    0    0    0  0.00000000000E+00  0.00000000000E+00  0.18250000000E+03  0.18250000000E+03  0.00000000000E+00 0. -1.
         11   -1    0    0    0    0 -0.00000000000E+00 -0.00000000000E+00 -0.18250000000E+03  0.18250000000E+03  0.00000000000E+00 0. -1.
        -11    1    1    2    0    0 -0.91862103369E+00 -0.10168946345E+01  0.91197689944E+02  0.91207985344E+02  0.00000000000E+00 0. -1.
         11    1    1    2    0    0  0.21059829385E+01  0.24994929041E+01 -0.18011322697E+03  0.18014287984E+03  0.00000000000E+00 0. -1.
        -15    1    1    2    0    0  0.61164830133E+00  0.21859741453E+01  0.89141198350E+02  0.89187799439E+02  0.17770000000E+01 0. -1.
         15    1    1    2    0    0 -0.17990102061E+01 -0.36685724150E+01 -0.22566132557E+00  0.44613353740E+01  0.17770000000E+01 0. -1.
</event>
<event>
 6    1  0.1196607E-002  0.1864045E+03  0.7546771E-02  0.1065389E+00
        -11   -1    0    0    0    0  0.00000000000E+00  0.00000000000E+00  0.18250000000E+03  0.18250000000E+03  0.00000000000E+00 0. -1.
         11   -1    0    0    0    0 -0.00000000000E+00 -0.00000000000E+00 -0.18250000000E+03  0.18250000000E+03  0.00000000000E+00 0.  1.
        -11    1    1    2    0    0 -0.11580751186E+01  0.80212264273E+01  0.13846882595E+03  0.13870579285E+03  0.00000000000E+00 0. -1.
         11    1    1    2    0    0  0.97056157764E+00 -0.47794105446E+01 -0.17852892647E+03  0.17859552721E+03  0.00000000000E+00 0.  1.
        -15    1    1    2    0    0  0.26979822853E+00 -0.13834120267E+02  0.29519644097E+02  0.32650004460E+02  0.17770000000E+01 0.  1.
         15    1    1    2    0    0 -0.82284687545E-01  0.10592304384E+02  0.10540456421E+02  0.15048675473E+02  0.17770000000E+01 0. -1.
</event>
<event>
 6    1  0.1196607E-002  0.1847596E+03  0.7546771E-02  0.1066670E+00
        -11   -1    0    0    0    0  0.00000000000E+00  0.00000000000E+00  0.18250000000E+03  0.18250000000E+03  0.00000000000E+00 0.  1.
         11   -1    0    0    0    0 -0.00000000000E+00 -0.00000000000E+00 -0.18250000000E+03  0.18250000000E+03  0.00000000000E+00 0.  1.
        -11    1    1    2    0    0  0.34032466278E+01 -0.19674510074E+01  0.18019751488E+03  0.18024038760E+03  0.00000000000E+00 0.  1.
         11    1    1    2    0    0 -0.32204233770E+01 -0.76512242272E+01 -0.10724418482E+03  0.10756499215E+03  0.00000000000E+00 0.  1.
        -15    1    1    2    0    0 -0.54468418017E+00  0.15062395695E+00  0.13287020030E+01  0.22896607708E+01  0.17770000000E+01 0. -1.
         15    1    1    2    0    0  0.36186092933E+00  0.94680512777E+01 -0.74282032067E+02  0.74904959485E+02  0.17770000000E+01 0.  1.
</event>
<event>
 6    1  0.1196607E-002  0.1732787E+03  0.7546771E-02  0.1076041E+00
        -11   -1    0    0    0    0  0.00000000000E+00  0.00000000000E+00  0.18250000000E+03  0.18250000000E+03  0.00000000000E+00 0. -1.
         11   -1    0    0    0    0 -0.00000000000E+00 -0.00000000000E+00 -0.18250000000E+03  0.18250000000E+03  0.00000000000E+00 0. -1.
        -11    1    1    2    0    0 -0.77019011453E+01  0.29383976450E+01  0.17663045554E+03  0.17682271145E+03  0.00000000000E+00 0. -1.
         11    1    1    2    0    0 -0.30146424246E+01 -0.75610523828E+01 -0.16980329814E+03  0.16999828717E+03  0.00000000000E+00 0. -1.
        -15    1    1    2    0    0  0.19926435143E+01  0.29174057853E+01 -0.81109196944E+01  0.90236706489E+01  0.17770000000E+01 0. -1.
         15    1    1    2    0    0  0.87239000556E+01  0.17052489524E+01  0.12837622938E+01  0.91553307311E+01  0.17770000000E+01 0. -1.
</event>
<event>
 6    1  0.1196607E-002  0.1828678E+03  0.7546771E-02  0.1068162E+00
        -11   -1    0    0    0    0  0.00000000000E+00  0.00000000000E+00  0.18250000000E+03  0.18250000000E+03  0.00000000000E+00 0.  1.
         11   -1    0    0    0    0 -0.00000000000E+00 -0.00000000000E+00 -0.18250000000E+03  0.18250000000E+03  0.00000000000E+00 0.  1.
        -11    1    1    2    0    0  0.25213225661E+01  0.23177537644E+01  0.94210946328E+02  0.94273174647E+02  0.00000000000E+00 0.  1.
         11    1    1    2    0    0  0.20520153075E+01 -0.18631291363E+01 -0.18211115485E+03  0.18213224519E+03  0.00000000000E+00 0.  1.
        -15    1    1    2    0    0 -0.45667947381E+01  0.26328286524E+01  0.75163731359E+02  0.75369301720E+02  0.17770000000E+01 0. -1.
         15    1    1    2    0    0 -0.65431355618E-02 -0.30874532804E+01  0.12736477159E+02  0.13225278447E+02  0.17770000000E+01 0.  1.
</event>
<event>
 6    1  0.1196607E-002  0.1783110E+03  0.7546771E-02  0.1071839E+00
        -11   -1    0    0    0    0  0.00000000000E+00  0.00000000000E+00  0.18250000000E+03  0.18250000000E+03  0.00000000000E+00 0.  1.
         11   -1    0    0    0    0 -0.00000000000E+00 -0.00000000000E+00 -0.18250000000E+03  0.18250000000E+03  0.00000000000E+00 0.  1.
        -11    1    1    2    0    0 -0.31818636984E+01 -0.12190031138E-01  0.17844286245E+03  0.17847122896E+03  0.00000000000E+00 0.  1.
         11    1    1    2    0    0  0.26780705611E+01  0.40431503582E+01 -0.17810801956E+03  0.17817403222E+03  0.00000000000E+00 0.  1.
        -15    1    1    2    0    0 -0.38168967750E+00 -0.40057723941E+01 -0.27809797246E+01  0.52041787740E+01  0.17770000000E+01 0.  1.
         15    1    1    2    0    0  0.88548281476E+00 -0.25187933006E-01  0.24461368276E+01  0.31505600497E+01  0.17770000000E+01 0.  1.
</event>
<event>
 6    1  0.1196607E-002  0.1909441E+03  0.7546771E-02  0.1061925E+00
        -11   -1    0    0    0    0  0.00000000000E+00  0.00000000000E+00  0.18250000000E+03  0.18250000000E+03  0.00000000000E+00 0. -1.
         11   -1    0    0    0    0 -0.00000000000E+00 -0.00000000000E+00 -0.18250000000E+03  0.18250000000E+03  0.00000000000E+00 0. -1.
        -11    1    1    2    0    0 -0.12408628078E+02 -0.15555773557E+02  0.17291468174E+03  0.17405586260E+03  0.00000000000E+00 0. -1.
         11    1    1    2    0    0  0.28465288201E+01 -0.40080155279E+01 -0.14559209702E+03  0.14567506866E+03  0.00000000000E+00 0. -1.
        -15    1    1    2    0    0 -0.40582544391E+01 -0.27958190941E+00 -0.19350028417E+02  0.19852680522E+02  0.17770000000E+01 0.  1.
         15    1    1    2    0    0  0.13620353697E+02  0.19843370994E+02 -0.79725563082E+01  0.25416388223E+02  0.17770000000E+01 0. -1.
</event>
<event>
 6    1  0.1196607E-002  0.1865324E+03  0.7546771E-02  0.1065290E+00
        -11   -1    0    0    0    0  0.00000000000E+00  0.00000000000E+00  0.18250000000E+03  0.18250000000E+03  0.00000000000E+00 0.  1.
         11   -1    0    0    0    0 -0.00000000000E+00 -0.00000000000E+00 -0.18250000000E+03  0.18250000000E+03  0.00000000000E+00 0. -1.
        -11    1    1    2    0    0 -0.24847989043E+01 -0.19533171957E+01  0.17843958684E+03  0.17846757640E+03  0.00000000000E+00 0.  1.
         11    1    1    2    0    0  0.48749199036E+01  0.19738615327E+01 -0.17149665439E+03  0.17157728125E+03  0.00000000000E+00 0. -1.
        -15    1    1    2    0    0  0.78035564897E+00 -0.15279265470E+01  0.32193232404E+01  0.40577439049E+01  0.17770000000E+01 0.  1.
         15    1    1    2    0    0 -0.31704766483E+01  0.15073822100E+01 -0.10162255690E+02  0.10897398451E+02  0.17770000000E+01 0.  1.
</event>
<event>
 6    1  0.1196607E-002  0.1834859E+03  0.7546771E-02  0.1067673E+00
        -11   -1    0    0    0    0  0.00000000000E+00  0.00000000000E+00  0.18250000000E+03  0.18250000000E+03  0.00000000000E+00 0. -1.
         11   -1    0    0    0    0 -0.00000000000E+00 -0.00000000000E+00 -0.18250000000E+03  0.18250000000E+03  0.00000000000E+00 0. -1.
        -11    1    1    2    0    0  0.37028377037E+01  0.22895533896E+01  0.18146185945E+03  0.18151407520E+03  0.00000000000E+00 0. -1.
         11    1    1    2    0    0  0.23994942910E+01 -0.20486437428E+01 -0.12089136928E+03  0.12093253359E+03  0.00000000000E+00 0. -1.
        -15    1    1    2    0    0 -0.35090080751E+01 -0.51093865746E+01 -0.11861068855E+02  0.13500431557E+02  0.17770000000E+01 0.  1.
         15    1    1    2    0    0 -0.25933239196E+01  0.48684769278E+01 -0.48709421314E+02  0.49052959649E+02  0.17770000000E+01 0.  1.
</event>
<event>
 6    1  0.1196607E-002  0.1841462E+03  0.7546771E-02  0.1067152E+00
        -11   -1    0    0    0    0  0.00000000000E+00  0.00000000000E+00  0.18250000000E+03  0.18250000000E+03  0.00000000000E+00 0. -1.
         11   -1    0    0    0    0 -0.00000000000E+00 -0.00000000000E+00 -0.18250000000E+03  0.18250000000E+03  0.00000000000E+00 0. -1.
        -11    1    1    2    0    0  0.22083748511E+01 -0.18596268948E+01  0.18083075093E+03  0.18085379624E+03  0.00000000000E+00 0. -1.
         11    1    1    2    0    0  0.50922106772E+01  0.37949563881E+01 -0.16060772408E+03  0.16073323657E+03  0.00000000000E+00 0. -1.
        -15    1    1    2    0    0 -0.15781020044E+01  0.12889693090E+01 -0.78036269462E+00  0.28139905386E+01  0.17770000000E+01 0.  1.
         15    1    1    2    0    0 -0.57224835239E+01 -0.32242988023E+01 -0.19442664156E+02  0.20598976648E+02  0.17770000000E+01 0. -1.
</event>
<event>
 6    1  0.1196607E-002  0.1845607E+03  0.7546771E-02  0.1066826E+00
        -11   -1    0    0    0    0  0.00000000000E+00  0.00000000000E+00  0.18250000000E+03  0.18250000000E+03  0.00000000000E+00 0. -1.
         11   -1    0    0    0    0 -0.00000000000E+00 -0.00000000000E+00 -0.18250000000E+03  0.18250000000E+03  0.00000000000E+00 0. -1.
        -11    1    1    2    0    0 -0.43514379417E+01  0.29404819424E+01  0.16623031756E+03  0.16631325840E+03  0.00000000000E+00 0. -1.
         11    1    1    2    0    0  0.24325298069E+01 -0.22010616996E+01 -0.18040943391E+03  0.18043925770E+03  0.00000000000E+00 0. -1.
        -15    1    1    2    0    0  0.15223811690E+01 -0.42103526374E+01  0.16059320716E+01  0.50775447387E+01  0.17770000000E+01 0. -1.
         15    1    1    2    0    0  0.39652696580E+00  0.34709323945E+01  0.12573184286E+02  0.13169939158E+02  0.17770000000E+01 0.  1.
</event>
<event>
 6    1  0.1196607E-002  0.1828443E+03  0.7546771E-02  0.1068181E+00
        -11   -1    0    0    0    0  0.00000000000E+00  0.00000000000E+00  0.18250000000E+03  0.18250000000E+03  0.00000000000E+00 0. -1.
         11   -1    0    0    0    0 -0.00000000000E+00 -0.00000000000E+00 -0.18250000000E+03  0.18250000000E+03  0.00000000000E+00 0. -1.
        -11    1    1    2    0    0 -0.79433220147E+00 -0.12240310484E+01  0.96683764399E+02  0.96694775009E+02  0.00000000000E+00 0. -1.
         11    1    1    2    0    0  0.26048946568E+01 -0.45667209476E+00 -0.18213648170E+03  0.18215568065E+03  0.00000000000E+00 0. -1.
        -15    1    1    2    0    0 -0.58075707706E+00  0.53580099543E+01  0.65535674742E+02  0.65780908646E+02  0.17770000000E+01 0.  1.
         15    1    1    2    0    0 -0.12298053783E+01 -0.36773068112E+01  0.19917042562E+02  0.20368635695E+02  0.17770000000E+01 0. -1.
</event>
<event>
 6    1  0.1196607E-002  0.1826876E+03  0.7546771E-02  0.1068306E+00
        -11   -1    0    0    0    0  0.00000000000E+00  0.00000000000E+00  0.18250000000E+03  0.18250000000E+03  0.00000000000E+00 0. -1.
         11   -1    0    0    0    0 -0.00000000000E+00 -0.00000000000E+00 -0.18250000000E+03  0.18250000000E+03  0.00000000000E+00 0. -1.
        -11    1    1    2    0    0  0.95734822869E+00 -0.79161536151E+00  0.56824861572E+02  0.56838438254E+02  0.00000000000E+00 0. -1.
         11    1    1    2    0    0  0.25832018284E+01 -0.24448933282E+00 -0.18229390604E+03  0.18231237173E+03  0.00000000000E+00 0. -1.
        -15    1    1    2    0    0  0.22980147678E+01  0.20639182497E+01  0.41864837604E+02  0.42016222902E+02  0.17770000000E+01 0. -1.
         15    1    1    2    0    0 -0.58385648249E+01 -0.10278135553E+01  0.83604206866E+02  0.83832967111E+02  0.17770000000E+01 0. -1.
</event>
<event>
 6    1  0.1196607E-002  0.1869272E+03  0.7546771E-02  0.1064984E+00
        -11   -1    0    0    0    0  0.00000000000E+00  0.00000000000E+00  0.18250000000E+03  0.18250000000E+03  0.00000000000E+00 0.  1.
         11   -1    0    0    0    0 -0.00000000000E+00 -0.00000000000E+00 -0.18250000000E+03  0.18250000000E+03  0.00000000000E+00 0. -1.
        -11    1    1    2    0    0  0.17960013704E+02  0.95624455920E+01  0.17690653140E+03  0.17807280340E+03  0.00000000000E+00 0.  1.
         11    1    1    2    0    0 -0.81016949568E+00  0.93715011528E+01 -0.10129212602E+03  0.10172795192E+03  0.00000000000E+00 0. -1.
        -15    1    1    2    0    0 -0.10301405114E+02 -0.11568434030E+02 -0.73013945169E+02  0.74660173663E+02  0.17770000000E+01 0. -1.
         15    1    1    2    0    0 -0.68484390942E+01 -0.73655127151E+01 -0.26004602092E+01  0.10539071016E+02  0.17770000000E+01 0.  1.
</event>
<event>
 6    1  0.1196607E-002  0.1783721E+03  0.7546771E-02  0.1071789E+00
        -11   -1    0    0    0    0  0.00000000000E+00  0.00000000000E+00  0.18250000000E+03  0.18250000000E+03  0.00000000000E+00 0. -1.
         11   -1    0    0    0    0 -0.00000000000E+00 -0.00000000000E+00 -0.18250000000E+03  0.18250000000E+03  0.00000000000E+00 0. -1.
        -11    1    1    2    0    0 -0.26760406894E+01  0.26704210219E+01  0.17903611844E+03  0.17907602868E+03  0.00000000000E+00 0. -1.
         11    1    1    2    0    0 -0.26138290151E+01  0.10320790569E+01 -0.17770676578E+03  0.17772898440E+03  0.00000000000E+00 0. -1.
        -15    1    1    2    0    0  0.45999104805E+01 -0.22688681084E+01  0.71984538096E-01  0.54286139756E+01  0.17770000000E+01 0. -1.
         15    1    1    2    0    0  0.68995922392E+00 -0.14336319703E+01 -0.14013371922E+01  0.27663729472E+01  0.17770000000E+01 0. -1.
</event>
<event>
 6    1  0.1196607E-002  0.1842187E+03  0.7546771E-02  0.1067095E+00
        -11   -1    0    0    0    0  0.00000000000E+00  0.00000000000E+00  0.18250000000E+03  0.18250000000E+03  0.00000000000E+00 0.  1.
         11   -1    0    0    0    0 -0.00000000000E+00 -0.00000000000E+00 -0.18250000000E+03  0.18250000000E+03  0.00000000000E+00 0.  1.
        -11    1    1    2    0    0  0.60189815066E+01  0.30202393102E+01  0.18065578319E+03  0.18078125452E+03  0.00000000000E+00 0.  1.
         11    1    1    2    0    0 -0.12885015521E+01  0.10537683618E+01 -0.47688872373E+02  0.47717912907E+02  0.00000000000E+00 0.  1.
        -15    1    1    2    0    0  0.32165387075E+01  0.20325707235E+01 -0.11972679189E+03  0.11980041690E+03  0.17770000000E+01 0.  1.
         15    1    1    2    0    0 -0.79470186621E+01 -0.61065783955E+01 -0.13240118933E+02  0.16700415673E+02  0.17770000000E+01 0. -1.
</event>
<event>
 6    1  0.1196607E-002  0.1839302E+03  0.7546771E-02  0.1067322E+00
        -11   -1    0    0    0    0  0.00000000000E+00  0.00000000000E+00  0.18250000000E+03  0.18250000000E+03  0.00000000000E+00 0. -1.
         11   -1    0    0    0    0 -0.00000000000E+00 -0.00000000000E+00 -0.18250000000E+03  0.18250000000E+03  0.00000000000E+00 0. -1.
        -11    1    1    2    0    0  0.27120175754E+01 -0.97845337786E+01  0.18078494970E+03  0.18106984889E+03  0.00000000000E+00 0. -1.
         11    1    1    2    0    0  0.82131687837E+00 -0.26033247892E+01 -0.13134887896E+03  0.13137724257E+03  0.00000000000E+00 0. -1.
        -15    1    1    2    0    0  0.14730186142E+01  0.91516549563E+00 -0.24199333305E+02  0.24326380189E+02  0.17770000000E+01 0. -1.
         15    1    1    2    0    0 -0.50063530679E+01  0.11472693072E+02 -0.25236737432E+02  0.28226528348E+02  0.17770000000E+01 0.  1.
</event>
<event>
 6    1  0.1196607E-002  0.1773928E+03  0.7546771E-02  0.1072594E+00
        -11   -1    0    0    0    0  0.00000000000E+00  0.00000000000E+00  0.18250000000E+03  0.18250000000E+03  0.00000000000E+00 0.  1.
         11   -1    0    0    0    0 -0.00000000000E+00 -0.00000000000E+00 -0.18250000000E+03  0.18250000000E+03  0.00000000000E+00 0. -1.
        -11    1    1    2    0    0 -0.25403879843E+01 -0.25038899624E+00  0.17843867972E+03  0.17845693791E+03  0.00000000000E+00 0.  1.
         11    1    1    2    0    0 -0.30331571245E+01 -0.10663025769E+00 -0.17635259130E+03  0.17637870583E+03  0.00000000000E+00 0. -1.
        -15    1    1    2    0    0  0.55799302571E+00  0.21546035216E+01  0.17684507362E+01  0.33524348701E+01  0.17770000000E+01 0. -1.
         15    1    1    2    0    0  0.50155520831E+01 -0.17975842677E+01 -0.38545391587E+01  0.68119213900E+01  0.17770000000E+01 0. -1.
</event>
<event>
 6    1  0.1196607E-002  0.1847487E+03  0.7546771E-02  0.1066679E+00
        -11   -1    0    0    0    0  0.00000000000E+00  0.00000000000E+00  0.18250000000E+03  0.18250000000E+03  0.00000000000E+00 0. -1.
         11   -1    0    0    0    0 -0.00000000000E+00 -0.00000000000E+00 -0.18250000000E+03  0.18250000000E+03  0.00000000000E+00 0.  1.
        -11    1    1    2    0    0  0.30188869463E+01  0.61804476359E+00  0.15968547111E+03  0.15971520072E+03  0.00000000000E+00 0. -1.
         11    1    1    2    0    0  0.40384359812E+01  0.49835163534E+01 -0.18013714135E+03  0.18025130816E+03  0.00000000000E+00 0.  1.
        -15    1    1    2    0    0 -0.22640712508E+01 -0.29840239583E+01  0.38796318127E+00  0.41639719070E+01  0.17770000000E+01 0.  1.
         15    1    1    2    0    0 -0.47932516768E+01 -0.26175371587E+01  0.20063707059E+02  0.20869519218E+02  0.17770000000E+01 0. -1.
</event>
<event>
 6    1  0.1196607E-002  0.1834052E+03  0.7546771E-02  0.1067737E+00
        -11   -1    0    0    0    0  0.00000000000E+00  0.00000000000E+00  0.18250000000E+03  0.18250000000E+03  0.00000000000E+00 0. -1.
         11   -1    0    0    0    0 -0.00000000000E+00 -0.00000000000E+00 -0.18250000000E+03  0.18250000000E+03  0.00000000000E+00 0.  1.
        -11    1    1    2    0    0 -0.39727117715E+01  0.56161845110E+01  0.18146447608E+03  0.18159482384E+03  0.00000000000E+00 0. -1.
         11    1    1    2    0    0  0.77442748128E+01 -0.20156684121E+01 -0.13075491483E+03  0.13099955902E+03  0.00000000000E+00 0.  1.
        -15    1    1    2    0    0  0.31477105538E+01 -0.41539186983E+00 -0.59998186237E+01  0.70168500521E+01  0.17770000000E+01 0. -1.
         15    1    1    2    0    0 -0.69192735950E+01 -0.31851242290E+01 -0.44709742624E+02  0.45388767090E+02  0.17770000000E+01 0.  1.
</event>
<event>
 6    1  0.1196607E-002  0.1853665E+03  0.7546771E-02  0.1066196E+00
        -11   -1    0    0    0    0  0.00000000000E+00  0.00000000000E+00  0.18250000000E+03  0.18250000000E+03  0.00000000000E+00 0. -1.
         11   -1    0    0    0    0 -0.00000000000E+00 -0.00000000000E+00 -0.18250000000E+03  0.18250000000E+03  0.00000000000E+00 0. -1.
        -11    1    1    2    0    0  0.16857936405E+01  0.24045329851E+01  0.17303946651E+03  0.17306438296E+03  0.00000000000E+00 0. -1.
         11    1    1    2    0    0  0.40082167108E+01 -0.90126527634E+00 -0.17958653777E+03  0.17963352312E+03  0.00000000000E+00 0. -1.
        -15    1    1    2    0    0 -0.48668128296E+01 -0.29469876114E+01  0.75925188241E+01  0.96527029476E+01  0.17770000000E+01 0. -1.
         15    1    1    2    0    0 -0.82719752166E+00  0.14437199027E+01 -0.10454475651E+01  0.26493909694E+01  0.17770000000E+01 0. -1.
</event>
<event>
 6    1  0.1196607E-002  0.1836629E+03  0.7546771E-02  0.1067533E+00
        -11   -1    0    0    0    0  0.00000000000E+00  0.00000000000E+00  0.18250000000E+03  0.18250000000E+03  0.00000000000E+00 0.  1.
         11   -1    0    0    0    0 -0.00000000000E+00 -0.00000000000E+00 -0.18250000000E+03  0.18250000000E+03  0.00000000000E+00 0. -1.
        -11    1    1    2    0    0 -0.63547899544E+01 -0.53073535641E+01  0.42506705733E+02  0.43305558413E+02  0.00000000000E+00 0.  1.
         11    1    1    2    0    0 -0.44915628767E+01 -0.10495269368E+02 -0.18097738955E+03  0.18133709037E+03  0.00000000000E+00 0. -1.
        -15    1    1    2    0    0  0.81392417219E+01  0.86620225081E+01  0.11467925158E+03  0.11530726934E+03  0.17770000000E+01 0.  1.
         15    1    1    2    0    0  0.27071111092E+01  0.71406004240E+01  0.23791432239E+02  0.25050081875E+02  0.17770000000E+01 0. -1.
</event>
<event>
 6    1  0.1196607E-002  0.1859263E+03  0.7546771E-02  0.1065760E+00
        -11   -1    0    0    0    0  0.00000000000E+00  0.00000000000E+00  0.18250000000E+03  0.18250000000E+03  0.00000000000E+00 0.  1.
         11   -1    0    0    0    0 -0.00000000000E+00 -0.00000000000E+00 -0.18250000000E+03  0.18250000000E+03  0.00000000000E+00 0. -1.
        -11    1    1    2    0    0 -0.51054769799E+01  0.16118717283E+01  0.15483662268E+03  0.15492915720E+03  0.00000000000E+00 0.  1.
         11    1    1    2    0    0 -0.80071694656E+01 -0.20170705747E+01 -0.17888320561E+03  0.17907368479E+03  0.00000000000E+00 0. -1.
        -15    1    1    2    0    0  0.79623867074E+00 -0.30672750422E+01  0.14460190006E+02  0.14909627635E+02  0.17770000000E+01 0. -1.
         15    1    1    2    0    0  0.12316407775E+02  0.34724738887E+01  0.95863929188E+01  0.16087530375E+02  0.17770000000E+01 0.  1.
</event>
<event>
 6    1  0.1196607E-002  0.1833679E+03  0.7546771E-02  0.1067766E+00
        -11   -1    0    0    0    0  0.00000000000E+00  0.00000000000E+00  0.18250000000E+03  0.18250000000E+03  0.00000000000E+00 0.  1.
         11   -1    0    0    0    0 -0.00000000000E+00 -0.00000000000E+00 -0.18250000000E+03  0.18250000000E+03  0.00000000000E+00 0.  1.
        -11    1    1    2    0    0 -0.26290412097E+01  0.14671980336E+01  0.18160709945E+03  0.18163205416E+03  0.00000000000E+00 0.  1.
         11    1    1    2    0    0  0.10354094117E+01 -0.23709367841E+01 -0.57178896955E+02  0.57237397486E+02  0.00000000000E+00 0.  1.
        -15    1    1    2    0    0  0.25278252183E+01  0.64768071598E+01 -0.15941251045E+02  0.17481994886E+02  0.17770000000E+01 0. -1.
         15    1    1    2    0    0 -0.93419342016E+00 -0.55730684092E+01 -0.10848695145E+03  0.10864855347E+03  0.17770000000E+01 0.  1.
</event>
<event>
 6    1  0.1196607E-002  0.1859116E+03  0.7546771E-02  0.1065771E+00
        -11   -1    0    0    0    0  0.00000000000E+00  0.00000000000E+00  0.18250000000E+03  0.18250000000E+03  0.00000000000E+00 0.  1.
         11   -1    0    0    0    0 -0.00000000000E+00 -0.00000000000E+00 -0.18250000000E+03  0.18250000000E+03  0.00000000000E+00 0. -1.
        -11    1    1    2    0    0 -0.17011851114E+02 -0.10762730350E+02  0.69029331317E+02  0.71904714901E+02  0.00000000000E+00 0.  1.
         11    1    1    2    0    0  0.29782651922E+01 -0.60787714846E+01 -0.17896045034E+03  0.17908842596E+03  0.00000000000E+00 0. -1.
        -15    1    1    2    0    0  0.12270755411E+02  0.10216415602E+02  0.32515017597E+02  0.36267487981E+02  0.17770000000E+01 0. -1.
         15    1    1    2    0    0  0.17628305110E+01  0.66250862328E+01  0.77416101427E+02  0.77739371159E+02  0.17770000000E+01 0.  1.
</event>
<event>
 6    1  0.1196607E-002  0.1859895E+03  0.7546771E-02  0.1065711E+00
        -11   -1    0    0    0    0  0.00000000000E+00  0.00000000000E+00  0.18250000000E+03  0.18250000000E+03  0.00000000000E+00 0. -1.
         11   -1    0    0    0    0 -0.00000000000E+00 -0.00000000000E+00 -0.18250000000E+03  0.18250000000E+03  0.00000000000E+00 0.  1.
        -11    1    1    2    0    0  0.42847612839E+01 -0.31562513655E+01  0.16867978302E+03  0.16876371145E+03  0.00000000000E+00 0. -1.
         11    1    1    2    0    0  0.37540162305E+01 -0.21386563537E+01 -0.17895838231E+03  0.17901052787E+03  0.00000000000E+00 0.  1.
        -15    1    1    2    0    0 -0.94649477704E+01  0.26187728136E+01  0.58366596242E+01  0.11561467550E+02  0.17770000000E+01 0.  1.
         15    1    1    2    0    0  0.14261702560E+01  0.26761349057E+01  0.44419396712E+01  0.56642931311E+01  0.17770000000E+01 0. -1.
</event>
<event>
 6    1  0.1196607E-002  0.1904582E+03  0.7546771E-02  0.1062291E+00
        -11   -1    0    0    0    0  0.00000000000E+00  0.00000000000E+00  0.18250000000E+03  0.18250000000E+03  0.00000000000E+00 0. -1.
         11   -1    0    0    0    0 -0.00000000000E+00 -0.00000000000E+00 -0.18250000000E+03  0.18250000000E+03  0.00000000000E+00 0.  1.
        -11    1    1    2    0    0 -0.29043396605E+01 -0.63622923667E+00  0.17451652037E+03  0.17454184558E+03  0.00000000000E+00 0. -1.
         11    1    1    2    0    0 -0.40210793805E+01 -0.64411391049E+01 -0.15748785802E+03  0.15767080509E+03  0.00000000000E+00 0.  1.
        -15    1    1    2    0    0  0.78283500519E+01  0.63169971675E+01  0.44935771603E+01  0.11159636304E+02  0.17770000000E+01 0. -1.
         15    1    1    2    0    0 -0.90293101093E+00  0.76037117410E+00 -0.21522239503E+02  0.21627713031E+02  0.17770000000E+01 0.  1.
</event>
<event>
 6    1  0.1196607E-002  0.1832935E+03  0.7546771E-02  0.1067825E+00
        -11   -1    0    0    0    0  0.00000000000E+00  0.00000000000E+00  0.18250000000E+03  0.18250000000E+03  0.00000000000E+00 0. -1.
         11   -1    0    0    0    0 -0.00000000000E+00 -0.00000000000E+00 -0.18250000000E+03  0.18250000000E+03  0.00000000000E+00 0.  1.
        -11    1    1    2    0    0  0.25156318703E+01  0.44839835359E+01  0.18163373372E+03  0.18170648788E+03  0.00000000000E+00 0. -1.
         11    1    1    2    0    0 -0.29063124340E+01  0.11775629636E+01 -0.83413571399E+02  0.83472493674E+02  0.00000000000E+00 0.  1.
        -15    1    1    2    0    0  0.23054914991E+01 -0.24852858677E+01 -0.93427053996E+02  0.93505422753E+02  0.17770000000E+01 0. -1.
         15    1    1    2    0    0 -0.19148109354E+01 -0.31762606317E+01 -0.47931083269E+01  0.63155956926E+01  0.17770000000E+01 0.  1.
</event>
<event>
 6    1  0.1196607E-002  0.1843206E+03  0.7546771E-02  0.1067015E+00
        -11   -1    0    0    0    0  0.00000000000E+00  0.00000000000E+00  0.18250000000E+03  0.18250000000E+03  0.00000000000E+00 0. -1.
         11   -1    0    0    0    0 -0.00000000000E+00 -0.00000000000E+00 -0.18250000000E+03  0.18250000000E+03  0.00000000000E+00 0.  1.
        -11    1    1    2    0    0 -0.53774627679E+00 -0.31486693447E+01  0.18065113282E+03  0.18067937093E+03  0.00000000000E+00 0. -1.
         11    1    1    2    0    0  0.38601553104E+01 -0.94161409837E+00 -0.17492934095E+03  0.17497446032E+03  0.00000000000E+00 0.  1.
        -15    1    1    2    0    0 -0.15394552573E+01  0.38743739030E+01 -0.22703466458E+01  0.50688162840E+01  0.17770000000E+01 0. -1.
         15    1    1    2    0    0 -0.17829537763E+01  0.21590954013E+00 -0.34514452184E+01  0.42773524748E+01  0.17770000000E+01 0.  1.
</event>
<event>
 6    1  0.1196607E-002  0.1869738E+03  0.7546771E-02  0.1064948E+00
        -11   -1    0    0    0    0  0.00000000000E+00  0.00000000000E+00  0.18250000000E+03  0.18250000000E+03  0.00000000000E+00 0.  1.
         11   -1    0    0    0    0 -0.00000000000E+00 -0.00000000000E+00 -0.18250000000E+03  0.18250000000E+03  0.00000000000E+00 0.  1.
        -11    1    1    2    0    0  0.49268992237E+01 -0.57907292745E+00  0.17795706374E+03  0.17802619525E+03  0.00000000000E+00 0.  1.
         11    1    1    2    0    0  0.20787772216E+01  0.39617262842E+01 -0.17058459235E+03  0.17064325283E+03  0.00000000000E+00 0.  1.
        -15    1    1    2    0    0 -0.98328109914E+00  0.42278787163E+01 -0.27225239758E+01  0.54232523414E+01  0.17770000000E+01 0. -1.
         15    1    1    2    0    0 -0.60223953462E+01 -0.76105320730E+01 -0.46499474137E+01  0.10907299578E+02  0.17770000000E+01 0.  1.
</event>
<event>
 6    1  0.1196607E-002  0.1873876E+03  0.7546771E-02  0.1064629E+00
        -11   -1    0    0    0    0  0.00000000000E+00  0.00000000000E+00  0.18250000000E+03  0.18250000000E+03  0.00000000000E+00 0. -1.
         11   -1    0    0    0    0 -0.00000000000E+00 -0.00000000000E+00 -0.18250000000E+03  0.18250000000E+03  0.00000000000E+00 0.  1.
        -11    1    1    2    0    0  0.21050685535E+01 -0.34859220382E+01  0.16135084016E+03  0.16140221989E+03  0.00000000000E+00 0. -1.
         11    1    1    2    0    0 -0.49530787066E+01  0.10536641939E+02 -0.17723033940E+03  0.17761235040E+03  0.00000000000E+00 0.  1.
        -15    1    1    2    0    0  0.55992546125E+01 -0.90471509602E+01  0.12474039486E+01  0.10858928968E+02  0.17770000000E+01 0.  1.
         15    1    1    2    0    0 -0.27512444594E+01  0.19964310594E+01  0.14632095292E+02  0.15126500742E+02  0.17770000000E+01 0. -1.
</event>
<event>
 6    1  0.1196607E-002  0.1827059E+03  0.7546771E-02  0.1068291E+00
        -11   -1    0    0    0    0  0.00000000000E+00  0.00000000000E+00  0.18250000000E+03  0.18250000000E+03  0.00000000000E+00 0. -1.
         11   -1    0    0    0    0 -0.00000000000E+00 -0.00000000000E+00 -0.18250000000E+03  0.18250000000E+03  0.00000000000E+00 0. -1.
        -11    1    1    2    0    0 -0.22604706487E+01 -0.11319175711E+01  0.14709548760E+03  0.14711720986E+03  0.00000000000E+00 0. -1.
         11    1    1    2    0    0  0.12148095060E+01  0.29506829651E+01 -0.18226612229E+03  0.18229405263E+03  0.00000000000E+00 0. -1.
        -15    1    1    2    0    0  0.12831425629E+00 -0.24632840512E+01  0.26176686018E+02  0.26352625159E+02  0.17770000000E+01 0. -1.
         15    1    1    2    0    0  0.91734688644E+00  0.64451865717E+00  0.89939486696E+01  0.92361123467E+01  0.17770000000E+01 0. -1.
</event>
<event>
 6    1  0.1196607E-002  0.1847081E+03  0.7546771E-02  0.1066711E+00
        -11   -1    0    0    0    0  0.00000000000E+00  0.00000000000E+00  0.18250000000E+03  0.18250000000E+03  0.00000000000E+00 0.  1.
         11   -1    0    0    0    0 -0.00000000000E+00 -0.00000000000E+00 -0.18250000000E+03  0.18250000000E+03  0.00000000000E+00 0. -1.
        -11    1    1    2    0    0 -0.67261362583E+00  0.30702877281E+01  0.15827802016E+03  0.15830922506E+03  0.00000000000E+00 0.  1.
         11    1    1    2    0    0  0.24098377957E+00 -0.35184642895E+01 -0.18025735585E+03  0.18029185229E+03  0.00000000000E+00 0. -1.
        -15    1    1    2    0    0 -0.16246804030E+01 -0.20175071755E+01  0.22477281718E+02  0.22695723035E+02  0.17770000000E+01 0.  1.
         15    1    1    2    0    0  0.20563102493E+01  0.24656837369E+01 -0.49794602569E+00  0.37031996133E+01  0.17770000000E+01 0. -1.
</event>
<event>
 6    1  0.1196607E-002  0.1688904E+03  0.7546771E-02  0.1079836E+00
        -11   -1    0    0    0    0  0.00000000000E+00  0.00000000000E+00  0.18250000000E+03  0.18250000000E+03  0.00000000000E+00 0.  1.
         11   -1    0    0    0    0 -0.00000000000E+00 -0.00000000000E+00 -0.18250000000E+03  0.18250000000E+03  0.00000000000E+00 0. -1.
        -11    1    1    2    0    0  0.17640831014E+01 -0.43167427473E+01  0.16919847676E+03  0.16926272713E+03  0.00000000000E+00 0.  1.
         11    1    1    2    0    0  0.65436747626E+01 -0.28602967440E+01 -0.16854585527E+03  0.16869708446E+03  0.00000000000E+00 0. -1.
        -15    1    1    2    0    0 -0.23583487290E+01  0.13209276786E+02  0.72185773968E+01  0.15339895390E+02  0.17770000000E+01 0.  1.
         15    1    1    2    0    0 -0.59494091350E+01 -0.60322372949E+01 -0.78711988852E+01  0.11700293019E+02  0.17770000000E+01 0. -1.
</event>
<event>
 6    1  0.1196607E-002  0.1899922E+03  0.7546771E-02  0.1062643E+00
        -11   -1    0    0    0    0  0.00000000000E+00  0.00000000000E+00  0.18250000000E+03  0.18250000000E+03  0.00000000000E+00 0.  1.
         11   -1    0    0    0    0 -0.00000000000E+00 -0.00000000000E+00 -0.18250000000E+03  0.18250000000E+03  0.00000000000E+00 0.  1.
        -11    1    1    2    0    0 -0.11121541530E+01 -0.14917339631E+01  0.96766160226E+02  0.96784047869E+02  0.00000000000E+00 0.  1.
         11    1    1    2    0    0  0.16515753053E+00 -0.33825506142E+01 -0.17497503695E+03  0.17500780692E+03  0.00000000000E+00 0.  1.
        -15    1    1    2    0    0  0.30168522894E+01  0.19139541178E+01 -0.69179096650E+01  0.79862269711E+01  0.17770000000E+01 0. -1.
         15    1    1    2    0    0 -0.20698556669E+01  0.29603304595E+01  0.85126786390E+02  0.85221918243E+02  0.17770000000E+01 0.  1.
</event>
<event>
 6    1  0.1196607E-002  0.1852738E+03  0.7546771E-02  0.1066268E+00
        -11   -1    0    0    0    0  0.00000000000E+00  0.00000000000E+00  0.18250000000E+03  0.18250000000E+03  0.00000000000E+00 0. -1.
         11   -1    0    0    0    0 -0.00000000000E+00 -0.00000000000E+00 -0.18250000000E+03  0.18250000000E+03  0.00000000000E+00 0.  1.
        -11    1    1    2    0    0  0.30260761648E+01  0.12847778384E+01  0.16225296332E+03  0.16228626527E+03  0.00000000000E+00 0. -1.
         11    1    1    2    0    0 -0.51452372980E+01  0.96476116635E+00 -0.17964994104E+03  0.17972619605E+03  0.00000000000E+00 0.  1.
        -15    1    1    2    0    0  0.54532964555E+01  0.40691797138E+01  0.52199707589E+01  0.87579957466E+01  0.17770000000E+01 0. -1.
         15    1    1    2    0    0 -0.33341353223E+01 -0.63187187185E+01  0.12177006962E+02  0.14229542935E+02  0.17770000000E+01 0.  1.
</event>
<event>
 6    1  0.1196607E-002  0.1849702E+03  0.7546771E-02  0.1066505E+00
        -11   -1    0    0    0    0  0.00000000000E+00  0.00000000000E+00  0.18250000000E+03  0.18250000000E+03  0.00000000000E+00 0.  1.
         11   -1    0    0    0    0 -0.00000000000E+00 -0.00000000000E+00 -0.18250000000E+03  0.18250000000E+03  0.00000000000E+00 0. -1.
        -11    1    1    2    0    0 -0.46445643198E+01  0.55502053982E+01  0.17988428925E+03  0.18002981497E+03  0.00000000000E+00 0.  1.
         11    1    1    2    0    0 -0.91798406284E+00 -0.41281018850E+01 -0.17111682499E+03  0.17116907348E+03  0.00000000000E+00 0. -1.
        -15    1    1    2    0    0  0.46013381888E+01  0.28180383963E+01 -0.32109883639E+01  0.65254753700E+01  0.17770000000E+01 0.  1.
         15    1    1    2    0    0  0.96121019385E+00 -0.42401419095E+01 -0.55564758988E+01  0.72756361827E+01  0.17770000000E+01 0. -1.
</event>
<event>
 6    1  0.1196607E-002  0.1825898E+03  0.7546771E-02  0.1068383E+00
        -11   -1    0    0    0    0  0.00000000000E+00  0.00000000000E+00  0.18250000000E+03  0.18250000000E+03  0.00000000000E+00 0.  1.
         11   -1    0    0    0    0 -0.00000000000E+00 -0.00000000000E+00 -0.18250000000E+03  0.18250000000E+03  0.00000000000E+00 0.  1.
        -11    1    1    2    0    0 -0.34509856253E+01  0.12910575188E+01  0.18237300497E+03  0.18241022195E+03  0.00000000000E+00 0.  1.
         11    1    1    2    0    0 -0.66252879595E+00 -0.13066083033E+01 -0.96501754359E+02  0.96512873566E+02  0.00000000000E+00 0.  1.
        -15    1    1    2    0    0  0.79508516037E+00 -0.24486379067E+00 -0.41151587553E+02  0.41198337416E+02  0.17770000000E+01 0. -1.
         15    1    1    2    0    0  0.33184292609E+01  0.26041457513E+00 -0.44719663059E+02  0.44878567063E+02  0.17770000000E+01 0.  1.
</event>
<event>
 6    1  0.1196607E-002  0.2107020E+03  0.7546771E-02  0.1047988E+00
        -11   -1    0    0    0    0  0.00000000000E+00  0.00000000000E+00  0.18250000000E+03  0.18250000000E+03  0.00000000000E+00 0. -1.
         11   -1    0    0    0    0 -0.00000000000E+00 -0.00000000000E+00 -0.18250000000E+03  0.18250000000E+03  0.00000000000E+00 0. -1.
        -11    1    1    2    0    0 -0.24602826288E+01 -0.95290261471E+00  0.14801413283E+03  0.14803764566E+03  0.00000000000E+00 0. -1.
         11    1    1    2    0    0  0.20592597179E+00 -0.21319650270E+01 -0.15428312406E+03  0.15429799108E+03  0.00000000000E+00 0. -1.
        -15    1    1    2    0    0 -0.27430269464E+02  0.12544784303E+02  0.84726576521E+01  0.31380486815E+02  0.17770000000E+01 0. -1.
         15    1    1    2    0    0  0.29684626121E+02 -0.94599166612E+01 -0.22036664237E+01  0.31283876452E+02  0.17770000000E+01 0.  1.
</event>
<event>
 6    1  0.1196607E-002  0.1886531E+03  0.7546771E-02  0.1063660E+00
        -11   -1    0    0    0    0  0.00000000000E+00  0.00000000000E+00  0.18250000000E+03  0.18250000000E+03  0.00000000000E+00 0. -1.
         11   -1    0    0    0    0 -0.00000000000E+00 -0.00000000000E+00 -0.18250000000E+03  0.18250000000E+03  0.00000000000E+00 0. -1.
        -11    1    1    2    0    0  0.45046352890E+01  0.46787913392E+01  0.17622728278E+03  0.17634692519E+03  0.00000000000E+00 0. -1.
         11    1    1    2    0    0 -0.94059400425E-01 -0.65100495791E+01 -0.16250754035E+03  0.16263791152E+03  0.00000000000E+00 0. -1.
        -15    1    1    2    0    0  0.23474889213E+01  0.71925833525E+01 -0.15211754971E+02  0.17082130366E+02  0.17770000000E+01 0. -1.
         15    1    1    2    0    0 -0.67580648098E+01 -0.53613251125E+01  0.14920125405E+01  0.89330329316E+01  0.17770000000E+01 0.  1.
</event>
<event>
 6    1  0.1196607E-002  0.1826311E+03  0.7546771E-02  0.1068350E+00
        -11   -1    0    0    0    0  0.00000000000E+00  0.00000000000E+00  0.18250000000E+03  0.18250000000E+03  0.00000000000E+00 0.  1.
         11   -1    0    0    0    0 -0.00000000000E+00 -0.00000000000E+00 -0.18250000000E+03  0.18250000000E+03  0.00000000000E+00 0.  1.
        -11    1    1    2    0    0 -0.27254849226E+01 -0.13172390700E+01  0.18234375054E+03  0.18236887549E+03  0.00000000000E+00 0.  1.
         11    1    1    2    0    0  0.10945143723E+01 -0.50974558760E+00 -0.56851615854E+02  0.56864435525E+02  0.00000000000E+00 0.  1.
        -15    1    1    2    0    0 -0.39113244050E+00  0.41342232907E+01 -0.84876669567E+02  0.84996773777E+02  0.17770000000E+01 0.  1.
         15    1    1    2    0    0  0.20221029908E+01 -0.23072386331E+01 -0.40615465116E+02  0.40769915210E+02  0.17770000000E+01 0. -1.
</event>
<event>
 6    1  0.1196607E-002  0.1863760E+03  0.7546771E-02  0.1065411E+00
        -11   -1    0    0    0    0  0.00000000000E+00  0.00000000000E+00  0.18250000000E+03  0.18250000000E+03  0.00000000000E+00 0.  1.
         11   -1    0    0    0    0 -0.00000000000E+00 -0.00000000000E+00 -0.18250000000E+03  0.18250000000E+03  0.00000000000E+00 0.  1.
        -11    1    1    2    0    0  0.20731845051E+01  0.55476836383E+01  0.17852576206E+03  0.17862396986E+03  0.00000000000E+00 0.  1.
         11    1    1    2    0    0  0.70208823752E+00  0.29014577654E+01 -0.16427533728E+03  0.16430245836E+03  0.00000000000E+00 0.  1.
        -15    1    1    2    0    0 -0.31728420251E+01 -0.65535393679E+01  0.88794956745E-01  0.74954264926E+01  0.17770000000E+01 0. -1.
         15    1    1    2    0    0  0.39756928238E+00 -0.18956020358E+01 -0.14339219738E+02  0.14578145290E+02  0.17770000000E+01 0. -1.
</event>
<event>
 6    1  0.1196607E-002  0.1679467E+03  0.7546771E-02  0.1080668E+00
        -11   -1    0    0    0    0  0.00000000000E+00  0.00000000000E+00  0.18250000000E+03  0.18250000000E+03  0.00000000000E+00 0.  1.
         11   -1    0    0    0    0 -0.00000000000E+00 -0.00000000000E+00 -0.18250000000E+03  0.18250000000E+03  0.00000000000E+00 0. -1.
        -11    1    1    2    0    0  0.17413113560E+00  0.56237734062E+01  0.15866437331E+03  0.15876410333E+03  0.00000000000E+00 0.  1.
         11    1    1    2    0    0 -0.18664673447E+01  0.15508623495E+01 -0.44429420472E+01  0.50624705837E+01  0.00000000000E+00 0. -1.
        -15    1    1    2    0    0  0.26192495266E+01 -0.10832202006E+02 -0.17733140135E+03  0.17769012551E+03  0.17770000000E+01 0. -1.
         15    1    1    2    0    0 -0.92691331751E+00  0.36575662507E+01  0.23109970091E+02  0.23483300573E+02  0.17770000000E+01 0. -1.
</event>
<event>
 6    1  0.1196607E-002  0.1837992E+03  0.7546771E-02  0.1067425E+00
        -11   -1    0    0    0    0  0.00000000000E+00  0.00000000000E+00  0.18250000000E+03  0.18250000000E+03  0.00000000000E+00 0.  1.
         11   -1    0    0    0    0 -0.00000000000E+00 -0.00000000000E+00 -0.18250000000E+03  0.18250000000E+03  0.00000000000E+00 0. -1.
        -11    1    1    2    0    0  0.24694098033E+01  0.44182753645E+01  0.18113008222E+03  0.18120078870E+03  0.00000000000E+00 0.  1.
         11    1    1    2    0    0  0.40923354609E+01  0.15157547406E+01 -0.14782836095E+03  0.14789276190E+03  0.00000000000E+00 0. -1.
        -15    1    1    2    0    0 -0.57045699441E+01 -0.58271433112E+01 -0.12617121341E+02  0.15127696366E+02  0.17770000000E+01 0.  1.
         15    1    1    2    0    0 -0.85717531999E+00 -0.10688679398E+00 -0.20684599925E+02  0.20778753028E+02  0.17770000000E+01 0.  1.
</event>
<event>
 6    1  0.1196607E-002  0.1826657E+03  0.7546771E-02  0.1068323E+00
        -11   -1    0    0    0    0  0.00000000000E+00  0.00000000000E+00  0.18250000000E+03  0.18250000000E+03  0.00000000000E+00 0. -1.
         11   -1    0    0    0    0 -0.00000000000E+00 -0.00000000000E+00 -0.18250000000E+03  0.18250000000E+03  0.00000000000E+00 0.  1.
        -11    1    1    2    0    0 -0.70681467965E+00 -0.15882091044E+00  0.46524018319E+02  0.46529658193E+02  0.00000000000E+00 0. -1.
         11    1    1    2    0    0  0.78831743028E+01  0.14388802137E+01 -0.18215816662E+03  0.18233434257E+03  0.00000000000E+00 0.  1.
        -15    1    1    2    0    0  0.48819235648E+00 -0.27968233551E+01  0.27041989274E+02  0.27248623186E+02  0.17770000000E+01 0.  1.
         15    1    1    2    0    0 -0.76645519797E+01  0.15167640518E+01  0.10859215903E+03  0.10888737605E+03  0.17770000000E+01 0. -1.
</event>
<event>
 6    1  0.1196607E-002  0.1826357E+03  0.7546771E-02  0.1068347E+00
        -11   -1    0    0    0    0  0.00000000000E+00  0.00000000000E+00  0.18250000000E+03  0.18250000000E+03  0.00000000000E+00 0.  1.
         11   -1    0    0    0    0 -0.00000000000E+00 -0.00000000000E+00 -0.18250000000E+03  0.18250000000E+03  0.00000000000E+00 0. -1.
        -11    1    1    2    0    0 -0.15243509948E+01 -0.11585819779E+01  0.82820493375E+02  0.82842622369E+02  0.00000000000E+00 0.  1.
         11    1    1    2    0    0  0.31663058423E+01  0.47994176314E+01 -0.18227361760E+03  0.18236428262E+03  0.00000000000E+00 0. -1.
        -15    1    1    2    0    0 -0.27130489322E+01 -0.40554251086E+01  0.44955453632E+02  0.45254366061E+02  0.17770000000E+01 0.  1.
         15    1    1    2    0    0  0.10710940848E+01  0.41458945507E+00  0.54497670591E+02  0.54538728953E+02  0.17770000000E+01 0. -1.
</event>
<event>
 6    1  0.1196607E-002  0.1883889E+03  0.7546771E-02  0.1063862E+00
        -11   -1    0    0    0    0  0.00000000000E+00  0.00000000000E+00  0.18250000000E+03  0.18250000000E+03  0.00000000000E+00 0.  1.
         11   -1    0    0    0    0 -0.00000000000E+00 -0.00000000000E+00 -0.18250000000E+03  0.18250000000E+03  0.00000000000E+00 0. -1.
        -11    1    1    2    0    0  0.25835307121E+01 -0.73297471726E+00  0.17366295431E+03  0.17368371709E+03  0.00000000000E+00 0.  1.
         11    1    1    2    0    0  0.40367280356E+00  0.23508132464E+01 -0.17659499463E+03  0.17661110215E+03  0.00000000000E+00 0. -1.
        -15    1    1    2    0    0 -0.36355133515E+01 -0.41004864198E+01  0.73233168286E+01  0.93177059719E+01  0.17770000000E+01 0.  1.
         15    1    1    2    0    0  0.64830983581E+00  0.24826478906E+01 -0.43912765128E+01  0.53874747892E+01  0.17770000000E+01 0. -1.
</event>
<event>
 6    1  0.1196607E-002  0.1889780E+03  0.7546771E-02  0.1063412E+00
        -11   -1    0    0    0    0  0.00000000000E+00  0.00000000000E+00  0.18250000000E+03  0.18250000000E+03  0.00000000000E+00 0. -1.
         11   -1    0    0    0    0 -0.00000000000E+00 -0.00000000000E+00 -0.18250000000E+03  0.18250000000E+03  0.00000000000E+00 0.  1.
        -11    1    1    2    0    0  0.29579560851E-01  0.23597893849E+01  0.16048309019E+03  0.16050044149E+03  0.00000000000E+00 0. -1.
         11    1    1    2    0    0 -0.68980247010E+01  0.73460996133E+01 -0.17573327299E+03  0.17602196215E+03  0.00000000000E+00 0.  1.
        -15    1    1    2    0    0  0.13695801898E+01 -0.15552394304E+02  0.11317438913E+02  0.19364784301E+02  0.17770000000E+01 0.  1.
         15    1    1    2    0    0  0.54988649503E+01  0.58465053053E+01  0.39327438844E+01  0.91128120515E+01  0.17770000000E+01 0. -1.
</event>
<event>
 6    1  0.1196607E-002  0.1829464E+03  0.7546771E-02  0.1068100E+00
        -11   -1    0    0    0    0  0.00000000000E+00  0.00000000000E+00  0.18250000000E+03  0.18250000000E+03  0.00000000000E+00 0. -1.
         11   -1    0    0    0    0 -0.00000000000E+00 -0.00000000000E+00 -0.18250000000E+03  0.18250000000E+03  0.00000000000E+00 0. -1.
        -11    1    1    2    0    0  0.58399245839E+01 -0.73398973307E+01  0.18181183157E+03  0.18205362098E+03  0.00000000000E+00 0. -1.
         11    1    1    2    0    0 -0.19204284575E+01  0.34502217735E+00 -0.42844597490E+02  0.42889003484E+02  0.00000000000E+00 0. -1.
        -15    1    1    2    0    0 -0.39370620546E+01  0.11597894864E+02 -0.91182575305E+02  0.92018646975E+02  0.17770000000E+01 0.  1.
         15    1    1    2    0    0  0.17565928162E-01 -0.46030197104E+01 -0.47784658773E+02  0.48038728565E+02  0.17770000000E+01 0. -1.
</event>
<event>
 6    1  0.1196607E-002  0.1832607E+03  0.7546771E-02  0.1067851E+00
        -11   -1    0    0    0    0  0.00000000000E+00  0.00000000000E+00  0.18250000000E+03  0.18250000000E+03  0.00000000000E+00 0. -1.
         11   -1    0    0    0    0 -0.00000000000E+00 -0.00000000000E+00 -0.18250000000E+03  0.18250000000E+03  0.00000000000E+00 0.  1.
        -11    1    1    2    0    0 -0.28595578492E+01 -0.27262431974E+01  0.11219180775E+03  0.11226135220E+03  0.00000000000E+00 0. -1.
         11    1    1    2    0    0 -0.24896276941E+01 -0.36172768941E+00 -0.18172191837E+03  0.18173933176E+03  0.00000000000E+00 0.  1.
        -15    1    1    2    0    0 -0.14710454906E+01 -0.25789239598E+01  0.39126182885E+02  0.39278884147E+02  0.17770000000E+01 0.  1.
         15    1    1    2    0    0  0.68202310339E+01  0.56668948466E+01  0.30403927735E+02  0.31720431890E+02  0.17770000000E+01 0. -1.
</event>
<event>
 6    1  0.1196607E-002  0.1765808E+03  0.7546771E-02  0.1073267E+00
        -11   -1    0    0    0    0  0.00000000000E+00  0.00000000000E+00  0.18250000000E+03  0.18250000000E+03  0.00000000000E+00 0.  1.
         11   -1    0    0    0    0 -0.00000000000E+00 -0.00000000000E+00 -0.18250000000E+03  0.18250000000E+03  0.00000000000E+00 0. -1.
        -11    1    1    2    0    0  0.15587015276E+01 -0.20264931155E+01  0.17747915104E+03  0.17749756414E+03  0.00000000000E+00 0.  1.
         11    1    1    2    0    0 -0.71830301515E+01 -0.28850049349E+01 -0.17557750449E+03  0.17574805620E+03  0.00000000000E+00 0. -1.
        -15    1    1    2    0    0  0.20100794125E+01  0.66788675074E+01 -0.10353910963E+01  0.72716885349E+01  0.17770000000E+01 0.  1.
         15    1    1    2    0    0  0.36142492114E+01 -0.17673694570E+01 -0.86625544973E+00  0.44826911185E+01  0.17770000000E+01 0. -1.
</event>
<event>
 6    1  0.1196607E-002  0.1825418E+03  0.7546771E-02  0.1068422E+00
        -11   -1    0    0    0    0  0.00000000000E+00  0.00000000000E+00  0.18250000000E+03  0.18250000000E+03  0.00000000000E+00 0.  1.
         11   -1    0    0    0    0 -0.00000000000E+00 -0.00000000000E+00 -0.18250000000E+03  0.18250000000E+03  0.00000000000E+00 0. -1.
        -11    1    1    2    0    0  0.20291579074E+01  0.25813543310E+01  0.18242866358E+03  0.18245820938E+03  0.00000000000E+00 0.  1.
         11    1    1    2    0    0  0.34887573965E+00  0.40867009011E+00 -0.32034094135E+02  0.32038600353E+02  0.00000000000E+00 0. -1.
        -15    1    1    2    0    0 -0.17954213454E+01 -0.27998891571E+01 -0.11056451541E+03  0.11062880599E+03  0.17770000000E+01 0. -1.
         15    1    1    2    0    0 -0.58261230172E+00 -0.19013526402E+00 -0.39830054038E+02  0.39874384286E+02  0.17770000000E+01 0. -1.
</event>
<event>
 6    1  0.1196607E-002  0.1843696E+03  0.7546771E-02  0.1066976E+00
        -11   -1    0    0    0    0  0.00000000000E+00  0.00000000000E+00  0.18250000000E+03  0.18250000000E+03  0.00000000000E+00 0. -1.
         11   -1    0    0    0    0 -0.00000000000E+00 -0.00000000000E+00 -0.18250000000E+03  0.18250000000E+03  0.00000000000E+00 0. -1.
        -11    1    1    2    0    0 -0.12528480875E+01  0.27595638918E+01  0.84959326523E+02  0.85013363564E+02  0.00000000000E+00 0. -1.
         11    1    1    2    0    0 -0.30614798016E+01 -0.12103803941E+02 -0.18019845920E+03  0.18063044988E+03  0.00000000000E+00 0. -1.
        -15    1    1    2    0    0  0.49876739339E+01  0.50818513195E+01  0.47394543036E+01  0.87362612255E+01  0.17770000000E+01 0.  1.
         15    1    1    2    0    0 -0.67334604479E+00  0.42623887301E+01  0.90499678369E+02  0.90619925328E+02  0.17770000000E+01 0. -1.
</event>
<event>
 6    1  0.1196607E-002  0.1886513E+03  0.7546771E-02  0.1063661E+00
        -11   -1    0    0    0    0  0.00000000000E+00  0.00000000000E+00  0.18250000000E+03  0.18250000000E+03  0.00000000000E+00 0.  1.
         11   -1    0    0    0    0 -0.00000000000E+00 -0.00000000000E+00 -0.18250000000E+03  0.18250000000E+03  0.00000000000E+00 0. -1.
        -11    1    1    2    0    0 -0.32419820868E+01  0.34191374661E+01  0.16553985733E+03  0.16560689996E+03  0.00000000000E+00 0.  1.
         11    1    1    2    0    0 -0.11431295327E+00  0.40291529027E+01 -0.17630267163E+03  0.17634874302E+03  0.00000000000E+00 0. -1.
        -15    1    1    2    0    0  0.46156498375E+01 -0.73349096159E+01 -0.28218165238E+01  0.92857686806E+01  0.17770000000E+01 0.  1.
         15    1    1    2    0    0 -0.12593547975E+01 -0.11338075291E+00  0.13584630820E+02  0.13758588344E+02  0.17770000000E+01 0.  1.
</event>
<event>
 6    1  0.1196607E-002  0.1844066E+03  0.7546771E-02  0.1066947E+00
        -11   -1    0    0    0    0  0.00000000000E+00  0.00000000000E+00  0.18250000000E+03  0.18250000000E+03  0.00000000000E+00 0. -1.
         11   -1    0    0    0    0 -0.00000000000E+00 -0.00000000000E+00 -0.18250000000E+03  0.18250000000E+03  0.00000000000E+00 0.  1.
        -11    1    1    2    0    0  0.30132142435E+01  0.20870892579E+01  0.17563666156E+03  0.17567490511E+03  0.00000000000E+00 0. -1.
         11    1    1    2    0    0 -0.93082867440E+00 -0.35362378914E+01 -0.18055633909E+03  0.18059336368E+03  0.00000000000E+00 0.  1.
        -15    1    1    2    0    0 -0.85199257694E+00 -0.18199132667E+01  0.33968215816E+00  0.27039024794E+01  0.17770000000E+01 0. -1.
         15    1    1    2    0    0 -0.12303929921E+01  0.32690619002E+01  0.45799953659E+01  0.60278287280E+01  0.17770000000E+01 0. -1.
</event>
<event>
 6    1  0.1196607E-002  0.1847692E+03  0.7546771E-02  0.1066663E+00
        -11   -1    0    0    0    0  0.00000000000E+00  0.00000000000E+00  0.18250000000E+03  0.18250000000E+03  0.00000000000E+00 0. -1.
         11   -1    0    0    0    0 -0.00000000000E+00 -0.00000000000E+00 -0.18250000000E+03  0.18250000000E+03  0.00000000000E+00 0.  1.
        -11    1    1    2    0    0  0.23311480253E+01 -0.15926501700E+01  0.18020864429E+03  0.18023075837E+03  0.00000000000E+00 0. -1.
         11    1    1    2    0    0  0.63683775322E+01  0.30178480120E+01 -0.14660560212E+03  0.14677488276E+03  0.00000000000E+00 0.  1.
        -15    1    1    2    0    0 -0.33286549880E+01  0.68467414449E+00  0.18529587666E-01  0.38349439447E+01  0.17770000000E+01 0. -1.
         15    1    1    2    0    0 -0.53708705694E+01 -0.21098719865E+01 -0.33621571766E+02  0.34159414917E+02  0.17770000000E+01 0.  1.
</event>
<event>
 6    1  0.1196607E-002  0.1874020E+03  0.7546771E-02  0.1064618E+00
        -11   -1    0    0    0    0  0.00000000000E+00  0.00000000000E+00  0.18250000000E+03  0.18250000000E+03  0.00000000000E+00 0. -1.
         11   -1    0    0    0    0 -0.00000000000E+00 -0.00000000000E+00 -0.18250000000E+03  0.18250000000E+03  0.00000000000E+00 0.  1.
        -11    1    1    2    0    0 -0.65312633219E+01 -0.11887447603E+02  0.14910488756E+03  0.14972052733E+03  0.00000000000E+00 0. -1.
         11    1    1    2    0    0  0.18802775754E+01  0.15425291301E+01 -0.17758133325E+03  0.17759798635E+03  0.00000000000E+00 0.  1.
        -15    1    1    2    0    0 -0.19318951861E+01 -0.58058203098E+00 -0.27852208150E+01  0.38709790097E+01  0.17770000000E+01 0. -1.
         15    1    1    2    0    0  0.65828809326E+01  0.10925500504E+02  0.31261666501E+02  0.33810507302E+02  0.17770000000E+01 0. -1.
</event>
<event>
 6    1  0.1196607E-002  0.1834878E+03  0.7546771E-02  0.1067671E+00
        -11   -1    0    0    0    0  0.00000000000E+00  0.00000000000E+00  0.18250000000E+03  0.18250000000E+03  0.00000000000E+00 0.  1.
         11   -1    0    0    0    0 -0.00000000000E+00 -0.00000000000E+00 -0.18250000000E+03  0.18250000000E+03  0.00000000000E+00 0. -1.
        -11    1    1    2    0    0 -0.98738165014E+00 -0.11495218771E+01  0.30397778143E+02  0.30435525937E+02  0.00000000000E+00 0.  1.
         11    1    1    2    0    0 -0.73475919152E+01 -0.13687947704E+01 -0.18135829344E+03  0.18151223459E+03  0.00000000000E+00 0. -1.
        -15    1    1    2    0    0  0.82599761409E+01 -0.19747459333E+01  0.14550844129E+03  0.14576690654E+03  0.17770000000E+01 0.  1.
         15    1    1    2    0    0  0.74997424456E-01  0.44930625809E+01  0.54520740061E+01  0.72853329325E+01  0.17770000000E+01 0. -1.
</event>
<event>
 6    1  0.1196607E-002  0.1853532E+03  0.7546771E-02  0.1066206E+00
        -11   -1    0    0    0    0  0.00000000000E+00  0.00000000000E+00  0.18250000000E+03  0.18250000000E+03  0.00000000000E+00 0.  1.
         11   -1    0    0    0    0 -0.00000000000E+00 -0.00000000000E+00 -0.18250000000E+03  0.18250000000E+03  0.00000000000E+00 0. -1.
        -11    1    1    2    0    0 -0.75628021008E+01  0.12138988228E+02  0.14477849374E+03  0.14548320611E+03  0.00000000000E+00 0.  1.
         11    1    1    2    0    0 -0.21172790789E-01 -0.43131297225E+01 -0.17959499495E+03  0.17964678051E+03  0.00000000000E+00 0. -1.
        -15    1    1    2    0    0  0.26369262594E+01 -0.23704334069E+01 -0.26967512172E+00  0.39752721046E+01  0.17770000000E+01 0. -1.
         15    1    1    2    0    0  0.49470486322E+01 -0.54554250991E+01  0.35086176328E+02  0.35894741279E+02  0.17770000000E+01 0. -1.
</event>
<event>
 6    1  0.1196607E-002  0.1857130E+03  0.7546771E-02  0.1065926E+00
        -11   -1    0    0    0    0  0.00000000000E+00  0.00000000000E+00  0.18250000000E+03  0.18250000000E+03  0.00000000000E+00 0. -1.
         11   -1    0    0    0    0 -0.00000000000E+00 -0.00000000000E+00 -0.18250000000E+03  0.18250000000E+03  0.00000000000E+00 0.  1.
        -11    1    1    2    0    0 -0.49738799647E+00  0.28498755323E+01  0.17926366251E+03  0.17928700422E+03  0.00000000000E+00 0. -1.
         11    1    1    2    0    0 -0.41140748360E+01 -0.22758321906E+01 -0.16506654697E+03  0.16513349131E+03  0.00000000000E+00 0.  1.
        -15    1    1    2    0    0  0.44985782972E+01  0.23147874495E+01 -0.15902053976E+02  0.16781790646E+02  0.17770000000E+01 0. -1.
         15    1    1    2    0    0  0.11288453527E+00 -0.28888307913E+01  0.17049384334E+01  0.37977138281E+01  0.17770000000E+01 0. -1.
</event>
<event>
 6    1  0.1196607E-002  0.1834849E+03  0.7546771E-02  0.1067674E+00
        -11   -1    0    0    0    0  0.00000000000E+00  0.00000000000E+00  0.18250000000E+03  0.18250000000E+03  0.00000000000E+00 0.  1.
         11   -1    0    0    0    0 -0.00000000000E+00 -0.00000000000E+00 -0.18250000000E+03  0.18250000000E+03  0.00000000000E+00 0.  1.
        -11    1    1    2    0    0 -0.14029212604E+01 -0.21172214792E+01  0.17109333906E+03  0.17111218976E+03  0.00000000000E+00 0.  1.
         11    1    1    2    0    0 -0.33928051216E+00  0.24393372250E+01 -0.18149843967E+03  0.18151514835E+03  0.00000000000E+00 0.  1.
        -15    1    1    2    0    0  0.29169734741E+01 -0.56023232673E+00  0.27429650157E+01  0.44163537659E+01  0.17770000000E+01 0. -1.
         15    1    1    2    0    0 -0.11747717015E+01  0.23811658097E+00  0.76621355993E+01  0.79563081261E+01  0.17770000000E+01 0.  1.
</event>
<event>
 6    1  0.1196607E-002  0.1915165E+03  0.7546771E-02  0.1061496E+00
        -11   -1    0    0    0    0  0.00000000000E+00  0.00000000000E+00  0.18250000000E+03  0.18250000000E+03  0.00000000000E+00 0.  1.
         11   -1    0    0    0    0 -0.00000000000E+00 -0.00000000000E+00 -0.18250000000E+03  0.18250000000E+03  0.00000000000E+00 0.  1.
        -11    1    1    2    0    0 -0.40521990369E+01 -0.18288587879E+01  0.14745571527E+03  0.14752272031E+03  0.00000000000E+00 0.  1.
         11    1    1    2    0    0 -0.68028922217E+00 -0.31528121697E+01 -0.17345349092E+03  0.17348347625E+03  0.00000000000E+00 0.  1.
        -15    1    1    2    0    0 -0.23471844535E+01  0.75968788979E+01 -0.66008588818E+01  0.10485747986E+02  0.17770000000E+01 0. -1.
         15    1    1    2    0    0  0.70796727126E+01 -0.26152079404E+01  0.32598634528E+02  0.33508055455E+02  0.17770000000E+01 0.  1.
</event>
<event>
 6    1  0.1196607E-002  0.1623363E+03  0.7546771E-02  0.1085744E+00
        -11   -1    0    0    0    0  0.00000000000E+00  0.00000000000E+00  0.18250000000E+03  0.18250000000E+03  0.00000000000E+00 0. -1.
         11   -1    0    0    0    0 -0.00000000000E+00 -0.00000000000E+00 -0.18250000000E+03  0.18250000000E+03  0.00000000000E+00 0. -1.
        -11    1    1    2    0    0 -0.66515869616E+01  0.49041458429E+01  0.16200890781E+03  0.16221954403E+03  0.00000000000E+00 0. -1.
         11    1    1    2    0    0 -0.31847612210E+01 -0.75426410175E+01 -0.16240675728E+03  0.16261300363E+03  0.00000000000E+00 0. -1.
        -15    1    1    2    0    0  0.17074880355E+02  0.15576926414E+02 -0.59658534822E+01  0.23936192521E+02  0.17770000000E+01 0. -1.
         15    1    1    2    0    0 -0.72385321720E+01 -0.12938431240E+02  0.63637029543E+01  0.16231259817E+02  0.17770000000E+01 0.  1.
</event>
<event>
 6    1  0.1196607E-002  0.1840811E+03  0.7546771E-02  0.1067203E+00
        -11   -1    0    0    0    0  0.00000000000E+00  0.00000000000E+00  0.18250000000E+03  0.18250000000E+03  0.00000000000E+00 0.  1.
         11   -1    0    0    0    0 -0.00000000000E+00 -0.00000000000E+00 -0.18250000000E+03  0.18250000000E+03  0.00000000000E+00 0. -1.
        -11    1    1    2    0    0  0.13334395225E+01 -0.14897465199E+01  0.13072685956E+03  0.13074214782E+03  0.00000000000E+00 0.  1.
         11    1    1    2    0    0 -0.13880525395E+02 -0.18704357560E+01 -0.18037590829E+03  0.18091886526E+03  0.00000000000E+00 0. -1.
        -15    1    1    2    0    0  0.13593983833E+02 -0.10132950752E+01  0.28473356685E+02  0.31618237353E+02  0.17770000000E+01 0.  1.
         15    1    1    2    0    0 -0.10468979609E+01  0.43734773511E+01  0.21175692040E+02  0.21720749570E+02  0.17770000000E+01 0.  1.
</event>
<event>
 6    1  0.1196607E-002  0.1786006E+03  0.7546771E-02  0.1071602E+00
        -11   -1    0    0    0    0  0.00000000000E+00  0.00000000000E+00  0.18250000000E+03  0.18250000000E+03  0.00000000000E+00 0. -1.
         11   -1    0    0    0    0 -0.00000000000E+00 -0.00000000000E+00 -0.18250000000E+03  0.18250000000E+03  0.00000000000E+00 0. -1.
        -11    1    1    2    0    0  0.14670288339E+01 -0.23635948726E+01  0.17823547296E+03  0.17825718099E+03  0.00000000000E+00 0. -1.
         11    1    1    2    0    0  0.35078966281E+01 -0.23920763075E+00 -0.17895431065E+03  0.17898884842E+03  0.00000000000E+00 0. -1.
        -15    1    1    2    0    0 -0.36667669931E+01  0.32532097652E+01  0.13154453392E+01  0.53774231188E+01  0.17770000000E+01 0.  1.
         15    1    1    2    0    0 -0.13081584689E+01 -0.65040726188E+00 -0.59660764662E+00  0.23765474685E+01  0.17770000000E+01 0. -1.
</event>
<event>
 6    1  0.1196607E-002  0.1825436E+03  0.7546771E-02  0.1068420E+00
        -11   -1    0    0    0    0  0.00000000000E+00  0.00000000000E+00  0.18250000000E+03  0.18250000000E+03  0.00000000000E+00 0.  1.
         11   -1    0    0    0    0 -0.00000000000E+00 -0.00000000000E+00 -0.18250000000E+03  0.18250000000E+03  0.00000000000E+00 0. -1.
        -11    1    1    2    0    0  0.17681334070E+01 -0.18363759946E+01  0.18243854175E+03  0.18245635119E+03  0.00000000000E+00 0.  1.
         11    1    1    2    0    0 -0.76925780458E+00  0.33176523361E+00 -0.37695633106E+02  0.37704941069E+02  0.00000000000E+00 0. -1.
        -15    1    1    2    0    0 -0.12063430585E+01 -0.84997755450E+00 -0.63565797479E+02  0.63607751600E+02  0.17770000000E+01 0.  1.
         15    1    1    2    0    0  0.20746745611E+00  0.23545883155E+01 -0.81177111169E+02  0.81230956141E+02  0.17770000000E+01 0. -1.
</event>
<event>
 6    1  0.1196607E-002  0.1850778E+03  0.7546771E-02  0.1066421E+00
        -11   -1    0    0    0    0  0.00000000000E+00  0.00000000000E+00  0.18250000000E+03  0.18250000000E+03  0.00000000000E+00 0. -1.
         11   -1    0    0    0    0 -0.00000000000E+00 -0.00000000000E+00 -0.18250000000E+03  0.18250000000E+03  0.00000000000E+00 0. -1.
        -11    1    1    2    0    0  0.48890826018E+01 -0.50684434879E+01  0.17978435312E+03  0.17992222174E+03  0.00000000000E+00 0. -1.
         11    1    1    2    0    0  0.26438218762E+01 -0.67793132844E+01 -0.12330992883E+03  0.12352444062E+03  0.00000000000E+00 0. -1.
        -15    1    1    2    0    0 -0.30214799080E+01  0.10662252576E+02 -0.55297275241E+02  0.56424811465E+02  0.17770000000E+01 0. -1.
         15    1    1    2    0    0 -0.45114245700E+01  0.11855041959E+01 -0.11771490553E+01  0.51285261769E+01  0.17770000000E+01 0.  1.
</event>
<event>
 6    1  0.1196607E-002  0.1826912E+03  0.7546771E-02  0.1068303E+00
        -11   -1    0    0    0    0  0.00000000000E+00  0.00000000000E+00  0.18250000000E+03  0.18250000000E+03  0.00000000000E+00 0.  1.
         11   -1    0    0    0    0 -0.00000000000E+00 -0.00000000000E+00 -0.18250000000E+03  0.18250000000E+03  0.00000000000E+00 0. -1.
        -11    1    1    2    0    0 -0.29318898513E+01 -0.11883411152E+01  0.18228137218E+03  0.18230882254E+03  0.00000000000E+00 0.  1.
         11    1    1    2    0    0 -0.11210730530E+01 -0.34792101860E+01 -0.42925460862E+02  0.43080818220E+02  0.00000000000E+00 0. -1.
        -15    1    1    2    0    0  0.22907175166E+01 -0.23519612330E+00 -0.44716651925E+02  0.44811152544E+02  0.17770000000E+01 0. -1.
         15    1    1    2    0    0  0.17622453876E+01  0.49027474245E+01 -0.94639259397E+02  0.94799206691E+02  0.17770000000E+01 0.  1.
</event>
<event>
 6    1  0.2974316E-002  0.1776582E+03  0.7546771E-02  0.1072376E+00
        -11   -1    0    0    0    0  0.00000000000E+00  0.00000000000E+00  0.18250000000E+03  0.18250000000E+03  0.00000000000E+00 0. -1.
         11   -1    0    0    0    0 -0.00000000000E+00 -0.00000000000E+00 -0.18250000000E+03  0.18250000000E+03  0.00000000000E+00 0. -1.
        -11    1    1    2    0    0  0.23519727404E+01  0.17370329686E+01  0.18019434005E+03  0.18021806027E+03  0.00000000000E+00 0. -1.
         11    1    1    2    0    0 -0.27728328762E+01 -0.18662433638E+01 -0.40045852236E+01  0.52161450579E+01  0.00000000000E+00 0. -1.
        -15    1    1    2    0    0  0.36229307004E+01  0.14808182078E+01 -0.11058305459E+01  0.44383600147E+01  0.17770000000E+01 0.  1.
         15    1    1    2    0    0 -0.32020705646E+01 -0.13516078125E+01 -0.17508392428E+03  0.17512743466E+03  0.17770000000E+01 0. -1.
</event>
<event>
 6    1  0.1196607E-002  0.1830236E+03  0.7546771E-02  0.1068039E+00
        -11   -1    0    0    0    0  0.00000000000E+00  0.00000000000E+00  0.18250000000E+03  0.18250000000E+03  0.00000000000E+00 0.  1.
         11   -1    0    0    0    0 -0.00000000000E+00 -0.00000000000E+00 -0.18250000000E+03  0.18250000000E+03  0.00000000000E+00 0.  1.
        -11    1    1    2    0    0 -0.11214911727E+01 -0.30763393501E+01  0.18194698883E+03  0.18197644998E+03  0.00000000000E+00 0.  1.
         11    1    1    2    0    0  0.68524529626E-02  0.38563362041E+01 -0.13405622197E+03  0.13411167743E+03  0.00000000000E+00 0.  1.
        -15    1    1    2    0    0 -0.11668078384E+01 -0.27995690519E+01 -0.66622786027E+01  0.75327758886E+01  0.17770000000E+01 0.  1.
         15    1    1    2    0    0  0.22814465581E+01  0.20195721978E+01 -0.41228488255E+02  0.41379096692E+02  0.17770000000E+01 0.  1.
</event>
<event>
 6    1  0.1196607E-002  0.1841028E+03  0.7546771E-02  0.1067186E+00
        -11   -1    0    0    0    0  0.00000000000E+00  0.00000000000E+00  0.18250000000E+03  0.18250000000E+03  0.00000000000E+00 0. -1.
         11   -1    0    0    0    0 -0.00000000000E+00 -0.00000000000E+00 -0.18250000000E+03  0.18250000000E+03  0.00000000000E+00 0. -1.
        -11    1    1    2    0    0 -0.46889770764E+01 -0.46692558153E+01  0.13165263912E+03  0.13181883721E+03  0.00000000000E+00 0. -1.
         11    1    1    2    0    0 -0.46274733264E+00 -0.30421543284E+01 -0.18087098903E+03  0.18089716280E+03  0.00000000000E+00 0. -1.
        -15    1    1    2    0    0  0.45105569167E+01  0.11254532091E+02  0.44143208966E+02  0.45812555518E+02  0.17770000000E+01 0.  1.
         15    1    1    2    0    0  0.64116749238E+00 -0.35431219473E+01  0.50751409390E+01  0.64714444629E+01  0.17770000000E+01 0. -1.
</event>
<event>
 6    1  0.1196607E-002  0.1755132E+03  0.7546771E-02  0.1074156E+00
        -11   -1    0    0    0    0  0.00000000000E+00  0.00000000000E+00  0.18250000000E+03  0.18250000000E+03  0.00000000000E+00 0. -1.
         11   -1    0    0    0    0 -0.00000000000E+00 -0.00000000000E+00 -0.18250000000E+03  0.18250000000E+03  0.00000000000E+00 0. -1.
        -11    1    1    2    0    0  0.34560321013E+01  0.12478773782E+01  0.17636498071E+03  0.17640325331E+03  0.00000000000E+00 0. -1.
         11    1    1    2    0    0  0.29063852524E+00 -0.36000710462E+01 -0.17461794073E+03  0.17465528966E+03  0.00000000000E+00 0. -1.
        -15    1    1    2    0    0 -0.41502498601E+01 -0.22640248696E+01  0.39311129580E+01  0.64001375454E+01  0.17770000000E+01 0. -1.
         15    1    1    2    0    0  0.40357923356E+00  0.46162185376E+01 -0.56781529427E+01  0.75413194883E+01  0.17770000000E+01 0. -1.
</event>
<event>
 6    1  0.1196607E-002  0.2024972E+03  0.7546771E-02  0.1053565E+00
        -11   -1    0    0    0    0  0.00000000000E+00  0.00000000000E+00  0.18250000000E+03  0.18250000000E+03  0.00000000000E+00 0.  1.
         11   -1    0    0    0    0 -0.00000000000E+00 -0.00000000000E+00 -0.18250000000E+03  0.18250000000E+03  0.00000000000E+00 0.  1.
        -11    1    1    2    0    0  0.13690524122E+01  0.41539144484E+01  0.16244393298E+03  0.16250280204E+03  0.00000000000E+00 0.  1.
         11    1    1    2    0    0  0.23600119069E+01  0.11219525990E+02 -0.12649557054E+03  0.12701408106E+03  0.00000000000E+00 0.  1.
        -15    1    1    2    0    0 -0.27767205808E+02 -0.71821476154E+01  0.30644208864E+01  0.28898950969E+02  0.17770000000E+01 0. -1.
         15    1    1    2    0    0  0.24038141489E+02 -0.81912928232E+01 -0.39012783322E+02  0.46584165935E+02  0.17770000000E+01 0.  1.
</event>
<event>
 6    1  0.1196607E-002  0.1856885E+03  0.7546771E-02  0.1065945E+00
        -11   -1    0    0    0    0  0.00000000000E+00  0.00000000000E+00  0.18250000000E+03  0.18250000000E+03  0.00000000000E+00 0.  1.
         11   -1    0    0    0    0 -0.00000000000E+00 -0.00000000000E+00 -0.18250000000E+03  0.18250000000E+03  0.00000000000E+00 0.  1.
        -11    1    1    2    0    0  0.25819345596E+01  0.76973812422E-01  0.17929291490E+03  0.17931152122E+03  0.00000000000E+00 0.  1.
         11    1    1    2    0    0 -0.27825580336E+01  0.21785153875E+01 -0.16208424675E+03  0.16212276707E+03  0.00000000000E+00 0.  1.
        -15    1    1    2    0    0 -0.17199475103E+01 -0.73934410859E+01 -0.15817523363E+02  0.17634425561E+02  0.17770000000E+01 0. -1.
         15    1    1    2    0    0  0.19205709844E+01  0.51379518860E+01 -0.13911447862E+01  0.59312861426E+01  0.17770000000E+01 0.  1.
</event>
<event>
 6    1  0.1196607E-002  0.1750290E+03  0.7546771E-02  0.1074562E+00
        -11   -1    0    0    0    0  0.00000000000E+00  0.00000000000E+00  0.18250000000E+03  0.18250000000E+03  0.00000000000E+00 0.  1.
         11   -1    0    0    0    0 -0.00000000000E+00 -0.00000000000E+00 -0.18250000000E+03  0.18250000000E+03  0.00000000000E+00 0.  1.
        -11    1    1    2    0    0  0.37266313320E+01 -0.15586777052E-01  0.17341079867E+03  0.17345083776E+03  0.00000000000E+00 0.  1.
         11    1    1    2    0    0  0.23649768834E+01  0.15942863596E+01 -0.17665572445E+03  0.17667874758E+03  0.00000000000E+00 0.  1.
        -15    1    1    2    0    0 -0.22199528674E+01  0.32058629441E+01 -0.35258373448E+01  0.55493248177E+01  0.17770000000E+01 0.  1.
         15    1    1    2    0    0 -0.38716553480E+01 -0.47845625267E+01  0.67707631258E+01  0.93210898511E+01  0.17770000000E+01 0. -1.
</event>
<event>
 6    1  0.1196607E-002  0.1910424E+03  0.7546771E-02  0.1061851E+00
        -11   -1    0    0    0    0  0.00000000000E+00  0.00000000000E+00  0.18250000000E+03  0.18250000000E+03  0.00000000000E+00 0.  1.
         11   -1    0    0    0    0 -0.00000000000E+00 -0.00000000000E+00 -0.18250000000E+03  0.18250000000E+03  0.00000000000E+00 0.  1.
        -11    1    1    2    0    0  0.14091903380E+02  0.12892953832E+02  0.17290590027E+03  0.17395763952E+03  0.00000000000E+00 0.  1.
         11    1    1    2    0    0 -0.13963119212E+01 -0.16071854836E+01 -0.12835467152E+03  0.12837232736E+03  0.00000000000E+00 0.  1.
        -15    1    1    2    0    0 -0.19746921402E+02 -0.14714618254E+02 -0.90927308067E+01  0.26311525569E+02  0.17770000000E+01 0. -1.
         15    1    1    2    0    0  0.70513299437E+01  0.34288499056E+01 -0.35458497943E+02  0.36358507547E+02  0.17770000000E+01 0.  1.
</event>
<event>
 6    1  0.1196607E-002  0.1827451E+03  0.7546771E-02  0.1068260E+00
        -11   -1    0    0    0    0  0.00000000000E+00  0.00000000000E+00  0.18250000000E+03  0.18250000000E+03  0.00000000000E+00 0.  1.
         11   -1    0    0    0    0 -0.00000000000E+00 -0.00000000000E+00 -0.18250000000E+03  0.18250000000E+03  0.00000000000E+00 0. -1.
        -11    1    1    2    0    0 -0.87522261568E+00  0.36709171050E+01  0.18221584442E+03  0.18225491929E+03  0.00000000000E+00 0.  1.
         11    1    1    2    0    0  0.36638176742E+01 -0.50009428897E+01 -0.10742236212E+03  0.10760110071E+03  0.00000000000E+00 0. -1.
        -15    1    1    2    0    0 -0.26645574227E+01  0.27995342188E+01 -0.31106431003E+02  0.31395939814E+02  0.17770000000E+01 0. -1.
         15    1    1    2    0    0 -0.12403763585E+00 -0.14695084341E+01 -0.43687051294E+02  0.43748040186E+02  0.17770000000E+01 0.  1.
</event>
<event>
 6    1  0.1196607E-002  0.1837664E+03  0.7546771E-02  0.1067451E+00
        -11   -1    0    0    0    0  0.00000000000E+00  0.00000000000E+00  0.18250000000E+03  0.18250000000E+03  0.00000000000E+00 0. -1.
         11   -1    0    0    0    0 -0.00000000000E+00 -0.00000000000E+00 -0.18250000000E+03  0.18250000000E+03  0.00000000000E+00 0.  1.
        -11    1    1    2    0    0  0.10603546289E+02 -0.52404070253E+01  0.18084718907E+03  0.18123355886E+03  0.00000000000E+00 0. -1.
         11    1    1    2    0    0 -0.14627539614E+01 -0.13617441839E+01 -0.14538934772E+03  0.14540308259E+03  0.00000000000E+00 0.  1.
        -15    1    1    2    0    0  0.10826725679E+01  0.11141646122E+01 -0.28127094894E+01  0.36718668745E+01  0.17770000000E+01 0.  1.
         15    1    1    2    0    0 -0.10223464896E+02  0.54879865971E+01 -0.32645131861E+02  0.34691491674E+02  0.17770000000E+01 0. -1.
</event>
<event>
 6    1  0.1196607E-002  0.1839434E+03  0.7546771E-02  0.1067312E+00
        -11   -1    0    0    0    0  0.00000000000E+00  0.00000000000E+00  0.18250000000E+03  0.18250000000E+03  0.00000000000E+00 0. -1.
         11   -1    0    0    0    0 -0.00000000000E+00 -0.00000000000E+00 -0.18250000000E+03  0.18250000000E+03  0.00000000000E+00 0.  1.
        -11    1    1    2    0    0 -0.94038645602E+00 -0.27321122156E+01  0.18103356611E+03  0.18105662325E+03  0.00000000000E+00 0. -1.
         11    1    1    2    0    0 -0.12017464802E+01 -0.16750591264E+01 -0.13101826563E+03  0.13103448381E+03  0.00000000000E+00 0.  1.
        -15    1    1    2    0    0  0.25678758891E+01  0.89946761855E+00 -0.56234339413E+00  0.32980278458E+01  0.17770000000E+01 0. -1.
         15    1    1    2    0    0 -0.42574295290E+00  0.35077037234E+01 -0.49452957083E+02  0.49610865097E+02  0.17770000000E+01 0.  1.
</event>
<event>
 6    1  0.1196607E-002  0.1835854E+03  0.7546771E-02  0.1067594E+00
        -11   -1    0    0    0    0  0.00000000000E+00  0.00000000000E+00  0.18250000000E+03  0.18250000000E+03  0.00000000000E+00 0.  1.
         11   -1    0    0    0    0 -0.00000000000E+00 -0.00000000000E+00 -0.18250000000E+03  0.18250000000E+03  0.00000000000E+00 0. -1.
        -11    1    1    2    0    0 -0.98844385777E+00 -0.85017007937E+00  0.83344301343E+02  0.83354498240E+02  0.00000000000E+00 0.  1.
         11    1    1    2    0    0  0.39119303035E+01 -0.60938023656E+01 -0.18126998482E+03  0.18141456673E+03  0.00000000000E+00 0. -1.
        -15    1    1    2    0    0 -0.78868195744E+01  0.11716764583E+02  0.67604144234E+02  0.69086630703E+02  0.17770000000E+01 0.  1.
         15    1    1    2    0    0  0.49633331286E+01 -0.47727921375E+01  0.30321539245E+02  0.31144304322E+02  0.17770000000E+01 0.  1.
</event>
<event>
 6    1  0.1196607E-002  0.1838178E+03  0.7546771E-02  0.1067411E+00
        -11   -1    0    0    0    0  0.00000000000E+00  0.00000000000E+00  0.18250000000E+03  0.18250000000E+03  0.00000000000E+00 0. -1.
         11   -1    0    0    0    0 -0.00000000000E+00 -0.00000000000E+00 -0.18250000000E+03  0.18250000000E+03  0.00000000000E+00 0. -1.
        -11    1    1    2    0    0 -0.14298480613E+01 -0.13767672887E+01  0.27061078435E+02  0.27133778205E+02  0.00000000000E+00 0. -1.
         11    1    1    2    0    0 -0.24227421585E+01 -0.68368151607E+00 -0.18116473931E+03  0.18118222835E+03  0.00000000000E+00 0. -1.
        -15    1    1    2    0    0 -0.88911188771E+01  0.97606576505E+01  0.73218973153E+02  0.74421087007E+02  0.17770000000E+01 0.  1.
         15    1    1    2    0    0  0.12743709097E+02 -0.77002088457E+01  0.80884687726E+02  0.82262906436E+02  0.17770000000E+01 0. -1.
</event>
<event>
 6    1  0.1196607E-002  0.1854751E+03  0.7546771E-02  0.1066111E+00
        -11   -1    0    0    0    0  0.00000000000E+00  0.00000000000E+00  0.18250000000E+03  0.18250000000E+03  0.00000000000E+00 0. -1.
         11   -1    0    0    0    0 -0.00000000000E+00 -0.00000000000E+00 -0.18250000000E+03  0.18250000000E+03  0.00000000000E+00 0. -1.
        -11    1    1    2    0    0 -0.29250557824E+01 -0.39732927161E-01  0.15698269741E+03  0.15700995133E+03  0.00000000000E+00 0. -1.
         11    1    1    2    0    0 -0.50873823739E+01  0.40354697193E+01 -0.17940739542E+03  0.17952487295E+03  0.00000000000E+00 0. -1.
        -15    1    1    2    0    0  0.29921075475E+01 -0.24500985899E+01  0.22520413692E+02  0.22919041266E+02  0.17770000000E+01 0. -1.
         15    1    1    2    0    0  0.50203306088E+01 -0.15456382023E+01 -0.95715686269E-01  0.55461344526E+01  0.17770000000E+01 0.  1.
</event>
<event>
 6    1  0.1196607E-002  0.1889090E+03  0.7546771E-02  0.1063465E+00
        -11   -1    0    0    0    0  0.00000000000E+00  0.00000000000E+00  0.18250000000E+03  0.18250000000E+03  0.00000000000E+00 0. -1.
         11   -1    0    0    0    0 -0.00000000000E+00 -0.00000000000E+00 -0.18250000000E+03  0.18250000000E+03  0.00000000000E+00 0. -1.
        -11    1    1    2    0    0 -0.23887357705E+01 -0.20310417713E-01  0.17607478743E+03  0.17609099137E+03  0.00000000000E+00 0. -1.
         11    1    1    2    0    0 -0.28363073774E+01  0.11980919276E+01 -0.15554111141E+03  0.15557158289E+03  0.00000000000E+00 0. -1.
        -15    1    1    2    0    0  0.10401108442E+01 -0.28030837634E+01 -0.25892033513E+02  0.26124590669E+02  0.17770000000E+01 0. -1.
         15    1    1    2    0    0  0.41849323037E+01  0.16253022535E+01  0.53583574904E+01  0.72128350734E+01  0.17770000000E+01 0.  1.
</event>
<event>
 6    1  0.2314194E-002  0.1826264E+03  0.7546771E-02  0.1068354E+00
        -11   -1    0    0    0    0  0.00000000000E+00  0.00000000000E+00  0.18250000000E+03  0.18250000000E+03  0.00000000000E+00 0. -1.
         11   -1    0    0    0    0 -0.00000000000E+00 -0.00000000000E+00 -0.18250000000E+03  0.18250000000E+03  0.00000000000E+00 0.  1.
        -11    1    1    2    0    0 -0.17006309406E+01 -0.28890835587E+01  0.18234275430E+03  0.18237356989E+03  0.00000000000E+00 0. -1.
         11    1    1    2    0    0  0.51545918887E+00 -0.93981042510E-01 -0.37324669301E+01  0.37690635436E+01  0.00000000000E+00 0.  1.
        -15    1    1    2    0    0  0.92108899692E+00  0.58733547462E+00 -0.97548696583E+01  0.99753986863E+01  0.17770000000E+01 0.  1.
         15    1    1    2    0    0  0.26408275480E+00  0.23957291266E+01 -0.16885541771E+03  0.16888196788E+03  0.17770000000E+01 0.  1.
</event>
<event>
 6    1  0.1196607E-002  0.1852746E+03  0.7546771E-02  0.1066267E+00
        -11   -1    0    0    0    0  0.00000000000E+00  0.00000000000E+00  0.18250000000E+03  0.18250000000E+03  0.00000000000E+00 0. -1.
         11   -1    0    0    0    0 -0.00000000000E+00 -0.00000000000E+00 -0.18250000000E+03  0.18250000000E+03  0.00000000000E+00 0.  1.
        -11    1    1    2    0    0 -0.42255758818E+01  0.32116398579E+01  0.17964697219E+03  0.17972535920E+03  0.00000000000E+00 0. -1.
         11    1    1    2    0    0  0.18192837207E+01 -0.47242721736E+01 -0.26343633903E+02  0.26825651679E+02  0.00000000000E+00 0.  1.
        -15    1    1    2    0    0  0.53624522416E+01 -0.33641854108E+01 -0.17851228259E+01  0.68130778672E+01  0.17770000000E+01 0.  1.
         15    1    1    2    0    0 -0.29561600805E+01  0.48768177265E+01 -0.15151821547E+03  0.15163591125E+03  0.17770000000E+01 0.  1.
</event>
<event>
 6    1  0.1196607E-002  0.2001682E+03  0.7546771E-02  0.1055201E+00
        -11   -1    0    0    0    0  0.00000000000E+00  0.00000000000E+00  0.18250000000E+03  0.18250000000E+03  0.00000000000E+00 0. -1.
         11   -1    0    0    0    0 -0.00000000000E+00 -0.00000000000E+00 -0.18250000000E+03  0.18250000000E+03  0.00000000000E+00 0. -1.
        -11    1    1    2    0    0 -0.85668027335E+00 -0.54043333475E+01  0.16474097734E+03  0.16483182440E+03  0.00000000000E+00 0. -1.
         11    1    1    2    0    0 -0.63271844677E+01  0.29586295967E+01 -0.91888708866E+02  0.92153793028E+02  0.00000000000E+00 0. -1.
        -15    1    1    2    0    0 -0.17492140323E+01 -0.25025730751E+02 -0.74890652363E+02  0.79000724615E+02  0.17770000000E+01 0. -1.
         15    1    1    2    0    0  0.89330787733E+01  0.27471434501E+02  0.20383838851E+01  0.29013657953E+02  0.17770000000E+01 0.  1.
</event>
<event>
 6    1  0.1196607E-002  0.1835043E+03  0.7546771E-02  0.1067658E+00
        -11   -1    0    0    0    0  0.00000000000E+00  0.00000000000E+00  0.18250000000E+03  0.18250000000E+03  0.00000000000E+00 0. -1.
         11   -1    0    0    0    0 -0.00000000000E+00 -0.00000000000E+00 -0.18250000000E+03  0.18250000000E+03  0.00000000000E+00 0. -1.
        -11    1    1    2    0    0 -0.52696260166E-01  0.45184429372E+01  0.14552880910E+03  0.14559894705E+03  0.00000000000E+00 0. -1.
         11    1    1    2    0    0  0.67083283317E+00  0.26064467482E+01 -0.18147572958E+03  0.18149568592E+03  0.00000000000E+00 0. -1.
        -15    1    1    2    0    0  0.31167701171E+01 -0.41336654229E-01  0.14660726013E+02  0.15093395275E+02  0.17770000000E+01 0. -1.
         15    1    1    2    0    0 -0.37349066901E+01 -0.70835530312E+01  0.21286194462E+02  0.22811971752E+02  0.17770000000E+01 0.  1.
</event>
<event>
 6    1  0.1196607E-002  0.1112831E+03  0.7546771E-02  0.1145617E+00
        -11   -1    0    0    0    0  0.00000000000E+00  0.00000000000E+00  0.18250000000E+03  0.18250000000E+03  0.00000000000E+00 0.  1.
         11   -1    0    0    0    0 -0.00000000000E+00 -0.00000000000E+00 -0.18250000000E+03  0.18250000000E+03  0.00000000000E+00 0. -1.
        -11    1    1    2    0    0 -0.10030575100E+02  0.18555508255E+01  0.12496885431E+03  0.12538448888E+03  0.00000000000E+00 0.  1.
         11    1    1    2    0    0  0.31530363942E+01 -0.21132286641E+01 -0.81377369015E+02  0.81465842914E+02  0.00000000000E+00 0. -1.
        -15    1    1    2    0    0  0.17305677289E+02 -0.61053848600E+01  0.55402112707E+02  0.58389331321E+02  0.17770000000E+01 0.  1.
         15    1    1    2    0    0 -0.10428138584E+02  0.63630626986E+01 -0.98993597998E+02  0.99760336882E+02  0.17770000000E+01 0. -1.
</event>
<event>
 6    1  0.1196607E-002  0.1919840E+03  0.7546771E-02  0.1061147E+00
        -11   -1    0    0    0    0  0.00000000000E+00  0.00000000000E+00  0.18250000000E+03  0.18250000000E+03  0.00000000000E+00 0. -1.
         11   -1    0    0    0    0 -0.00000000000E+00 -0.00000000000E+00 -0.18250000000E+03  0.18250000000E+03  0.00000000000E+00 0.  1.
        -11    1    1    2    0    0  0.37446530716E+01  0.98144434363E+01  0.88232362512E+02  0.88855475470E+02  0.00000000000E+00 0. -1.
         11    1    1    2    0    0 -0.40184734167E+01  0.84746803410E+01 -0.17276163695E+03  0.17301604416E+03  0.00000000000E+00 0.  1.
        -15    1    1    2    0    0 -0.92114124422E+01 -0.18890437897E+02  0.89712048930E+02  0.92158061043E+02  0.17770000000E+01 0.  1.
         15    1    1    2    0    0  0.94852327874E+01  0.60131411971E+00 -0.51827744878E+01  0.10970419322E+02  0.17770000000E+01 0. -1.
</event>
<event>
 6    1  0.1196607E-002  0.1826783E+03  0.7546771E-02  0.1068313E+00
        -11   -1    0    0    0    0  0.00000000000E+00  0.00000000000E+00  0.18250000000E+03  0.18250000000E+03  0.00000000000E+00 0. -1.
         11   -1    0    0    0    0 -0.00000000000E+00 -0.00000000000E+00 -0.18250000000E+03  0.18250000000E+03  0.00000000000E+00 0.  1.
        -11    1    1    2    0    0  0.26018458656E+01  0.96632390784E+00  0.37779755304E+02  0.37881569326E+02  0.00000000000E+00 0. -1.
         11    1    1    2    0    0  0.17663898029E+01  0.21738024213E+01 -0.18230020931E+03  0.18232172625E+03  0.00000000000E+00 0.  1.
        -15    1    1    2    0    0 -0.17589103885E+01  0.17795174385E+01  0.55094269261E+02  0.55179676354E+02  0.17770000000E+01 0.  1.
         15    1    1    2    0    0 -0.26093252799E+01 -0.49196437677E+01  0.89426184742E+02  0.89617028068E+02  0.17770000000E+01 0. -1.
</event>
<event>
 6    1  0.1196607E-002  0.1833487E+03  0.7546771E-02  0.1067781E+00
        -11   -1    0    0    0    0  0.00000000000E+00  0.00000000000E+00  0.18250000000E+03  0.18250000000E+03  0.00000000000E+00 0. -1.
         11   -1    0    0    0    0 -0.00000000000E+00 -0.00000000000E+00 -0.18250000000E+03  0.18250000000E+03  0.00000000000E+00 0. -1.
        -11    1    1    2    0    0  0.52380158129E+01 -0.92420695333E+00  0.18157337605E+03  0.18165126440E+03  0.00000000000E+00 0. -1.
         11    1    1    2    0    0  0.16600407053E+01 -0.31308857062E+01 -0.12916412052E+03  0.12921272465E+03  0.00000000000E+00 0. -1.
        -15    1    1    2    0    0 -0.80618199279E+01  0.51504386599E+01 -0.49094863928E+02  0.50049808711E+02  0.17770000000E+01 0. -1.
         15    1    1    2    0    0  0.11637634097E+01 -0.10953460004E+01 -0.33143915937E+01  0.40862022430E+01  0.17770000000E+01 0. -1.
</event>
<event>
 6    1  0.1196607E-002  0.1859006E+03  0.7546771E-02  0.1065780E+00
        -11   -1    0    0    0    0  0.00000000000E+00  0.00000000000E+00  0.18250000000E+03  0.18250000000E+03  0.00000000000E+00 0. -1.
         11   -1    0    0    0    0 -0.00000000000E+00 -0.00000000000E+00 -0.18250000000E+03  0.18250000000E+03  0.00000000000E+00 0. -1.
        -11    1    1    2    0    0 -0.20793107965E+01  0.18355337528E+01  0.17907796396E+03  0.17909944136E+03  0.00000000000E+00 0. -1.
         11    1    1    2    0    0  0.65746638705E+00  0.40399421152E+01 -0.17459963829E+03  0.17464760830E+03  0.00000000000E+00 0. -1.
        -15    1    1    2    0    0 -0.68854555374E-02 -0.59179643667E+01 -0.59181227100E+01  0.85559485193E+01  0.17770000000E+01 0. -1.
         15    1    1    2    0    0  0.14287298650E+01  0.42488498709E-01  0.14397970410E+01  0.26970018203E+01  0.17770000000E+01 0.  1.
</event>
<event>
 6    1  0.1196607E-002  0.1831263E+03  0.7546771E-02  0.1067957E+00
        -11   -1    0    0    0    0  0.00000000000E+00  0.00000000000E+00  0.18250000000E+03  0.18250000000E+03  0.00000000000E+00 0. -1.
         11   -1    0    0    0    0 -0.00000000000E+00 -0.00000000000E+00 -0.18250000000E+03  0.18250000000E+03  0.00000000000E+00 0. -1.
        -11    1    1    2    0    0  0.16165125777E+01 -0.30433508041E+01  0.11035783744E+03  0.11041162702E+03  0.00000000000E+00 0. -1.
         11    1    1    2    0    0 -0.15279563416E+01  0.60499578950E+01 -0.18176666020E+03  0.18187373477E+03  0.00000000000E+00 0. -1.
        -15    1    1    2    0    0  0.30074868830E+00 -0.58179834519E+01  0.14765010868E+02  0.15971933388E+02  0.17770000000E+01 0.  1.
         15    1    1    2    0    0 -0.38930492442E+00  0.28113763610E+01  0.56643811889E+02  0.56742704815E+02  0.17770000000E+01 0. -1.
</event>
<event>
 6    1  0.1196607E-002  0.1826759E+03  0.7546771E-02  0.1068315E+00
        -11   -1    0    0    0    0  0.00000000000E+00  0.00000000000E+00  0.18250000000E+03  0.18250000000E+03  0.00000000000E+00 0. -1.
         11   -1    0    0    0    0 -0.00000000000E+00 -0.00000000000E+00 -0.18250000000E+03  0.18250000000E+03  0.00000000000E+00 0. -1.
        -11    1    1    2    0    0 -0.10270714948E+01 -0.68856849048E+00  0.41513221085E+02  0.41531632851E+02  0.00000000000E+00 0. -1.
         11    1    1    2    0    0  0.21844967442E+01  0.18957527191E+01 -0.18230118825E+03  0.18232413209E+03  0.00000000000E+00 0. -1.
        -15    1    1    2    0    0 -0.44200551516E+01  0.65430921747E+00  0.10599160244E+03  0.10610062452E+03  0.17770000000E+01 0. -1.
         15    1    1    2    0    0  0.32626299022E+01 -0.18614934461E+01  0.34796364732E+02  0.35043610535E+02  0.17770000000E+01 0.  1.
</event>
<event>
 6    1  0.1196607E-002  0.1828613E+03  0.7546771E-02  0.1068168E+00
        -11   -1    0    0    0    0  0.00000000000E+00  0.00000000000E+00  0.18250000000E+03  0.18250000000E+03  0.00000000000E+00 0.  1.
         11   -1    0    0    0    0 -0.00000000000E+00 -0.00000000000E+00 -0.18250000000E+03  0.18250000000E+03  0.00000000000E+00 0. -1.
        -11    1    1    2    0    0  0.15354889937E+01  0.34165845648E+01  0.18210014096E+03  0.18213866178E+03  0.00000000000E+00 0.  1.
         11    1    1    2    0    0  0.37893454411E+01 -0.41625676196E+01 -0.61002170764E+02  0.61261333205E+02  0.00000000000E+00 0. -1.
        -15    1    1    2    0    0 -0.30322352864E+00 -0.12547228311E+01 -0.65037357224E+01  0.68645889344E+01  0.17770000000E+01 0.  1.
         15    1    1    2    0    0 -0.50216109061E+01  0.20007058859E+01 -0.11459423447E+03  0.11473541608E+03  0.17770000000E+01 0. -1.
</event>
<event>
 6    1  0.1196607E-002  0.1852537E+03  0.7546771E-02  0.1066284E+00
        -11   -1    0    0    0    0  0.00000000000E+00  0.00000000000E+00  0.18250000000E+03  0.18250000000E+03  0.00000000000E+00 0. -1.
         11   -1    0    0    0    0 -0.00000000000E+00 -0.00000000000E+00 -0.18250000000E+03  0.18250000000E+03  0.00000000000E+00 0. -1.
        -11    1    1    2    0    0  0.22746146909E+01 -0.24798774211E+01  0.17971478803E+03  0.17974628981E+03  0.00000000000E+00 0. -1.
         11    1    1    2    0    0 -0.52433667839E+01  0.18497907630E+01 -0.14870836379E+03  0.14881227128E+03  0.00000000000E+00 0. -1.
        -15    1    1    2    0    0 -0.65934346182E+01  0.77609496425E+00 -0.22477749628E+02  0.23504949708E+02  0.17770000000E+01 0. -1.
         15    1    1    2    0    0  0.95621867111E+01 -0.14600830620E+00 -0.85286746120E+01  0.12936489198E+02  0.17770000000E+01 0.  1.
</event>
<event>
 6    1  0.1196607E-002  0.1826666E+03  0.7546771E-02  0.1068322E+00
        -11   -1    0    0    0    0  0.00000000000E+00  0.00000000000E+00  0.18250000000E+03  0.18250000000E+03  0.00000000000E+00 0. -1.
         11   -1    0    0    0    0 -0.00000000000E+00 -0.00000000000E+00 -0.18250000000E+03  0.18250000000E+03  0.00000000000E+00 0. -1.
        -11    1    1    2    0    0 -0.67244056151E+01 -0.11649176542E+00  0.18220931311E+03  0.18233338966E+03  0.00000000000E+00 0. -1.
         11    1    1    2    0    0  0.10327657944E+00  0.66191358152E+00 -0.45726927246E+02  0.45731834328E+02  0.00000000000E+00 0. -1.
        -15    1    1    2    0    0  0.18932748882E+01 -0.59259278053E+00 -0.10624834656E+03  0.10628172247E+03  0.17770000000E+01 0. -1.
         15    1    1    2    0    0  0.47278541475E+01  0.47170964432E-01 -0.30234039300E+02  0.30653053540E+02  0.17770000000E+01 0.  1.
</event>
<event>
 6    1  0.1196607E-002  0.1838168E+03  0.7546771E-02  0.1067411E+00
        -11   -1    0    0    0    0  0.00000000000E+00  0.00000000000E+00  0.18250000000E+03  0.18250000000E+03  0.00000000000E+00 0.  1.
         11   -1    0    0    0    0 -0.00000000000E+00 -0.00000000000E+00 -0.18250000000E+03  0.18250000000E+03  0.00000000000E+00 0.  1.
        -11    1    1    2    0    0  0.71578993122E+01  0.59725559385E+00  0.80701804153E+02  0.81020820968E+02  0.00000000000E+00 0.  1.
         11    1    1    2    0    0 -0.99131228648E+00 -0.24169574507E+01 -0.18116435635E+03  0.18118319015E+03  0.00000000000E+00 0.  1.
        -15    1    1    2    0    0 -0.54755169146E+00  0.32057876738E+00  0.93631034027E+02  0.93650044558E+02  0.17770000000E+01 0.  1.
         15    1    1    2    0    0 -0.56190353343E+01  0.14991230895E+01  0.68315181651E+01  0.91459443234E+01  0.17770000000E+01 0. -1.
</event>
<event>
 6    1  0.1196607E-002  0.1827046E+03  0.7546771E-02  0.1068292E+00
        -11   -1    0    0    0    0  0.00000000000E+00  0.00000000000E+00  0.18250000000E+03  0.18250000000E+03  0.00000000000E+00 0.  1.
         11   -1    0    0    0    0 -0.00000000000E+00 -0.00000000000E+00 -0.18250000000E+03  0.18250000000E+03  0.00000000000E+00 0.  1.
        -11    1    1    2    0    0  0.19046414694E+01  0.13919421460E+01  0.10318197807E+03  0.10320894225E+03  0.00000000000E+00 0.  1.
         11    1    1    2    0    0  0.74852977683E+00 -0.24597747533E+01 -0.18227726150E+03  0.18229539448E+03  0.00000000000E+00 0.  1.
        -15    1    1    2    0    0 -0.62054235296E+00  0.36265665641E+01  0.49313384329E+02  0.49482367171E+02  0.17770000000E+01 0. -1.
         15    1    1    2    0    0 -0.20326288932E+01 -0.25587339568E+01  0.29781899104E+02  0.30013296102E+02  0.17770000000E+01 0.  1.
</event>
<event>
 6    1  0.1196607E-002  0.1839414E+03  0.7546771E-02  0.1067313E+00
        -11   -1    0    0    0    0  0.00000000000E+00  0.00000000000E+00  0.18250000000E+03  0.18250000000E+03  0.00000000000E+00 0.  1.
         11   -1    0    0    0    0 -0.00000000000E+00 -0.00000000000E+00 -0.18250000000E+03  0.18250000000E+03  0.00000000000E+00 0. -1.
        -11    1    1    2    0    0  0.71779520789E+01  0.56034798611E+00  0.16888914009E+03  0.16904253496E+03  0.00000000000E+00 0.  1.
         11    1    1    2    0    0 -0.47043778401E+01  0.75898627701E+00 -0.18099585832E+03  0.18105857604E+03  0.00000000000E+00 0. -1.
        -15    1    1    2    0    0 -0.48541037006E+01 -0.19233569240E+01  0.90195879728E+01  0.10572242940E+02  0.17770000000E+01 0.  1.
         15    1    1    2    0    0  0.23805294617E+01  0.60402266090E+00  0.30871302556E+01  0.43266460577E+01  0.17770000000E+01 0. -1.
</event>
<event>
 6    1  0.1196607E-002  0.1825725E+03  0.7546771E-02  0.1068397E+00
        -11   -1    0    0    0    0  0.00000000000E+00  0.00000000000E+00  0.18250000000E+03  0.18250000000E+03  0.00000000000E+00 0.  1.
         11   -1    0    0    0    0 -0.00000000000E+00 -0.00000000000E+00 -0.18250000000E+03  0.18250000000E+03  0.00000000000E+00 0.  1.
        -11    1    1    2    0    0  0.13503057618E+01 -0.13050276921E+00  0.93844534333E+02  0.93854339169E+02  0.00000000000E+00 0.  1.
         11    1    1    2    0    0 -0.17422135982E+01  0.29300385652E+01 -0.18239560424E+03  0.18242745649E+03  0.00000000000E+00 0.  1.
        -15    1    1    2    0    0 -0.10525571756E+01 -0.40797777131E+00  0.30232011572E+02  0.30305223562E+02  0.17770000000E+01 0.  1.
         15    1    1    2    0    0  0.14444650121E+01 -0.23915580247E+01  0.58319058339E+02  0.58412980779E+02  0.17770000000E+01 0.  1.
</event>
<event>
 6    1  0.1196607E-002  0.1842632E+03  0.7546771E-02  0.1067060E+00
        -11   -1    0    0    0    0  0.00000000000E+00  0.00000000000E+00  0.18250000000E+03  0.18250000000E+03  0.00000000000E+00 0.  1.
         11   -1    0    0    0    0 -0.00000000000E+00 -0.00000000000E+00 -0.18250000000E+03  0.18250000000E+03  0.00000000000E+00 0. -1.
        -11    1    1    2    0    0 -0.19060355003E+01  0.35861321631E+01  0.18069121471E+03  0.18073684845E+03  0.00000000000E+00 0.  1.
         11    1    1    2    0    0  0.66477157668E+01 -0.28489362494E+01 -0.16457063619E+03  0.16472948388E+03  0.00000000000E+00 0. -1.
        -15    1    1    2    0    0  0.22444082675E+01 -0.37779101921E+00 -0.15589457105E+01  0.32814836970E+01  0.17770000000E+01 0.  1.
         15    1    1    2    0    0 -0.69860885341E+01 -0.35940489451E+00 -0.14561632804E+02  0.16252183970E+02  0.17770000000E+01 0. -1.
</event>
<event>
 6    1  0.1196607E-002  0.1849936E+03  0.7546771E-02  0.1066487E+00
        -11   -1    0    0    0    0  0.00000000000E+00  0.00000000000E+00  0.18250000000E+03  0.18250000000E+03  0.00000000000E+00 0. -1.
         11   -1    0    0    0    0 -0.00000000000E+00 -0.00000000000E+00 -0.18250000000E+03  0.18250000000E+03  0.00000000000E+00 0. -1.
        -11    1    1    2    0    0 -0.35394850614E+01  0.56488991825E+00  0.17374870840E+03  0.17378567468E+03  0.00000000000E+00 0. -1.
         11    1    1    2    0    0 -0.22929754021E+01 -0.11617384630E+01 -0.17998809442E+03  0.18000644851E+03  0.00000000000E+00 0. -1.
        -15    1    1    2    0    0  0.47421131943E+01 -0.18936047413E-01  0.72233237015E+01  0.88216852369E+01  0.17770000000E+01 0. -1.
         15    1    1    2    0    0  0.10903472692E+01  0.61578459214E+00 -0.98393767751E+00  0.23861915649E+01  0.17770000000E+01 0. -1.
</event>
<event>
 6    1  0.1196607E-002  0.1866304E+03  0.7546771E-02  0.1065214E+00
        -11   -1    0    0    0    0  0.00000000000E+00  0.00000000000E+00  0.18250000000E+03  0.18250000000E+03  0.00000000000E+00 0. -1.
         11   -1    0    0    0    0 -0.00000000000E+00 -0.00000000000E+00 -0.18250000000E+03  0.18250000000E+03  0.00000000000E+00 0.  1.
        -11    1    1    2    0    0  0.77429587251E+01 -0.53731499831E+01  0.15382030521E+03  0.15410876174E+03  0.00000000000E+00 0. -1.
         11    1    1    2    0    0 -0.30007752149E+01  0.29898974811E+00 -0.17834405984E+03  0.17836955381E+03  0.00000000000E+00 0.  1.
        -15    1    1    2    0    0 -0.61860190042E+01  0.55808202095E+01  0.27467433927E+02  0.28758129996E+02  0.17770000000E+01 0. -1.
         15    1    1    2    0    0  0.14438354941E+01 -0.50665997447E+00 -0.29436793028E+01  0.37635544504E+01  0.17770000000E+01 0. -1.
</event>
<event>
 6    1  0.1196607E-002  0.1841433E+03  0.7546771E-02  0.1067154E+00
        -11   -1    0    0    0    0  0.00000000000E+00  0.00000000000E+00  0.18250000000E+03  0.18250000000E+03  0.00000000000E+00 0. -1.
         11   -1    0    0    0    0 -0.00000000000E+00 -0.00000000000E+00 -0.18250000000E+03  0.18250000000E+03  0.00000000000E+00 0. -1.
        -11    1    1    2    0    0 -0.27879046585E+01 -0.12973955026E+01  0.18083053319E+03  0.18085667636E+03  0.00000000000E+00 0. -1.
         11    1    1    2    0    0  0.14791249282E+00 -0.29914884583E+01 -0.17245264530E+03  0.17247865303E+03  0.00000000000E+00 0. -1.
        -15    1    1    2    0    0  0.28142875307E+01  0.27779791838E+01 -0.82529227197E+01  0.93223304526E+01  0.17770000000E+01 0.  1.
         15    1    1    2    0    0 -0.17429536506E+00  0.15109047772E+01 -0.12496517212E+00  0.23423401577E+01  0.17770000000E+01 0. -1.
</event>
<event>
 6    1  0.1196607E-002  0.1944742E+03  0.7546771E-02  0.1059304E+00
        -11   -1    0    0    0    0  0.00000000000E+00  0.00000000000E+00  0.18250000000E+03  0.18250000000E+03  0.00000000000E+00 0.  1.
         11   -1    0    0    0    0 -0.00000000000E+00 -0.00000000000E+00 -0.18250000000E+03  0.18250000000E+03  0.00000000000E+00 0. -1.
        -11    1    1    2    0    0 -0.40374880759E+01  0.58424803333E+00  0.15736518694E+03  0.15741805715E+03  0.00000000000E+00 0.  1.
         11    1    1    2    0    0 -0.29085705340E+01  0.43951841220E+00 -0.17050042605E+03  0.17052579934E+03  0.00000000000E+00 0. -1.
        -15    1    1    2    0    0 -0.20428300359E+01  0.31953189682E+01  0.22742946176E+02  0.23125365891E+02  0.17770000000E+01 0. -1.
         15    1    1    2    0    0  0.89888886458E+01 -0.42190854137E+01 -0.96077070691E+01  0.13930777614E+02  0.17770000000E+01 0. -1.
</event>
<event>
 6    1  0.1196607E-002  0.1826624E+03  0.7546771E-02  0.1068326E+00
        -11   -1    0    0    0    0  0.00000000000E+00  0.00000000000E+00  0.18250000000E+03  0.18250000000E+03  0.00000000000E+00 0. -1.
         11   -1    0    0    0    0 -0.00000000000E+00 -0.00000000000E+00 -0.18250000000E+03  0.18250000000E+03  0.00000000000E+00 0.  1.
        -11    1    1    2    0    0  0.93093693321E+00  0.17401292123E+01  0.66740572495E+02  0.66769743973E+02  0.00000000000E+00 0. -1.
         11    1    1    2    0    0  0.14133968042E+01  0.26510821719E+01 -0.18231280264E+03  0.18233755492E+03  0.00000000000E+00 0.  1.
        -15    1    1    2    0    0 -0.43455868421E+01 -0.29351634686E+01  0.78985504792E+02  0.79179334462E+02  0.17770000000E+01 0.  1.
         15    1    1    2    0    0  0.20012531047E+01 -0.14560479156E+01  0.36586725353E+02  0.36713366648E+02  0.17770000000E+01 0. -1.
</event>
<event>
 6    1  0.1196607E-002  0.1739940E+03  0.7546771E-02  0.1075435E+00
        -11   -1    0    0    0    0  0.00000000000E+00  0.00000000000E+00  0.18250000000E+03  0.18250000000E+03  0.00000000000E+00 0. -1.
         11   -1    0    0    0    0 -0.00000000000E+00 -0.00000000000E+00 -0.18250000000E+03  0.18250000000E+03  0.00000000000E+00 0.  1.
        -11    1    1    2    0    0  0.46169704302E+01 -0.78745345159E-01  0.17202239858E+03  0.17208436370E+03  0.00000000000E+00 0. -1.
         11    1    1    2    0    0  0.36039548393E+01 -0.62016423611E+01 -0.17593311300E+03  0.17607926939E+03  0.00000000000E+00 0.  1.
        -15    1    1    2    0    0 -0.98549616996E+01  0.62947349303E+00  0.36795131965E+01  0.10687050732E+02  0.17770000000E+01 0. -1.
         15    1    1    2    0    0  0.16340364301E+01  0.56509142133E+01  0.23120122001E+00  0.61493161819E+01  0.17770000000E+01 0.  1.
</event>
<event>
 6    1  0.1196607E-002  0.1521711E+03  0.7546771E-02  0.1095540E+00
        -11   -1    0    0    0    0  0.00000000000E+00  0.00000000000E+00  0.18250000000E+03  0.18250000000E+03  0.00000000000E+00 0.  1.
         11   -1    0    0    0    0 -0.00000000000E+00 -0.00000000000E+00 -0.18250000000E+03  0.18250000000E+03  0.00000000000E+00 0. -1.
        -11    1    1    2    0    0 -0.14120606911E+01 -0.32329196168E+01  0.15068872391E+03  0.15073001426E+03  0.00000000000E+00 0.  1.
         11    1    1    2    0    0 -0.36051916496E+01 -0.24167968711E+01 -0.15365915123E+03  0.15372043804E+03  0.00000000000E+00 0. -1.
        -15    1    1    2    0    0  0.53106505495E+01  0.66824174936E+00 -0.28288381115E+02  0.28845099955E+02  0.17770000000E+01 0. -1.
         15    1    1    2    0    0 -0.29339820870E+00  0.49814747385E+01  0.31258808438E+02  0.31704447748E+02  0.17770000000E+01 0.  1.
</event>
<event>
 6    1  0.1196607E-002  0.1874297E+03  0.7546771E-02  0.1064597E+00
        -11   -1    0    0    0    0  0.00000000000E+00  0.00000000000E+00  0.18250000000E+03  0.18250000000E+03  0.00000000000E+00 0. -1.
         11   -1    0    0    0    0 -0.00000000000E+00 -0.00000000000E+00 -0.18250000000E+03  0.18250000000E+03  0.00000000000E+00 0. -1.
        -11    1    1    2    0    0 -0.28041523467E+01  0.93707391694E+00  0.16641783502E+03  0.16644409629E+03  0.00000000000E+00 0. -1.
         11    1    1    2    0    0  0.26755297784E+01 -0.16683612946E+01 -0.17754231541E+03  0.17757031185E+03  0.00000000000E+00 0. -1.
        -15    1    1    2    0    0 -0.66119397629E+00 -0.14255590814E+01 -0.45035145702E+01  0.50900656826E+01  0.17770000000E+01 0.  1.
         15    1    1    2    0    0  0.78981654459E+00  0.21568464591E+01  0.15627994963E+02  0.15895526175E+02  0.17770000000E+01 0.  1.
</event>
<event>
 6    1  0.1196607E-002  0.1831008E+03  0.7546771E-02  0.1067978E+00
        -11   -1    0    0    0    0  0.00000000000E+00  0.00000000000E+00  0.18250000000E+03  0.18250000000E+03  0.00000000000E+00 0. -1.
         11   -1    0    0    0    0 -0.00000000000E+00 -0.00000000000E+00 -0.18250000000E+03  0.18250000000E+03  0.00000000000E+00 0. -1.
        -11    1    1    2    0    0  0.44209610250E+00 -0.21746184574E+01  0.15016629670E+03  0.15018269235E+03  0.00000000000E+00 0. -1.
         11    1    1    2    0    0 -0.11828779743E+01 -0.23537293618E+01 -0.18188009437E+03  0.18189916979E+03  0.00000000000E+00 0. -1.
        -15    1    1    2    0    0  0.19025530627E+01  0.57852359351E+01  0.23567002789E+02  0.24405942155E+02  0.17770000000E+01 0.  1.
         15    1    1    2    0    0 -0.11617711909E+01 -0.12568881159E+01  0.81467948766E+01  0.85121957095E+01  0.17770000000E+01 0.  1.
</event>
<event>
 6    1  0.1196607E-002  0.1829153E+03  0.7546771E-02  0.1068125E+00
        -11   -1    0    0    0    0  0.00000000000E+00  0.00000000000E+00  0.18250000000E+03  0.18250000000E+03  0.00000000000E+00 0.  1.
         11   -1    0    0    0    0 -0.00000000000E+00 -0.00000000000E+00 -0.18250000000E+03  0.18250000000E+03  0.00000000000E+00 0.  1.
        -11    1    1    2    0    0  0.36796949981E+01 -0.50565248101E-01  0.15571037033E+03  0.15575385113E+03  0.00000000000E+00 0.  1.
         11    1    1    2    0    0 -0.23270109753E+01 -0.97716833935E+00 -0.18206720151E+03  0.18208469377E+03  0.00000000000E+00 0.  1.
        -15    1    1    2    0    0  0.11378232416E+01  0.16435911164E+01  0.60316279922E+01  0.65980526463E+01  0.17770000000E+01 0. -1.
         15    1    1    2    0    0 -0.24905072643E+01 -0.61585752900E+00  0.20325203187E+02  0.20563402455E+02  0.17770000000E+01 0. -1.
</event>
<event>
 6    1  0.1196607E-002  0.1828325E+03  0.7546771E-02  0.1068190E+00
        -11   -1    0    0    0    0  0.00000000000E+00  0.00000000000E+00  0.18250000000E+03  0.18250000000E+03  0.00000000000E+00 0.  1.
         11   -1    0    0    0    0 -0.00000000000E+00 -0.00000000000E+00 -0.18250000000E+03  0.18250000000E+03  0.00000000000E+00 0. -1.
        -11    1    1    2    0    0 -0.22513303095E+00  0.32122932368E+01  0.18213907744E+03  0.18216754114E+03  0.00000000000E+00 0.  1.
         11    1    1    2    0    0  0.15157826911E+01 -0.28730330583E+01 -0.14160507473E+03  0.14164232809E+03  0.00000000000E+00 0. -1.
        -15    1    1    2    0    0 -0.91214652548E+00 -0.32399543098E+01 -0.24595456793E+02  0.24888220890E+02  0.17770000000E+01 0. -1.
         15    1    1    2    0    0 -0.37850313467E+00  0.29006941313E+01 -0.15938545914E+02  0.16301909886E+02  0.17770000000E+01 0. -1.
</event>
<event>
 6    1  0.1196607E-002  0.1847562E+03  0.7546771E-02  0.1066673E+00
        -11   -1    0    0    0    0  0.00000000000E+00  0.00000000000E+00  0.18250000000E+03  0.18250000000E+03  0.00000000000E+00 0.  1.
         11   -1    0    0    0    0 -0.00000000000E+00 -0.00000000000E+00 -0.18250000000E+03  0.18250000000E+03  0.00000000000E+00 0.  1.
        -11    1    1    2    0    0 -0.37330872871E+01 -0.19260969022E+00  0.18020507568E+03  0.18024384134E+03  0.00000000000E+00 0.  1.
         11    1    1    2    0    0 -0.40083845381E+00 -0.34042592303E+01 -0.16742691385E+03  0.16746199907E+03  0.00000000000E+00 0.  1.
        -15    1    1    2    0    0  0.24280481506E+01  0.54988177022E+00 -0.13014301673E+02  0.13368902902E+02  0.17770000000E+01 0. -1.
         15    1    1    2    0    0  0.17058775902E+01  0.30469871503E+01  0.23613983825E+00  0.39252566884E+01  0.17770000000E+01 0.  1.
</event>
<event>
 6    1  0.1196607E-002  0.1954185E+03  0.7546771E-02  0.1058613E+00
        -11   -1    0    0    0    0  0.00000000000E+00  0.00000000000E+00  0.18250000000E+03  0.18250000000E+03  0.00000000000E+00 0.  1.
         11   -1    0    0    0    0 -0.00000000000E+00 -0.00000000000E+00 -0.18250000000E+03  0.18250000000E+03  0.00000000000E+00 0. -1.
        -11    1    1    2    0    0  0.23299504175E+01 -0.18252823403E+01  0.16076033536E+03  0.16078757959E+03  0.00000000000E+00 0.  1.
         11    1    1    2    0    0 -0.19655842322E+01  0.56949579867E+01 -0.16947441728E+03  0.16958146768E+03  0.00000000000E+00 0. -1.
        -15    1    1    2    0    0 -0.43470599580E+01  0.46341165819E+01 -0.10940573316E+02  0.12775986860E+02  0.17770000000E+01 0.  1.
         15    1    1    2    0    0  0.39826937728E+01 -0.85037922283E+01  0.19654655233E+02  0.21854965872E+02  0.17770000000E+01 0. -1.
</event>
<event>
 6    1  0.1196607E-002  0.1756722E+03  0.7546771E-02  0.1074023E+00
        -11   -1    0    0    0    0  0.00000000000E+00  0.00000000000E+00  0.18250000000E+03  0.18250000000E+03  0.00000000000E+00 0.  1.
         11   -1    0    0    0    0 -0.00000000000E+00 -0.00000000000E+00 -0.18250000000E+03  0.18250000000E+03  0.00000000000E+00 0.  1.
        -11    1    1    2    0    0  0.82621867665E+01  0.25826434297E+01  0.17532209812E+03  0.17553567121E+03  0.00000000000E+00 0.  1.
         11    1    1    2    0    0  0.16839254853E+01 -0.34956316910E+01 -0.17590845492E+03  0.17595124200E+03  0.00000000000E+00 0.  1.
        -15    1    1    2    0    0 -0.10441003539E+02  0.73714323143E-01 -0.13901695585E+01  0.10682241764E+02  0.17770000000E+01 0.  1.
         15    1    1    2    0    0  0.49489128756E+00  0.83927393821E+00  0.19765263624E+01  0.28308450313E+01  0.17770000000E+01 0. -1.
</event>
<event>
 6    1  0.1196607E-002  0.1906368E+03  0.7546771E-02  0.1062156E+00
        -11   -1    0    0    0    0  0.00000000000E+00  0.00000000000E+00  0.18250000000E+03  0.18250000000E+03  0.00000000000E+00 0.  1.
         11   -1    0    0    0    0 -0.00000000000E+00 -0.00000000000E+00 -0.18250000000E+03  0.18250000000E+03  0.00000000000E+00 0. -1.
        -11    1    1    2    0    0  0.37313400073E+01  0.52519286491E+01  0.17424412632E+03  0.17436318766E+03  0.00000000000E+00 0.  1.
         11    1    1    2    0    0 -0.54432971571E+01  0.26086211871E+01 -0.13326856710E+03  0.13340519243E+03  0.00000000000E+00 0. -1.
        -15    1    1    2    0    0  0.24893898051E+01  0.77648036619E+01 -0.40634506403E+02  0.41482647904E+02  0.17770000000E+01 0.  1.
         15    1    1    2    0    0 -0.77743265530E+00 -0.15625353498E+02 -0.34105281131E+00  0.15748972014E+02  0.17770000000E+01 0. -1.
</event>
<event>
 6    1  0.1196607E-002  0.1900355E+03  0.7546771E-02  0.1062610E+00
        -11   -1    0    0    0    0  0.00000000000E+00  0.00000000000E+00  0.18250000000E+03  0.18250000000E+03  0.00000000000E+00 0. -1.
         11   -1    0    0    0    0 -0.00000000000E+00 -0.00000000000E+00 -0.18250000000E+03  0.18250000000E+03  0.00000000000E+00 0.  1.
        -11    1    1    2    0    0 -0.14160694849E+01 -0.19217613750E+01  0.16805859092E+03  0.16807554374E+03  0.00000000000E+00 0. -1.
         11    1    1    2    0    0  0.43089398870E+01 -0.81843794678E+01 -0.17471983404E+03  0.17496448622E+03  0.00000000000E+00 0.  1.
        -15    1    1    2    0    0 -0.25704616367E+01  0.87357670506E+01 -0.46820721526E+01  0.10392325420E+02  0.17770000000E+01 0.  1.
         15    1    1    2    0    0 -0.32240876535E+00  0.13703737922E+01  0.11343315272E+02  0.11567644622E+02  0.17770000000E+01 0.  1.
</event>
<event>
 6    1  0.1196607E-002  0.1622328E+03  0.7546771E-02  0.1085840E+00
        -11   -1    0    0    0    0  0.00000000000E+00  0.00000000000E+00  0.18250000000E+03  0.18250000000E+03  0.00000000000E+00 0.  1.
         11   -1    0    0    0    0 -0.00000000000E+00 -0.00000000000E+00 -0.18250000000E+03  0.18250000000E+03  0.00000000000E+00 0.  1.
        -11    1    1    2    0    0  0.11559718003E+02  0.11088484039E+02  0.16210846460E+03  0.16289793079E+03  0.00000000000E+00 0.  1.
         11    1    1    2    0    0 -0.19730963714E+01 -0.10287902866E+02 -0.16137140201E+03  0.16171104922E+03  0.00000000000E+00 0.  1.
        -15    1    1    2    0    0  0.53450395450E+01 -0.14343368084E+02 -0.97530864704E+01  0.18236833070E+02  0.17770000000E+01 0.  1.
         15    1    1    2    0    0 -0.14931661176E+02  0.13542786910E+02  0.90160238744E+01  0.22154186925E+02  0.17770000000E+01 0. -1.
</event>
<event>
 6    1  0.1196607E-002  0.1846934E+03  0.7546771E-02  0.1066722E+00
        -11   -1    0    0    0    0  0.00000000000E+00  0.00000000000E+00  0.18250000000E+03  0.18250000000E+03  0.00000000000E+00 0. -1.
         11   -1    0    0    0    0 -0.00000000000E+00 -0.00000000000E+00 -0.18250000000E+03  0.18250000000E+03  0.00000000000E+00 0. -1.
        -11    1    1    2    0    0  0.14223498007E+02  0.19813876519E+02  0.17864929700E+03  0.18030659698E+03  0.00000000000E+00 0. -1.
         11    1    1    2    0    0 -0.27796130055E+00  0.15916724824E+01 -0.97523999600E+02  0.97537383509E+02  0.00000000000E+00 0. -1.
        -15    1    1    2    0    0 -0.13303583562E+02 -0.20609044010E+02 -0.47693459284E+02  0.53661362432E+02  0.17770000000E+01 0. -1.
         15    1    1    2    0    0 -0.64195314460E+00 -0.79650499172E+00 -0.33431838113E+02  0.33494657076E+02  0.17770000000E+01 0.  1.
</event>
<event>
 6    1  0.1196607E-002  0.1614990E+03  0.7546771E-02  0.1086521E+00
        -11   -1    0    0    0    0  0.00000000000E+00  0.00000000000E+00  0.18250000000E+03  0.18250000000E+03  0.00000000000E+00 0.  1.
         11   -1    0    0    0    0 -0.00000000000E+00 -0.00000000000E+00 -0.18250000000E+03  0.18250000000E+03  0.00000000000E+00 0.  1.
        -11    1    1    2    0    0 -0.14343878207E+02  0.14156088171E+00  0.16477627648E+03  0.16539948057E+03  0.00000000000E+00 0.  1.
         11    1    1    2    0    0 -0.12769403414E+01  0.20657959308E+01 -0.15803521193E+03  0.15805387151E+03  0.00000000000E+00 0.  1.
        -15    1    1    2    0    0  0.87001246445E+01  0.57494493935E-01  0.15617283294E+02  0.17965320507E+02  0.17770000000E+01 0. -1.
         15    1    1    2    0    0  0.69206939044E+01 -0.22648513064E+01 -0.22358347839E+02  0.23581327415E+02  0.17770000000E+01 0.  1.
</event>
<event>
 6    1  0.1196607E-002  0.1847100E+03  0.7546771E-02  0.1066709E+00
        -11   -1    0    0    0    0  0.00000000000E+00  0.00000000000E+00  0.18250000000E+03  0.18250000000E+03  0.00000000000E+00 0. -1.
         11   -1    0    0    0    0 -0.00000000000E+00 -0.00000000000E+00 -0.18250000000E+03  0.18250000000E+03  0.00000000000E+00 0.  1.
        -11    1    1    2    0    0 -0.25146885786E+01  0.33983096308E+01  0.18024038458E+03  0.18028995646E+03  0.00000000000E+00 0. -1.
         11    1    1    2    0    0  0.19726765697E+01  0.14890293045E+01 -0.17139993001E+03  0.17141774899E+03  0.00000000000E+00 0.  1.
        -15    1    1    2    0    0 -0.83841477620E+00 -0.38098853595E+01 -0.97389212480E+01  0.10640605334E+02  0.17770000000E+01 0. -1.
         15    1    1    2    0    0  0.13804267851E+01 -0.10774535758E+01  0.89846667659E+00  0.26516892137E+01  0.17770000000E+01 0.  1.
</event>
<event>
 6    1  0.1196607E-002  0.1909805E+03  0.7546771E-02  0.1061898E+00
        -11   -1    0    0    0    0  0.00000000000E+00  0.00000000000E+00  0.18250000000E+03  0.18250000000E+03  0.00000000000E+00 0. -1.
         11   -1    0    0    0    0 -0.00000000000E+00 -0.00000000000E+00 -0.18250000000E+03  0.18250000000E+03  0.00000000000E+00 0.  1.
        -11    1    1    2    0    0 -0.60333864012E+00 -0.51403857792E+01  0.17394254483E+03  0.17401952904E+03  0.00000000000E+00 0. -1.
         11    1    1    2    0    0 -0.37625521195E+01  0.16207971576E+01 -0.15209338317E+03  0.15214854908E+03  0.00000000000E+00 0.  1.
        -15    1    1    2    0    0  0.37145478142E+01  0.53853463798E+01 -0.29741396713E+02  0.30504232961E+02  0.17770000000E+01 0.  1.
         15    1    1    2    0    0  0.65134294543E+00 -0.18657577582E+01  0.78922350543E+01  0.83276889230E+01  0.17770000000E+01 0. -1.
</event>
<event>
 6    1  0.1196607E-002  0.1722352E+03  0.7546771E-02  0.1076932E+00
        -11   -1    0    0    0    0  0.00000000000E+00  0.00000000000E+00  0.18250000000E+03  0.18250000000E+03  0.00000000000E+00 0. -1.
         11   -1    0    0    0    0 -0.00000000000E+00 -0.00000000000E+00 -0.18250000000E+03  0.18250000000E+03  0.00000000000E+00 0.  1.
        -11    1    1    2    0    0 -0.60253778946E+00 -0.32262986304E+01  0.17134207389E+03  0.17137350536E+03  0.00000000000E+00 0. -1.
         11    1    1    2    0    0 -0.93575372868E+01  0.20047287893E+01 -0.17298249808E+03  0.17324701176E+03  0.00000000000E+00 0.  1.
        -15    1    1    2    0    0  0.11333114659E+02 -0.24848757031E+01 -0.47465738740E+01  0.12661034226E+02  0.17770000000E+01 0. -1.
         15    1    1    2    0    0 -0.13730395828E+01  0.37064455442E+01  0.63869980716E+01  0.77184486546E+01  0.17770000000E+01 0. -1.
</event>
<event>
 6    1  0.1196607E-002  0.1853668E+03  0.7546771E-02  0.1066195E+00
        -11   -1    0    0    0    0  0.00000000000E+00  0.00000000000E+00  0.18250000000E+03  0.18250000000E+03  0.00000000000E+00 0.  1.
         11   -1    0    0    0    0 -0.00000000000E+00 -0.00000000000E+00 -0.18250000000E+03  0.18250000000E+03  0.00000000000E+00 0.  1.
        -11    1    1    2    0    0 -0.29654137939E+01 -0.86237444479E+00  0.17303307804E+03  0.17306063523E+03  0.00000000000E+00 0.  1.
         11    1    1    2    0    0  0.42902321167E+01 -0.11347843077E+01 -0.17957836872E+03  0.17963319387E+03  0.00000000000E+00 0.  1.
        -15    1    1    2    0    0  0.13895736162E+01  0.46579064488E+01  0.86961789640E+00  0.52479492763E+01  0.17770000000E+01 0. -1.
         15    1    1    2    0    0 -0.27143919390E+01 -0.26607476964E+01  0.56756727845E+01  0.70582216216E+01  0.17770000000E+01 0.  1.
</event>
<event>
 6    1  0.1196607E-002  0.1901236E+03  0.7546771E-02  0.1062543E+00
        -11   -1    0    0    0    0  0.00000000000E+00  0.00000000000E+00  0.18250000000E+03  0.18250000000E+03  0.00000000000E+00 0.  1.
         11   -1    0    0    0    0 -0.00000000000E+00 -0.00000000000E+00 -0.18250000000E+03  0.18250000000E+03  0.00000000000E+00 0. -1.
        -11    1    1    2    0    0  0.89593994368E+01 -0.70388048319E+01  0.16007750373E+03  0.16048246886E+03  0.00000000000E+00 0.  1.
         11    1    1    2    0    0 -0.45578566239E+01 -0.38610420362E+01 -0.17477438326E+03  0.17487643280E+03  0.00000000000E+00 0. -1.
        -15    1    1    2    0    0 -0.11618454559E+01  0.19613384221E+01 -0.60751070579E+01  0.67276584362E+01  0.17770000000E+01 0. -1.
         15    1    1    2    0    0 -0.32396973570E+01  0.89385084460E+01  0.20771986591E+02  0.22913439902E+02  0.17770000000E+01 0.  1.
</event>
<event>
 6    1  0.1196607E-002  0.1835351E+03  0.7546771E-02  0.1067634E+00
        -11   -1    0    0    0    0  0.00000000000E+00  0.00000000000E+00  0.18250000000E+03  0.18250000000E+03  0.00000000000E+00 0. -1.
         11   -1    0    0    0    0 -0.00000000000E+00 -0.00000000000E+00 -0.18250000000E+03  0.18250000000E+03  0.00000000000E+00 0.  1.
        -11    1    1    2    0    0 -0.33064439140E+01  0.13430526549E+01  0.10690083713E+03  0.10696039146E+03  0.00000000000E+00 0. -1.
         11    1    1    2    0    0 -0.67005241877E+01 -0.65310714760E+01 -0.18122351583E+03  0.18146491289E+03  0.00000000000E+00 0.  1.
        -15    1    1    2    0    0  0.55328165674E+01 -0.13420318038E+01  0.93016857179E+01  0.11049533688E+02  0.17770000000E+01 0.  1.
         15    1    1    2    0    0  0.44741515344E+01  0.65300506249E+01  0.65020992979E+02  0.65525161961E+02  0.17770000000E+01 0. -1.
</event>
<event>
 6    1  0.1196607E-002  0.1835947E+03  0.7546771E-02  0.1067587E+00
        -11   -1    0    0    0    0  0.00000000000E+00  0.00000000000E+00  0.18250000000E+03  0.18250000000E+03  0.00000000000E+00 0.  1.
         11   -1    0    0    0    0 -0.00000000000E+00 -0.00000000000E+00 -0.18250000000E+03  0.18250000000E+03  0.00000000000E+00 0.  1.
        -11    1    1    2    0    0 -0.53802310297E+01 -0.54235299736E+01  0.10247686272E+03  0.10276122302E+03  0.00000000000E+00 0.  1.
         11    1    1    2    0    0  0.29384849631E+01  0.72476908386E+01 -0.18123663021E+03  0.18140529167E+03  0.00000000000E+00 0.  1.
        -15    1    1    2    0    0 -0.76077451267E+01 -0.71520698308E+00  0.37949649214E+02  0.38752069770E+02  0.17770000000E+01 0.  1.
         15    1    1    2    0    0  0.10049491193E+02 -0.11089538820E+01  0.40810118273E+02  0.42081415547E+02  0.17770000000E+01 0. -1.
</event>
<event>
 6    1  0.1196607E-002  0.1831348E+03  0.7546771E-02  0.1067951E+00
        -11   -1    0    0    0    0  0.00000000000E+00  0.00000000000E+00  0.18250000000E+03  0.18250000000E+03  0.00000000000E+00 0.  1.
         11   -1    0    0    0    0 -0.00000000000E+00 -0.00000000000E+00 -0.18250000000E+03  0.18250000000E+03  0.00000000000E+00 0. -1.
        -11    1    1    2    0    0  0.18347361167E+01 -0.22790015770E+01  0.16247598825E+03  0.16250232879E+03  0.00000000000E+00 0.  1.
         11    1    1    2    0    0 -0.56876870049E+00 -0.27024929759E+01 -0.18184426373E+03  0.18186523367E+03  0.00000000000E+00 0. -1.
        -15    1    1    2    0    0 -0.95570848728E+00  0.18563594182E+01  0.40217750515E+01  0.48674277156E+01  0.17770000000E+01 0.  1.
         15    1    1    2    0    0 -0.31025892892E+00  0.31251351347E+01  0.15346500432E+02  0.15765009823E+02  0.17770000000E+01 0. -1.
</event>
<event>
 6    1  0.2025619E-002  0.2261776E+03  0.7546771E-02  0.1038185E+00
        -11   -1    0    0    0    0  0.00000000000E+00  0.00000000000E+00  0.18250000000E+03  0.18250000000E+03  0.00000000000E+00 0. -1.
         11   -1    0    0    0    0 -0.00000000000E+00 -0.00000000000E+00 -0.18250000000E+03  0.18250000000E+03  0.00000000000E+00 0. -1.
        -11    1    1    2    0    0  0.17652793249E+01  0.17985413731E+01  0.13879954600E+03  0.13882242230E+03  0.00000000000E+00 0. -1.
         11    1    1    2    0    0  0.11612394229E+02 -0.95995716094E+01 -0.95111504835E+02  0.96297444550E+02  0.00000000000E+00 0. -1.
        -15    1    1    2    0    0 -0.33607615499E+01  0.13706604665E+02 -0.85381928245E+02  0.86558634055E+02  0.17770000000E+01 0. -1.
         15    1    1    2    0    0 -0.10016912004E+02 -0.59055744291E+01  0.41693887076E+02  0.43321499096E+02  0.17770000000E+01 0.  1.
</event>
<event>
 6    1  0.1196607E-002  0.1867676E+03  0.7546771E-02  0.1065108E+00
        -11   -1    0    0    0    0  0.00000000000E+00  0.00000000000E+00  0.18250000000E+03  0.18250000000E+03  0.00000000000E+00 0. -1.
         11   -1    0    0    0    0 -0.00000000000E+00 -0.00000000000E+00 -0.18250000000E+03  0.18250000000E+03  0.00000000000E+00 0. -1.
        -11    1    1    2    0    0  0.11318798870E+02 -0.39326982006E+01  0.17782918232E+03  0.17823243085E+03  0.00000000000E+00 0. -1.
         11    1    1    2    0    0  0.24883665367E+01  0.34162743437E+01 -0.15525146110E+03  0.15530897937E+03  0.00000000000E+00 0. -1.
        -15    1    1    2    0    0  0.76192575748E+00  0.59464944091E+01 -0.61721981098E+01  0.87860733621E+01  0.17770000000E+01 0. -1.
         15    1    1    2    0    0 -0.14569091164E+02 -0.54300705522E+01 -0.16405523101E+02  0.22672516419E+02  0.17770000000E+01 0.  1.
</event>
<event>
 6    1  0.1196607E-002  0.1598187E+03  0.7546771E-02  0.1088095E+00
        -11   -1    0    0    0    0  0.00000000000E+00  0.00000000000E+00  0.18250000000E+03  0.18250000000E+03  0.00000000000E+00 0.  1.
         11   -1    0    0    0    0 -0.00000000000E+00 -0.00000000000E+00 -0.18250000000E+03  0.18250000000E+03  0.00000000000E+00 0.  1.
        -11    1    1    2    0    0  0.31218837254E+01  0.17503632709E+02  0.16231654884E+03  0.16328743167E+03  0.00000000000E+00 0.  1.
         11    1    1    2    0    0 -0.17959466270E+02 -0.14649219213E+02 -0.15506669020E+03  0.15678909548E+03  0.00000000000E+00 0.  1.
        -15    1    1    2    0    0  0.51390436955E+01  0.16219368184E+02 -0.14329090226E+02  0.22314977708E+02  0.17770000000E+01 0. -1.
         15    1    1    2    0    0  0.96985388493E+01 -0.19073781681E+02  0.70792315924E+01  0.22608495137E+02  0.17770000000E+01 0.  1.
</event>
<event>
 6    1  0.1196607E-002  0.1873864E+03  0.7546771E-02  0.1064630E+00
        -11   -1    0    0    0    0  0.00000000000E+00  0.00000000000E+00  0.18250000000E+03  0.18250000000E+03  0.00000000000E+00 0. -1.
         11   -1    0    0    0    0 -0.00000000000E+00 -0.00000000000E+00 -0.18250000000E+03  0.18250000000E+03  0.00000000000E+00 0. -1.
        -11    1    1    2    0    0 -0.41809762325E+01  0.63168845065E+01  0.15378262414E+03  0.15396908482E+03  0.00000000000E+00 0. -1.
         11    1    1    2    0    0  0.26392232061E+01  0.24404562754E+01 -0.17757724668E+03  0.17761362522E+03  0.00000000000E+00 0. -1.
        -15    1    1    2    0    0 -0.74302310866E+01  0.25168815010E+01  0.13151160191E+02  0.15416023153E+02  0.17770000000E+01 0.  1.
         15    1    1    2    0    0  0.89719841131E+01 -0.11274222283E+02  0.10643462350E+02  0.18001266811E+02  0.17770000000E+01 0. -1.
</event>
<event>
 6    1  0.1196607E-002  0.1837930E+03  0.7546771E-02  0.1067430E+00
        -11   -1    0    0    0    0  0.00000000000E+00  0.00000000000E+00  0.18250000000E+03  0.18250000000E+03  0.00000000000E+00 0.  1.
         11   -1    0    0    0    0 -0.00000000000E+00 -0.00000000000E+00 -0.18250000000E+03  0.18250000000E+03  0.00000000000E+00 0.  1.
        -11    1    1    2    0    0 -0.14179919864E+01 -0.37867147902E+01  0.18116184994E+03  0.18120696946E+03  0.00000000000E+00 0.  1.
         11    1    1    2    0    0 -0.48173238674E+01  0.31197170699E+01 -0.15829672630E+03  0.15840073485E+03  0.00000000000E+00 0.  1.
        -15    1    1    2    0    0  0.21358505255E+01 -0.27834126864E+01 -0.36518250043E+01  0.53668238756E+01  0.17770000000E+01 0. -1.
         15    1    1    2    0    0  0.40994653283E+01  0.34504104067E+01 -0.19213298628E+02  0.20025471808E+02  0.17770000000E+01 0.  1.
</event>
<event>
 6    1  0.1196607E-002  0.1869745E+03  0.7546771E-02  0.1064948E+00
        -11   -1    0    0    0    0  0.00000000000E+00  0.00000000000E+00  0.18250000000E+03  0.18250000000E+03  0.00000000000E+00 0.  1.
         11   -1    0    0    0    0 -0.00000000000E+00 -0.00000000000E+00 -0.18250000000E+03  0.18250000000E+03  0.00000000000E+00 0.  1.
        -11    1    1    2    0    0 -0.11279483919E+01  0.39526115308E+01  0.17797800325E+03  0.17802546179E+03  0.00000000000E+00 0.  1.
         11    1    1    2    0    0 -0.20913528123E+01  0.10197196453E+02 -0.15772305285E+03  0.15806618226E+03  0.00000000000E+00 0.  1.
        -15    1    1    2    0    0  0.38199176397E+01 -0.14960700485E+02 -0.21489293196E+02  0.26520968701E+02  0.17770000000E+01 0.  1.
         15    1    1    2    0    0 -0.60061643543E+00  0.81089250089E+00  0.12343428002E+01  0.23873872536E+01  0.17770000000E+01 0. -1.
</event>
<event>
 6    1  0.1196607E-002  0.1881300E+03  0.7546771E-02  0.1064060E+00
        -11   -1    0    0    0    0  0.00000000000E+00  0.00000000000E+00  0.18250000000E+03  0.18250000000E+03  0.00000000000E+00 0. -1.
         11   -1    0    0    0    0 -0.00000000000E+00 -0.00000000000E+00 -0.18250000000E+03  0.18250000000E+03  0.00000000000E+00 0. -1.
        -11    1    1    2    0    0  0.16355610393E+00  0.68801393177E+01  0.14706743664E+03  0.14722837359E+03  0.00000000000E+00 0. -1.
         11    1    1    2    0    0 -0.12117286575E+02  0.49623447817E+00 -0.17645370608E+03  0.17686996713E+03  0.00000000000E+00 0. -1.
        -15    1    1    2    0    0 -0.20971813232E+01 -0.57018333308E+01  0.25280542360E+02  0.26060940578E+02  0.17770000000E+01 0. -1.
         15    1    1    2    0    0  0.14050911794E+02 -0.16745404651E+01  0.41057270750E+01  0.14840718710E+02  0.17770000000E+01 0.  1.
</event>
<event>
 6    1  0.1196607E-002  0.1853712E+03  0.7546771E-02  0.1066192E+00
        -11   -1    0    0    0    0  0.00000000000E+00  0.00000000000E+00  0.18250000000E+03  0.18250000000E+03  0.00000000000E+00 0. -1.
         11   -1    0    0    0    0 -0.00000000000E+00 -0.00000000000E+00 -0.18250000000E+03  0.18250000000E+03  0.00000000000E+00 0. -1.
        -11    1    1    2    0    0  0.70071632390E+00  0.20541475787E+01  0.14987919884E+03  0.14989491242E+03  0.00000000000E+00 0. -1.
         11    1    1    2    0    0  0.26806998242E+01  0.64711539116E+00 -0.17960765110E+03  0.17962882075E+03  0.00000000000E+00 0. -1.
        -15    1    1    2    0    0 -0.93368692547E+00  0.12979589531E+01  0.30331782988E+02  0.30425832066E+02  0.17770000000E+01 0. -1.
         15    1    1    2    0    0 -0.24477292227E+01 -0.39992219229E+01 -0.60333072115E+00  0.50504347630E+01  0.17770000000E+01 0.  1.
</event>
<event>
 6    1  0.1196607E-002  0.1760790E+03  0.7546771E-02  0.1073684E+00
        -11   -1    0    0    0    0  0.00000000000E+00  0.00000000000E+00  0.18250000000E+03  0.18250000000E+03  0.00000000000E+00 0. -1.
         11   -1    0    0    0    0 -0.00000000000E+00 -0.00000000000E+00 -0.18250000000E+03  0.18250000000E+03  0.00000000000E+00 0.  1.
        -11    1    1    2    0    0  0.39957084624E+01  0.24521879865E+01  0.17390897517E+03  0.17397215454E+03  0.00000000000E+00 0. -1.
         11    1    1    2    0    0  0.42625930921E+01  0.42776757219E+00 -0.17826990967E+03  0.17832137667E+03  0.00000000000E+00 0.  1.
        -15    1    1    2    0    0 -0.14271058681E+01  0.21719057059E+01  0.19285383110E+01  0.36919905974E+01  0.17770000000E+01 0. -1.
         15    1    1    2    0    0 -0.68311956864E+01 -0.50518612646E+01  0.24323961916E+01  0.90144781865E+01  0.17770000000E+01 0.  1.
</event>
<event>
 6    1  0.1196607E-002  0.1875981E+03  0.7546771E-02  0.1064468E+00
        -11   -1    0    0    0    0  0.00000000000E+00  0.00000000000E+00  0.18250000000E+03  0.18250000000E+03  0.00000000000E+00 0. -1.
         11   -1    0    0    0    0 -0.00000000000E+00 -0.00000000000E+00 -0.18250000000E+03  0.18250000000E+03  0.00000000000E+00 0.  1.
        -11    1    1    2    0    0 -0.23879339064E+00  0.97637280260E+01  0.13562273694E+03  0.13597394670E+03  0.00000000000E+00 0. -1.
         11    1    1    2    0    0 -0.73568721343E+01  0.55289072227E+00 -0.17724842972E+03  0.17740190274E+03  0.00000000000E+00 0.  1.
        -15    1    1    2    0    0  0.84320160776E+01  0.51185021964E+01  0.37924381074E+01  0.10716262206E+02  0.17770000000E+01 0. -1.
         15    1    1    2    0    0 -0.83635055263E+00 -0.15435120945E+02  0.37833254677E+02  0.40907888350E+02  0.17770000000E+01 0.  1.
</event>
<event>
 6    1  0.1196607E-002  0.1830359E+03  0.7546771E-02  0.1068029E+00
        -11   -1    0    0    0    0  0.00000000000E+00  0.00000000000E+00  0.18250000000E+03  0.18250000000E+03  0.00000000000E+00 0. -1.
         11   -1    0    0    0    0 -0.00000000000E+00 -0.00000000000E+00 -0.18250000000E+03  0.18250000000E+03  0.00000000000E+00 0. -1.
        -11    1    1    2    0    0  0.10419305930E+01 -0.50629846878E+00  0.51718881612E+02  0.51731853560E+02  0.00000000000E+00 0. -1.
         11    1    1    2    0    0  0.30346954764E+00 -0.27179673818E+01 -0.18194359570E+03  0.18196414882E+03  0.00000000000E+00 0. -1.
        -15    1    1    2    0    0 -0.18815723490E+01 -0.54808574858E+00  0.12233846683E+03  0.12236706627E+03  0.17770000000E+01 0. -1.
         15    1    1    2    0    0  0.53617220842E+00  0.37723515991E+01  0.78862472515E+01  0.89369313490E+01  0.17770000000E+01 0. -1.
</event>
<event>
 6    1  0.1196607E-002  0.1851054E+03  0.7546771E-02  0.1066400E+00
        -11   -1    0    0    0    0  0.00000000000E+00  0.00000000000E+00  0.18250000000E+03  0.18250000000E+03  0.00000000000E+00 0.  1.
         11   -1    0    0    0    0 -0.00000000000E+00 -0.00000000000E+00 -0.18250000000E+03  0.18250000000E+03  0.00000000000E+00 0. -1.
        -11    1    1    2    0    0  0.40689280970E+01 -0.13211866640E+01  0.17984371521E+03  0.17989459027E+03  0.00000000000E+00 0.  1.
         11    1    1    2    0    0  0.45557358225E+00 -0.36317757818E+01 -0.15553129938E+03  0.15557436302E+03  0.00000000000E+00 0. -1.
        -15    1    1    2    0    0 -0.16544381375E+01  0.47747419816E+01 -0.25416604230E+02  0.25974926874E+02  0.17770000000E+01 0.  1.
         15    1    1    2    0    0 -0.28700635417E+01  0.17822046425E+00  0.11041883998E+01  0.35561198362E+01  0.17770000000E+01 0.  1.
</event>
<event>
 6    1  0.1196607E-002  0.1885706E+03  0.7546771E-02  0.1063723E+00
        -11   -1    0    0    0    0  0.00000000000E+00  0.00000000000E+00  0.18250000000E+03  0.18250000000E+03  0.00000000000E+00 0.  1.
         11   -1    0    0    0    0 -0.00000000000E+00 -0.00000000000E+00 -0.18250000000E+03  0.18250000000E+03  0.00000000000E+00 0.  1.
        -11    1    1    2    0    0  0.26069175453E+01  0.10041604845E+01  0.11751106701E+03  0.11754426922E+03  0.00000000000E+00 0.  1.
         11    1    1    2    0    0  0.14837361892E+02 -0.19610945598E+02 -0.17470713371E+03  0.17642935999E+03  0.00000000000E+00 0.  1.
        -15    1    1    2    0    0 -0.18457716101E+02  0.23785295627E+02  0.58027161279E+02  0.65396764039E+02  0.17770000000E+01 0. -1.
         15    1    1    2    0    0  0.10134366641E+01 -0.51785105139E+01 -0.83109457496E+00  0.56296067543E+01  0.17770000000E+01 0.  1.
</event>
<event>
 6    1  0.1196607E-002  0.1829672E+03  0.7546771E-02  0.1068084E+00
        -11   -1    0    0    0    0  0.00000000000E+00  0.00000000000E+00  0.18250000000E+03  0.18250000000E+03  0.00000000000E+00 0. -1.
         11   -1    0    0    0    0 -0.00000000000E+00 -0.00000000000E+00 -0.18250000000E+03  0.18250000000E+03  0.00000000000E+00 0. -1.
        -11    1    1    2    0    0  0.20960432627E+01  0.10314703143E+01  0.62297128597E+02  0.62340914012E+02  0.00000000000E+00 0. -1.
         11    1    1    2    0    0  0.53184878300E+00 -0.35597864466E+01 -0.18199723623E+03  0.18203282380E+03  0.00000000000E+00 0. -1.
        -15    1    1    2    0    0 -0.43701677935E+01  0.59494525133E+01  0.10637649383E+03  0.10664713086E+03  0.17770000000E+01 0. -1.
         15    1    1    2    0    0  0.17422757477E+01 -0.34211363810E+01  0.13323613807E+02  0.13979131332E+02  0.17770000000E+01 0. -1.
</event>
<event>
 6    1  0.1196607E-002  0.1829211E+03  0.7546771E-02  0.1068120E+00
        -11   -1    0    0    0    0  0.00000000000E+00  0.00000000000E+00  0.18250000000E+03  0.18250000000E+03  0.00000000000E+00 0. -1.
         11   -1    0    0    0    0 -0.00000000000E+00 -0.00000000000E+00 -0.18250000000E+03  0.18250000000E+03  0.00000000000E+00 0.  1.
        -11    1    1    2    0    0 -0.69910763814E+00  0.24186546028E+01  0.18206147612E+03  0.18207888326E+03  0.00000000000E+00 0. -1.
         11    1    1    2    0    0 -0.50250537989E+00 -0.22051946676E+01 -0.14656435195E+03  0.14658180193E+03  0.00000000000E+00 0.  1.
        -15    1    1    2    0    0 -0.21353087913E+01 -0.93041870202E+00 -0.24775028922E+02  0.24947645373E+02  0.17770000000E+01 0.  1.
         15    1    1    2    0    0  0.33369218094E+01  0.71695876687E+00 -0.10722095247E+02  0.11391669435E+02  0.17770000000E+01 0. -1.
</event>
<event>
 6    1  0.1196607E-002  0.1678893E+03  0.7546771E-02  0.1080719E+00
        -11   -1    0    0    0    0  0.00000000000E+00  0.00000000000E+00  0.18250000000E+03  0.18250000000E+03  0.00000000000E+00 0. -1.
         11   -1    0    0    0    0 -0.00000000000E+00 -0.00000000000E+00 -0.18250000000E+03  0.18250000000E+03  0.00000000000E+00 0. -1.
        -11    1    1    2    0    0  0.13211154099E+02  0.43480956848E+00  0.16603598940E+03  0.16656132032E+03  0.00000000000E+00 0. -1.
         11    1    1    2    0    0  0.51394909320E-01 -0.74271749547E+01 -0.16940607545E+03  0.16956881779E+03  0.00000000000E+00 0. -1.
        -15    1    1    2    0    0  0.42816597611E+01  0.60493133787E+01 -0.52146762500E+01  0.92345752504E+01  0.17770000000E+01 0.  1.
         15    1    1    2    0    0 -0.17544208770E+02  0.94305200750E+00  0.85847623007E+01  0.19635286634E+02  0.17770000000E+01 0. -1.
</event>
<event>
 6    1  0.1776424E-002  0.1945630E+03  0.7546771E-02  0.1059239E+00
        -11   -1    0    0    0    0  0.00000000000E+00  0.00000000000E+00  0.18250000000E+03  0.18250000000E+03  0.00000000000E+00 0. -1.
         11   -1    0    0    0    0 -0.00000000000E+00 -0.00000000000E+00 -0.18250000000E+03  0.18250000000E+03  0.00000000000E+00 0. -1.
        -11    1    1    2    0    0 -0.78943212965E+01  0.11244815551E+01  0.17025035745E+03  0.17043699417E+03  0.00000000000E+00 0. -1.
         11    1    1    2    0    0  0.41687834481E+01 -0.64911648453E+01 -0.15776311486E+03  0.15795162039E+03  0.00000000000E+00 0. -1.
        -15    1    1    2    0    0 -0.38107055567E+01  0.17684745302E+01 -0.22783458820E+02  0.23235591316E+02  0.17770000000E+01 0.  1.
         15    1    1    2    0    0  0.75362434051E+01  0.35982087600E+01  0.10296216223E+02  0.13375794124E+02  0.17770000000E+01 0. -1.
</event>
<event>
 6    1  0.1196607E-002  0.1840341E+03  0.7546771E-02  0.1067240E+00
        -11   -1    0    0    0    0  0.00000000000E+00  0.00000000000E+00  0.18250000000E+03  0.18250000000E+03  0.00000000000E+00 0. -1.
         11   -1    0    0    0    0 -0.00000000000E+00 -0.00000000000E+00 -0.18250000000E+03  0.18250000000E+03  0.00000000000E+00 0. -1.
        -11    1    1    2    0    0  0.29288133503E+01  0.11742755376E+01  0.10244838442E+03  0.10249696747E+03  0.00000000000E+00 0. -1.
         11    1    1    2    0    0  0.65694076617E+01 -0.20933508903E+01 -0.18083450379E+03  0.18096590010E+03  0.00000000000E+00 0. -1.
        -15    1    1    2    0    0 -0.20271063697E+00  0.37865403763E+01  0.63667768662E+02  0.63805340490E+02  0.17770000000E+01 0. -1.
         15    1    1    2    0    0 -0.92955103751E+01 -0.28674650236E+01  0.14718350716E+02  0.17731791945E+02  0.17770000000E+01 0.  1.
</event>
<event>
 6    1  0.1196607E-002  0.1730819E+03  0.7546771E-02  0.1076209E+00
        -11   -1    0    0    0    0  0.00000000000E+00  0.00000000000E+00  0.18250000000E+03  0.18250000000E+03  0.00000000000E+00 0. -1.
         11   -1    0    0    0    0 -0.00000000000E+00 -0.00000000000E+00 -0.18250000000E+03  0.18250000000E+03  0.00000000000E+00 0.  1.
        -11    1    1    2    0    0 -0.27614763772E+01  0.69466179556E+01  0.17216014904E+03  0.17232236701E+03  0.00000000000E+00 0. -1.
         11    1    1    2    0    0 -0.24874252977E+01 -0.90807972985E+00 -0.17391818978E+03  0.17393834721E+03  0.00000000000E+00 0.  1.
        -15    1    1    2    0    0  0.11397700370E+01  0.14666705757E+01 -0.63298731530E+01  0.68319266278E+01  0.17770000000E+01 0.  1.
         15    1    1    2    0    0  0.41091316379E+01 -0.75052088015E+01  0.80879138891E+01  0.11907359155E+02  0.17770000000E+01 0.  1.
</event>
<event>
 6    1  0.1196607E-002  0.1863383E+03  0.7546771E-02  0.1065440E+00
        -11   -1    0    0    0    0  0.00000000000E+00  0.00000000000E+00  0.18250000000E+03  0.18250000000E+03  0.00000000000E+00 0.  1.
         11   -1    0    0    0    0 -0.00000000000E+00 -0.00000000000E+00 -0.18250000000E+03  0.18250000000E+03  0.00000000000E+00 0.  1.
        -11    1    1    2    0    0  0.53693776760E+01  0.71258374743E+01  0.17730062653E+03  0.17752498400E+03  0.00000000000E+00 0.  1.
         11    1    1    2    0    0 -0.33858610884E+00  0.11248911569E+01 -0.12834442006E+01  0.17398993316E+01  0.00000000000E+00 0.  1.
        -15    1    1    2    0    0  0.13387173721E+02 -0.26906767426E+02 -0.64737915076E+02  0.71395699667E+02  0.17770000000E+01 0. -1.
         15    1    1    2    0    0 -0.18417965288E+02  0.18656038795E+02 -0.11127926726E+03  0.11433941700E+03  0.17770000000E+01 0.  1.
</event>
<event>
 6    1  0.1196607E-002  0.1858094E+03  0.7546771E-02  0.1065851E+00
        -11   -1    0    0    0    0  0.00000000000E+00  0.00000000000E+00  0.18250000000E+03  0.18250000000E+03  0.00000000000E+00 0.  1.
         11   -1    0    0    0    0 -0.00000000000E+00 -0.00000000000E+00 -0.18250000000E+03  0.18250000000E+03  0.00000000000E+00 0.  1.
        -11    1    1    2    0    0  0.22997312769E+01  0.71878998809E+00  0.14334890264E+03  0.14336915049E+03  0.00000000000E+00 0.  1.
         11    1    1    2    0    0  0.97933119241E+00  0.46785572692E+01 -0.17912687773E+03  0.17919064237E+03  0.00000000000E+00 0.  1.
        -15    1    1    2    0    0 -0.33073271297E+01 -0.67162443655E+01  0.11952048924E+01  0.77866934481E+01  0.17770000000E+01 0. -1.
         15    1    1    2    0    0  0.28264660452E-01  0.13188971082E+01  0.34582770191E+02  0.34653513697E+02  0.17770000000E+01 0.  1.
</event>
<event>
 6    1  0.1196607E-002  0.1873000E+03  0.7546771E-02  0.1064697E+00
        -11   -1    0    0    0    0  0.00000000000E+00  0.00000000000E+00  0.18250000000E+03  0.18250000000E+03  0.00000000000E+00 0.  1.
         11   -1    0    0    0    0 -0.00000000000E+00 -0.00000000000E+00 -0.18250000000E+03  0.18250000000E+03  0.00000000000E+00 0.  1.
        -11    1    1    2    0    0 -0.58352693089E+01 -0.27558637763E+01  0.17433406656E+03  0.17445346633E+03  0.00000000000E+00 0.  1.
         11    1    1    2    0    0  0.24257074891E+01 -0.35369690944E+00 -0.17768308700E+03  0.17769999596E+03  0.00000000000E+00 0.  1.
        -15    1    1    2    0    0  0.53626586593E+01  0.17523448400E+01  0.63132209541E+01  0.86512026996E+01  0.17770000000E+01 0. -1.
         15    1    1    2    0    0 -0.19530968395E+01  0.13572158458E+01 -0.29642005089E+01  0.41953350013E+01  0.17770000000E+01 0. -1.
</event>
<event>
 6    1  0.1196607E-002  0.1829757E+03  0.7546771E-02  0.1068077E+00
        -11   -1    0    0    0    0  0.00000000000E+00  0.00000000000E+00  0.18250000000E+03  0.18250000000E+03  0.00000000000E+00 0.  1.
         11   -1    0    0    0    0 -0.00000000000E+00 -0.00000000000E+00 -0.18250000000E+03  0.18250000000E+03  0.00000000000E+00 0.  1.
        -11    1    1    2    0    0  0.34216218885E-01  0.24822765005E+01  0.18200738907E+03  0.18202431855E+03  0.00000000000E+00 0.  1.
         11    1    1    2    0    0  0.13683513112E+01  0.18640562479E+01 -0.16224691619E+03  0.16226339361E+03  0.00000000000E+00 0.  1.
        -15    1    1    2    0    0  0.31532453494E+00 -0.16642787231E+01 -0.61577254052E+01  0.66290696478E+01  0.17770000000E+01 0.  1.
         15    1    1    2    0    0 -0.17178920651E+01 -0.26820540253E+01 -0.13602747472E+02  0.14083218195E+02  0.17770000000E+01 0. -1.
</event>
<event>
 6    1  0.1196607E-002  0.1831367E+03  0.7546771E-02  0.1067949E+00
        -11   -1    0    0    0    0  0.00000000000E+00  0.00000000000E+00  0.18250000000E+03  0.18250000000E+03  0.00000000000E+00 0.  1.
         11   -1    0    0    0    0 -0.00000000000E+00 -0.00000000000E+00 -0.18250000000E+03  0.18250000000E+03  0.00000000000E+00 0. -1.
        -11    1    1    2    0    0  0.28496315378E+01  0.78285281719E+00  0.18183933470E+03  0.18186334678E+03  0.00000000000E+00 0.  1.
         11    1    1    2    0    0  0.56471973931E+00  0.66837628289E+00 -0.40981197885E+02  0.40990538119E+02  0.00000000000E+00 0. -1.
        -15    1    1    2    0    0 -0.22702995420E+01 -0.12456049817E+01 -0.13968478249E+03  0.13972008438E+03  0.17770000000E+01 0. -1.
         15    1    1    2    0    0 -0.11440517351E+01 -0.20562411838E+00 -0.11733543259E+01  0.24260307139E+01  0.17770000000E+01 0.  1.
</event>
<event>
 6    1  0.1196607E-002  0.1830233E+03  0.7546771E-02  0.1068039E+00
        -11   -1    0    0    0    0  0.00000000000E+00  0.00000000000E+00  0.18250000000E+03  0.18250000000E+03  0.00000000000E+00 0. -1.
         11   -1    0    0    0    0 -0.00000000000E+00 -0.00000000000E+00 -0.18250000000E+03  0.18250000000E+03  0.00000000000E+00 0. -1.
        -11    1    1    2    0    0  0.34319212632E+01  0.26189516121E+01  0.18192552160E+03  0.18197673588E+03  0.00000000000E+00 0. -1.
         11    1    1    2    0    0 -0.57356815299E+01  0.80968389223E+00 -0.10437395657E+03  0.10453457055E+03  0.00000000000E+00 0. -1.
        -15    1    1    2    0    0  0.35977669385E+01  0.30915954700E+01 -0.27010139546E+02  0.27481034493E+02  0.17770000000E+01 0.  1.
         15    1    1    2    0    0 -0.12940066718E+01 -0.65202309744E+01 -0.50541425486E+02  0.51007659076E+02  0.17770000000E+01 0. -1.
</event>
<event>
 6    1  0.1196607E-002  0.1827597E+03  0.7546771E-02  0.1068248E+00
        -11   -1    0    0    0    0  0.00000000000E+00  0.00000000000E+00  0.18250000000E+03  0.18250000000E+03  0.00000000000E+00 0.  1.
         11   -1    0    0    0    0 -0.00000000000E+00 -0.00000000000E+00 -0.18250000000E+03  0.18250000000E+03  0.00000000000E+00 0. -1.
        -11    1    1    2    0    0 -0.11046740354E+02  0.12360531437E+01  0.18190102539E+03  0.18224033950E+03  0.00000000000E+00 0.  1.
         11    1    1    2    0    0  0.19060726281E+01 -0.18860960016E-01 -0.38574902257E+02  0.38621969820E+02  0.00000000000E+00 0. -1.
        -15    1    1    2    0    0  0.25094804117E+00 -0.35683742223E+01 -0.16918705841E+02  0.17383802974E+02  0.17770000000E+01 0.  1.
         15    1    1    2    0    0  0.88897196851E+01  0.23511820387E+01 -0.12640741730E+03  0.12675388771E+03  0.17770000000E+01 0. -1.
</event>
<event>
 6    1  0.1196607E-002  0.1833489E+03  0.7546771E-02  0.1067781E+00
        -11   -1    0    0    0    0  0.00000000000E+00  0.00000000000E+00  0.18250000000E+03  0.18250000000E+03  0.00000000000E+00 0. -1.
         11   -1    0    0    0    0 -0.00000000000E+00 -0.00000000000E+00 -0.18250000000E+03  0.18250000000E+03  0.00000000000E+00 0. -1.
        -11    1    1    2    0    0 -0.19474082080E+01  0.22224225497E+01  0.18162704364E+03  0.18165107911E+03  0.00000000000E+00 0. -1.
         11    1    1    2    0    0 -0.67515159896E+01 -0.29643626459E+01 -0.14624975862E+03  0.14643552271E+03  0.00000000000E+00 0. -1.
        -15    1    1    2    0    0  0.54707365478E+01  0.23649188153E+01 -0.25487967894E+02  0.26235777780E+02  0.17770000000E+01 0. -1.
         15    1    1    2    0    0  0.32281876499E+01 -0.16229787191E+01 -0.98893171226E+01  0.10677620408E+02  0.17770000000E+01 0.  1.
</event>
<event>
 6    1  0.1196607E-002  0.1847830E+03  0.7546771E-02  0.1066652E+00
        -11   -1    0    0    0    0  0.00000000000E+00  0.00000000000E+00  0.18250000000E+03  0.18250000000E+03  0.00000000000E+00 0. -1.
         11   -1    0    0    0    0 -0.00000000000E+00 -0.00000000000E+00 -0.18250000000E+03  0.18250000000E+03  0.00000000000E+00 0. -1.
        -11    1    1    2    0    0  0.40018561001E+01 -0.90809431344E-01  0.18017254086E+03  0.18021700136E+03  0.00000000000E+00 0. -1.
         11    1    1    2    0    0 -0.15656002165E+02 -0.75040955820E+00 -0.61089448866E+02  0.63068171695E+02  0.00000000000E+00 0. -1.
        -15    1    1    2    0    0  0.15708736789E+02  0.17372276442E+00 -0.48967900011E+02  0.51456851357E+02  0.17770000000E+01 0.  1.
         15    1    1    2    0    0 -0.40545907237E+01  0.66749622513E+00 -0.70115191987E+02  0.70257975586E+02  0.17770000000E+01 0. -1.
</event>
<event>
 6    1  0.1196607E-002  0.1851876E+03  0.7546771E-02  0.1066335E+00
        -11   -1    0    0    0    0  0.00000000000E+00  0.00000000000E+00  0.18250000000E+03  0.18250000000E+03  0.00000000000E+00 0. -1.
         11   -1    0    0    0    0 -0.00000000000E+00 -0.00000000000E+00 -0.18250000000E+03  0.18250000000E+03  0.00000000000E+00 0.  1.
        -11    1    1    2    0    0 -0.33638639187E+01  0.12626734058E+01  0.17977648426E+03  0.17981238616E+03  0.00000000000E+00 0. -1.
         11    1    1    2    0    0  0.27701696787E+01  0.10407389610E+00 -0.17553357635E+03  0.17555546445E+03  0.00000000000E+00 0.  1.
        -15    1    1    2    0    0 -0.16588045931E+01 -0.89780303662E+00 -0.57867660429E+01  0.63405104847E+01  0.17770000000E+01 0. -1.
         15    1    1    2    0    0  0.22524988331E+01 -0.46894426529E+00  0.15438581411E+01  0.32916389044E+01  0.17770000000E+01 0.  1.
</event>
<event>
 6    1  0.2646268E-002  0.1964843E+03  0.7546771E-02  0.1057838E+00
        -11   -1    0    0    0    0  0.00000000000E+00  0.00000000000E+00  0.18250000000E+03  0.18250000000E+03  0.00000000000E+00 0. -1.
         11   -1    0    0    0    0 -0.00000000000E+00 -0.00000000000E+00 -0.18250000000E+03  0.18250000000E+03  0.00000000000E+00 0.  1.
        -11    1    1    2    0    0 -0.33945887026E+01 -0.79723703276E+01  0.16829277955E+03  0.16851570126E+03  0.00000000000E+00 0. -1.
         11    1    1    2    0    0 -0.33518436255E+01 -0.13139676797E+01 -0.15053297408E+03  0.15057601951E+03  0.00000000000E+00 0.  1.
        -15    1    1    2    0    0  0.20436816139E+01  0.17049883401E+01 -0.30270942219E+02  0.30439633565E+02  0.17770000000E+01 0. -1.
         15    1    1    2    0    0  0.47027507142E+01  0.75813496672E+01  0.12511136743E+02  0.15468645663E+02  0.17770000000E+01 0.  1.
</event>
<event>
 6    1  0.1196607E-002  0.1893479E+03  0.7546771E-02  0.1063131E+00
        -11   -1    0    0    0    0  0.00000000000E+00  0.00000000000E+00  0.18250000000E+03  0.18250000000E+03  0.00000000000E+00 0.  1.
         11   -1    0    0    0    0 -0.00000000000E+00 -0.00000000000E+00 -0.18250000000E+03  0.18250000000E+03  0.00000000000E+00 0.  1.
        -11    1    1    2    0    0 -0.26879613190E+01 -0.21632985096E+01  0.14127984322E+03  0.14132196962E+03  0.00000000000E+00 0.  1.
         11    1    1    2    0    0 -0.16161889447E+01  0.57543631524E+01 -0.17555034331E+03  0.17565206460E+03  0.00000000000E+00 0.  1.
        -15    1    1    2    0    0  0.35242786612E+01  0.49872742787E+00  0.40294633799E+02  0.40490548417E+02  0.17770000000E+01 0. -1.
         15    1    1    2    0    0  0.77987160251E+00 -0.40897920707E+01 -0.60241337085E+01  0.75354173631E+01  0.17770000000E+01 0.  1.
</event>
<event>
 6    1  0.1196607E-002  0.1935689E+03  0.7546771E-02  0.1059970E+00
        -11   -1    0    0    0    0  0.00000000000E+00  0.00000000000E+00  0.18250000000E+03  0.18250000000E+03  0.00000000000E+00 0. -1.
         11   -1    0    0    0    0 -0.00000000000E+00 -0.00000000000E+00 -0.18250000000E+03  0.18250000000E+03  0.00000000000E+00 0.  1.
        -11    1    1    2    0    0 -0.71576827794E+00 -0.34453288784E+01  0.17139493601E+03  0.17143105525E+03  0.00000000000E+00 0. -1.
         11    1    1    2    0    0 -0.15435651934E+01  0.37952506030E+01 -0.16762395561E+03  0.16767402009E+03  0.00000000000E+00 0.  1.
        -15    1    1    2    0    0  0.24332401218E+01 -0.25481519843E+01 -0.14381459793E+02  0.14913009448E+02  0.17770000000E+01 0.  1.
         15    1    1    2    0    0 -0.17390665044E+00  0.21982302597E+01  0.10610479392E+02  0.10981915212E+02  0.17770000000E+01 0. -1.
</event>
<event>
 6    1  0.1196607E-002  0.1895955E+03  0.7546771E-02  0.1062943E+00
        -11   -1    0    0    0    0  0.00000000000E+00  0.00000000000E+00  0.18250000000E+03  0.18250000000E+03  0.00000000000E+00 0. -1.
         11   -1    0    0    0    0 -0.00000000000E+00 -0.00000000000E+00 -0.18250000000E+03  0.18250000000E+03  0.00000000000E+00 0. -1.
        -11    1    1    2    0    0  0.13383979603E+02 -0.33970426164E+01  0.17486010284E+03  0.17540446509E+03  0.00000000000E+00 0. -1.
         11    1    1    2    0    0 -0.24299971245E+01  0.79931696284E+00 -0.13978645893E+03  0.13980986337E+03  0.00000000000E+00 0. -1.
        -15    1    1    2    0    0 -0.41384375698E+01  0.34051651936E+01 -0.40478798387E+02  0.40870682199E+02  0.17770000000E+01 0.  1.
         15    1    1    2    0    0 -0.68155449088E+01 -0.80743954001E+00  0.54051544849E+01  0.89149893449E+01  0.17770000000E+01 0. -1.
</event>
<event>
 6    1  0.1196607E-002  0.1883946E+03  0.7546771E-02  0.1063857E+00
        -11   -1    0    0    0    0  0.00000000000E+00  0.00000000000E+00  0.18250000000E+03  0.18250000000E+03  0.00000000000E+00 0.  1.
         11   -1    0    0    0    0 -0.00000000000E+00 -0.00000000000E+00 -0.18250000000E+03  0.18250000000E+03  0.00000000000E+00 0.  1.
        -11    1    1    2    0    0  0.12184755202E+02  0.45362226375E+01  0.17612612469E+03  0.17660537188E+03  0.00000000000E+00 0.  1.
         11    1    1    2    0    0 -0.33830106313E+01 -0.58590842776E+00 -0.15066738746E+03  0.15070650183E+03  0.00000000000E+00 0.  1.
        -15    1    1    2    0    0  0.46244469007E+01  0.21604639441E+01 -0.21698714905E+02  0.22361687573E+02  0.17770000000E+01 0. -1.
         15    1    1    2    0    0 -0.13426191472E+02 -0.61107781538E+01 -0.37600223338E+01  0.15326438726E+02  0.17770000000E+01 0.  1.
</event>
<event>
 6    1  0.1196607E-002  0.1836477E+03  0.7546771E-02  0.1067545E+00
        -11   -1    0    0    0    0  0.00000000000E+00  0.00000000000E+00  0.18250000000E+03  0.18250000000E+03  0.00000000000E+00 0. -1.
         11   -1    0    0    0    0 -0.00000000000E+00 -0.00000000000E+00 -0.18250000000E+03  0.18250000000E+03  0.00000000000E+00 0.  1.
        -11    1    1    2    0    0  0.12889350213E+01 -0.93018687159E+00  0.33669254286E+01  0.37232765069E+01  0.00000000000E+00 0. -1.
         11    1    1    2    0    0 -0.50372374838E+01  0.17219302272E+01 -0.17921393938E+03  0.17929298612E+03  0.00000000000E+00 0.  1.
        -15    1    1    2    0    0 -0.70965060070E+01 -0.94208297874E+01  0.10044871362E+02  0.15593896276E+02  0.17770000000E+01 0.  1.
         15    1    1    2    0    0  0.10844808470E+02  0.86290864318E+01  0.16580214259E+03  0.16638984109E+03  0.17770000000E+01 0. -1.
</event>
<event>
 6    1  0.1196607E-002  0.1841448E+03  0.7546771E-02  0.1067153E+00
        -11   -1    0    0    0    0  0.00000000000E+00  0.00000000000E+00  0.18250000000E+03  0.18250000000E+03  0.00000000000E+00 0. -1.
         11   -1    0    0    0    0 -0.00000000000E+00 -0.00000000000E+00 -0.18250000000E+03  0.18250000000E+03  0.00000000000E+00 0.  1.
        -11    1    1    2    0    0  0.21875642797E+01 -0.41022755947E+01  0.16829791341E+03  0.16836211498E+03  0.00000000000E+00 0. -1.
         11    1    1    2    0    0  0.59216479649E+01  0.11906417099E+01 -0.18075431353E+03  0.18085520562E+03  0.00000000000E+00 0.  1.
        -15    1    1    2    0    0 -0.53418963312E+01  0.72207930111E+00  0.64310903316E+01  0.85775233478E+01  0.17770000000E+01 0.  1.
         15    1    1    2    0    0 -0.27673159134E+01  0.21895545837E+01  0.60253097854E+01  0.72051560462E+01  0.17770000000E+01 0.  1.
</event>
<event>
 6    1  0.1196607E-002  0.1863376E+03  0.7546771E-02  0.1065440E+00
        -11   -1    0    0    0    0  0.00000000000E+00  0.00000000000E+00  0.18250000000E+03  0.18250000000E+03  0.00000000000E+00 0. -1.
         11   -1    0    0    0    0 -0.00000000000E+00 -0.00000000000E+00 -0.18250000000E+03  0.18250000000E+03  0.00000000000E+00 0. -1.
        -11    1    1    2    0    0 -0.29713228060E+01 -0.26793364611E+00  0.17595200178E+03  0.17597729251E+03  0.00000000000E+00 0. -1.
         11    1    1    2    0    0  0.50621800270E+00 -0.28743976354E+01 -0.17863859362E+03  0.17866243463E+03  0.00000000000E+00 0. -1.
        -15    1    1    2    0    0  0.15281554491E+01  0.30419689566E+01 -0.26443325344E+01  0.46625162479E+01  0.17770000000E+01 0. -1.
         15    1    1    2    0    0  0.93694935420E+00  0.10036232486E+00  0.53309243749E+01  0.56977566094E+01  0.17770000000E+01 0. -1.
</event>
<event>
 6    1  0.1196607E-002  0.1895639E+03  0.7546771E-02  0.1062967E+00
        -11   -1    0    0    0    0  0.00000000000E+00  0.00000000000E+00  0.18250000000E+03  0.18250000000E+03  0.00000000000E+00 0.  1.
         11   -1    0    0    0    0 -0.00000000000E+00 -0.00000000000E+00 -0.18250000000E+03  0.18250000000E+03  0.00000000000E+00 0. -1.
        -11    1    1    2    0    0  0.11645596335E+01  0.35325714412E+01  0.17539668782E+03  0.17543612330E+03  0.00000000000E+00 0.  1.
         11    1    1    2    0    0 -0.38280364528E+01 -0.22164369602E+01 -0.16970933734E+03  0.16976697451E+03  0.00000000000E+00 0. -1.
        -15    1    1    2    0    0 -0.67342931127E+01 -0.22759332710E+01 -0.69535924435E+01  0.10101522304E+02  0.17770000000E+01 0.  1.
         15    1    1    2    0    0  0.93977699321E+01  0.95979879001E+00  0.12662419654E+01  0.96953798857E+01  0.17770000000E+01 0. -1.
</event>
<event>
 6    1  0.1196607E-002  0.1867101E+03  0.7546771E-02  0.1065152E+00
        -11   -1    0    0    0    0  0.00000000000E+00  0.00000000000E+00  0.18250000000E+03  0.18250000000E+03  0.00000000000E+00 0. -1.
         11   -1    0    0    0    0 -0.00000000000E+00 -0.00000000000E+00 -0.18250000000E+03  0.18250000000E+03  0.00000000000E+00 0.  1.
        -11    1    1    2    0    0 -0.15013762991E+02  0.19362628596E+01  0.49038865832E+02  0.51322242304E+02  0.00000000000E+00 0. -1.
         11    1    1    2    0    0  0.12324316485E+02  0.56493935071E+01 -0.17777366600E+03  0.17828987842E+03  0.00000000000E+00 0.  1.
        -15    1    1    2    0    0 -0.16585486154E+02 -0.77051754606E+01  0.92495442792E+02  0.94302771678E+02  0.17770000000E+01 0.  1.
         15    1    1    2    0    0  0.19274932661E+02  0.11951909389E+00  0.36239357379E+02  0.41085107596E+02  0.17770000000E+01 0. -1.
</event>
<event>
 6    1  0.1196607E-002  0.1879009E+03  0.7546771E-02  0.1064235E+00
        -11   -1    0    0    0    0  0.00000000000E+00  0.00000000000E+00  0.18250000000E+03  0.18250000000E+03  0.00000000000E+00 0.  1.
         11   -1    0    0    0    0 -0.00000000000E+00 -0.00000000000E+00 -0.18250000000E+03  0.18250000000E+03  0.00000000000E+00 0. -1.
        -11    1    1    2    0    0  0.19449027449E+01  0.13519253265E+01  0.17481360978E+03  0.17482965570E+03  0.00000000000E+00 0.  1.
         11    1    1    2    0    0 -0.29755049042E-01 -0.27958379030E+01 -0.17707703484E+03  0.17709910746E+03  0.00000000000E+00 0. -1.
        -15    1    1    2    0    0 -0.41308500628E+00 -0.73016502138E+00  0.70519046858E+01  0.73205784524E+01  0.17770000000E+01 0.  1.
         15    1    1    2    0    0 -0.15020626895E+01  0.21740775978E+01 -0.47884796246E+01  0.57506583831E+01  0.17770000000E+01 0. -1.
</event>
<event>
 6    1  0.1196607E-002  0.1864646E+03  0.7546771E-02  0.1065342E+00
        -11   -1    0    0    0    0  0.00000000000E+00  0.00000000000E+00  0.18250000000E+03  0.18250000000E+03  0.00000000000E+00 0.  1.
         11   -1    0    0    0    0 -0.00000000000E+00 -0.00000000000E+00 -0.18250000000E+03  0.18250000000E+03  0.00000000000E+00 0.  1.
        -11    1    1    2    0    0  0.43055053628E+01 -0.19690329476E+01  0.13087506230E+03  0.13096066737E+03  0.00000000000E+00 0.  1.
         11    1    1    2    0    0 -0.15006546754E+01 -0.31589085227E+01 -0.17850109400E+03  0.17853535007E+03  0.00000000000E+00 0.  1.
        -15    1    1    2    0    0 -0.94601933332E+01 -0.76375098260E+01  0.12630880033E+02  0.17621681919E+02  0.17770000000E+01 0. -1.
         15    1    1    2    0    0  0.66553426458E+01  0.12765451296E+02  0.34995151664E+02  0.37882300636E+02  0.17770000000E+01 0.  1.
</event>
<event>
 6    1  0.1196607E-002  0.1833408E+03  0.7546771E-02  0.1067787E+00
        -11   -1    0    0    0    0  0.00000000000E+00  0.00000000000E+00  0.18250000000E+03  0.18250000000E+03  0.00000000000E+00 0.  1.
         11   -1    0    0    0    0 -0.00000000000E+00 -0.00000000000E+00 -0.18250000000E+03  0.18250000000E+03  0.00000000000E+00 0. -1.
        -11    1    1    2    0    0  0.39503499886E+01  0.21789025120E+01  0.18160317078E+03  0.18165919883E+03  0.00000000000E+00 0.  1.
         11    1    1    2    0    0  0.13945818707E+00  0.17505546216E+01 -0.11107744122E+03  0.11109132207E+03  0.00000000000E+00 0. -1.
        -15    1    1    2    0    0 -0.71899515878E+01 -0.10507097870E+01 -0.17580641798E+02  0.19105917668E+02  0.17770000000E+01 0.  1.
         15    1    1    2    0    0  0.31001434122E+01 -0.28787473466E+01 -0.52945087761E+02  0.53143561439E+02  0.17770000000E+01 0. -1.
</event>
<event>
 6    1  0.1196607E-002  0.1917786E+03  0.7546771E-02  0.1061300E+00
        -11   -1    0    0    0    0  0.00000000000E+00  0.00000000000E+00  0.18250000000E+03  0.18250000000E+03  0.00000000000E+00 0.  1.
         11   -1    0    0    0    0 -0.00000000000E+00 -0.00000000000E+00 -0.18250000000E+03  0.18250000000E+03  0.00000000000E+00 0. -1.
        -11    1    1    2    0    0 -0.95878620928E+00  0.62291602216E+01  0.16272479956E+03  0.16284680562E+03  0.00000000000E+00 0.  1.
         11    1    1    2    0    0  0.75004163390E+01 -0.23646218116E+01 -0.17304275745E+03  0.17322137163E+03  0.00000000000E+00 0. -1.
        -15    1    1    2    0    0 -0.80072864043E+00 -0.44622061157E+01  0.18291943811E+02  0.18928956315E+02  0.17770000000E+01 0.  1.
         15    1    1    2    0    0 -0.57409014893E+01  0.59766770566E+00 -0.79739859181E+01  0.10002866440E+02  0.17770000000E+01 0. -1.
</event>
<event>
 6    1  0.1196607E-002  0.1860848E+03  0.7546771E-02  0.1065637E+00
        -11   -1    0    0    0    0  0.00000000000E+00  0.00000000000E+00  0.18250000000E+03  0.18250000000E+03  0.00000000000E+00 0.  1.
         11   -1    0    0    0    0 -0.00000000000E+00 -0.00000000000E+00 -0.18250000000E+03  0.18250000000E+03  0.00000000000E+00 0. -1.
        -11    1    1    2    0    0 -0.79087024827E+00 -0.23101856462E+01  0.17467870499E+03  0.17469577101E+03  0.00000000000E+00 0.  1.
         11    1    1    2    0    0  0.37628578129E+01 -0.16885527735E+01 -0.17886770090E+03  0.17891524456E+03  0.00000000000E+00 0. -1.
        -15    1    1    2    0    0 -0.37038027558E+01  0.40348129702E+01 -0.10100446402E+01  0.58460063063E+01  0.17770000000E+01 0. -1.
         15    1    1    2    0    0  0.73181519109E+00 -0.36074550426E-01  0.51990405516E+01  0.55429781259E+01  0.17770000000E+01 0. -1.
</event>
<event>
 6    1  0.1196607E-002  0.1862581E+03  0.7546771E-02  0.1065502E+00
        -11   -1    0    0    0    0  0.00000000000E+00  0.00000000000E+00  0.18250000000E+03  0.18250000000E+03  0.00000000000E+00 0. -1.
         11   -1    0    0    0    0 -0.00000000000E+00 -0.00000000000E+00 -0.18250000000E+03  0.18250000000E+03  0.00000000000E+00 0. -1.
        -11    1    1    2    0    0  0.15851406305E+00  0.33031690931E+01  0.17871132009E+03  0.17874191445E+03  0.00000000000E+00 0. -1.
         11    1    1    2    0    0 -0.27170020431E+01 -0.18504986995E+01 -0.17549695914E+03  0.17552774457E+03  0.00000000000E+00 0. -1.
        -15    1    1    2    0    0  0.46811099174E+01 -0.12116993999E+01 -0.51963753952E+01  0.73171751204E+01  0.17770000000E+01 0.  1.
         15    1    1    2    0    0 -0.21226219374E+01 -0.24097099366E+00  0.19820144451E+01  0.34131658573E+01  0.17770000000E+01 0. -1.
</event>
<event>
 6    1  0.1196607E-002  0.1832196E+03  0.7546771E-02  0.1067883E+00
        -11   -1    0    0    0    0  0.00000000000E+00  0.00000000000E+00  0.18250000000E+03  0.18250000000E+03  0.00000000000E+00 0. -1.
         11   -1    0    0    0    0 -0.00000000000E+00 -0.00000000000E+00 -0.18250000000E+03  0.18250000000E+03  0.00000000000E+00 0. -1.
        -11    1    1    2    0    0  0.82279446732E+00  0.22505060304E+01  0.13623608423E+03  0.13625715546E+03  0.00000000000E+00 0. -1.
         11    1    1    2    0    0 -0.31832308410E+01  0.11136931091E+01 -0.18174912619E+03  0.18178041187E+03  0.00000000000E+00 0. -1.
        -15    1    1    2    0    0  0.57686455600E+01 -0.23343784474E+01  0.17314003857E+02  0.18484021557E+02  0.17770000000E+01 0. -1.
         15    1    1    2    0    0 -0.34082091863E+01 -0.10298206921E+01  0.28199038105E+02  0.28478411114E+02  0.17770000000E+01 0. -1.
</event>
<event>
 6    1  0.1196607E-002  0.1903840E+03  0.7546771E-02  0.1062347E+00
        -11   -1    0    0    0    0  0.00000000000E+00  0.00000000000E+00  0.18250000000E+03  0.18250000000E+03  0.00000000000E+00 0. -1.
         11   -1    0    0    0    0 -0.00000000000E+00 -0.00000000000E+00 -0.18250000000E+03  0.18250000000E+03  0.00000000000E+00 0.  1.
        -11    1    1    2    0    0  0.90825285128E+00 -0.26697766619E+01  0.17459327630E+03  0.17461604955E+03  0.00000000000E+00 0. -1.
         11    1    1    2    0    0  0.14411624819E+01  0.18680896361E+01 -0.14706243413E+03  0.14708135926E+03  0.00000000000E+00 0.  1.
        -15    1    1    2    0    0 -0.95087160563E+01 -0.31778002555E+01 -0.32156075413E+02  0.33729586574E+02  0.17770000000E+01 0. -1.
         15    1    1    2    0    0  0.71593007231E+01  0.39794872814E+01  0.46252332450E+01  0.95730046191E+01  0.17770000000E+01 0.  1.
</event>
<event>
 6    1  0.1196607E-002  0.1833112E+03  0.7546771E-02  0.1067811E+00
        -11   -1    0    0    0    0  0.00000000000E+00  0.00000000000E+00  0.18250000000E+03  0.18250000000E+03  0.00000000000E+00 0.  1.
         11   -1    0    0    0    0 -0.00000000000E+00 -0.00000000000E+00 -0.18250000000E+03  0.18250000000E+03  0.00000000000E+00 0. -1.
        -11    1    1    2    0    0 -0.53161227487E+00  0.38933040131E+01  0.15670804568E+03  0.15675730289E+03  0.00000000000E+00 0.  1.
         11    1    1    2    0    0 -0.25747774643E+01  0.15299397699E+01 -0.18166410374E+03  0.18168879102E+03  0.00000000000E+00 0. -1.
        -15    1    1    2    0    0 -0.22815668579E+00  0.65810851660E+00  0.49380485216E+01  0.52940735256E+01  0.17770000000E+01 0. -1.
         15    1    1    2    0    0  0.33345464250E+01 -0.60813522996E+01  0.20018009538E+02  0.21259832561E+02  0.17770000000E+01 0. -1.
</event>
<event>
 6    1  0.1196607E-002  0.1845272E+03  0.7546771E-02  0.1066853E+00
        -11   -1    0    0    0    0  0.00000000000E+00  0.00000000000E+00  0.18250000000E+03  0.18250000000E+03  0.00000000000E+00 0. -1.
         11   -1    0    0    0    0 -0.00000000000E+00 -0.00000000000E+00 -0.18250000000E+03  0.18250000000E+03  0.00000000000E+00 0.  1.
        -11    1    1    2    0    0  0.73217341975E+01  0.36516203648E+01  0.47372577102E+02  0.48073934562E+02  0.00000000000E+00 0. -1.
         11    1    1    2    0    0 -0.34881837625E+01  0.19410052830E+02 -0.17939209867E+03  0.18047283076E+03  0.00000000000E+00 0.  1.
        -15    1    1    2    0    0 -0.46031465158E+01 -0.20260513108E+02  0.13133451204E+03  0.13297965684E+03  0.17770000000E+01 0. -1.
         15    1    1    2    0    0  0.76959608082E+00 -0.28011600872E+01  0.68500952819E+00  0.34735778407E+01  0.17770000000E+01 0.  1.
</event>
<event>
 6    1  0.1196607E-002  0.1833434E+03  0.7546771E-02  0.1067785E+00
        -11   -1    0    0    0    0  0.00000000000E+00  0.00000000000E+00  0.18250000000E+03  0.18250000000E+03  0.00000000000E+00 0.  1.
         11   -1    0    0    0    0 -0.00000000000E+00 -0.00000000000E+00 -0.18250000000E+03  0.18250000000E+03  0.00000000000E+00 0. -1.
        -11    1    1    2    0    0  0.23960239249E+01 -0.12090780409E+01  0.14013238506E+03  0.14015808269E+03  0.00000000000E+00 0.  1.
         11    1    1    2    0    0  0.17064860419E+01 -0.19629550791E+01 -0.18163801745E+03  0.18165663949E+03  0.00000000000E+00 0. -1.
        -15    1    1    2    0    0  0.43630847866E+00  0.21871952862E+01  0.34368433696E+02  0.34486535808E+02  0.17770000000E+01 0. -1.
         15    1    1    2    0    0 -0.45388184454E+01  0.98483783389E+00  0.71371986907E+01  0.86987420120E+01  0.17770000000E+01 0.  1.
</event>
<event>
 6    1  0.1196607E-002  0.1929012E+03  0.7546771E-02  0.1060464E+00
        -11   -1    0    0    0    0  0.00000000000E+00  0.00000000000E+00  0.18250000000E+03  0.18250000000E+03  0.00000000000E+00 0.  1.
         11   -1    0    0    0    0 -0.00000000000E+00 -0.00000000000E+00 -0.18250000000E+03  0.18250000000E+03  0.00000000000E+00 0. -1.
        -11    1    1    2    0    0 -0.51749593537E+01  0.41989996778E+01  0.15047602628E+03  0.15062352501E+03  0.00000000000E+00 0.  1.
         11    1    1    2    0    0 -0.12255171388E+01  0.81470148933E+01 -0.17190148421E+03  0.17209879726E+03  0.00000000000E+00 0. -1.
        -15    1    1    2    0    0  0.94623076628E+01 -0.48513546804E+01 -0.68762672035E+01  0.12787168889E+02  0.17770000000E+01 0. -1.
         15    1    1    2    0    0 -0.30618311703E+01 -0.74946598907E+01  0.28301725136E+02  0.29490508840E+02  0.17770000000E+01 0.  1.
</event>
<event>
 6    1  0.1196607E-002  0.1827514E+03  0.7546771E-02  0.1068255E+00
        -11   -1    0    0    0    0  0.00000000000E+00  0.00000000000E+00  0.18250000000E+03  0.18250000000E+03  0.00000000000E+00 0. -1.
         11   -1    0    0    0    0 -0.00000000000E+00 -0.00000000000E+00 -0.18250000000E+03  0.18250000000E+03  0.00000000000E+00 0. -1.
        -11    1    1    2    0    0  0.66503237652E+00  0.26141612417E+01  0.18222864624E+03  0.18224860937E+03  0.00000000000E+00 0. -1.
         11    1    1    2    0    0  0.22167287737E+00  0.48028785318E+00 -0.22272360053E+02  0.22278640839E+02  0.00000000000E+00 0. -1.
        -15    1    1    2    0    0 -0.15873950624E+01 -0.16797066529E+01 -0.15442284863E+03  0.15445036466E+03  0.17770000000E+01 0. -1.
         15    1    1    2    0    0  0.70068980848E+00 -0.14147424420E+01 -0.55334375601E+01  0.60223851269E+01  0.17770000000E+01 0.  1.
</event>
<event>
 6    1  0.1196607E-002  0.1834763E+03  0.7546771E-02  0.1067680E+00
        -11   -1    0    0    0    0  0.00000000000E+00  0.00000000000E+00  0.18250000000E+03  0.18250000000E+03  0.00000000000E+00 0. -1.
         11   -1    0    0    0    0 -0.00000000000E+00 -0.00000000000E+00 -0.18250000000E+03  0.18250000000E+03  0.00000000000E+00 0.  1.
        -11    1    1    2    0    0  0.30953719554E+01 -0.31790636089E+01  0.16013445921E+03  0.16019592005E+03  0.00000000000E+00 0. -1.
         11    1    1    2    0    0 -0.81759197622E+00  0.29377334698E+01 -0.18149813083E+03  0.18152374563E+03  0.00000000000E+00 0.  1.
        -15    1    1    2    0    0 -0.25518589704E+01  0.68008628219E+00  0.21182933519E+02  0.21420758694E+02  0.17770000000E+01 0.  1.
         15    1    1    2    0    0  0.27407899115E+00 -0.43875614310E+00  0.18073810187E+00  0.18595756258E+01  0.17770000000E+01 0. -1.
</event>
<event>
 6    1  0.1196607E-002  0.1843280E+03  0.7546771E-02  0.1067009E+00
        -11   -1    0    0    0    0  0.00000000000E+00  0.00000000000E+00  0.18250000000E+03  0.18250000000E+03  0.00000000000E+00 0. -1.
         11   -1    0    0    0    0 -0.00000000000E+00 -0.00000000000E+00 -0.18250000000E+03  0.18250000000E+03  0.00000000000E+00 0. -1.
        -11    1    1    2    0    0  0.12240775274E+01  0.23737870919E+01  0.12739006956E+03  0.12741806408E+03  0.00000000000E+00 0. -1.
         11    1    1    2    0    0  0.16357614378E+01  0.42912149441E+01 -0.18061358239E+03  0.18067195794E+03  0.00000000000E+00 0. -1.
        -15    1    1    2    0    0 -0.55185520882E+00 -0.40969422606E+01  0.10870953708E+01  0.46291452130E+01  0.17770000000E+01 0.  1.
         15    1    1    2    0    0 -0.23079837565E+01 -0.25680597754E+01  0.52136417466E+02  0.52280832771E+02  0.17770000000E+01 0. -1.
</event>
<event>
 6    1  0.1196607E-002  0.1826939E+03  0.7546771E-02  0.1068301E+00
        -11   -1    0    0    0    0  0.00000000000E+00  0.00000000000E+00  0.18250000000E+03  0.18250000000E+03  0.00000000000E+00 0.  1.
         11   -1    0    0    0    0 -0.00000000000E+00 -0.00000000000E+00 -0.18250000000E+03  0.18250000000E+03  0.00000000000E+00 0.  1.
        -11    1    1    2    0    0  0.25325510520E+01 -0.15904205730E+01  0.18228157283E+03  0.18230610260E+03  0.00000000000E+00 0.  1.
         11    1    1    2    0    0 -0.37023653321E+01 -0.57356614122E+00 -0.98529872039E+02  0.98601075913E+02  0.00000000000E+00 0.  1.
        -15    1    1    2    0    0  0.57302172298E+00  0.31181815467E+01 -0.21457675600E+02  0.21763294356E+02  0.17770000000E+01 0. -1.
         15    1    1    2    0    0  0.59679255708E+00 -0.95419483249E+00 -0.62294025189E+02  0.62329527131E+02  0.17770000000E+01 0.  1.
</event>
<event>
 6    1  0.1196607E-002  0.1845017E+03  0.7546771E-02  0.1066873E+00
        -11   -1    0    0    0    0  0.00000000000E+00  0.00000000000E+00  0.18250000000E+03  0.18250000000E+03  0.00000000000E+00 0. -1.
         11   -1    0    0    0    0 -0.00000000000E+00 -0.00000000000E+00 -0.18250000000E+03  0.18250000000E+03  0.00000000000E+00 0.  1.
        -11    1    1    2    0    0 -0.28905287819E+01 -0.37162544582E+01  0.18043688919E+03  0.18049830106E+03  0.00000000000E+00 0. -1.
         11    1    1    2    0    0 -0.68954258000E+01  0.53273475640E+01 -0.13991506956E+03  0.14018614133E+03  0.00000000000E+00 0.  1.
        -15    1    1    2    0    0  0.27436744136E+01 -0.11937099134E+01 -0.35024869671E+02  0.35197328266E+02  0.17770000000E+01 0.  1.
         15    1    1    2    0    0  0.70422801683E+01 -0.41738319244E+00 -0.54969499559E+01  0.91182293520E+01  0.17770000000E+01 0. -1.
</event>
<event>
 6    1  0.1196607E-002  0.1884218E+03  0.7546771E-02  0.1063836E+00
        -11   -1    0    0    0    0  0.00000000000E+00  0.00000000000E+00  0.18250000000E+03  0.18250000000E+03  0.00000000000E+00 0. -1.
         11   -1    0    0    0    0 -0.00000000000E+00 -0.00000000000E+00 -0.18250000000E+03  0.18250000000E+03  0.00000000000E+00 0.  1.
        -11    1    1    2    0    0 -0.28366715284E+01  0.14388873849E+02  0.17596813705E+03  0.17657823097E+03  0.00000000000E+00 0. -1.
         11    1    1    2    0    0  0.99311983531E+01  0.10260832396E+02 -0.34954761504E+02  0.37759088098E+02  0.00000000000E+00 0.  1.
        -15    1    1    2    0    0  0.29637022098E+01 -0.29575341148E+01  0.24795532553E+01  0.51803911218E+01  0.17770000000E+01 0. -1.
         15    1    1    2    0    0 -0.10058229035E+02 -0.21692172130E+02 -0.14349292880E+03  0.14548228981E+03  0.17770000000E+01 0.  1.
</event>
<event>
 6    1  0.1196607E-002  0.1998209E+03  0.7546771E-02  0.1055447E+00
        -11   -1    0    0    0    0  0.00000000000E+00  0.00000000000E+00  0.18250000000E+03  0.18250000000E+03  0.00000000000E+00 0. -1.
         11   -1    0    0    0    0 -0.00000000000E+00 -0.00000000000E+00 -0.18250000000E+03  0.18250000000E+03  0.00000000000E+00 0.  1.
        -11    1    1    2    0    0 -0.72598631740E+01 -0.13532512206E+02  0.15209622396E+03  0.15286953863E+03  0.00000000000E+00 0. -1.
         11    1    1    2    0    0  0.30987664977E+01 -0.88972600464E+00 -0.16514758985E+03  0.16517905557E+03  0.00000000000E+00 0.  1.
        -15    1    1    2    0    0  0.53796125969E+01  0.67251581691E+01  0.28354417043E+02  0.29686675107E+02  0.17770000000E+01 0.  1.
         15    1    1    2    0    0 -0.12185159205E+01  0.76970800414E+01 -0.15303051154E+02  0.17264730691E+02  0.17770000000E+01 0. -1.
</event>
<event>
 6    1  0.1196607E-002  0.1825916E+03  0.7546771E-02  0.1068382E+00
        -11   -1    0    0    0    0  0.00000000000E+00  0.00000000000E+00  0.18250000000E+03  0.18250000000E+03  0.00000000000E+00 0.  1.
         11   -1    0    0    0    0 -0.00000000000E+00 -0.00000000000E+00 -0.18250000000E+03  0.18250000000E+03  0.00000000000E+00 0. -1.
        -11    1    1    2    0    0  0.33169152011E+01  0.73018940186E+00  0.18237676746E+03  0.18240838909E+03  0.00000000000E+00 0.  1.
         11    1    1    2    0    0 -0.11319984954E+01 -0.58943444100E+00 -0.72067414743E+02  0.72078714759E+02  0.00000000000E+00 0. -1.
        -15    1    1    2    0    0 -0.31146023779E+01 -0.31089246084E+00 -0.95451497275E+02  0.95519335546E+02  0.17770000000E+01 0. -1.
         15    1    1    2    0    0  0.92968567216E+00  0.17013749998E+00 -0.14857855440E+02  0.14993560601E+02  0.17770000000E+01 0. -1.
</event>
<event>
 6    1  0.1196607E-002  0.1825415E+03  0.7546771E-02  0.1068422E+00
        -11   -1    0    0    0    0  0.00000000000E+00  0.00000000000E+00  0.18250000000E+03  0.18250000000E+03  0.00000000000E+00 0. -1.
         11   -1    0    0    0    0 -0.00000000000E+00 -0.00000000000E+00 -0.18250000000E+03  0.18250000000E+03  0.00000000000E+00 0.  1.
        -11    1    1    2    0    0 -0.82935179081E+00  0.27575602105E+01  0.18243577942E+03  0.18245850370E+03  0.00000000000E+00 0. -1.
         11    1    1    2    0    0 -0.31455886423E+00  0.39856451413E+00 -0.13393517272E+02  0.13403137911E+02  0.00000000000E+00 0.  1.
        -15    1    1    2    0    0  0.86550812494E+00 -0.74241416899E+00 -0.35875193101E+02  0.35937271629E+02  0.17770000000E+01 0. -1.
         15    1    1    2    0    0  0.27840253009E+00 -0.24137105556E+01 -0.13316706904E+03  0.13320108676E+03  0.17770000000E+01 0.  1.
</event>
<event>
 6    1  0.1267517E-002  0.1853231E+03  0.7546771E-02  0.1066230E+00
        -11   -1    0    0    0    0  0.00000000000E+00  0.00000000000E+00  0.18250000000E+03  0.18250000000E+03  0.00000000000E+00 0.  1.
         11   -1    0    0    0    0 -0.00000000000E+00 -0.00000000000E+00 -0.18250000000E+03  0.18250000000E+03  0.00000000000E+00 0.  1.
        -11    1    1    2    0    0  0.29206166328E+01 -0.57599750567E+00  0.15975211396E+03  0.15977984757E+03  0.00000000000E+00 0.  1.
         11    1    1    2    0    0  0.62932937760E+01  0.39434733061E+01 -0.17952334301E+03  0.17967689671E+03  0.00000000000E+00 0.  1.
        -15    1    1    2    0    0 -0.93838733371E+00  0.16584513797E+00  0.15130038882E+02  0.15263809517E+02  0.17770000000E+01 0.  1.
         15    1    1    2    0    0 -0.82755230751E+01 -0.35333209384E+01  0.46411901674E+01  0.10279446201E+02  0.17770000000E+01 0.  1.
</event>
<event>
 6    1  0.1196607E-002  0.1842855E+03  0.7546771E-02  0.1067042E+00
        -11   -1    0    0    0    0  0.00000000000E+00  0.00000000000E+00  0.18250000000E+03  0.18250000000E+03  0.00000000000E+00 0. -1.
         11   -1    0    0    0    0 -0.00000000000E+00 -0.00000000000E+00 -0.18250000000E+03  0.18250000000E+03  0.00000000000E+00 0. -1.
        -11    1    1    2    0    0  0.11481913034E+01  0.40482584120E+01  0.15606905268E+03  0.15612576964E+03  0.00000000000E+00 0. -1.
         11    1    1    2    0    0  0.27736935122E+01  0.34018751052E+01 -0.18066116160E+03  0.18071447491E+03  0.00000000000E+00 0. -1.
        -15    1    1    2    0    0 -0.25557436601E+01  0.84411680853E+00  0.14734697762E+02  0.15083547527E+02  0.17770000000E+01 0. -1.
         15    1    1    2    0    0 -0.13661411556E+01 -0.82942503258E+01  0.98574111579E+01  0.13076207931E+02  0.17770000000E+01 0.  1.
</event>
<event>
 6    1  0.1196607E-002  0.1832002E+03  0.7546771E-02  0.1067899E+00
        -11   -1    0    0    0    0  0.00000000000E+00  0.00000000000E+00  0.18250000000E+03  0.18250000000E+03  0.00000000000E+00 0.  1.
         11   -1    0    0    0    0 -0.00000000000E+00 -0.00000000000E+00 -0.18250000000E+03  0.18250000000E+03  0.00000000000E+00 0. -1.
        -11    1    1    2    0    0 -0.28284736624E+01  0.43413288155E+00  0.18177723400E+03  0.18179975670E+03  0.00000000000E+00 0.  1.
         11    1    1    2    0    0  0.27724696954E+01 -0.13570302891E+01 -0.12320278300E+03  0.12324144537E+03  0.00000000000E+00 0. -1.
        -15    1    1    2    0    0  0.14450976840E+01 -0.10572257419E+01 -0.17855117997E+01  0.30906010698E+01  0.17770000000E+01 0.  1.
         15    1    1    2    0    0 -0.13890937170E+01  0.19801231494E+01 -0.56788939204E+02  0.56868196859E+02  0.17770000000E+01 0. -1.
</event>
<event>
 6    1  0.1196607E-002  0.1837479E+03  0.7546771E-02  0.1067466E+00
        -11   -1    0    0    0    0  0.00000000000E+00  0.00000000000E+00  0.18250000000E+03  0.18250000000E+03  0.00000000000E+00 0. -1.
         11   -1    0    0    0    0 -0.00000000000E+00 -0.00000000000E+00 -0.18250000000E+03  0.18250000000E+03  0.00000000000E+00 0. -1.
        -11    1    1    2    0    0 -0.58444886059E+01 -0.93344666119E+00  0.18115541141E+03  0.18125206882E+03  0.00000000000E+00 0. -1.
         11    1    1    2    0    0 -0.30533552674E+01 -0.44431762903E+01 -0.93733044625E+02  0.93887956888E+02  0.00000000000E+00 0. -1.
        -15    1    1    2    0    0  0.79902513472E+01  0.69077604778E+01 -0.86531324767E+02  0.87191680602E+02  0.17770000000E+01 0. -1.
         15    1    1    2    0    0  0.90759252608E+00 -0.15311375263E+01 -0.89104201759E+00  0.26682936861E+01  0.17770000000E+01 0.  1.
</event>
<event>
 6    1  0.1196607E-002  0.1858997E+03  0.7546771E-02  0.1065780E+00
        -11   -1    0    0    0    0  0.00000000000E+00  0.00000000000E+00  0.18250000000E+03  0.18250000000E+03  0.00000000000E+00 0.  1.
         11   -1    0    0    0    0 -0.00000000000E+00 -0.00000000000E+00 -0.18250000000E+03  0.18250000000E+03  0.00000000000E+00 0.  1.
        -11    1    1    2    0    0  0.21938698645E+01  0.11869168537E+01  0.17908297251E+03  0.17910034304E+03  0.00000000000E+00 0.  1.
         11    1    1    2    0    0  0.27345212999E+01  0.24672784957E+00 -0.17451778423E+03  0.17453938093E+03  0.00000000000E+00 0.  1.
        -15    1    1    2    0    0 -0.58567476696E+01 -0.29243074904E+01 -0.54588899451E+01  0.87069096697E+01  0.17770000000E+01 0. -1.
         15    1    1    2    0    0  0.92835650514E+00  0.14906627871E+01  0.89370167089E+00  0.26533663565E+01  0.17770000000E+01 0.  1.
</event>
<event>
 6    1  0.1196607E-002  0.1880055E+03  0.7546771E-02  0.1064155E+00
        -11   -1    0    0    0    0  0.00000000000E+00  0.00000000000E+00  0.18250000000E+03  0.18250000000E+03  0.00000000000E+00 0. -1.
         11   -1    0    0    0    0 -0.00000000000E+00 -0.00000000000E+00 -0.18250000000E+03  0.18250000000E+03  0.00000000000E+00 0.  1.
        -11    1    1    2    0    0  0.35310347459E+00 -0.48635624532E+01  0.17692732911E+03  0.17699451604E+03  0.00000000000E+00 0. -1.
         11    1    1    2    0    0  0.63582667782E+01 -0.40106982936E+01 -0.16865492767E+03  0.16882238562E+03  0.00000000000E+00 0.  1.
        -15    1    1    2    0    0  0.20759979384E+01  0.45463704934E+01 -0.75158484488E+01  0.91991825185E+01  0.17770000000E+01 0.  1.
         15    1    1    2    0    0 -0.87873681912E+01  0.43278902534E+01 -0.75655298585E+00  0.99839158246E+01  0.17770000000E+01 0. -1.
</event>
<event>
 6    1  0.1196607E-002  0.1826595E+03  0.7546771E-02  0.1068328E+00
        -11   -1    0    0    0    0  0.00000000000E+00  0.00000000000E+00  0.18250000000E+03  0.18250000000E+03  0.00000000000E+00 0.  1.
         11   -1    0    0    0    0 -0.00000000000E+00 -0.00000000000E+00 -0.18250000000E+03  0.18250000000E+03  0.00000000000E+00 0.  1.
        -11    1    1    2    0    0 -0.74153706172E+00 -0.20240789883E+01  0.10796415657E+03  0.10798567441E+03  0.00000000000E+00 0.  1.
         11    1    1    2    0    0 -0.11401549791E+01  0.32264654810E+01 -0.18230834226E+03  0.18234045544E+03  0.00000000000E+00 0.  1.
        -15    1    1    2    0    0 -0.78007128746E-01  0.14835897902E+01  0.48594744696E+02  0.48649913308E+02  0.17770000000E+01 0.  1.
         15    1    1    2    0    0  0.19596991696E+01 -0.26859762828E+01  0.25749440994E+02  0.26023956846E+02  0.17770000000E+01 0. -1.
</event>
<event>
 6    1  0.1196607E-002  0.1859146E+03  0.7546771E-02  0.1065769E+00
        -11   -1    0    0    0    0  0.00000000000E+00  0.00000000000E+00  0.18250000000E+03  0.18250000000E+03  0.00000000000E+00 0. -1.
         11   -1    0    0    0    0 -0.00000000000E+00 -0.00000000000E+00 -0.18250000000E+03  0.18250000000E+03  0.00000000000E+00 0.  1.
        -11    1    1    2    0    0 -0.44986712832E+01  0.48731990553E+01  0.14188161696E+03  0.14203654228E+03  0.00000000000E+00 0. -1.
         11    1    1    2    0    0  0.51991832527E+01  0.69060252367E+01 -0.17887668391E+03  0.17908543419E+03  0.00000000000E+00 0.  1.
        -15    1    1    2    0    0  0.17206515898E+01 -0.10369924658E+01  0.31187328101E+02  0.31302446523E+02  0.17770000000E+01 0. -1.
         15    1    1    2    0    0 -0.24211635593E+01 -0.10742231826E+02  0.58077388531E+01  0.12575577012E+02  0.17770000000E+01 0.  1.
</event>
<event>
 6    1  0.1196607E-002  0.1829382E+03  0.7546771E-02  0.1068107E+00
        -11   -1    0    0    0    0  0.00000000000E+00  0.00000000000E+00  0.18250000000E+03  0.18250000000E+03  0.00000000000E+00 0. -1.
         11   -1    0    0    0    0 -0.00000000000E+00 -0.00000000000E+00 -0.18250000000E+03  0.18250000000E+03  0.00000000000E+00 0.  1.
        -11    1    1    2    0    0  0.18761372216E+01  0.56016680293E+01  0.18196593353E+03  0.18206180143E+03  0.00000000000E+00 0. -1.
         11    1    1    2    0    0  0.26708055286E+01 -0.41278702445E+01 -0.41983000328E+02  0.42269904560E+02  0.00000000000E+00 0.  1.
        -15    1    1    2    0    0 -0.38657334267E+01 -0.26786218561E+01 -0.18688523471E+02  0.19352972601E+02  0.17770000000E+01 0. -1.
         15    1    1    2    0    0 -0.68120932350E+00  0.12048240713E+01 -0.12129440973E+03  0.12131532141E+03  0.17770000000E+01 0.  1.
</event>
<event>
 6    1  0.1196607E-002  0.1782965E+03  0.7546771E-02  0.1071851E+00
        -11   -1    0    0    0    0  0.00000000000E+00  0.00000000000E+00  0.18250000000E+03  0.18250000000E+03  0.00000000000E+00 0. -1.
         11   -1    0    0    0    0 -0.00000000000E+00 -0.00000000000E+00 -0.18250000000E+03  0.18250000000E+03  0.00000000000E+00 0. -1.
        -11    1    1    2    0    0 -0.74376233032E+00  0.26014996317E+01  0.17832050386E+03  0.17834103028E+03  0.00000000000E+00 0. -1.
         11    1    1    2    0    0 -0.31671390335E+01  0.10701806509E+01 -0.17826092406E+03  0.17829226877E+03  0.00000000000E+00 0. -1.
        -15    1    1    2    0    0  0.27300371823E+01 -0.29374399273E+01  0.24237451718E+01  0.50113796505E+01  0.17770000000E+01 0.  1.
         15    1    1    2    0    0  0.11808641815E+01 -0.73424035532E+00 -0.24833249756E+01  0.33553213034E+01  0.17770000000E+01 0. -1.
</event>
<event>
 6    1  0.1196607E-002  0.1688472E+03  0.7546771E-02  0.1079874E+00
        -11   -1    0    0    0    0  0.00000000000E+00  0.00000000000E+00  0.18250000000E+03  0.18250000000E+03  0.00000000000E+00 0. -1.
         11   -1    0    0    0    0 -0.00000000000E+00 -0.00000000000E+00 -0.18250000000E+03  0.18250000000E+03  0.00000000000E+00 0. -1.
        -11    1    1    2    0    0 -0.57633142893E+01  0.44446045762E+01  0.16804280999E+03  0.16820034569E+03  0.00000000000E+00 0. -1.
         11    1    1    2    0    0  0.96179152126E+00  0.32920093040E+01 -0.16958556462E+03  0.16962024082E+03  0.00000000000E+00 0. -1.
        -15    1    1    2    0    0 -0.76323275541E+01  0.47959726461E+01 -0.10512330259E+01  0.92475184450E+01  0.17770000000E+01 0. -1.
         15    1    1    2    0    0  0.12433850322E+02 -0.12532586526E+02  0.25939876639E+01  0.17931895044E+02  0.17770000000E+01 0. -1.
</event>
<event>
 6    1  0.1196607E-002  0.1837875E+03  0.7546771E-02  0.1067435E+00
        -11   -1    0    0    0    0  0.00000000000E+00  0.00000000000E+00  0.18250000000E+03  0.18250000000E+03  0.00000000000E+00 0.  1.
         11   -1    0    0    0    0 -0.00000000000E+00 -0.00000000000E+00 -0.18250000000E+03  0.18250000000E+03  0.00000000000E+00 0. -1.
        -11    1    1    2    0    0 -0.10321366452E+01 -0.33373812049E+01  0.15134274778E+03  0.15138305957E+03  0.00000000000E+00 0.  1.
         11    1    1    2    0    0 -0.68230586550E+00 -0.34106319531E+01 -0.18117913400E+03  0.18121251764E+03  0.00000000000E+00 0. -1.
        -15    1    1    2    0    0  0.31228623738E+00  0.46886889451E+01  0.40938563739E+01  0.64806416139E+01  0.17770000000E+01 0.  1.
         15    1    1    2    0    0  0.14021562733E+01  0.20593242130E+01  0.25742529847E+02  0.25923781174E+02  0.17770000000E+01 0.  1.
</event>
<event>
 6    1  0.1229366E-002  0.1885574E+03  0.7546771E-02  0.1063733E+00
        -11   -1    0    0    0    0  0.00000000000E+00  0.00000000000E+00  0.18250000000E+03  0.18250000000E+03  0.00000000000E+00 0.  1.
         11   -1    0    0    0    0 -0.00000000000E+00 -0.00000000000E+00 -0.18250000000E+03  0.18250000000E+03  0.00000000000E+00 0.  1.
        -11    1    1    2    0    0 -0.47965561216E+01  0.54159708103E+01  0.17629418269E+03  0.17644256442E+03  0.00000000000E+00 0.  1.
         11    1    1    2    0    0  0.35618726647E+01 -0.13616271056E+02 -0.15716677047E+03  0.15779570182E+03  0.00000000000E+00 0.  1.
        -15    1    1    2    0    0 -0.22861398359E+01  0.12879547491E+02 -0.20600570330E+02  0.24467333444E+02  0.17770000000E+01 0. -1.
         15    1    1    2    0    0  0.35208232928E+01 -0.46792472450E+01  0.14731581095E+01  0.62944003094E+01  0.17770000000E+01 0.  1.
</event>
<event>
 6    1  0.1196607E-002  0.1864711E+03  0.7546771E-02  0.1065337E+00
        -11   -1    0    0    0    0  0.00000000000E+00  0.00000000000E+00  0.18250000000E+03  0.18250000000E+03  0.00000000000E+00 0.  1.
         11   -1    0    0    0    0 -0.00000000000E+00 -0.00000000000E+00 -0.18250000000E+03  0.18250000000E+03  0.00000000000E+00 0.  1.
        -11    1    1    2    0    0  0.12971589303E+01  0.17724611073E+01  0.14860008912E+03  0.14861632052E+03  0.00000000000E+00 0.  1.
         11    1    1    2    0    0  0.11017874060E+01 -0.39715841603E+01 -0.17848129917E+03  0.17852888161E+03  0.00000000000E+00 0.  1.
        -15    1    1    2    0    0 -0.60404242549E+01  0.36555421416E+01 -0.37834109008E+00  0.72904447402E+01  0.17770000000E+01 0. -1.
         15    1    1    2    0    0  0.36414779186E+01 -0.14564190887E+01  0.30259551139E+02  0.30564353128E+02  0.17770000000E+01 0.  1.
</event>
<event>
 6    1  0.1196607E-002  0.1908987E+03  0.7546771E-02  0.1061959E+00
        -11   -1    0    0    0    0  0.00000000000E+00  0.00000000000E+00  0.18250000000E+03  0.18250000000E+03  0.00000000000E+00 0. -1.
         11   -1    0    0    0    0 -0.00000000000E+00 -0.00000000000E+00 -0.18250000000E+03  0.18250000000E+03  0.00000000000E+00 0.  1.
        -11    1    1    2    0    0  0.12482377919E+01  0.29183667877E+01  0.17407235246E+03  0.17410128906E+03  0.00000000000E+00 0. -1.
         11    1    1    2    0    0 -0.18350306671E+01  0.53065950296E+01 -0.16764045738E+03  0.16773446348E+03  0.00000000000E+00 0.  1.
        -15    1    1    2    0    0  0.36150528408E+01 -0.74222128466E+01  0.59100553202E+01  0.10307489193E+02  0.17770000000E+01 0. -1.
         15    1    1    2    0    0 -0.30282599656E+01 -0.80274897068E+00 -0.12341950401E+02  0.12856758263E+02  0.17770000000E+01 0.  1.
</event>
<event>
 6    1  0.1196607E-002  0.1852160E+03  0.7546771E-02  0.1066313E+00
        -11   -1    0    0    0    0  0.00000000000E+00  0.00000000000E+00  0.18250000000E+03  0.18250000000E+03  0.00000000000E+00 0.  1.
         11   -1    0    0    0    0 -0.00000000000E+00 -0.00000000000E+00 -0.18250000000E+03  0.18250000000E+03  0.00000000000E+00 0.  1.
        -11    1    1    2    0    0  0.27167567801E+01  0.20812091147E+01  0.17975140735E+03  0.17978398328E+03  0.00000000000E+00 0.  1.
         11    1    1    2    0    0  0.91445095454E+01  0.57046404598E+01 -0.14748165576E+03  0.14787495990E+03  0.00000000000E+00 0.  1.
        -15    1    1    2    0    0 -0.13010846377E+00  0.15883752048E+01 -0.10925748194E+02  0.11183450568E+02  0.17770000000E+01 0. -1.
         15    1    1    2    0    0 -0.11731157862E+02 -0.93742247793E+01 -0.21344003395E+02  0.26157606254E+02  0.17770000000E+01 0.  1.
</event>
<event>
 6    1  0.1196607E-002  0.1850532E+03  0.7546771E-02  0.1066440E+00
        -11   -1    0    0    0    0  0.00000000000E+00  0.00000000000E+00  0.18250000000E+03  0.18250000000E+03  0.00000000000E+00 0. -1.
         11   -1    0    0    0    0 -0.00000000000E+00 -0.00000000000E+00 -0.18250000000E+03  0.18250000000E+03  0.00000000000E+00 0. -1.
        -11    1    1    2    0    0 -0.18670455170E+01 -0.28237547040E+01  0.17458459016E+03  0.17461740626E+03  0.00000000000E+00 0. -1.
         11    1    1    2    0    0 -0.14822836216E+01 -0.21076684456E+01 -0.17992835178E+03  0.17994680104E+03  0.00000000000E+00 0. -1.
        -15    1    1    2    0    0  0.47270929403E+01  0.36719897925E+01  0.45935041718E+01  0.77515757288E+01  0.17770000000E+01 0.  1.
         15    1    1    2    0    0 -0.13777638017E+01  0.12594333572E+01  0.75025745461E+00  0.26842169664E+01  0.17770000000E+01 0. -1.
</event>
<event>
 6    1  0.1196607E-002  0.1850103E+03  0.7546771E-02  0.1066474E+00
        -11   -1    0    0    0    0  0.00000000000E+00  0.00000000000E+00  0.18250000000E+03  0.18250000000E+03  0.00000000000E+00 0. -1.
         11   -1    0    0    0    0 -0.00000000000E+00 -0.00000000000E+00 -0.18250000000E+03  0.18250000000E+03  0.00000000000E+00 0.  1.
        -11    1    1    2    0    0  0.38071281938E+01  0.39517316635E+01  0.15508265564E+03  0.15517970385E+03  0.00000000000E+00 0. -1.
         11    1    1    2    0    0  0.50001185221E+01  0.43647983632E+01 -0.17986732628E+03  0.17998974335E+03  0.00000000000E+00 0.  1.
        -15    1    1    2    0    0 -0.71775068073E+00 -0.91360790297E+00 -0.52785853328E+00  0.21877406316E+01  0.17770000000E+01 0. -1.
         15    1    1    2    0    0 -0.80894960352E+01 -0.74029221238E+01  0.25312529175E+02  0.27642812163E+02  0.17770000000E+01 0.  1.
</event>
<event>
 6    1  0.1196607E-002  0.1857289E+03  0.7546771E-02  0.1065913E+00
        -11   -1    0    0    0    0  0.00000000000E+00  0.00000000000E+00  0.18250000000E+03  0.18250000000E+03  0.00000000000E+00 0. -1.
         11   -1    0    0    0    0 -0.00000000000E+00 -0.00000000000E+00 -0.18250000000E+03  0.18250000000E+03  0.00000000000E+00 0.  1.
        -11    1    1    2    0    0  0.77558686018E+01 -0.95768916720E+01  0.17884701127E+03  0.17927109023E+03  0.00000000000E+00 0. -1.
         11    1    1    2    0    0  0.37148143877E+01 -0.12558543069E+01 -0.58618354851E+02  0.58749370562E+02  0.00000000000E+00 0.  1.
        -15    1    1    2    0    0 -0.84201213849E+01 -0.90372250976E+01 -0.13599355182E+02  0.18457249848E+02  0.17770000000E+01 0. -1.
         15    1    1    2    0    0 -0.30505616046E+01  0.19869971077E+02 -0.10662930124E+03  0.10852228936E+03  0.17770000000E+01 0.  1.
</event>
<event>
 6    1  0.1196607E-002  0.1827124E+03  0.7546771E-02  0.1068286E+00
        -11   -1    0    0    0    0  0.00000000000E+00  0.00000000000E+00  0.18250000000E+03  0.18250000000E+03  0.00000000000E+00 0. -1.
         11   -1    0    0    0    0 -0.00000000000E+00 -0.00000000000E+00 -0.18250000000E+03  0.18250000000E+03  0.00000000000E+00 0. -1.
        -11    1    1    2    0    0 -0.36778553154E-02 -0.25680595258E+01  0.18226955109E+03  0.18228764137E+03  0.00000000000E+00 0. -1.
         11    1    1    2    0    0  0.94986886518E+00 -0.55727992637E+00 -0.56033890243E+02  0.56044711325E+02  0.00000000000E+00 0. -1.
        -15    1    1    2    0    0 -0.33233460077E+01  0.34281040147E+01 -0.33606452919E+02  0.33990409421E+02  0.17770000000E+01 0. -1.
         15    1    1    2    0    0  0.23771549979E+01 -0.30276456259E+00 -0.92629207924E+02  0.92677237885E+02  0.17770000000E+01 0.  1.
</event>
<event>
 6    1  0.1196607E-002  0.1684442E+03  0.7546771E-02  0.1080228E+00
        -11   -1    0    0    0    0  0.00000000000E+00  0.00000000000E+00  0.18250000000E+03  0.18250000000E+03  0.00000000000E+00 0.  1.
         11   -1    0    0    0    0 -0.00000000000E+00 -0.00000000000E+00 -0.18250000000E+03  0.18250000000E+03  0.00000000000E+00 0.  1.
        -11    1    1    2    0    0  0.88131995539E+01 -0.43683530252E+01  0.17074359623E+03  0.17102669572E+03  0.00000000000E+00 0.  1.
         11    1    1    2    0    0  0.11952763258E+02 -0.30676442069E+01 -0.16615661109E+03  0.16661422028E+03  0.00000000000E+00 0.  1.
        -15    1    1    2    0    0 -0.75167929680E+01 -0.35653879604E+01 -0.53151768524E+01  0.10031101724E+02  0.17770000000E+01 0.  1.
         15    1    1    2    0    0 -0.13249169844E+02  0.11001385193E+02  0.72819171320E+00  0.17327982279E+02  0.17770000000E+01 0. -1.
</event>
<event>
 6    1  0.1196607E-002  0.1843492E+03  0.7546771E-02  0.1066992E+00
        -11   -1    0    0    0    0  0.00000000000E+00  0.00000000000E+00  0.18250000000E+03  0.18250000000E+03  0.00000000000E+00 0.  1.
         11   -1    0    0    0    0 -0.00000000000E+00 -0.00000000000E+00 -0.18250000000E+03  0.18250000000E+03  0.00000000000E+00 0. -1.
        -11    1    1    2    0    0 -0.14636521679E+01  0.28359455118E+01  0.18062260223E+03  0.18065079380E+03  0.00000000000E+00 0.  1.
         11    1    1    2    0    0 -0.19102260477E+01 -0.28658662273E+01 -0.17808105554E+03  0.17811435791E+03  0.00000000000E+00 0. -1.
        -15    1    1    2    0    0  0.29254963217E+01  0.10658346361E+01 -0.15014512356E+01  0.38867231716E+01  0.17770000000E+01 0.  1.
         15    1    1    2    0    0  0.44838189381E+00 -0.10359139207E+01 -0.10400954603E+01  0.23481251117E+01  0.17770000000E+01 0. -1.
</event>
<event>
 6    1  0.1196607E-002  0.1836949E+03  0.7546771E-02  0.1067508E+00
        -11   -1    0    0    0    0  0.00000000000E+00  0.00000000000E+00  0.18250000000E+03  0.18250000000E+03  0.00000000000E+00 0. -1.
         11   -1    0    0    0    0 -0.00000000000E+00 -0.00000000000E+00 -0.18250000000E+03  0.18250000000E+03  0.00000000000E+00 0.  1.
        -11    1    1    2    0    0  0.26449122113E+01 -0.11400401009E+01  0.15885202157E+03  0.15887812942E+03  0.00000000000E+00 0. -1.
         11    1    1    2    0    0 -0.31476201862E+01 -0.33834470243E+00 -0.18127749435E+03  0.18130513492E+03  0.00000000000E+00 0.  1.
        -15    1    1    2    0    0  0.31928161014E+01 -0.16213001286E+01  0.33249443921E+01  0.51995839233E+01  0.17770000000E+01 0.  1.
         15    1    1    2    0    0 -0.26901081265E+01  0.30996849320E+01  0.19100528390E+02  0.19617151735E+02  0.17770000000E+01 0. -1.
</event>
<event>
 6    1  0.1196607E-002  0.1861076E+03  0.7546771E-02  0.1065619E+00
        -11   -1    0    0    0    0  0.00000000000E+00  0.00000000000E+00  0.18250000000E+03  0.18250000000E+03  0.00000000000E+00 0.  1.
         11   -1    0    0    0    0 -0.00000000000E+00 -0.00000000000E+00 -0.18250000000E+03  0.18250000000E+03  0.00000000000E+00 0.  1.
        -11    1    1    2    0    0 -0.61772329742E+01 -0.27203966988E+01  0.17876498052E+03  0.17889236157E+03  0.00000000000E+00 0.  1.
         11    1    1    2    0    0  0.35557710852E+01  0.91649639220E+00 -0.17576657855E+03  0.17580493056E+03  0.00000000000E+00 0.  1.
        -15    1    1    2    0    0  0.34660221353E+01  0.34358511123E+01 -0.48814847635E+01  0.71277629593E+01  0.17770000000E+01 0. -1.
         15    1    1    2    0    0 -0.84456024622E+00 -0.16319508057E+01  0.18830827875E+01  0.31749449170E+01  0.17770000000E+01 0.  1.
</event>
<event>
 6    1  0.1196607E-002  0.1901952E+03  0.7546771E-02  0.1062489E+00
        -11   -1    0    0    0    0  0.00000000000E+00  0.00000000000E+00  0.18250000000E+03  0.18250000000E+03  0.00000000000E+00 0. -1.
         11   -1    0    0    0    0 -0.00000000000E+00 -0.00000000000E+00 -0.18250000000E+03  0.18250000000E+03  0.00000000000E+00 0. -1.
        -11    1    1    2    0    0  0.56128467312E+01  0.80168479007E+01  0.17453060673E+03  0.17480476705E+03  0.00000000000E+00 0. -1.
         11    1    1    2    0    0  0.83282752586E+01 -0.63345641284E+01 -0.15031214543E+03  0.15067590363E+03  0.00000000000E+00 0. -1.
        -15    1    1    2    0    0 -0.40016190512E+01 -0.41832583698E+01 -0.27850509174E+02  0.28501249023E+02  0.17770000000E+01 0.  1.
         15    1    1    2    0    0 -0.99395029386E+01  0.25009745974E+01  0.36320478746E+01  0.11018080294E+02  0.17770000000E+01 0. -1.
</event>
<event>
 6    1  0.1196607E-002  0.1834809E+03  0.7546771E-02  0.1067677E+00
        -11   -1    0    0    0    0  0.00000000000E+00  0.00000000000E+00  0.18250000000E+03  0.18250000000E+03  0.00000000000E+00 0. -1.
         11   -1    0    0    0    0 -0.00000000000E+00 -0.00000000000E+00 -0.18250000000E+03  0.18250000000E+03  0.00000000000E+00 0.  1.
        -11    1    1    2    0    0 -0.28919692359E+01  0.36031448953E+00  0.18149568662E+03  0.18151908322E+03  0.00000000000E+00 0. -1.
         11    1    1    2    0    0 -0.12895123271E+00 -0.18499436618E+01 -0.12138629170E+03  0.12140045606E+03  0.00000000000E+00 0.  1.
        -15    1    1    2    0    0 -0.19746732385E+01  0.11365877358E+01 -0.53598336390E+02  0.53676163786E+02  0.17770000000E+01 0. -1.
         15    1    1    2    0    0  0.49955937071E+01  0.35304143646E+00 -0.65110585307E+01  0.84042969327E+01  0.17770000000E+01 0.  1.
</event>
<event>
 6    1  0.1196607E-002  0.1848637E+03  0.7546771E-02  0.1066589E+00
        -11   -1    0    0    0    0  0.00000000000E+00  0.00000000000E+00  0.18250000000E+03  0.18250000000E+03  0.00000000000E+00 0.  1.
         11   -1    0    0    0    0 -0.00000000000E+00 -0.00000000000E+00 -0.18250000000E+03  0.18250000000E+03  0.00000000000E+00 0.  1.
        -11    1    1    2    0    0  0.33665870539E+01  0.50469918332E+01  0.15445875281E+03  0.15457785208E+03  0.00000000000E+00 0.  1.
         11    1    1    2    0    0 -0.39661613222E+01  0.10099013768E+00 -0.18009263666E+03  0.18013633285E+03  0.00000000000E+00 0.  1.
        -15    1    1    2    0    0  0.63416416321E+01 -0.71878684046E+01  0.16452340512E+02  0.19123783833E+02  0.17770000000E+01 0.  1.
         15    1    1    2    0    0 -0.57420673638E+01  0.20398864337E+01  0.91815433389E+01  0.11162031238E+02  0.17770000000E+01 0. -1.
</event>
<event>
 6    1  0.1196607E-002  0.1988381E+03  0.7546771E-02  0.1056146E+00
        -11   -1    0    0    0    0  0.00000000000E+00  0.00000000000E+00  0.18250000000E+03  0.18250000000E+03  0.00000000000E+00 0.  1.
         11   -1    0    0    0    0 -0.00000000000E+00 -0.00000000000E+00 -0.18250000000E+03  0.18250000000E+03  0.00000000000E+00 0.  1.
        -11    1    1    2    0    0  0.87118265722E+01  0.11418266222E+02  0.16554004732E+03  0.16616190897E+03  0.00000000000E+00 0.  1.
         11    1    1    2    0    0 -0.16785308781E+01  0.62814260272E+00 -0.48785445788E+02  0.48818354640E+02  0.00000000000E+00 0.  1.
        -15    1    1    2    0    0  0.18751584199E+00 -0.10997570908E+01 -0.13074512784E+03  0.13076196240E+03  0.17770000000E+01 0.  1.
         15    1    1    2    0    0 -0.72208115361E+01 -0.10946651734E+02  0.13990526317E+02  0.19257773990E+02  0.17770000000E+01 0.  1.
</event>
<event>
 6    1  0.1196607E-002  0.1764798E+03  0.7546771E-02  0.1073351E+00
        -11   -1    0    0    0    0  0.00000000000E+00  0.00000000000E+00  0.18250000000E+03  0.18250000000E+03  0.00000000000E+00 0. -1.
         11   -1    0    0    0    0 -0.00000000000E+00 -0.00000000000E+00 -0.18250000000E+03  0.18250000000E+03  0.00000000000E+00 0. -1.
        -11    1    1    2    0    0 -0.44698667258E+01 -0.28897739795E-01  0.17508129234E+03  0.17513834380E+03  0.00000000000E+00 0. -1.
         11    1    1    2    0    0  0.12342289848E+01  0.42954017987E+01 -0.17781622300E+03  0.17787237829E+03  0.00000000000E+00 0. -1.
        -15    1    1    2    0    0  0.24739188716E+01 -0.58978207367E+01 -0.17280929919E+01  0.68591980883E+01  0.17770000000E+01 0.  1.
         15    1    1    2    0    0  0.76171886940E+00  0.16313166779E+01  0.44630236546E+01  0.51300798123E+01  0.17770000000E+01 0.  1.
</event>
<event>
 6    1  0.1196607E-002  0.1838472E+03  0.7546771E-02  0.1067387E+00
        -11   -1    0    0    0    0  0.00000000000E+00  0.00000000000E+00  0.18250000000E+03  0.18250000000E+03  0.00000000000E+00 0. -1.
         11   -1    0    0    0    0 -0.00000000000E+00 -0.00000000000E+00 -0.18250000000E+03  0.18250000000E+03  0.00000000000E+00 0. -1.
        -11    1    1    2    0    0  0.20937059819E+01  0.11038718188E+01  0.16559764830E+03  0.16561456234E+03  0.00000000000E+00 0. -1.
         11    1    1    2    0    0 -0.25701889062E+01  0.46840097654E+01 -0.18107401251E+03  0.18115281898E+03  0.00000000000E+00 0. -1.
        -15    1    1    2    0    0  0.12860817404E+01 -0.43903332739E+01  0.35253723404E+01  0.60427652311E+01  0.17770000000E+01 0.  1.
         15    1    1    2    0    0 -0.80959881614E+00 -0.13975483102E+01  0.11950991868E+02  0.12189853451E+02  0.17770000000E+01 0. -1.
</event>
<event>
 6    1  0.1196607E-002  0.1142639E+03  0.7546771E-02  0.1141207E+00
        -11   -1    0    0    0    0  0.00000000000E+00  0.00000000000E+00  0.18250000000E+03  0.18250000000E+03  0.00000000000E+00 0.  1.
         11   -1    0    0    0    0 -0.00000000000E+00 -0.00000000000E+00 -0.18250000000E+03  0.18250000000E+03  0.00000000000E+00 0.  1.
        -11    1    1    2    0    0 -0.98408333828E+00  0.29908410825E+01  0.51801230476E+02  0.51896830628E+02  0.00000000000E+00 0.  1.
         11    1    1    2    0    0 -0.16843196674E+01  0.78957746792E+00 -0.13525633948E+03  0.13526913075E+03  0.00000000000E+00 0.  1.
        -15    1    1    2    0    0 -0.67357078122E+01  0.67716397552E+02  0.73230389674E+00  0.68077707476E+02  0.17770000000E+01 0. -1.
         15    1    1    2    0    0  0.94041108179E+01 -0.71496816102E+02  0.82722805105E+02  0.10975633115E+03  0.17770000000E+01 0.  1.
</event>
<event>
 6    1  0.1196607E-002  0.1846421E+03  0.7546771E-02  0.1066762E+00
        -11   -1    0    0    0    0  0.00000000000E+00  0.00000000000E+00  0.18250000000E+03  0.18250000000E+03  0.00000000000E+00 0.  1.
         11   -1    0    0    0    0 -0.00000000000E+00 -0.00000000000E+00 -0.18250000000E+03  0.18250000000E+03  0.00000000000E+00 0.  1.
        -11    1    1    2    0    0  0.23509879482E+01  0.57777902843E+00  0.15432908888E+03  0.15434807627E+03  0.00000000000E+00 0.  1.
         11    1    1    2    0    0 -0.92231318423E+00 -0.82514772383E+01 -0.18016671614E+03  0.18035793064E+03  0.00000000000E+00 0.  1.
        -15    1    1    2    0    0 -0.53515438394E+00 -0.52385347022E+00  0.19864622930E+02  0.19958000547E+02  0.17770000000E+01 0. -1.
         15    1    1    2    0    0 -0.89352038001E+00  0.81975516801E+01  0.59730043330E+01  0.10335992549E+02  0.17770000000E+01 0.  1.
</event>
<event>
 6    1  0.1196607E-002  0.1879216E+03  0.7546771E-02  0.1064219E+00
        -11   -1    0    0    0    0  0.00000000000E+00  0.00000000000E+00  0.18250000000E+03  0.18250000000E+03  0.00000000000E+00 0.  1.
         11   -1    0    0    0    0 -0.00000000000E+00 -0.00000000000E+00 -0.18250000000E+03  0.18250000000E+03  0.00000000000E+00 0.  1.
        -11    1    1    2    0    0  0.14900407685E+01  0.22596660259E+01  0.17705771988E+03  0.17707840772E+03  0.00000000000E+00 0.  1.
         11    1    1    2    0    0  0.40234779783E+01 -0.26827108951E+01 -0.66044452457E+02  0.66221258015E+02  0.00000000000E+00 0.  1.
        -15    1    1    2    0    0 -0.20188596042E+02  0.36589033758E+01 -0.17662253665E+02  0.27130792793E+02  0.17770000000E+01 0.  1.
         15    1    1    2    0    0  0.14675077295E+02 -0.32358585067E+01 -0.93351013761E+02  0.94569541467E+02  0.17770000000E+01 0. -1.
</event>
<event>
 6    1  0.1196607E-002  0.1854584E+03  0.7546771E-02  0.1066124E+00
        -11   -1    0    0    0    0  0.00000000000E+00  0.00000000000E+00  0.18250000000E+03  0.18250000000E+03  0.00000000000E+00 0. -1.
         11   -1    0    0    0    0 -0.00000000000E+00 -0.00000000000E+00 -0.18250000000E+03  0.18250000000E+03  0.00000000000E+00 0.  1.
        -11    1    1    2    0    0  0.61928961529E+01  0.56893400227E+00  0.17943389960E+03  0.17954163855E+03  0.00000000000E+00 0. -1.
         11    1    1    2    0    0 -0.30509542406E+01 -0.93178668129E+00 -0.17571525054E+03  0.17574420565E+03  0.00000000000E+00 0.  1.
        -15    1    1    2    0    0  0.13845230327E+01 -0.56381817767E+00 -0.41391311547E+01  0.47460436873E+01  0.17770000000E+01 0.  1.
         15    1    1    2    0    0 -0.45264649450E+01  0.92667085669E+00  0.42048209811E+00  0.49681121133E+01  0.17770000000E+01 0. -1.
</event>
<event>
 6    1  0.1196607E-002  0.1889856E+03  0.7546771E-02  0.1063406E+00
        -11   -1    0    0    0    0  0.00000000000E+00  0.00000000000E+00  0.18250000000E+03  0.18250000000E+03  0.00000000000E+00 0.  1.
         11   -1    0    0    0    0 -0.00000000000E+00 -0.00000000000E+00 -0.18250000000E+03  0.18250000000E+03  0.00000000000E+00 0. -1.
        -11    1    1    2    0    0 -0.13573026758E+01 -0.10293159349E+02  0.17570789488E+03  0.17601436226E+03  0.00000000000E+00 0.  1.
         11    1    1    2    0    0 -0.17290762481E+00  0.40283715402E+01 -0.93577374937E+02  0.93664202203E+02  0.00000000000E+00 0. -1.
        -15    1    1    2    0    0 -0.72519555012E+01  0.70124685599E+01  0.22299806914E+01  0.10483134874E+02  0.17770000000E+01 0.  1.
         15    1    1    2    0    0  0.87821658018E+01 -0.74768075121E+00 -0.84360500634E+02  0.84838300660E+02  0.17770000000E+01 0. -1.
</event>
<event>
 6    1  0.1196607E-002  0.1839028E+03  0.7546771E-02  0.1067344E+00
        -11   -1    0    0    0    0  0.00000000000E+00  0.00000000000E+00  0.18250000000E+03  0.18250000000E+03  0.00000000000E+00 0. -1.
         11   -1    0    0    0    0 -0.00000000000E+00 -0.00000000000E+00 -0.18250000000E+03  0.18250000000E+03  0.00000000000E+00 0.  1.
        -11    1    1    2    0    0  0.12467729902E+02  0.33857494642E+01  0.18063582679E+03  0.18109723772E+03  0.00000000000E+00 0. -1.
         11    1    1    2    0    0 -0.31070817563E+01 -0.23195664583E+01 -0.13682922753E+03  0.13688415486E+03  0.00000000000E+00 0.  1.
        -15    1    1    2    0    0 -0.60786540643E+00  0.26966118224E+01 -0.29830702454E+02  0.30011160483E+02  0.17770000000E+01 0.  1.
         15    1    1    2    0    0 -0.87527827396E+01 -0.37627948282E+01 -0.13975896807E+02  0.17007446933E+02  0.17770000000E+01 0.  1.
</event>
<event>
 6    1  0.1196607E-002  0.1850865E+03  0.7546771E-02  0.1066414E+00
        -11   -1    0    0    0    0  0.00000000000E+00  0.00000000000E+00  0.18250000000E+03  0.18250000000E+03  0.00000000000E+00 0. -1.
         11   -1    0    0    0    0 -0.00000000000E+00 -0.00000000000E+00 -0.18250000000E+03  0.18250000000E+03  0.00000000000E+00 0.  1.
        -11    1    1    2    0    0 -0.41884720687E+01  0.22834078851E+01  0.15659845969E+03  0.15667110399E+03  0.00000000000E+00 0. -1.
         11    1    1    2    0    0 -0.25932256401E+01 -0.20198774503E+01 -0.17988343667E+03  0.17991346674E+03  0.00000000000E+00 0.  1.
        -15    1    1    2    0    0  0.47321986371E+01  0.31309699818E+01  0.14070492011E+01  0.61101713087E+01  0.17770000000E+01 0. -1.
         15    1    1    2    0    0  0.20494990717E+01 -0.33945004166E+01  0.21877927784E+02  0.22305257959E+02  0.17770000000E+01 0.  1.
</event>
<event>
 6    1  0.1196607E-002  0.1904501E+03  0.7546771E-02  0.1062297E+00
        -11   -1    0    0    0    0  0.00000000000E+00  0.00000000000E+00  0.18250000000E+03  0.18250000000E+03  0.00000000000E+00 0. -1.
         11   -1    0    0    0    0 -0.00000000000E+00 -0.00000000000E+00 -0.18250000000E+03  0.18250000000E+03  0.00000000000E+00 0.  1.
        -11    1    1    2    0    0  0.10764754619E+02 -0.98368415247E+01  0.15791450865E+03  0.15858636585E+03  0.00000000000E+00 0. -1.
         11    1    1    2    0    0  0.95811121029E-01  0.31883841185E+01 -0.17452078712E+03  0.17454993586E+03  0.00000000000E+00 0.  1.
        -15    1    1    2    0    0 -0.47332291240E+01 -0.29494028383E+01 -0.47884407325E+01  0.75623626396E+01  0.17770000000E+01 0. -1.
         15    1    1    2    0    0 -0.61273366157E+01  0.95978602445E+01  0.21394719204E+02  0.24301335645E+02  0.17770000000E+01 0.  1.
</event>
<event>
 6    1  0.1196607E-002  0.1459404E+03  0.7546771E-02  0.1101970E+00
        -11   -1    0    0    0    0  0.00000000000E+00  0.00000000000E+00  0.18250000000E+03  0.18250000000E+03  0.00000000000E+00 0. -1.
         11   -1    0    0    0    0 -0.00000000000E+00 -0.00000000000E+00 -0.18250000000E+03  0.18250000000E+03  0.00000000000E+00 0. -1.
        -11    1    1    2    0    0  0.37506893025E+00  0.34164129992E+01  0.16248383223E+03  0.16252017810E+03  0.00000000000E+00 0. -1.
         11    1    1    2    0    0  0.76504986894E+00  0.61435205160E+00 -0.41897385870E+02  0.41908873434E+02  0.00000000000E+00 0. -1.
        -15    1    1    2    0    0  0.24291898605E+02  0.38764647226E+01 -0.12996093483E+03  0.13228048090E+03  0.17770000000E+01 0. -1.
         15    1    1    2    0    0 -0.25432017404E+02 -0.79072297735E+01  0.93744884747E+01  0.28290467566E+02  0.17770000000E+01 0.  1.
</event>
<event>
 6    1  0.1196607E-002  0.1830126E+03  0.7546771E-02  0.1068048E+00
        -11   -1    0    0    0    0  0.00000000000E+00  0.00000000000E+00  0.18250000000E+03  0.18250000000E+03  0.00000000000E+00 0.  1.
         11   -1    0    0    0    0 -0.00000000000E+00 -0.00000000000E+00 -0.18250000000E+03  0.18250000000E+03  0.00000000000E+00 0. -1.
        -11    1    1    2    0    0  0.10540635963E+00 -0.87421436589E+00  0.32035219547E+02  0.32047318962E+02  0.00000000000E+00 0.  1.
         11    1    1    2    0    0 -0.67227718276E+01  0.29477460277E+01 -0.18183931464E+03  0.18198742049E+03  0.00000000000E+00 0. -1.
        -15    1    1    2    0    0  0.91428489092E+01  0.13686083017E+01  0.41161743622E+02  0.42224538385E+02  0.17770000000E+01 0. -1.
         15    1    1    2    0    0 -0.25254834413E+01 -0.34421399635E+01  0.10864235147E+03  0.10874072216E+03  0.17770000000E+01 0.  1.
</event>
<event>
 6    1  0.1196607E-002  0.1857244E+03  0.7546771E-02  0.1065917E+00
        -11   -1    0    0    0    0  0.00000000000E+00  0.00000000000E+00  0.18250000000E+03  0.18250000000E+03  0.00000000000E+00 0. -1.
         11   -1    0    0    0    0 -0.00000000000E+00 -0.00000000000E+00 -0.18250000000E+03  0.18250000000E+03  0.00000000000E+00 0.  1.
        -11    1    1    2    0    0  0.33312993884E+01  0.43792174740E+01  0.16078370721E+03  0.16087782820E+03  0.00000000000E+00 0. -1.
         11    1    1    2    0    0  0.69148321360E+01 -0.51225770975E+01 -0.17906893832E+03  0.17927559893E+03  0.00000000000E+00 0.  1.
        -15    1    1    2    0    0  0.25183357723E+01 -0.17497041157E+01  0.26124074780E+01  0.44029400843E+01  0.17770000000E+01 0. -1.
         15    1    1    2    0    0 -0.12764467297E+02  0.24930637392E+01  0.15672823630E+02  0.20443632792E+02  0.17770000000E+01 0.  1.
</event>
<event>
 6    1  0.1196607E-002  0.1835356E+03  0.7546771E-02  0.1067633E+00
        -11   -1    0    0    0    0  0.00000000000E+00  0.00000000000E+00  0.18250000000E+03  0.18250000000E+03  0.00000000000E+00 0. -1.
         11   -1    0    0    0    0 -0.00000000000E+00 -0.00000000000E+00 -0.18250000000E+03  0.18250000000E+03  0.00000000000E+00 0. -1.
        -11    1    1    2    0    0  0.83873764827E+01 -0.25482802185E+01  0.18125259479E+03  0.18146444537E+03  0.00000000000E+00 0. -1.
         11    1    1    2    0    0  0.24104662678E+01 -0.11540892706E+01 -0.12142743350E+03  0.12145683956E+03  0.00000000000E+00 0. -1.
        -15    1    1    2    0    0 -0.90257587147E+01  0.72897581778E+01 -0.36323869784E+02  0.38173107546E+02  0.17770000000E+01 0. -1.
         15    1    1    2    0    0 -0.17720840357E+01 -0.35873886886E+01 -0.23501291507E+02  0.23905607521E+02  0.17770000000E+01 0.  1.
</event>
<event>
 6    1  0.1196607E-002  0.1866588E+03  0.7546771E-02  0.1065192E+00
        -11   -1    0    0    0    0  0.00000000000E+00  0.00000000000E+00  0.18250000000E+03  0.18250000000E+03  0.00000000000E+00 0. -1.
         11   -1    0    0    0    0 -0.00000000000E+00 -0.00000000000E+00 -0.18250000000E+03  0.18250000000E+03  0.00000000000E+00 0. -1.
        -11    1    1    2    0    0  0.63735733252E+01 -0.10929126304E+00  0.14859081671E+03  0.14872748634E+03  0.00000000000E+00 0. -1.
         11    1    1    2    0    0 -0.67583306062E+01 -0.86423762342E+00 -0.17821100000E+03  0.17834119675E+03  0.00000000000E+00 0. -1.
        -15    1    1    2    0    0 -0.29551240676E+01  0.29544769812E+01 -0.27314303596E+01  0.52990690972E+01  0.17770000000E+01 0. -1.
         15    1    1    2    0    0  0.33398813486E+01 -0.19809480948E+01  0.32351613644E+02  0.32632247810E+02  0.17770000000E+01 0. -1.
</event>
<event>
 6    1  0.1196607E-002  0.1849680E+03  0.7546771E-02  0.1066507E+00
        -11   -1    0    0    0    0  0.00000000000E+00  0.00000000000E+00  0.18250000000E+03  0.18250000000E+03  0.00000000000E+00 0.  1.
         11   -1    0    0    0    0 -0.00000000000E+00 -0.00000000000E+00 -0.18250000000E+03  0.18250000000E+03  0.00000000000E+00 0.  1.
        -11    1    1    2    0    0  0.16256707276E+01  0.47586845707E+01  0.16686477338E+03  0.16694052977E+03  0.00000000000E+00 0.  1.
         11    1    1    2    0    0 -0.20789169054E+00 -0.33718059409E+01 -0.18000032865E+03  0.18003202662E+03  0.00000000000E+00 0.  1.
        -15    1    1    2    0    0  0.69303751252E+00 -0.20110152431E+01  0.14586936280E+02  0.14847926533E+02  0.17770000000E+01 0.  1.
         15    1    1    2    0    0 -0.21108165496E+01  0.62413661320E+00 -0.14513810137E+01  0.31795170805E+01  0.17770000000E+01 0. -1.
</event>
<event>
 6    1  0.1196607E-002  0.1838264E+03  0.7546771E-02  0.1067404E+00
        -11   -1    0    0    0    0  0.00000000000E+00  0.00000000000E+00  0.18250000000E+03  0.18250000000E+03  0.00000000000E+00 0.  1.
         11   -1    0    0    0    0 -0.00000000000E+00 -0.00000000000E+00 -0.18250000000E+03  0.18250000000E+03  0.00000000000E+00 0. -1.
        -11    1    1    2    0    0 -0.11644360562E+01 -0.44824866225E+00  0.39418615577E+02  0.39438358133E+02  0.00000000000E+00 0.  1.
         11    1    1    2    0    0 -0.37538963248E+01  0.70519033060E+01 -0.18099738429E+03  0.18117360237E+03  0.00000000000E+00 0. -1.
        -15    1    1    2    0    0  0.31618200668E+01 -0.55061490005E+01  0.64230968795E+01  0.92048186008E+01  0.17770000000E+01 0. -1.
         15    1    1    2    0    0  0.17565123142E+01 -0.10975056432E+01  0.13515567183E+03  0.13518322089E+03  0.17770000000E+01 0.  1.
</event>
<event>
 6    1  0.1196607E-002  0.1829913E+03  0.7546771E-02  0.1068064E+00
        -11   -1    0    0    0    0  0.00000000000E+00  0.00000000000E+00  0.18250000000E+03  0.18250000000E+03  0.00000000000E+00 0.  1.
         11   -1    0    0    0    0 -0.00000000000E+00 -0.00000000000E+00 -0.18250000000E+03  0.18250000000E+03  0.00000000000E+00 0. -1.
        -11    1    1    2    0    0 -0.32610998580E+01 -0.12768724699E+01  0.18197498909E+03  0.18200868614E+03  0.00000000000E+00 0.  1.
         11    1    1    2    0    0 -0.68931310299E+00 -0.12172919599E+01 -0.10138085237E+03  0.10139050340E+03  0.00000000000E+00 0. -1.
        -15    1    1    2    0    0 -0.60234129566E+00 -0.41323587132E+01 -0.27473563560E+02  0.27845890671E+02  0.17770000000E+01 0. -1.
         15    1    1    2    0    0  0.45527542567E+01  0.66265231430E+01 -0.53120573156E+02  0.53754919790E+02  0.17770000000E+01 0.  1.
</event>
<event>
 6    1  0.1196607E-002  0.1868385E+03  0.7546771E-02  0.1065053E+00
        -11   -1    0    0    0    0  0.00000000000E+00  0.00000000000E+00  0.18250000000E+03  0.18250000000E+03  0.00000000000E+00 0. -1.
         11   -1    0    0    0    0 -0.00000000000E+00 -0.00000000000E+00 -0.18250000000E+03  0.18250000000E+03  0.00000000000E+00 0. -1.
        -11    1    1    2    0    0  0.43788779097E+01 -0.24995808598E+01  0.17100261601E+03  0.17107693345E+03  0.00000000000E+00 0. -1.
         11    1    1    2    0    0 -0.55818157108E+01  0.34080495943E+00 -0.17807371055E+03  0.17816149753E+03  0.00000000000E+00 0. -1.
        -15    1    1    2    0    0  0.24800823235E+01 -0.27779358509E+01 -0.24623006446E+01  0.48050379174E+01  0.17770000000E+01 0. -1.
         15    1    1    2    0    0 -0.12771445225E+01  0.49367117513E+01  0.95333951778E+01  0.10956531096E+02  0.17770000000E+01 0.  1.
</event>
<event>
 6    1  0.1196607E-002  0.1881678E+03  0.7546771E-02  0.1064031E+00
        -11   -1    0    0    0    0  0.00000000000E+00  0.00000000000E+00  0.18250000000E+03  0.18250000000E+03  0.00000000000E+00 0.  1.
         11   -1    0    0    0    0 -0.00000000000E+00 -0.00000000000E+00 -0.18250000000E+03  0.18250000000E+03  0.00000000000E+00 0. -1.
        -11    1    1    2    0    0 -0.50281926330E+01  0.63513259621E+01  0.12477710751E+03  0.12503978815E+03  0.00000000000E+00 0.  1.
         11    1    1    2    0    0  0.24798632281E+02  0.14016242049E+02 -0.17452275952E+03  0.17683218258E+03  0.00000000000E+00 0. -1.
        -15    1    1    2    0    0 -0.16085842245E+02  0.27092308981E+00  0.12897687797E+02  0.20696275017E+02  0.17770000000E+01 0. -1.
         15    1    1    2    0    0 -0.36845974023E+01 -0.20638491101E+02  0.36847964217E+02  0.42431754252E+02  0.17770000000E+01 0.  1.
</event>
<event>
 6    1  0.1196607E-002  0.1856348E+03  0.7546771E-02  0.1065987E+00
        -11   -1    0    0    0    0  0.00000000000E+00  0.00000000000E+00  0.18250000000E+03  0.18250000000E+03  0.00000000000E+00 0. -1.
         11   -1    0    0    0    0 -0.00000000000E+00 -0.00000000000E+00 -0.18250000000E+03  0.18250000000E+03  0.00000000000E+00 0.  1.
        -11    1    1    2    0    0  0.42522359526E+00  0.64533152012E+01  0.81676883537E+02  0.81932529538E+02  0.00000000000E+00 0. -1.
         11    1    1    2    0    0 -0.90624821130E+01 -0.33623949230E+01 -0.17910460140E+03  0.17936524893E+03  0.00000000000E+00 0.  1.
        -15    1    1    2    0    0 -0.13327950189E+01  0.12796318760E+02  0.64238383271E+02  0.65538154770E+02  0.17770000000E+01 0.  1.
         15    1    1    2    0    0  0.99700535367E+01 -0.15887239038E+02  0.33189334593E+02  0.38164066758E+02  0.17770000000E+01 0. -1.
</event>
<event>
 6    1  0.1196607E-002  0.1830601E+03  0.7546771E-02  0.1068010E+00
        -11   -1    0    0    0    0  0.00000000000E+00  0.00000000000E+00  0.18250000000E+03  0.18250000000E+03  0.00000000000E+00 0. -1.
         11   -1    0    0    0    0 -0.00000000000E+00 -0.00000000000E+00 -0.18250000000E+03  0.18250000000E+03  0.00000000000E+00 0. -1.
        -11    1    1    2    0    0  0.12088554845E+01 -0.20936128645E+01  0.12954809556E+03  0.12957065104E+03  0.00000000000E+00 0. -1.
         11    1    1    2    0    0 -0.24186064827E+01 -0.19864700556E+01 -0.18191299637E+03  0.18193991857E+03  0.00000000000E+00 0. -1.
        -15    1    1    2    0    0 -0.51033114712E+00  0.16395608075E+01  0.25406761041E+01  0.35442011212E+01  0.17770000000E+01 0.  1.
         15    1    1    2    0    0  0.17200821453E+01  0.24405221126E+01  0.49824224703E+02  0.49945229272E+02  0.17770000000E+01 0. -1.
</event>
<event>
 6    1  0.1196607E-002  0.1958343E+03  0.7546771E-02  0.1058310E+00
        -11   -1    0    0    0    0  0.00000000000E+00  0.00000000000E+00  0.18250000000E+03  0.18250000000E+03  0.00000000000E+00 0.  1.
         11   -1    0    0    0    0 -0.00000000000E+00 -0.00000000000E+00 -0.18250000000E+03  0.18250000000E+03  0.00000000000E+00 0. -1.
        -11    1    1    2    0    0 -0.80288390209E+01 -0.35587996653E+01  0.16893763163E+03  0.16916574917E+03  0.00000000000E+00 0.  1.
         11    1    1    2    0    0 -0.11890852187E+02  0.67073939356E+01 -0.14312948368E+03  0.14377910349E+03  0.00000000000E+00 0. -1.
        -15    1    1    2    0    0  0.21143932320E+02 -0.73162842018E+01  0.31985946140E+01  0.22671184904E+02  0.17770000000E+01 0.  1.
         15    1    1    2    0    0 -0.12242411116E+01  0.41676899315E+01 -0.29006742561E+02  0.29383962440E+02  0.17770000000E+01 0. -1.
</event>
<event>
 6    1  0.1196607E-002  0.1904556E+03  0.7546771E-02  0.1062293E+00
        -11   -1    0    0    0    0  0.00000000000E+00  0.00000000000E+00  0.18250000000E+03  0.18250000000E+03  0.00000000000E+00 0. -1.
         11   -1    0    0    0    0 -0.00000000000E+00 -0.00000000000E+00 -0.18250000000E+03  0.18250000000E+03  0.00000000000E+00 0.  1.
        -11    1    1    2    0    0  0.11254799743E+01 -0.35896889648E+01  0.17450387540E+03  0.17454442158E+03  0.00000000000E+00 0. -1.
         11    1    1    2    0    0 -0.28754563657E+01  0.22086608651E+01 -0.12721069660E+03  0.12726235799E+03  0.00000000000E+00 0.  1.
        -15    1    1    2    0    0  0.24170554786E+01 -0.52208965056E+01 -0.53558414501E+02  0.53895838526E+02  0.17770000000E+01 0.  1.
         15    1    1    2    0    0 -0.66707908713E+00  0.66019246052E+01  0.62652356969E+01  0.92973819078E+01  0.17770000000E+01 0.  1.
</event>
<event>
 6    1  0.1196607E-002  0.1966611E+03  0.7546771E-02  0.1057710E+00
        -11   -1    0    0    0    0  0.00000000000E+00  0.00000000000E+00  0.18250000000E+03  0.18250000000E+03  0.00000000000E+00 0. -1.
         11   -1    0    0    0    0 -0.00000000000E+00 -0.00000000000E+00 -0.18250000000E+03  0.18250000000E+03  0.00000000000E+00 0.  1.
        -11    1    1    2    0    0  0.16531843300E+01  0.48604901967E+01  0.13634733298E+03  0.13644395404E+03  0.00000000000E+00 0. -1.
         11    1    1    2    0    0  0.83333211935E+01  0.24670001390E+00 -0.16813237283E+03  0.16833894349E+03  0.00000000000E+00 0.  1.
        -15    1    1    2    0    0 -0.11520223992E+02 -0.73818138798E+00 -0.11651841763E+02  0.16497988303E+02  0.17770000000E+01 0. -1.
         15    1    1    2    0    0  0.15337184688E+01 -0.43690088226E+01  0.43436881608E+02  0.43719114164E+02  0.17770000000E+01 0.  1.
</event>
<event>
 6    1  0.1196607E-002  0.1826864E+03  0.7546771E-02  0.1068307E+00
        -11   -1    0    0    0    0  0.00000000000E+00  0.00000000000E+00  0.18250000000E+03  0.18250000000E+03  0.00000000000E+00 0.  1.
         11   -1    0    0    0    0 -0.00000000000E+00 -0.00000000000E+00 -0.18250000000E+03  0.18250000000E+03  0.00000000000E+00 0. -1.
        -11    1    1    2    0    0  0.59629764059E+00 -0.11024173148E+01  0.65574626613E+02  0.65586603435E+02  0.00000000000E+00 0.  1.
         11    1    1    2    0    0  0.23022369497E+01 -0.23545884397E+01 -0.18228384961E+03  0.18231359305E+03  0.00000000000E+00 0. -1.
        -15    1    1    2    0    0 -0.34693604214E+00  0.18168661445E+01  0.97167825496E+01  0.10049624835E+02  0.17770000000E+01 0. -1.
         15    1    1    2    0    0 -0.25515985482E+01  0.16401396101E+01  0.10699244045E+03  0.10705017868E+03  0.17770000000E+01 0.  1.
</event>
<event>
 6    1  0.1196607E-002  0.1867474E+03  0.7546771E-02  0.1065123E+00
        -11   -1    0    0    0    0  0.00000000000E+00  0.00000000000E+00  0.18250000000E+03  0.18250000000E+03  0.00000000000E+00 0. -1.
         11   -1    0    0    0    0 -0.00000000000E+00 -0.00000000000E+00 -0.18250000000E+03  0.18250000000E+03  0.00000000000E+00 0.  1.
        -11    1    1    2    0    0 -0.24714881242E+01  0.23521417129E+01  0.17821991611E+03  0.17825257171E+03  0.00000000000E+00 0. -1.
         11    1    1    2    0    0  0.20044099221E+01  0.40511520542E+01 -0.92696824674E+02  0.92806954464E+02  0.00000000000E+00 0.  1.
        -15    1    1    2    0    0 -0.11897403855E+02  0.38176284667E+01 -0.71359472429E+02  0.72466920315E+02  0.17770000000E+01 0.  1.
         15    1    1    2    0    0  0.12364482057E+02 -0.10220922234E+02 -0.14163619008E+02  0.21473553508E+02  0.17770000000E+01 0. -1.
</event>
<event>
 6    1  0.1196607E-002  0.1842185E+03  0.7546771E-02  0.1067095E+00
        -11   -1    0    0    0    0  0.00000000000E+00  0.00000000000E+00  0.18250000000E+03  0.18250000000E+03  0.00000000000E+00 0. -1.
         11   -1    0    0    0    0 -0.00000000000E+00 -0.00000000000E+00 -0.18250000000E+03  0.18250000000E+03  0.00000000000E+00 0. -1.
        -11    1    1    2    0    0 -0.25392562202E+01  0.13752797907E+01  0.18075839002E+03  0.18078145585E+03  0.00000000000E+00 0. -1.
         11    1    1    2    0    0  0.25393821288E+01 -0.40766207568E+01 -0.14392183509E+03  0.14400195107E+03  0.00000000000E+00 0. -1.
        -15    1    1    2    0    0  0.14237489317E+01 -0.24685516472E+01 -0.44327963480E+00  0.33874819689E+01  0.17770000000E+01 0.  1.
         15    1    1    2    0    0 -0.14238748403E+01  0.51698926133E+01 -0.36393275298E+02  0.36829111110E+02  0.17770000000E+01 0. -1.
</event>
<event>
 6    1  0.1196607E-002  0.1878244E+03  0.7546771E-02  0.1064294E+00
        -11   -1    0    0    0    0  0.00000000000E+00  0.00000000000E+00  0.18250000000E+03  0.18250000000E+03  0.00000000000E+00 0.  1.
         11   -1    0    0    0    0 -0.00000000000E+00 -0.00000000000E+00 -0.18250000000E+03  0.18250000000E+03  0.00000000000E+00 0.  1.
        -11    1    1    2    0    0 -0.30424745133E+01 -0.17247096214E+00  0.17714939506E+03  0.17717560376E+03  0.00000000000E+00 0.  1.
         11    1    1    2    0    0 -0.37130703736E+01  0.12756537279E+01 -0.17018466914E+03  0.17022994975E+03  0.00000000000E+00 0.  1.
        -15    1    1    2    0    0  0.47763033101E+01 -0.51519207005E+01  0.19007901631E+01  0.74917349432E+01  0.17770000000E+01 0.  1.
         15    1    1    2    0    0  0.19792415768E+01  0.40487379347E+01 -0.88655160862E+01  0.10102711545E+02  0.17770000000E+01 0. -1.
</event>
<event>
 6    1  0.1196607E-002  0.1701698E+03  0.7546771E-02  0.1078717E+00
        -11   -1    0    0    0    0  0.00000000000E+00  0.00000000000E+00  0.18250000000E+03  0.18250000000E+03  0.00000000000E+00 0. -1.
         11   -1    0    0    0    0 -0.00000000000E+00 -0.00000000000E+00 -0.18250000000E+03  0.18250000000E+03  0.00000000000E+00 0.  1.
        -11    1    1    2    0    0  0.92264819777E+00 -0.37299456609E+01  0.16641860168E+03  0.16646295311E+03  0.00000000000E+00 0. -1.
         11    1    1    2    0    0 -0.50526445880E+01 -0.12533172632E+02 -0.17384652363E+03  0.17437093626E+03  0.00000000000E+00 0.  1.
        -15    1    1    2    0    0  0.24337801337E+01 -0.13852528332E+01  0.52570533768E+01  0.62158306249E+01  0.17770000000E+01 0.  1.
         15    1    1    2    0    0  0.16962162565E+01  0.17648371126E+02  0.21708685716E+01  0.17950280008E+02  0.17770000000E+01 0.  1.
</event>
<event>
 6    1  0.1196607E-002  0.1833249E+03  0.7546771E-02  0.1067800E+00
        -11   -1    0    0    0    0  0.00000000000E+00  0.00000000000E+00  0.18250000000E+03  0.18250000000E+03  0.00000000000E+00 0.  1.
         11   -1    0    0    0    0 -0.00000000000E+00 -0.00000000000E+00 -0.18250000000E+03  0.18250000000E+03  0.00000000000E+00 0.  1.
        -11    1    1    2    0    0  0.23147224692E+01  0.30076428101E+01  0.18163546231E+03  0.18167510844E+03  0.00000000000E+00 0.  1.
         11    1    1    2    0    0 -0.10101378873E+01 -0.45892646256E+01 -0.10885342470E+03  0.10895480621E+03  0.00000000000E+00 0.  1.
        -15    1    1    2    0    0 -0.26170290853E+01  0.79367300005E+01 -0.39089456668E+02  0.40012296559E+02  0.17770000000E+01 0.  1.
         15    1    1    2    0    0  0.13124445034E+01 -0.63551081850E+01 -0.33692580949E+02  0.34357788791E+02  0.17770000000E+01 0. -1.
</event>
<event>
 6    1  0.1196607E-002  0.1837860E+03  0.7546771E-02  0.1067436E+00
        -11   -1    0    0    0    0  0.00000000000E+00  0.00000000000E+00  0.18250000000E+03  0.18250000000E+03  0.00000000000E+00 0.  1.
         11   -1    0    0    0    0 -0.00000000000E+00 -0.00000000000E+00 -0.18250000000E+03  0.18250000000E+03  0.00000000000E+00 0.  1.
        -11    1    1    2    0    0 -0.11359642848E+01 -0.16385377249E+01  0.14287486450E+03  0.14288877537E+03  0.00000000000E+00 0.  1.
         11    1    1    2    0    0  0.18421808392E+01 -0.47369160473E+01 -0.18114274679E+03  0.18121403565E+03  0.00000000000E+00 0.  1.
        -15    1    1    2    0    0  0.47596580578E+01  0.49956591031E+01  0.29319580872E+02  0.30172943280E+02  0.17770000000E+01 0.  1.
         15    1    1    2    0    0 -0.54658746122E+01  0.13797946691E+01  0.89483014155E+01  0.10724245700E+02  0.17770000000E+01 0. -1.
</event>
<event>
 6    1  0.1196607E-002  0.1832386E+03  0.7546771E-02  0.1067868E+00
        -11   -1    0    0    0    0  0.00000000000E+00  0.00000000000E+00  0.18250000000E+03  0.18250000000E+03  0.00000000000E+00 0. -1.
         11   -1    0    0    0    0 -0.00000000000E+00 -0.00000000000E+00 -0.18250000000E+03  0.18250000000E+03  0.00000000000E+00 0.  1.
        -11    1    1    2    0    0 -0.59278633190E+00  0.35020511544E+01  0.18172666808E+03  0.18176137557E+03  0.00000000000E+00 0. -1.
         11    1    1    2    0    0 -0.27246637572E+01 -0.65708072829E+00 -0.16858572688E+03  0.16860902365E+03  0.00000000000E+00 0.  1.
        -15    1    1    2    0    0  0.33748212846E+01 -0.22420256961E+01 -0.10455129465E+02  0.11352689508E+02  0.17770000000E+01 0.  1.
         15    1    1    2    0    0 -0.57371195529E-01 -0.60294473006E+00 -0.26858117341E+01  0.32769112701E+01  0.17770000000E+01 0. -1.
</event>
<event>
 6    1  0.1196607E-002  0.1832639E+03  0.7546771E-02  0.1067848E+00
        -11   -1    0    0    0    0  0.00000000000E+00  0.00000000000E+00  0.18250000000E+03  0.18250000000E+03  0.00000000000E+00 0.  1.
         11   -1    0    0    0    0 -0.00000000000E+00 -0.00000000000E+00 -0.18250000000E+03  0.18250000000E+03  0.00000000000E+00 0.  1.
        -11    1    1    2    0    0  0.15392520391E+01  0.29303074792E+01  0.18170592805E+03  0.18173607316E+03  0.00000000000E+00 0.  1.
         11    1    1    2    0    0  0.19264260351E+01  0.25131793741E+01 -0.15611350988E+03  0.15614562163E+03  0.00000000000E+00 0.  1.
        -15    1    1    2    0    0 -0.30823606066E+01 -0.43939747215E+01 -0.10923291770E+02  0.12299755804E+02  0.17770000000E+01 0. -1.
         15    1    1    2    0    0 -0.38331746756E+00 -0.10495121317E+01 -0.14669126401E+02  0.14818549401E+02  0.17770000000E+01 0. -1.
</event>
<event>
 6    1  0.1196607E-002  0.1837646E+03  0.7546771E-02  0.1067453E+00
        -11   -1    0    0    0    0  0.00000000000E+00  0.00000000000E+00  0.18250000000E+03  0.18250000000E+03  0.00000000000E+00 0.  1.
         11   -1    0    0    0    0 -0.00000000000E+00 -0.00000000000E+00 -0.18250000000E+03  0.18250000000E+03  0.00000000000E+00 0.  1.
        -11    1    1    2    0    0 -0.25365237612E+01 -0.50111173150E+00  0.17447373315E+03  0.17449288990E+03  0.00000000000E+00 0.  1.
         11    1    1    2    0    0  0.15162269307E+01 -0.23706109377E+01 -0.18121353317E+03  0.18123538105E+03  0.00000000000E+00 0.  1.
        -15    1    1    2    0    0 -0.32445821682E+00 -0.41876151605E+00  0.58307877533E+00  0.19437963371E+01  0.17770000000E+01 0.  1.
         15    1    1    2    0    0  0.13447550473E+01  0.32904841852E+01  0.61567212438E+01  0.73279327087E+01  0.17770000000E+01 0. -1.
</event>
<event>
 6    1  0.1196607E-002  0.1854931E+03  0.7546771E-02  0.1066097E+00
        -11   -1    0    0    0    0  0.00000000000E+00  0.00000000000E+00  0.18250000000E+03  0.18250000000E+03  0.00000000000E+00 0.  1.
         11   -1    0    0    0    0 -0.00000000000E+00 -0.00000000000E+00 -0.18250000000E+03  0.18250000000E+03  0.00000000000E+00 0.  1.
        -11    1    1    2    0    0  0.23760966157E+01 -0.29286673026E+01  0.17683246744E+03  0.17687267869E+03  0.00000000000E+00 0.  1.
         11    1    1    2    0    0  0.10279256882E+01  0.45705810813E+01 -0.17944572622E+03  0.17950686756E+03  0.00000000000E+00 0.  1.
        -15    1    1    2    0    0 -0.90459495287E-01 -0.35644998713E+01  0.14574403132E+01  0.42421343118E+01  0.17770000000E+01 0.  1.
         15    1    1    2    0    0 -0.33135628086E+01  0.19225860926E+01  0.11558184695E+01  0.43783194384E+01  0.17770000000E+01 0. -1.
</event>
<event>
 6    1  0.1196607E-002  0.1756205E+03  0.7546771E-02  0.1074067E+00
        -11   -1    0    0    0    0  0.00000000000E+00  0.00000000000E+00  0.18250000000E+03  0.18250000000E+03  0.00000000000E+00 0. -1.
         11   -1    0    0    0    0 -0.00000000000E+00 -0.00000000000E+00 -0.18250000000E+03  0.18250000000E+03  0.00000000000E+00 0.  1.
        -11    1    1    2    0    0 -0.36860355517E+01 -0.16092432028E+01  0.17803078707E+03  0.17807621309E+03  0.00000000000E+00 0. -1.
         11    1    1    2    0    0  0.97481920791E+00 -0.73262462027E+01 -0.17316497659E+03  0.17332262770E+03  0.00000000000E+00 0.  1.
        -15    1    1    2    0    0  0.11309226361E+01  0.85758347814E+01 -0.62569658176E+01  0.10822720474E+02  0.17770000000E+01 0. -1.
         15    1    1    2    0    0  0.15802937077E+01  0.35965462412E+00  0.13911553327E+01  0.27784387362E+01  0.17770000000E+01 0.  1.
</event>
<event>
 6    1  0.1196607E-002  0.1431852E+03  0.7546771E-02  0.1104927E+00
        -11   -1    0    0    0    0  0.00000000000E+00  0.00000000000E+00  0.18250000000E+03  0.18250000000E+03  0.00000000000E+00 0.  1.
         11   -1    0    0    0    0 -0.00000000000E+00 -0.00000000000E+00 -0.18250000000E+03  0.18250000000E+03  0.00000000000E+00 0.  1.
        -11    1    1    2    0    0  0.64465023378E+00 -0.46576100156E+01  0.14752167669E+03  0.14759659210E+03  0.00000000000E+00 0.  1.
         11    1    1    2    0    0  0.17236106793E+02 -0.12585986490E+00 -0.13844593093E+03  0.13951478420E+03  0.00000000000E+00 0.  1.
        -15    1    1    2    0    0 -0.16212171981E+02  0.12540754148E+01 -0.41798893917E+02  0.44885548757E+02  0.17770000000E+01 0.  1.
         15    1    1    2    0    0 -0.16685850458E+01  0.35293944656E+01  0.32723148162E+02  0.33003074948E+02  0.17770000000E+01 0. -1.
</event>
<event>
 6    1  0.1196607E-002  0.1720712E+03  0.7546771E-02  0.1077073E+00
        -11   -1    0    0    0    0  0.00000000000E+00  0.00000000000E+00  0.18250000000E+03  0.18250000000E+03  0.00000000000E+00 0. -1.
         11   -1    0    0    0    0 -0.00000000000E+00 -0.00000000000E+00 -0.18250000000E+03  0.18250000000E+03  0.00000000000E+00 0.  1.
        -11    1    1    2    0    0 -0.46534361057E+01  0.19177894584E+01  0.17089446678E+03  0.17096856776E+03  0.00000000000E+00 0. -1.
         11    1    1    2    0    0 -0.35290752054E+01 -0.11896426776E+01 -0.17323975462E+03  0.17327978013E+03  0.00000000000E+00 0.  1.
        -15    1    1    2    0    0  0.33877438402E+01  0.46872943201E+01  0.89458306072E+01  0.10799682895E+02  0.17770000000E+01 0. -1.
         15    1    1    2    0    0  0.47947674709E+01 -0.54154411008E+01 -0.66005427730E+01  0.99519692179E+01  0.17770000000E+01 0.  1.
</event>
<event>
 6    1  0.1196607E-002  0.1854115E+03  0.7546771E-02  0.1066161E+00
        -11   -1    0    0    0    0  0.00000000000E+00  0.00000000000E+00  0.18250000000E+03  0.18250000000E+03  0.00000000000E+00 0.  1.
         11   -1    0    0    0    0 -0.00000000000E+00 -0.00000000000E+00 -0.18250000000E+03  0.18250000000E+03  0.00000000000E+00 0.  1.
        -11    1    1    2    0    0  0.86014619310E+01  0.33837069244E+01  0.17935043647E+03  0.17958845643E+03  0.00000000000E+00 0.  1.
         11    1    1    2    0    0 -0.26113419105E+01 -0.61806679009E+01 -0.16863508587E+03  0.16876851587E+03  0.00000000000E+00 0.  1.
        -15    1    1    2    0    0  0.36089293311E+00  0.53571664998E+01 -0.49807404078E+01  0.75362444643E+01  0.17770000000E+01 0.  1.
         15    1    1    2    0    0 -0.63510129536E+01 -0.25602055233E+01 -0.57346101954E+01  0.91067832384E+01  0.17770000000E+01 0. -1.
</event>
<event>
 6    1  0.1196607E-002  0.1095946E+03  0.7546771E-02  0.1148184E+00
        -11   -1    0    0    0    0  0.00000000000E+00  0.00000000000E+00  0.18250000000E+03  0.18250000000E+03  0.00000000000E+00 0. -1.
         11   -1    0    0    0    0 -0.00000000000E+00 -0.00000000000E+00 -0.18250000000E+03  0.18250000000E+03  0.00000000000E+00 0.  1.
        -11    1    1    2    0    0  0.26207270246E+02  0.25729584492E+02  0.10987341641E+03  0.11584904041E+03  0.00000000000E+00 0. -1.
         11    1    1    2    0    0 -0.38880843395E+00  0.99527501343E+00 -0.68788624337E+02  0.68796922769E+02  0.00000000000E+00 0.  1.
        -15    1    1    2    0    0 -0.53525262165E+01  0.27132392955E+01 -0.10599462947E+03  0.10617923718E+03  0.17770000000E+01 0.  1.
         15    1    1    2    0    0 -0.20465935596E+02 -0.29438098801E+02  0.64909837396E+02  0.74174799633E+02  0.17770000000E+01 0. -1.
</event>
<event>
 6    1  0.1196607E-002  0.1828597E+03  0.7546771E-02  0.1068169E+00
        -11   -1    0    0    0    0  0.00000000000E+00  0.00000000000E+00  0.18250000000E+03  0.18250000000E+03  0.00000000000E+00 0.  1.
         11   -1    0    0    0    0 -0.00000000000E+00 -0.00000000000E+00 -0.18250000000E+03  0.18250000000E+03  0.00000000000E+00 0. -1.
        -11    1    1    2    0    0  0.23073139333E+01  0.39244488756E+00  0.16038649614E+03  0.16040357182E+03  0.00000000000E+00 0.  1.
         11    1    1    2    0    0 -0.11763517022E+01 -0.24997303828E+01 -0.18211930647E+03  0.18214025981E+03  0.00000000000E+00 0. -1.
        -15    1    1    2    0    0  0.12944188478E+01  0.61149112896E+00  0.95661245374E+01  0.98345263851E+01  0.17770000000E+01 0. -1.
         15    1    1    2    0    0 -0.24253810789E+01  0.14957943663E+01  0.12166685793E+02  0.12621641983E+02  0.17770000000E+01 0.  1.
</event>
<event>
 6    1  0.1196607E-002  0.1881449E+03  0.7546771E-02  0.1064048E+00
        -11   -1    0    0    0    0  0.00000000000E+00  0.00000000000E+00  0.18250000000E+03  0.18250000000E+03  0.00000000000E+00 0.  1.
         11   -1    0    0    0    0 -0.00000000000E+00 -0.00000000000E+00 -0.18250000000E+03  0.18250000000E+03  0.00000000000E+00 0.  1.
        -11    1    1    2    0    0  0.42714093201E+01 -0.11720554338E+01  0.17679958702E+03  0.17685506106E+03  0.00000000000E+00 0.  1.
         11    1    1    2    0    0 -0.36827732951E+00 -0.56409768844E+01 -0.17161702552E+03  0.17171010366E+03  0.00000000000E+00 0.  1.
        -15    1    1    2    0    0 -0.84485758379E+01  0.25980904022E+01 -0.19626539945E+01  0.92270389144E+01  0.17770000000E+01 0.  1.
         15    1    1    2    0    0  0.45454438473E+01  0.42149419160E+01 -0.32199075072E+01  0.72077963678E+01  0.17770000000E+01 0. -1.
</event>
<event>
 6    1  0.1196607E-002  0.1858473E+03  0.7546771E-02  0.1065821E+00
        -11   -1    0    0    0    0  0.00000000000E+00  0.00000000000E+00  0.18250000000E+03  0.18250000000E+03  0.00000000000E+00 0. -1.
         11   -1    0    0    0    0 -0.00000000000E+00 -0.00000000000E+00 -0.18250000000E+03  0.18250000000E+03  0.00000000000E+00 0. -1.
        -11    1    1    2    0    0 -0.18057515089E+01  0.20148457974E+01  0.17482515044E+03  0.17484608537E+03  0.00000000000E+00 0. -1.
         11    1    1    2    0    0 -0.12784856176E+01  0.34437385437E+01 -0.17911506705E+03  0.17915273122E+03  0.00000000000E+00 0. -1.
        -15    1    1    2    0    0  0.21148114268E+00  0.10042503957E+01 -0.69643359259E+00  0.21670237377E+01  0.17770000000E+01 0. -1.
         15    1    1    2    0    0  0.28727559838E+01 -0.64628347369E+01  0.49863501962E+01  0.88341596691E+01  0.17770000000E+01 0.  1.
</event>
<event>
 6    1  0.1196607E-002  0.1829876E+03  0.7546771E-02  0.1068067E+00
        -11   -1    0    0    0    0  0.00000000000E+00  0.00000000000E+00  0.18250000000E+03  0.18250000000E+03  0.00000000000E+00 0.  1.
         11   -1    0    0    0    0 -0.00000000000E+00 -0.00000000000E+00 -0.18250000000E+03  0.18250000000E+03  0.00000000000E+00 0. -1.
        -11    1    1    2    0    0 -0.20884608213E+01  0.17370579049E+01  0.18199214028E+03  0.18201241211E+03  0.00000000000E+00 0.  1.
         11    1    1    2    0    0 -0.56360093129E+00  0.14640238131E+01 -0.44969465288E+02  0.44996820110E+02  0.00000000000E+00 0. -1.
        -15    1    1    2    0    0 -0.12789625614E+01 -0.43090587857E+01 -0.12704929361E+02  0.13593259062E+02  0.17770000000E+01 0.  1.
         15    1    1    2    0    0  0.39310243140E+01  0.11079770677E+01 -0.12431774563E+03  0.12439750871E+03  0.17770000000E+01 0. -1.
</event>
<event>
 6    1  0.1196607E-002  0.1839379E+03  0.7546771E-02  0.1067316E+00
        -11   -1    0    0    0    0  0.00000000000E+00  0.00000000000E+00  0.18250000000E+03  0.18250000000E+03  0.00000000000E+00 0.  1.
         11   -1    0    0    0    0 -0.00000000000E+00 -0.00000000000E+00 -0.18250000000E+03  0.18250000000E+03  0.00000000000E+00 0.  1.
        -11    1    1    2    0    0 -0.43419996710E+01  0.44918352387E+01  0.18095427022E+03  0.18106208177E+03  0.00000000000E+00 0.  1.
         11    1    1    2    0    0  0.17127225588E+01 -0.14812932819E+01 -0.15753296584E+03  0.15754923985E+03  0.00000000000E+00 0.  1.
        -15    1    1    2    0    0 -0.12191193395E+01 -0.24120636108E+01 -0.21420432962E+02  0.21663263376E+02  0.17770000000E+01 0. -1.
         15    1    1    2    0    0  0.38483964518E+01 -0.59847834601E+00 -0.20008714137E+01  0.47254150077E+01  0.17770000000E+01 0.  1.
</event>
<event>
 6    1  0.1196607E-002  0.1825797E+03  0.7546771E-02  0.1068391E+00
        -11   -1    0    0    0    0  0.00000000000E+00  0.00000000000E+00  0.18250000000E+03  0.18250000000E+03  0.00000000000E+00 0.  1.
         11   -1    0    0    0    0 -0.00000000000E+00 -0.00000000000E+00 -0.18250000000E+03  0.18250000000E+03  0.00000000000E+00 0.  1.
        -11    1    1    2    0    0  0.91665633335E+00 -0.21343912992E+00  0.65425338634E+02  0.65432107947E+02  0.00000000000E+00 0.  1.
         11    1    1    2    0    0  0.24303382109E+01  0.12166504216E+01 -0.18240007102E+03  0.18242031874E+03  0.00000000000E+00 0.  1.
        -15    1    1    2    0    0 -0.38694591852E+01 -0.36312980058E+00  0.68435564502E+02  0.68568861704E+02  0.17770000000E+01 0.  1.
         15    1    1    2    0    0  0.52246464096E+00 -0.64008149111E+00  0.48539167884E+02  0.48578711607E+02  0.17770000000E+01 0.  1.
</event>
<event>
 6    1  0.1196607E-002  0.1765179E+03  0.7546771E-02  0.1073319E+00
        -11   -1    0    0    0    0  0.00000000000E+00  0.00000000000E+00  0.18250000000E+03  0.18250000000E+03  0.00000000000E+00 0. -1.
         11   -1    0    0    0    0 -0.00000000000E+00 -0.00000000000E+00 -0.18250000000E+03  0.18250000000E+03  0.00000000000E+00 0.  1.
        -11    1    1    2    0    0  0.38501619006E+01 -0.26855081124E+01  0.17422946454E+03  0.17429269065E+03  0.00000000000E+00 0. -1.
         11    1    1    2    0    0 -0.59589668422E+01 -0.66472995518E+01 -0.17867788354E+03  0.17890076004E+03  0.00000000000E+00 0.  1.
        -15    1    1    2    0    0  0.78913183394E+00  0.60900355540E+01  0.79254376850E+00  0.64418255739E+01  0.17770000000E+01 0. -1.
         15    1    1    2    0    0  0.13196731077E+01  0.32427721102E+01  0.36558752292E+01  0.53647237358E+01  0.17770000000E+01 0.  1.
</event>
<event>
 6    1  0.1196607E-002  0.1842846E+03  0.7546771E-02  0.1067043E+00
        -11   -1    0    0    0    0  0.00000000000E+00  0.00000000000E+00  0.18250000000E+03  0.18250000000E+03  0.00000000000E+00 0. -1.
         11   -1    0    0    0    0 -0.00000000000E+00 -0.00000000000E+00 -0.18250000000E+03  0.18250000000E+03  0.00000000000E+00 0.  1.
        -11    1    1    2    0    0  0.19074103166E+01 -0.20760812804E+01  0.18069341110E+03  0.18071540372E+03  0.00000000000E+00 0. -1.
         11    1    1    2    0    0 -0.22374238295E+00  0.33001717174E+01 -0.17651769892E+03  0.17654868798E+03  0.00000000000E+00 0.  1.
        -15    1    1    2    0    0 -0.30187779323E+01 -0.11473597436E+01 -0.40961402586E+01  0.55104944065E+01  0.17770000000E+01 0. -1.
         15    1    1    2    0    0  0.13351099986E+01 -0.76730693340E-01 -0.79571920833E-01  0.22254138937E+01  0.17770000000E+01 0. -1.
</event>
<event>
 6    1  0.1196607E-002  0.1842843E+03  0.7546771E-02  0.1067043E+00
        -11   -1    0    0    0    0  0.00000000000E+00  0.00000000000E+00  0.18250000000E+03  0.18250000000E+03  0.00000000000E+00 0. -1.
         11   -1    0    0    0    0 -0.00000000000E+00 -0.00000000000E+00 -0.18250000000E+03  0.18250000000E+03  0.00000000000E+00 0.  1.
        -11    1    1    2    0    0  0.25017666529E+01 -0.65487491117E+01  0.12778851982E+03  0.12798066553E+03  0.00000000000E+00 0. -1.
         11    1    1    2    0    0  0.24222031411E+01 -0.15255725564E+01 -0.18069303030E+03  0.18071570390E+03  0.00000000000E+00 0.  1.
        -15    1    1    2    0    0  0.49728941573E+01 -0.80540876017E+00  0.98188029621E+01  0.11177879055E+02  0.17770000000E+01 0. -1.
         15    1    1    2    0    0 -0.98968639512E+01  0.88797304283E+01  0.43085707510E+02  0.45125751508E+02  0.17770000000E+01 0.  1.
</event>
<event>
 6    1  0.1196607E-002  0.1831009E+03  0.7546771E-02  0.1067977E+00
        -11   -1    0    0    0    0  0.00000000000E+00  0.00000000000E+00  0.18250000000E+03  0.18250000000E+03  0.00000000000E+00 0.  1.
         11   -1    0    0    0    0 -0.00000000000E+00 -0.00000000000E+00 -0.18250000000E+03  0.18250000000E+03  0.00000000000E+00 0. -1.
        -11    1    1    2    0    0  0.23718340091E+01  0.10499380195E+01  0.14849961877E+03  0.14852227019E+03  0.00000000000E+00 0.  1.
         11    1    1    2    0    0 -0.50140972709E+00  0.40949048772E+01 -0.18185230346E+03  0.18189909272E+03  0.00000000000E+00 0. -1.
        -15    1    1    2    0    0 -0.17808377193E+01 -0.28290982255E+01  0.61656298181E+01  0.72351848494E+01  0.17770000000E+01 0. -1.
         15    1    1    2    0    0 -0.89586562739E-01 -0.23157446713E+01  0.27187054870E+02  0.27343452245E+02  0.17770000000E+01 0.  1.
</event>
<event>
 6    1  0.1196607E-002  0.1868598E+03  0.7546771E-02  0.1065036E+00
        -11   -1    0    0    0    0  0.00000000000E+00  0.00000000000E+00  0.18250000000E+03  0.18250000000E+03  0.00000000000E+00 0.  1.
         11   -1    0    0    0    0 -0.00000000000E+00 -0.00000000000E+00 -0.18250000000E+03  0.18250000000E+03  0.00000000000E+00 0. -1.
        -11    1    1    2    0    0  0.39189429480E+01  0.77809987528E+01  0.17452338923E+03  0.17474070918E+03  0.00000000000E+00 0.  1.
         11    1    1    2    0    0 -0.37824721083E+00 -0.66600300604E+01 -0.17801525775E+03  0.17814020058E+03  0.00000000000E+00 0. -1.
        -15    1    1    2    0    0  0.26404287492E+01  0.19300355731E+01 -0.79958901829E+00  0.38070950725E+01  0.17770000000E+01 0. -1.
         15    1    1    2    0    0 -0.61811244864E+01 -0.30510042654E+01  0.42914575304E+01  0.83119951684E+01  0.17770000000E+01 0.  1.
</event>
<event>
 6    1  0.1196607E-002  0.1866308E+03  0.7546771E-02  0.1065213E+00
        -11   -1    0    0    0    0  0.00000000000E+00  0.00000000000E+00  0.18250000000E+03  0.18250000000E+03  0.00000000000E+00 0.  1.
         11   -1    0    0    0    0 -0.00000000000E+00 -0.00000000000E+00 -0.18250000000E+03  0.18250000000E+03  0.00000000000E+00 0. -1.
        -11    1    1    2    0    0  0.14808800587E+01  0.26458874086E+01  0.17608823423E+03  0.17611433775E+03  0.00000000000E+00 0.  1.
         11    1    1    2    0    0 -0.29208307728E+01 -0.22430040781E+01 -0.17833120940E+03  0.17836923100E+03  0.00000000000E+00 0. -1.
        -15    1    1    2    0    0 -0.30640541557E+00  0.36604870510E+01  0.37248779938E+01  0.55249882170E+01  0.17770000000E+01 0.  1.
         15    1    1    2    0    0  0.17463561297E+01 -0.40633703815E+01 -0.14819028216E+01  0.49914430340E+01  0.17770000000E+01 0. -1.
</event>
<event>
 6    1  0.1196607E-002  0.1757055E+03  0.7546771E-02  0.1073996E+00
        -11   -1    0    0    0    0  0.00000000000E+00  0.00000000000E+00  0.18250000000E+03  0.18250000000E+03  0.00000000000E+00 0. -1.
         11   -1    0    0    0    0 -0.00000000000E+00 -0.00000000000E+00 -0.18250000000E+03  0.18250000000E+03  0.00000000000E+00 0. -1.
        -11    1    1    2    0    0 -0.47648724337E+01 -0.18415550140E+01  0.17582204936E+03  0.17589624321E+03  0.00000000000E+00 0. -1.
         11    1    1    2    0    0 -0.23813606270E+01 -0.26770765721E+00 -0.17557740327E+03  0.17559375582E+03  0.00000000000E+00 0. -1.
        -15    1    1    2    0    0  0.85795295332E+01  0.14194142285E+01  0.31004289783E+01  0.94017792259E+01  0.17770000000E+01 0.  1.
         15    1    1    2    0    0 -0.14332964725E+01  0.68984844276E+00 -0.33450750705E+01  0.41082217418E+01  0.17770000000E+01 0. -1.
</event>
<event>
 6    1  0.1196607E-002  0.1923043E+03  0.7546771E-02  0.1060908E+00
        -11   -1    0    0    0    0  0.00000000000E+00  0.00000000000E+00  0.18250000000E+03  0.18250000000E+03  0.00000000000E+00 0. -1.
         11   -1    0    0    0    0 -0.00000000000E+00 -0.00000000000E+00 -0.18250000000E+03  0.18250000000E+03  0.00000000000E+00 0. -1.
        -11    1    1    2    0    0 -0.21799318279E+01  0.16624583103E+01  0.17134173784E+03  0.17136366883E+03  0.00000000000E+00 0. -1.
         11    1    1    2    0    0  0.20801186230E+01 -0.15710388581E+01 -0.17267599667E+03  0.17269567129E+03  0.00000000000E+00 0. -1.
        -15    1    1    2    0    0  0.40654380395E+00 -0.58912635804E+01 -0.78173450021E+01  0.99569511558E+01  0.17770000000E+01 0. -1.
         15    1    1    2    0    0 -0.30673059901E+00  0.57998441282E+01  0.91516038355E+01  0.10983708724E+02  0.17770000000E+01 0.  1.
</event>
<event>
 6    1  0.1196607E-002  0.2255679E+03  0.7546771E-02  0.1038555E+00
        -11   -1    0    0    0    0  0.00000000000E+00  0.00000000000E+00  0.18250000000E+03  0.18250000000E+03  0.00000000000E+00 0. -1.
         11   -1    0    0    0    0 -0.00000000000E+00 -0.00000000000E+00 -0.18250000000E+03  0.18250000000E+03  0.00000000000E+00 0.  1.
        -11    1    1    2    0    0  0.21146965041E+01 -0.10454399932E+01  0.11530722969E+03  0.11533135785E+03  0.00000000000E+00 0. -1.
         11    1    1    2    0    0  0.94173903617E+01 -0.81017037894E+01 -0.13887758042E+03  0.13943208809E+03  0.00000000000E+00 0.  1.
        -15    1    1    2    0    0  0.34781340460E+01  0.84525037636E+01 -0.41960665063E+02  0.42981360819E+02  0.17770000000E+01 0.  1.
         15    1    1    2    0    0 -0.15010220912E+02  0.69464001902E+00  0.65531015797E+02  0.67255193234E+02  0.17770000000E+01 0. -1.
</event>
<event>
 6    1  0.1196607E-002  0.1945464E+03  0.7546771E-02  0.1059251E+00
        -11   -1    0    0    0    0  0.00000000000E+00  0.00000000000E+00  0.18250000000E+03  0.18250000000E+03  0.00000000000E+00 0.  1.
         11   -1    0    0    0    0 -0.00000000000E+00 -0.00000000000E+00 -0.18250000000E+03  0.18250000000E+03  0.00000000000E+00 0.  1.
        -11    1    1    2    0    0  0.34375782854E+01 -0.28675612064E+01  0.10433249134E+03  0.10442848558E+03  0.00000000000E+00 0.  1.
         11    1    1    2    0    0 -0.63503400088E+01 -0.27871146775E+02 -0.16803954067E+03  0.17045355634E+03  0.00000000000E+00 0.  1.
        -15    1    1    2    0    0 -0.14152400229E+02  0.14303593469E+02 -0.19503924898E+01  0.20293964084E+02  0.17770000000E+01 0. -1.
         15    1    1    2    0    0  0.17065161953E+02  0.16435114513E+02  0.65657441821E+02  0.69823993992E+02  0.17770000000E+01 0.  1.
</event>
<event>
 6    1  0.1196607E-002  0.1830820E+03  0.7546771E-02  0.1067992E+00
        -11   -1    0    0    0    0  0.00000000000E+00  0.00000000000E+00  0.18250000000E+03  0.18250000000E+03  0.00000000000E+00 0.  1.
         11   -1    0    0    0    0 -0.00000000000E+00 -0.00000000000E+00 -0.18250000000E+03  0.18250000000E+03  0.00000000000E+00 0.  1.
        -11    1    1    2    0    0  0.31749807105E+00  0.68087554569E+00  0.22892064110E+02  0.22904388133E+02  0.00000000000E+00 0.  1.
         11    1    1    2    0    0 -0.27414274476E+01  0.15285930074E+00 -0.18189723946E+03  0.18191796094E+03  0.00000000000E+00 0.  1.
        -15    1    1    2    0    0  0.64619021664E+01 -0.71212907477E+01  0.12156733820E+03  0.12196001151E+03  0.17770000000E+01 0.  1.
         15    1    1    2    0    0 -0.40379727898E+01  0.62875559013E+01  0.37437837142E+02  0.38217639413E+02  0.17770000000E+01 0. -1.
</event>
<event>
 6    1  0.1196607E-002  0.1837815E+03  0.7546771E-02  0.1067439E+00
        -11   -1    0    0    0    0  0.00000000000E+00  0.00000000000E+00  0.18250000000E+03  0.18250000000E+03  0.00000000000E+00 0.  1.
         11   -1    0    0    0    0 -0.00000000000E+00 -0.00000000000E+00 -0.18250000000E+03  0.18250000000E+03  0.00000000000E+00 0.  1.
        -11    1    1    2    0    0 -0.86053025078E+00 -0.29955204328E+01  0.15917241205E+03  0.15920292212E+03  0.00000000000E+00 0.  1.
         11    1    1    2    0    0  0.41336249606E+01 -0.28016501004E+01 -0.18114969606E+03  0.18121851031E+03  0.00000000000E+00 0.  1.
        -15    1    1    2    0    0 -0.25737502181E+01  0.68360765200E+01  0.20777143643E+02  0.22095328903E+02  0.17770000000E+01 0.  1.
         15    1    1    2    0    0 -0.69934449167E+00 -0.10389059867E+01  0.12001403672E+01  0.24832386652E+01  0.17770000000E+01 0.  1.
</event>
<event>
 6    1  0.1196607E-002  0.1897250E+03  0.7546771E-02  0.1062845E+00
        -11   -1    0    0    0    0  0.00000000000E+00  0.00000000000E+00  0.18250000000E+03  0.18250000000E+03  0.00000000000E+00 0. -1.
         11   -1    0    0    0    0 -0.00000000000E+00 -0.00000000000E+00 -0.18250000000E+03  0.18250000000E+03  0.00000000000E+00 0.  1.
        -11    1    1    2    0    0  0.41072075415E+01  0.26500621434E+01  0.13542196335E+03  0.13551014774E+03  0.00000000000E+00 0. -1.
         11    1    1    2    0    0  0.37195694450E+01  0.53364487017E+00 -0.17523475168E+03  0.17527503579E+03  0.00000000000E+00 0.  1.
        -15    1    1    2    0    0 -0.18997277032E+01 -0.74705044967E+01  0.44598604783E+02  0.45294709187E+02  0.17770000000E+01 0. -1.
         15    1    1    2    0    0 -0.59270492833E+01  0.42867974831E+01 -0.47858164480E+01  0.89201072831E+01  0.17770000000E+01 0.  1.
</event>
<event>
 6    1  0.1196607E-002  0.1832550E+03  0.7546771E-02  0.1067855E+00
        -11   -1    0    0    0    0  0.00000000000E+00  0.00000000000E+00  0.18250000000E+03  0.18250000000E+03  0.00000000000E+00 0.  1.
         11   -1    0    0    0    0 -0.00000000000E+00 -0.00000000000E+00 -0.18250000000E+03  0.18250000000E+03  0.00000000000E+00 0.  1.
        -11    1    1    2    0    0 -0.13407075732E+01  0.45476501453E+01  0.14140011695E+03  0.14147958048E+03  0.00000000000E+00 0.  1.
         11    1    1    2    0    0 -0.38791721954E+01 -0.12644524960E+01 -0.18169923133E+03  0.18174503427E+03  0.00000000000E+00 0.  1.
        -15    1    1    2    0    0  0.55478250612E+01  0.92240029932E-01  0.13491652072E+02  0.14695893160E+02  0.17770000000E+01 0. -1.
         15    1    1    2    0    0 -0.32794529261E+00 -0.33754376792E+01  0.26807462304E+02  0.27079492089E+02  0.17770000000E+01 0.  1.
</event>
<event>
 6    1  0.1196607E-002  0.1826757E+03  0.7546771E-02  0.1068315E+00
        -11   -1    0    0    0    0  0.00000000000E+00  0.00000000000E+00  0.18250000000E+03  0.18250000000E+03  0.00000000000E+00 0. -1.
         11   -1    0    0    0    0 -0.00000000000E+00 -0.00000000000E+00 -0.18250000000E+03  0.18250000000E+03  0.00000000000E+00 0.  1.
        -11    1    1    2    0    0  0.10178406653E+01 -0.30965211556E+01  0.10625123297E+03  0.10630121801E+03  0.00000000000E+00 0. -1.
         11    1    1    2    0    0 -0.26511896461E+01  0.45138950407E+01 -0.18224914555E+03  0.18232431300E+03  0.00000000000E+00 0.  1.
        -15    1    1    2    0    0  0.27463966249E+01 -0.30695559988E+01  0.34440965564E+02  0.34731868744E+02  0.17770000000E+01 0. -1.
         15    1    1    2    0    0 -0.11130476441E+01  0.16521821137E+01  0.41556947019E+02  0.41642600247E+02  0.17770000000E+01 0.  1.
</event>
<event>
 6    1  0.1196607E-002  0.1938595E+03  0.7546771E-02  0.1059756E+00
        -11   -1    0    0    0    0  0.00000000000E+00  0.00000000000E+00  0.18250000000E+03  0.18250000000E+03  0.00000000000E+00 0.  1.
         11   -1    0    0    0    0 -0.00000000000E+00 -0.00000000000E+00 -0.18250000000E+03  0.18250000000E+03  0.00000000000E+00 0. -1.
        -11    1    1    2    0    0 -0.14016314409E+02 -0.89010847534E+00  0.17056324994E+03  0.17114050250E+03  0.00000000000E+00 0.  1.
         11    1    1    2    0    0 -0.13810879561E+02  0.68894865569E+01 -0.14241925347E+03  0.14325309483E+03  0.00000000000E+00 0. -1.
        -15    1    1    2    0    0  0.34392279655E+02 -0.31719565297E+01 -0.21767078698E+02  0.40863842846E+02  0.17770000000E+01 0.  1.
         15    1    1    2    0    0 -0.65650856846E+01 -0.28274215519E+01 -0.63769177722E+01  0.97425598254E+01  0.17770000000E+01 0. -1.
</event>
<event>
 6    1  0.1196607E-002  0.1990077E+03  0.7546771E-02  0.1056025E+00
        -11   -1    0    0    0    0  0.00000000000E+00  0.00000000000E+00  0.18250000000E+03  0.18250000000E+03  0.00000000000E+00 0. -1.
         11   -1    0    0    0    0 -0.00000000000E+00 -0.00000000000E+00 -0.18250000000E+03  0.18250000000E+03  0.00000000000E+00 0.  1.
        -11    1    1    2    0    0  0.68199650717E+01  0.32340295897E+00  0.16585182672E+03  0.16599230385E+03  0.00000000000E+00 0. -1.
         11    1    1    2    0    0 -0.27943993530E+01  0.11112861898E+01 -0.15501297831E+03  0.15504214611E+03  0.00000000000E+00 0.  1.
        -15    1    1    2    0    0 -0.56458054482E+01  0.10968282909E+01  0.15899139823E+02  0.17000544920E+02  0.17770000000E+01 0. -1.
         15    1    1    2    0    0  0.16202397295E+01 -0.25315174397E+01 -0.26737988232E+02  0.26965005118E+02  0.17770000000E+01 0.  1.
</event>
<event>
 6    1  0.1196607E-002  0.1860923E+03  0.7546771E-02  0.1065631E+00
        -11   -1    0    0    0    0  0.00000000000E+00  0.00000000000E+00  0.18250000000E+03  0.18250000000E+03  0.00000000000E+00 0.  1.
         11   -1    0    0    0    0 -0.00000000000E+00 -0.00000000000E+00 -0.18250000000E+03  0.18250000000E+03  0.00000000000E+00 0. -1.
        -11    1    1    2    0    0  0.24667563162E+01  0.11784451413E+00  0.17889064682E+03  0.17890769210E+03  0.00000000000E+00 0.  1.
         11    1    1    2    0    0  0.35952103159E+01 -0.31258761282E+01 -0.16478677672E+03  0.16485562902E+03  0.00000000000E+00 0. -1.
        -15    1    1    2    0    0  0.39495662001E+01  0.22111310206E+01 -0.16403359329E+01  0.51319201603E+01  0.17770000000E+01 0. -1.
         15    1    1    2    0    0 -0.10011532832E+02  0.79690059346E+00 -0.12463534169E+02  0.16104758712E+02  0.17770000000E+01 0.  1.
</event>
<event>
 6    1  0.1196607E-002  0.1825716E+03  0.7546771E-02  0.1068398E+00
        -11   -1    0    0    0    0  0.00000000000E+00  0.00000000000E+00  0.18250000000E+03  0.18250000000E+03  0.00000000000E+00 0. -1.
         11   -1    0    0    0    0 -0.00000000000E+00 -0.00000000000E+00 -0.18250000000E+03  0.18250000000E+03  0.00000000000E+00 0.  1.
        -11    1    1    2    0    0  0.38913032303E+00  0.95875072605E+00  0.58303471188E+02  0.58312651954E+02  0.00000000000E+00 0. -1.
         11    1    1    2    0    0  0.29621964598E+01 -0.11335084281E+00 -0.18240430140E+03  0.18242838767E+03  0.00000000000E+00 0.  1.
        -15    1    1    2    0    0 -0.12602260494E+01 -0.79364085017E+00  0.22115838665E+02  0.22237043067E+02  0.17770000000E+01 0. -1.
         15    1    1    2    0    0 -0.20911007334E+01 -0.51759033070E-01  0.10198499155E+03  0.10202191731E+03  0.17770000000E+01 0.  1.
</event>
<event>
 6    1  0.1196607E-002  0.1853306E+03  0.7546771E-02  0.1066224E+00
        -11   -1    0    0    0    0  0.00000000000E+00  0.00000000000E+00  0.18250000000E+03  0.18250000000E+03  0.00000000000E+00 0.  1.
         11   -1    0    0    0    0 -0.00000000000E+00 -0.00000000000E+00 -0.18250000000E+03  0.18250000000E+03  0.00000000000E+00 0.  1.
        -11    1    1    2    0    0  0.23235782027E+01  0.18571231033E+01  0.17964478551E+03  0.17966940998E+03  0.00000000000E+00 0.  1.
         11    1    1    2    0    0 -0.38620508969E+00 -0.49470141645E+01 -0.13651429799E+03  0.13660444963E+03  0.00000000000E+00 0.  1.
        -15    1    1    2    0    0 -0.35510197855E+00  0.80722365179E+01 -0.42349287135E+02  0.43149819810E+02  0.17770000000E+01 0.  1.
         15    1    1    2    0    0 -0.15822711344E+01 -0.49823454568E+01 -0.78120038776E+00  0.55763205826E+01  0.17770000000E+01 0. -1.
</event>
<event>
 6    1  0.1196607E-002  0.1892771E+03  0.7546771E-02  0.1063185E+00
        -11   -1    0    0    0    0  0.00000000000E+00  0.00000000000E+00  0.18250000000E+03  0.18250000000E+03  0.00000000000E+00 0.  1.
         11   -1    0    0    0    0 -0.00000000000E+00 -0.00000000000E+00 -0.18250000000E+03  0.18250000000E+03  0.00000000000E+00 0.  1.
        -11    1    1    2    0    0 -0.36033307973E+01 -0.51247351285E+01  0.17561121259E+03  0.17572292079E+03  0.00000000000E+00 0.  1.
         11    1    1    2    0    0  0.14773492010E+02  0.16974304934E+02 -0.10294944183E+03  0.10538012463E+03  0.00000000000E+00 0.  1.
        -15    1    1    2    0    0 -0.11407330569E+02  0.47915594492E+01 -0.38505415202E+01  0.13079397221E+02  0.17770000000E+01 0. -1.
         15    1    1    2    0    0  0.23716935583E+00 -0.16641129254E+02 -0.68811229238E+02  0.70817557360E+02  0.17770000000E+01 0.  1.
</event>
<event>
 6    1  0.1196607E-002  0.1851837E+03  0.7546771E-02  0.1066338E+00
        -11   -1    0    0    0    0  0.00000000000E+00  0.00000000000E+00  0.18250000000E+03  0.18250000000E+03  0.00000000000E+00 0.  1.
         11   -1    0    0    0    0 -0.00000000000E+00 -0.00000000000E+00 -0.18250000000E+03  0.18250000000E+03  0.00000000000E+00 0. -1.
        -11    1    1    2    0    0  0.73688242728E+01 -0.63710114449E+00  0.54535292575E+02  0.55034567367E+02  0.00000000000E+00 0.  1.
         11    1    1    2    0    0  0.14199254391E+01 -0.45533361789E+01 -0.17975303084E+03  0.17981629836E+03  0.00000000000E+00 0. -1.
        -15    1    1    2    0    0  0.35430310250E+01  0.15967192789E+02  0.38297706737E+02  0.41681847185E+02  0.17770000000E+01 0. -1.
         15    1    1    2    0    0 -0.12331780737E+02 -0.10776755465E+02  0.86920031531E+02  0.88467287088E+02  0.17770000000E+01 0.  1.
</event>
<event>
 6    1  0.1196607E-002  0.1830826E+03  0.7546771E-02  0.1067992E+00
        -11   -1    0    0    0    0  0.00000000000E+00  0.00000000000E+00  0.18250000000E+03  0.18250000000E+03  0.00000000000E+00 0. -1.
         11   -1    0    0    0    0 -0.00000000000E+00 -0.00000000000E+00 -0.18250000000E+03  0.18250000000E+03  0.00000000000E+00 0. -1.
        -11    1    1    2    0    0  0.15219686224E+01 -0.24224149836E+01  0.18189488359E+03  0.18191738004E+03  0.00000000000E+00 0. -1.
         11    1    1    2    0    0 -0.17759350478E+01 -0.33189789213E+01 -0.14376053796E+03  0.14380981135E+03  0.00000000000E+00 0. -1.
        -15    1    1    2    0    0 -0.19921452315E+01  0.44500558157E+01 -0.13926042393E+02  0.14861494713E+02  0.17770000000E+01 0.  1.
         15    1    1    2    0    0  0.22461116569E+01  0.12913380893E+01 -0.24208303236E+02  0.24411313897E+02  0.17770000000E+01 0. -1.
</event>
<event>
 6    1  0.1196607E-002  0.1980738E+03  0.7546771E-02  0.1056692E+00
        -11   -1    0    0    0    0  0.00000000000E+00  0.00000000000E+00  0.18250000000E+03  0.18250000000E+03  0.00000000000E+00 0.  1.
         11   -1    0    0    0    0 -0.00000000000E+00 -0.00000000000E+00 -0.18250000000E+03  0.18250000000E+03  0.00000000000E+00 0. -1.
        -11    1    1    2    0    0  0.12523299423E+02  0.93322442617E+00  0.14831018727E+03  0.14884090696E+03  0.00000000000E+00 0.  1.
         11    1    1    2    0    0 -0.22896426207E+01 -0.99455895842E-01 -0.16691050658E+03  0.16692623988E+03  0.00000000000E+00 0. -1.
        -15    1    1    2    0    0 -0.14780579470E+02  0.19294624101E+02  0.13669383686E+02  0.27942044091E+02  0.17770000000E+01 0.  1.
         15    1    1    2    0    0  0.45469226675E+01 -0.20128392631E+02  0.49309356178E+01  0.21290809067E+02  0.17770000000E+01 0. -1.
</event>
<event>
 6    1  0.1196607E-002  0.1836958E+03  0.7546771E-02  0.1067507E+00
        -11   -1    0    0    0    0  0.00000000000E+00  0.00000000000E+00  0.18250000000E+03  0.18250000000E+03  0.00000000000E+00 0.  1.
         11   -1    0    0    0    0 -0.00000000000E+00 -0.00000000000E+00 -0.18250000000E+03  0.18250000000E+03  0.00000000000E+00 0.  1.
        -11    1    1    2    0    0  0.15386617842E+00 -0.24488915223E+01  0.18128758499E+03  0.18130418974E+03  0.00000000000E+00 0.  1.
         11    1    1    2    0    0  0.36667880277E+01  0.48265152453E+01 -0.12006192244E+03  0.12021483188E+03  0.00000000000E+00 0.  1.
        -15    1    1    2    0    0  0.71943205117E+00  0.27613231047E+01 -0.21681147889E+01  0.40001173111E+01  0.17770000000E+01 0.  1.
         15    1    1    2    0    0 -0.45400862573E+01 -0.51389468277E+01 -0.59057547760E+02  0.59480861075E+02  0.17770000000E+01 0. -1.
</event>
<event>
 6    1  0.1196607E-002  0.1829136E+03  0.7546771E-02  0.1068126E+00
        -11   -1    0    0    0    0  0.00000000000E+00  0.00000000000E+00  0.18250000000E+03  0.18250000000E+03  0.00000000000E+00 0.  1.
         11   -1    0    0    0    0 -0.00000000000E+00 -0.00000000000E+00 -0.18250000000E+03  0.18250000000E+03  0.00000000000E+00 0.  1.
        -11    1    1    2    0    0 -0.58122330020E+01  0.19155664546E+01  0.18198350128E+03  0.18208637012E+03  0.00000000000E+00 0.  1.
         11    1    1    2    0    0 -0.16606659410E+01 -0.15767070861E+01 -0.74857205729E+02  0.74892223002E+02  0.00000000000E+00 0.  1.
        -15    1    1    2    0    0  0.39706578669E-01  0.10578602577E+01 -0.72696292421E+02  0.72725712824E+02  0.17770000000E+01 0.  1.
         15    1    1    2    0    0  0.74331923643E+01 -0.13967196261E+01 -0.34430003126E+02  0.35295694053E+02  0.17770000000E+01 0.  1.
</event>
<event>
 6    1  0.1196607E-002  0.1845044E+03  0.7546771E-02  0.1066870E+00
        -11   -1    0    0    0    0  0.00000000000E+00  0.00000000000E+00  0.18250000000E+03  0.18250000000E+03  0.00000000000E+00 0.  1.
         11   -1    0    0    0    0 -0.00000000000E+00 -0.00000000000E+00 -0.18250000000E+03  0.18250000000E+03  0.00000000000E+00 0. -1.
        -11    1    1    2    0    0  0.41609143580E+01 -0.21438689829E+01  0.18043490861E+03  0.18049561111E+03  0.00000000000E+00 0.  1.
         11    1    1    2    0    0 -0.34400731181E+01 -0.13157383391E+01 -0.42254113432E+02  0.42414329800E+02  0.00000000000E+00 0. -1.
        -15    1    1    2    0    0 -0.17225792548E+01 -0.13872412247E+01  0.84852457266E+00  0.29613241050E+01  0.17770000000E+01 0.  1.
         15    1    1    2    0    0  0.10017380149E+01  0.48468485467E+01 -0.13902931975E+03  0.13912873499E+03  0.17770000000E+01 0. -1.
</event>
<event>
 6    1  0.1196607E-002  0.1829028E+03  0.7546771E-02  0.1068135E+00
        -11   -1    0    0    0    0  0.00000000000E+00  0.00000000000E+00  0.18250000000E+03  0.18250000000E+03  0.00000000000E+00 0. -1.
         11   -1    0    0    0    0 -0.00000000000E+00 -0.00000000000E+00 -0.18250000000E+03  0.18250000000E+03  0.00000000000E+00 0.  1.
        -11    1    1    2    0    0  0.26109883773E+01 -0.16913742368E+01  0.18207058384E+03  0.18209715952E+03  0.00000000000E+00 0. -1.
         11    1    1    2    0    0  0.52142053184E+00  0.56720646602E+01 -0.12481825176E+03  0.12494814992E+03  0.00000000000E+00 0.  1.
        -15    1    1    2    0    0 -0.28786126868E+01 -0.46552581419E+01 -0.25357991265E+02  0.26002755419E+02  0.17770000000E+01 0.  1.
         15    1    1    2    0    0 -0.25379622238E+00  0.67456771852E+00 -0.31894340816E+02  0.31951935141E+02  0.17770000000E+01 0. -1.
</event>
<event>
 6    1  0.1196607E-002  0.1654915E+03  0.7546771E-02  0.1082862E+00
        -11   -1    0    0    0    0  0.00000000000E+00  0.00000000000E+00  0.18250000000E+03  0.18250000000E+03  0.00000000000E+00 0. -1.
         11   -1    0    0    0    0 -0.00000000000E+00 -0.00000000000E+00 -0.18250000000E+03  0.18250000000E+03  0.00000000000E+00 0. -1.
        -11    1    1    2    0    0  0.23718225437E+01 -0.40069340876E+01  0.16715260892E+03  0.16721745044E+03  0.00000000000E+00 0. -1.
         11    1    1    2    0    0  0.27528669238E+01  0.29916172442E-01 -0.16382272684E+03  0.16384585744E+03  0.00000000000E+00 0. -1.
        -15    1    1    2    0    0 -0.43660861127E+01  0.27927256973E+01  0.14739939556E+02  0.15725316273E+02  0.17770000000E+01 0. -1.
         15    1    1    2    0    0 -0.75860335477E+00  0.11842922178E+01 -0.18069821640E+02  0.18211375846E+02  0.17770000000E+01 0.  1.
</event>
<event>
 6    1  0.1196607E-002  0.1829045E+03  0.7546771E-02  0.1068133E+00
        -11   -1    0    0    0    0  0.00000000000E+00  0.00000000000E+00  0.18250000000E+03  0.18250000000E+03  0.00000000000E+00 0. -1.
         11   -1    0    0    0    0 -0.00000000000E+00 -0.00000000000E+00 -0.18250000000E+03  0.18250000000E+03  0.00000000000E+00 0. -1.
        -11    1    1    2    0    0 -0.22064735853E+01  0.27449951299E+01  0.46720477752E+02  0.46853031549E+02  0.00000000000E+00 0. -1.
         11    1    1    2    0    0 -0.15966276799E+01 -0.32495782283E+01 -0.18205950830E+03  0.18209550664E+03  0.00000000000E+00 0. -1.
        -15    1    1    2    0    0  0.18549570561E+01 -0.26194491877E+01  0.12296278236E+03  0.12301750263E+03  0.17770000000E+01 0. -1.
         15    1    1    2    0    0  0.19481442091E+01  0.31240322861E+01  0.12376248189E+02  0.13033959177E+02  0.17770000000E+01 0.  1.
</event>
<event>
 6    1  0.1196607E-002  0.1877771E+03  0.7546771E-02  0.1064330E+00
        -11   -1    0    0    0    0  0.00000000000E+00  0.00000000000E+00  0.18250000000E+03  0.18250000000E+03  0.00000000000E+00 0.  1.
         11   -1    0    0    0    0 -0.00000000000E+00 -0.00000000000E+00 -0.18250000000E+03  0.18250000000E+03  0.00000000000E+00 0. -1.
        -11    1    1    2    0    0  0.24466342476E+01 -0.15446695117E+01  0.17719923456E+03  0.17722285617E+03  0.00000000000E+00 0.  1.
         11    1    1    2    0    0 -0.14938813134E+01  0.17446920833E+01 -0.92501663025E+02  0.92530175047E+02  0.00000000000E+00 0. -1.
        -15    1    1    2    0    0  0.12061699791E+01 -0.67531916359E+01 -0.87355558722E+02  0.87642522853E+02  0.17770000000E+01 0.  1.
         15    1    1    2    0    0 -0.21589229133E+01  0.65531690644E+01  0.26579871906E+01  0.76044459257E+01  0.17770000000E+01 0. -1.
</event>
<event>
 6    1  0.1196607E-002  0.1829017E+03  0.7546771E-02  0.1068135E+00
        -11   -1    0    0    0    0  0.00000000000E+00  0.00000000000E+00  0.18250000000E+03  0.18250000000E+03  0.00000000000E+00 0. -1.
         11   -1    0    0    0    0 -0.00000000000E+00 -0.00000000000E+00 -0.18250000000E+03  0.18250000000E+03  0.00000000000E+00 0.  1.
        -11    1    1    2    0    0  0.14680712065E+01  0.31757887995E+01  0.18206467878E+03  0.18209829249E+03  0.00000000000E+00 0. -1.
         11    1    1    2    0    0  0.16542084220E+01 -0.50675724707E-01 -0.11230650900E+03  0.11231870253E+03  0.00000000000E+00 0.  1.
        -15    1    1    2    0    0 -0.24953448729E+01 -0.23478027565E+01 -0.90253375630E+01  0.98159752925E+01  0.17770000000E+01 0. -1.
         15    1    1    2    0    0 -0.62693475556E+00 -0.77731031822E+00 -0.60732832223E+02  0.60767029690E+02  0.17770000000E+01 0.  1.
</event>
<event>
 6    1  0.1196607E-002  0.1781069E+03  0.7546771E-02  0.1072006E+00
        -11   -1    0    0    0    0  0.00000000000E+00  0.00000000000E+00  0.18250000000E+03  0.18250000000E+03  0.00000000000E+00 0.  1.
         11   -1    0    0    0    0 -0.00000000000E+00 -0.00000000000E+00 -0.18250000000E+03  0.18250000000E+03  0.00000000000E+00 0. -1.
        -11    1    1    2    0    0 -0.16370354291E+01  0.20117122340E+01  0.17921445316E+03  0.17923321984E+03  0.00000000000E+00 0.  1.
         11    1    1    2    0    0 -0.38352793391E+01 -0.11661787882E+01 -0.17698527993E+03  0.17703067150E+03  0.00000000000E+00 0. -1.
        -15    1    1    2    0    0  0.61257588093E+00 -0.14571182240E+01 -0.25861363460E+01  0.35134417497E+01  0.17770000000E+01 0.  1.
         15    1    1    2    0    0  0.48597388873E+01  0.61158477812E+00  0.35696311699E+00  0.52226669107E+01  0.17770000000E+01 0. -1.
</event>
<event>
 6    1  0.1196607E-002  0.1825604E+03  0.7546771E-02  0.1068407E+00
        -11   -1    0    0    0    0  0.00000000000E+00  0.00000000000E+00  0.18250000000E+03  0.18250000000E+03  0.00000000000E+00 0.  1.
         11   -1    0    0    0    0 -0.00000000000E+00 -0.00000000000E+00 -0.18250000000E+03  0.18250000000E+03  0.00000000000E+00 0.  1.
        -11    1    1    2    0    0 -0.25285573370E+01 -0.49198170465E+00  0.18242142307E+03  0.18243960985E+03  0.00000000000E+00 0.  1.
         11    1    1    2    0    0  0.35889451717E+00  0.40077144900E+00 -0.10316120041E+02  0.10330138224E+02  0.00000000000E+00 0.  1.
        -15    1    1    2    0    0  0.23960463715E+01 -0.69827744222E+00 -0.15177440570E+03  0.15180532462E+03  0.17770000000E+01 0.  1.
         15    1    1    2    0    0 -0.22638355162E+00  0.78948769787E+00 -0.20330897324E+02  0.20424927303E+02  0.17770000000E+01 0.  1.
</event>
<event>
 6    1  0.1196607E-002  0.1533162E+03  0.7546771E-02  0.1094395E+00
        -11   -1    0    0    0    0  0.00000000000E+00  0.00000000000E+00  0.18250000000E+03  0.18250000000E+03  0.00000000000E+00 0.  1.
         11   -1    0    0    0    0 -0.00000000000E+00 -0.00000000000E+00 -0.18250000000E+03  0.18250000000E+03  0.00000000000E+00 0. -1.
        -11    1    1    2    0    0  0.24326305401E+00  0.45630568894E+01  0.70106299255E+02  0.70255062880E+02  0.00000000000E+00 0.  1.
         11    1    1    2    0    0  0.68866505148E+01 -0.63854778867E+00 -0.16921273288E+03  0.16935401580E+03  0.00000000000E+00 0. -1.
        -15    1    1    2    0    0 -0.41229534483E+02 -0.83333055592E+01  0.49100495659E+02  0.64678705137E+02  0.17770000000E+01 0.  1.
         15    1    1    2    0    0  0.34099620915E+02  0.44087964584E+01  0.50005937967E+02  0.60712216182E+02  0.17770000000E+01 0. -1.
</event>
<event>
 6    1  0.1196607E-002  0.1839351E+03  0.7546771E-02  0.1067318E+00
        -11   -1    0    0    0    0  0.00000000000E+00  0.00000000000E+00  0.18250000000E+03  0.18250000000E+03  0.00000000000E+00 0. -1.
         11   -1    0    0    0    0 -0.00000000000E+00 -0.00000000000E+00 -0.18250000000E+03  0.18250000000E+03  0.00000000000E+00 0.  1.
        -11    1    1    2    0    0  0.35041551380E+01 -0.29242839823E-01  0.18103103198E+03  0.18106494552E+03  0.00000000000E+00 0. -1.
         11    1    1    2    0    0 -0.54154955062E+00  0.43177526855E+01 -0.17224960180E+03  0.17230456054E+03  0.00000000000E+00 0.  1.
        -15    1    1    2    0    0 -0.38024618579E+01 -0.30968800245E+01 -0.51309949544E+01  0.73167082960E+01  0.17770000000E+01 0.  1.
         15    1    1    2    0    0  0.83985627051E+00 -0.11916298212E+01 -0.36504352273E+01  0.43137856385E+01  0.17770000000E+01 0.  1.
</event>
<event>
 6    1  0.1196607E-002  0.1983356E+03  0.7546771E-02  0.1056505E+00
        -11   -1    0    0    0    0  0.00000000000E+00  0.00000000000E+00  0.18250000000E+03  0.18250000000E+03  0.00000000000E+00 0.  1.
         11   -1    0    0    0    0 -0.00000000000E+00 -0.00000000000E+00 -0.18250000000E+03  0.18250000000E+03  0.00000000000E+00 0. -1.
        -11    1    1    2    0    0  0.96366638521E+01  0.96629774489E+01  0.16610470102E+03  0.16666436369E+03  0.00000000000E+00 0.  1.
         11    1    1    2    0    0  0.15659039709E+01  0.15872486657E+02 -0.13935281995E+03  0.14026259771E+03  0.00000000000E+00 0. -1.
        -15    1    1    2    0    0 -0.44170610118E+01 -0.20158972730E+01  0.11508900672E+02  0.12616924881E+02  0.17770000000E+01 0.  1.
         15    1    1    2    0    0 -0.67855068112E+01 -0.23519566833E+02 -0.38260781735E+02  0.45456113721E+02  0.17770000000E+01 0. -1.
</event>
<event>
 6    1  0.1196607E-002  0.1855747E+03  0.7546771E-02  0.1066033E+00
        -11   -1    0    0    0    0  0.00000000000E+00  0.00000000000E+00  0.18250000000E+03  0.18250000000E+03  0.00000000000E+00 0. -1.
         11   -1    0    0    0    0 -0.00000000000E+00 -0.00000000000E+00 -0.18250000000E+03  0.18250000000E+03  0.00000000000E+00 0. -1.
        -11    1    1    2    0    0 -0.13721545081E+02 -0.27041011950E+01  0.17887945984E+03  0.17942534413E+03  0.00000000000E+00 0. -1.
         11    1    1    2    0    0  0.53006385496E+00  0.29551381547E+01 -0.15568237412E+03  0.15571132079E+03  0.00000000000E+00 0. -1.
        -15    1    1    2    0    0  0.61974830564E+00 -0.85433054255E+00 -0.14054962601E+02  0.14206113872E+02  0.17770000000E+01 0.  1.
         15    1    1    2    0    0  0.12571732920E+02  0.60329358290E+00 -0.91421231189E+01  0.15657221206E+02  0.17770000000E+01 0.  1.
</event>
<event>
 6    1  0.1196607E-002  0.1842590E+03  0.7546771E-02  0.1067063E+00
        -11   -1    0    0    0    0  0.00000000000E+00  0.00000000000E+00  0.18250000000E+03  0.18250000000E+03  0.00000000000E+00 0.  1.
         11   -1    0    0    0    0 -0.00000000000E+00 -0.00000000000E+00 -0.18250000000E+03  0.18250000000E+03  0.00000000000E+00 0.  1.
        -11    1    1    2    0    0  0.18626122154E+01 -0.20323016991E+01  0.18071995414E+03  0.18074097874E+03  0.00000000000E+00 0.  1.
         11    1    1    2    0    0 -0.20585037367E+01 -0.38843437688E+01 -0.17324056984E+03  0.17329633754E+03  0.00000000000E+00 0.  1.
        -15    1    1    2    0    0 -0.41492445880E-01  0.90129763110E+00 -0.43510929047E+01  0.47857912102E+01  0.17770000000E+01 0.  1.
         15    1    1    2    0    0  0.23738396717E+00  0.50153478368E+01 -0.31282913877E+01  0.61768925098E+01  0.17770000000E+01 0. -1.
</event>
<event>
 6    1  0.1196607E-002  0.1829709E+03  0.7546771E-02  0.1068081E+00
        -11   -1    0    0    0    0  0.00000000000E+00  0.00000000000E+00  0.18250000000E+03  0.18250000000E+03  0.00000000000E+00 0. -1.
         11   -1    0    0    0    0 -0.00000000000E+00 -0.00000000000E+00 -0.18250000000E+03  0.18250000000E+03  0.00000000000E+00 0.  1.
        -11    1    1    2    0    0  0.33377069485E+01 -0.71772502240E+01  0.18185690451E+03  0.18202908264E+03  0.00000000000E+00 0. -1.
         11    1    1    2    0    0 -0.11150057178E+01  0.18743949645E+00 -0.64590724544E+02  0.64600619722E+02  0.00000000000E+00 0.  1.
        -15    1    1    2    0    0 -0.49152323935E+01  0.98882321699E+01 -0.68007635300E+02  0.68921207425E+02  0.17770000000E+01 0.  1.
         15    1    1    2    0    0  0.26925311628E+01 -0.28984214423E+01 -0.49258544668E+02  0.49449090212E+02  0.17770000000E+01 0. -1.
</event>
<event>
 6    1  0.1196607E-002  0.1745397E+03  0.7546771E-02  0.1074974E+00
        -11   -1    0    0    0    0  0.00000000000E+00  0.00000000000E+00  0.18250000000E+03  0.18250000000E+03  0.00000000000E+00 0. -1.
         11   -1    0    0    0    0 -0.00000000000E+00 -0.00000000000E+00 -0.18250000000E+03  0.18250000000E+03  0.00000000000E+00 0.  1.
        -11    1    1    2    0    0 -0.41923536454E+01  0.39607245655E+01  0.17357859179E+03  0.17367438123E+03  0.00000000000E+00 0. -1.
         11    1    1    2    0    0 -0.24872951002E+01  0.31131579217E+00 -0.17548239316E+03  0.17550029591E+03  0.00000000000E+00 0.  1.
        -15    1    1    2    0    0  0.61610630317E+01 -0.64247630509E+01  0.59711804512E+01  0.10865035799E+02  0.17770000000E+01 0. -1.
         15    1    1    2    0    0  0.51858571391E+00  0.21527226932E+01 -0.40673790828E+01  0.49602870623E+01  0.17770000000E+01 0.  1.
</event>
<event>
 6    1  0.1196607E-002  0.1893759E+03  0.7546771E-02  0.1063110E+00
        -11   -1    0    0    0    0  0.00000000000E+00  0.00000000000E+00  0.18250000000E+03  0.18250000000E+03  0.00000000000E+00 0.  1.
         11   -1    0    0    0    0 -0.00000000000E+00 -0.00000000000E+00 -0.18250000000E+03  0.18250000000E+03  0.00000000000E+00 0.  1.
        -11    1    1    2    0    0  0.25885729609E+01 -0.36343090156E+00  0.15856529553E+03  0.15858683974E+03  0.00000000000E+00 0.  1.
         11    1    1    2    0    0 -0.20636119389E+01  0.74421350114E+01 -0.17545419759E+03  0.17562408525E+03  0.00000000000E+00 0.  1.
        -15    1    1    2    0    0  0.27479959985E+01 -0.76244560829E+01 -0.42468350860E+01  0.93207912655E+01  0.17770000000E+01 0. -1.
         15    1    1    2    0    0 -0.32729570205E+01  0.54575197311E+00  0.21135737151E+02  0.21468283741E+02  0.17770000000E+01 0. -1.
</event>
<event>
 6    1  0.1196607E-002  0.1829007E+03  0.7546771E-02  0.1068136E+00
        -11   -1    0    0    0    0  0.00000000000E+00  0.00000000000E+00  0.18250000000E+03  0.18250000000E+03  0.00000000000E+00 0. -1.
         11   -1    0    0    0    0 -0.00000000000E+00 -0.00000000000E+00 -0.18250000000E+03  0.18250000000E+03  0.00000000000E+00 0. -1.
        -11    1    1    2    0    0 -0.97981506985E+00  0.12950772474E+01  0.98231143864E+02  0.98244566707E+02  0.00000000000E+00 0. -1.
         11    1    1    2    0    0 -0.32269182354E+01  0.31962997769E+01 -0.18204267524E+03  0.18209932713E+03  0.00000000000E+00 0. -1.
        -15    1    1    2    0    0  0.55832040452E+01 -0.40199993434E+00  0.25929764165E+02  0.26586541144E+02  0.17770000000E+01 0.  1.
         15    1    1    2    0    0 -0.13764707399E+01 -0.40893770899E+01  0.57881767212E+02  0.58069565017E+02  0.17770000000E+01 0. -1.
</event>
<event>
 6    1  0.1196607E-002  0.1834502E+03  0.7546771E-02  0.1067701E+00
        -11   -1    0    0    0    0  0.00000000000E+00  0.00000000000E+00  0.18250000000E+03  0.18250000000E+03  0.00000000000E+00 0.  1.
         11   -1    0    0    0    0 -0.00000000000E+00 -0.00000000000E+00 -0.18250000000E+03  0.18250000000E+03  0.00000000000E+00 0.  1.
        -11    1    1    2    0    0 -0.48620610516E+01  0.39273747757E+01  0.18144217641E+03  0.18154979287E+03  0.00000000000E+00 0.  1.
         11    1    1    2    0    0  0.26076420407E+01 -0.60267262684E+00 -0.64169426553E+02  0.64225215574E+02  0.00000000000E+00 0.  1.
        -15    1    1    2    0    0 -0.34891395525E+01  0.24157337462E+01 -0.99478934286E+02  0.99585269795E+02  0.17770000000E+01 0.  1.
         15    1    1    2    0    0  0.57435585634E+01 -0.57404358951E+01 -0.17793815572E+02  0.19639721761E+02  0.17770000000E+01 0.  1.
</event>
<event>
 6    1  0.1196607E-002  0.1935009E+03  0.7546771E-02  0.1060020E+00
        -11   -1    0    0    0    0  0.00000000000E+00  0.00000000000E+00  0.18250000000E+03  0.18250000000E+03  0.00000000000E+00 0. -1.
         11   -1    0    0    0    0 -0.00000000000E+00 -0.00000000000E+00 -0.18250000000E+03  0.18250000000E+03  0.00000000000E+00 0.  1.
        -11    1    1    2    0    0  0.93620161910E+01 -0.86664229138E+01  0.15950655359E+03  0.16001592068E+03  0.00000000000E+00 0. -1.
         11    1    1    2    0    0  0.38941227942E+01  0.38360065183E+01 -0.17141198769E+03  0.17149912146E+03  0.00000000000E+00 0.  1.
        -15    1    1    2    0    0 -0.11192433779E+02  0.51904735844E+01  0.20759700135E+02  0.24214344274E+02  0.17770000000E+01 0. -1.
         15    1    1    2    0    0 -0.20637052066E+01 -0.36005718890E+00 -0.88542660314E+01  0.92706135888E+01  0.17770000000E+01 0. -1.
</event>
<event>
 6    1  0.1196607E-002  0.1861159E+03  0.7546771E-02  0.1065612E+00
        -11   -1    0    0    0    0  0.00000000000E+00  0.00000000000E+00  0.18250000000E+03  0.18250000000E+03  0.00000000000E+00 0.  1.
         11   -1    0    0    0    0 -0.00000000000E+00 -0.00000000000E+00 -0.18250000000E+03  0.18250000000E+03  0.00000000000E+00 0. -1.
        -11    1    1    2    0    0 -0.93084852300E+01 -0.86263426899E+01  0.17843336366E+03  0.17888411599E+03  0.00000000000E+00 0.  1.
         11    1    1    2    0    0 -0.51944186657E+01  0.14973217056E+01 -0.12030359367E+03  0.12042499163E+03  0.00000000000E+00 0. -1.
        -15    1    1    2    0    0  0.11346926038E+02  0.74784433954E+01 -0.89326504680E+01  0.16359395451E+02  0.17770000000E+01 0.  1.
         15    1    1    2    0    0  0.31559778577E+01 -0.34942241103E+00 -0.49197119518E+02  0.49331496938E+02  0.17770000000E+01 0. -1.
</event>
<event>
 6    1  0.1196607E-002  0.1877516E+03  0.7546771E-02  0.1064350E+00
        -11   -1    0    0    0    0  0.00000000000E+00  0.00000000000E+00  0.18250000000E+03  0.18250000000E+03  0.00000000000E+00 0. -1.
         11   -1    0    0    0    0 -0.00000000000E+00 -0.00000000000E+00 -0.18250000000E+03  0.18250000000E+03  0.00000000000E+00 0. -1.
        -11    1    1    2    0    0 -0.10819865059E+02 -0.13018031504E+02  0.17643825619E+03  0.17724840443E+03  0.00000000000E+00 0. -1.
         11    1    1    2    0    0  0.13439530347E+02  0.63055528353E+01 -0.57858515240E+02  0.59732643992E+02  0.00000000000E+00 0. -1.
        -15    1    1    2    0    0  0.73493124347E+01  0.40329039064E+00  0.11827435299E+01  0.76636575902E+01  0.17770000000E+01 0.  1.
         15    1    1    2    0    0 -0.99689777227E+01  0.63091882780E+01 -0.11976248448E+03  0.12035529399E+03  0.17770000000E+01 0. -1.
</event>
<event>
 6    1  0.1196607E-002  0.1838751E+03  0.7546771E-02  0.1067366E+00
        -11   -1    0    0    0    0  0.00000000000E+00  0.00000000000E+00  0.18250000000E+03  0.18250000000E+03  0.00000000000E+00 0.  1.
         11   -1    0    0    0    0 -0.00000000000E+00 -0.00000000000E+00 -0.18250000000E+03  0.18250000000E+03  0.00000000000E+00 0. -1.
        -11    1    1    2    0    0 -0.19019286154E+01 -0.11759869074E+01  0.14445895659E+03  0.14447626246E+03  0.00000000000E+00 0.  1.
         11    1    1    2    0    0 -0.24672238254E+01 -0.89403374234E+00 -0.18110592992E+03  0.18112494125E+03  0.00000000000E+00 0. -1.
        -15    1    1    2    0    0  0.12361760529E+01 -0.14729151504E+01  0.22482679302E+00  0.26279053181E+01  0.17770000000E+01 0. -1.
         15    1    1    2    0    0  0.31329763879E+01  0.35429358002E+01  0.36422146541E+02  0.36770890971E+02  0.17770000000E+01 0.  1.
</event>
<event>
 6    1  0.1196607E-002  0.1877347E+03  0.7546771E-02  0.1064363E+00
        -11   -1    0    0    0    0  0.00000000000E+00  0.00000000000E+00  0.18250000000E+03  0.18250000000E+03  0.00000000000E+00 0.  1.
         11   -1    0    0    0    0 -0.00000000000E+00 -0.00000000000E+00 -0.18250000000E+03  0.18250000000E+03  0.00000000000E+00 0. -1.
        -11    1    1    2    0    0 -0.10430054351E+02  0.13183922422E+01  0.17695331985E+03  0.17726534235E+03  0.00000000000E+00 0.  1.
         11    1    1    2    0    0  0.10492961642E+02 -0.14413356193E+02 -0.15524780200E+03  0.15626812569E+03  0.00000000000E+00 0. -1.
        -15    1    1    2    0    0  0.16445939303E+01 -0.42149268593E+01 -0.24027463027E+01  0.54222888544E+01  0.17770000000E+01 0.  1.
         15    1    1    2    0    0 -0.17075012214E+01  0.17309890810E+02 -0.19302771555E+02  0.26044243106E+02  0.17770000000E+01 0. -1.
</event>
<event>
 6    1  0.1196607E-002  0.1846923E+03  0.7546771E-02  0.1066723E+00
        -11   -1    0    0    0    0  0.00000000000E+00  0.00000000000E+00  0.18250000000E+03  0.18250000000E+03  0.00000000000E+00 0.  1.
         11   -1    0    0    0    0 -0.00000000000E+00 -0.00000000000E+00 -0.18250000000E+03  0.18250000000E+03  0.00000000000E+00 0. -1.
        -11    1    1    2    0    0 -0.10675848019E+01 -0.50557099855E+01  0.18023363985E+03  0.18030769499E+03  0.00000000000E+00 0.  1.
         11    1    1    2    0    0  0.33504202907E+01 -0.77069074886E+00 -0.16005037538E+03  0.16008729475E+03  0.00000000000E+00 0. -1.
        -15    1    1    2    0    0 -0.70094449680E+00  0.10244523435E+01 -0.18991884216E+02  0.19115182993E+02  0.17770000000E+01 0.  1.
         15    1    1    2    0    0 -0.15818909921E+01  0.48019483908E+01 -0.11913802494E+01  0.54898272612E+01  0.17770000000E+01 0. -1.
</event>
<event>
 6    1  0.1196607E-002  0.1851706E+03  0.7546771E-02  0.1066349E+00
        -11   -1    0    0    0    0  0.00000000000E+00  0.00000000000E+00  0.18250000000E+03  0.18250000000E+03  0.00000000000E+00 0.  1.
         11   -1    0    0    0    0 -0.00000000000E+00 -0.00000000000E+00 -0.18250000000E+03  0.18250000000E+03  0.00000000000E+00 0.  1.
        -11    1    1    2    0    0 -0.88137700582E+01 -0.35793582256E+01  0.17957762129E+03  0.17982940921E+03  0.00000000000E+00 0.  1.
         11    1    1    2    0    0  0.55544796719E+01  0.12694094110E-01 -0.13109613821E+03  0.13121375636E+03  0.00000000000E+00 0.  1.
        -15    1    1    2    0    0 -0.27546085760E+01 -0.57164033533E+01 -0.32288182016E+01  0.73381286227E+01  0.17770000000E+01 0. -1.
         15    1    1    2    0    0  0.60138989624E+01  0.92830674848E+01 -0.45252664884E+02  0.46618705804E+02  0.17770000000E+01 0.  1.
</event>
<event>
 6    1  0.1196607E-002  0.1846019E+03  0.7546771E-02  0.1066794E+00
        -11   -1    0    0    0    0  0.00000000000E+00  0.00000000000E+00  0.18250000000E+03  0.18250000000E+03  0.00000000000E+00 0.  1.
         11   -1    0    0    0    0 -0.00000000000E+00 -0.00000000000E+00 -0.18250000000E+03  0.18250000000E+03  0.00000000000E+00 0.  1.
        -11    1    1    2    0    0  0.71841946892E+00 -0.27943220358E+01  0.15946367135E+03  0.15948977034E+03  0.00000000000E+00 0.  1.
         11    1    1    2    0    0  0.29412832430E+01 -0.22092137395E+01 -0.18036061360E+03  0.18039812280E+03  0.00000000000E+00 0.  1.
        -15    1    1    2    0    0 -0.46706997820E+01  0.33658733487E+01  0.24894677923E+01  0.65191808337E+01  0.17770000000E+01 0.  1.
         15    1    1    2    0    0  0.10109970701E+01  0.16376624267E+01  0.18407474460E+02  0.18592926028E+02  0.17770000000E+01 0.  1.
</event>
<event>
 6    1  0.1196607E-002  0.1865649E+03  0.7546771E-02  0.1065264E+00
        -11   -1    0    0    0    0  0.00000000000E+00  0.00000000000E+00  0.18250000000E+03  0.18250000000E+03  0.00000000000E+00 0. -1.
         11   -1    0    0    0    0 -0.00000000000E+00 -0.00000000000E+00 -0.18250000000E+03  0.18250000000E+03  0.00000000000E+00 0. -1.
        -11    1    1    2    0    0  0.16320718951E+01  0.67127335164E+01  0.17389043833E+03  0.17402760986E+03  0.00000000000E+00 0. -1.
         11    1    1    2    0    0  0.36127189883E+01 -0.21211996732E+01 -0.17838594783E+03  0.17843513558E+03  0.00000000000E+00 0. -1.
        -15    1    1    2    0    0  0.20854580094E+01 -0.14681634323E-01  0.26460016615E+00  0.27526519771E+01  0.17770000000E+01 0. -1.
         15    1    1    2    0    0 -0.73302488928E+01 -0.45768522088E+01  0.42309093307E+01  0.97846025845E+01  0.17770000000E+01 0. -1.
</event>
<event>
 6    1  0.1196607E-002  0.1984118E+03  0.7546771E-02  0.1056450E+00
        -11   -1    0    0    0    0  0.00000000000E+00  0.00000000000E+00  0.18250000000E+03  0.18250000000E+03  0.00000000000E+00 0.  1.
         11   -1    0    0    0    0 -0.00000000000E+00 -0.00000000000E+00 -0.18250000000E+03  0.18250000000E+03  0.00000000000E+00 0.  1.
        -11    1    1    2    0    0 -0.27784462999E+01 -0.35336389722E+01  0.16652757446E+03  0.16658823314E+03  0.00000000000E+00 0.  1.
         11    1    1    2    0    0  0.44734408340E+01  0.16181564357E+01 -0.14985120045E+03  0.14992669001E+03  0.00000000000E+00 0.  1.
        -15    1    1    2    0    0  0.13134963166E+02  0.18674691001E+02 -0.10559292527E+02  0.25217607520E+02  0.17770000000E+01 0.  1.
         15    1    1    2    0    0 -0.14829957701E+02 -0.16759208464E+02 -0.61170814816E+01  0.23267469321E+02  0.17770000000E+01 0. -1.
</event>
<event>
 6    1  0.1196607E-002  0.1834600E+03  0.7546771E-02  0.1067693E+00
        -11   -1    0    0    0    0  0.00000000000E+00  0.00000000000E+00  0.18250000000E+03  0.18250000000E+03  0.00000000000E+00 0. -1.
         11   -1    0    0    0    0 -0.00000000000E+00 -0.00000000000E+00 -0.18250000000E+03  0.18250000000E+03  0.00000000000E+00 0.  1.
        -11    1    1    2    0    0 -0.19634317694E+01  0.34622666078E+01  0.18149640389E+03  0.18154004236E+03  0.00000000000E+00 0. -1.
         11    1    1    2    0    0  0.15823315699E+01 -0.17296290020E+01 -0.10976724799E+03  0.10979227715E+03  0.00000000000E+00 0.  1.
        -15    1    1    2    0    0 -0.44980576568E+00 -0.49302885654E+01 -0.66421735821E+01  0.84726778211E+01  0.17770000000E+01 0.  1.
         15    1    1    2    0    0  0.83090596512E+00  0.31976509596E+01 -0.65086982321E+02  0.65195002669E+02  0.17770000000E+01 0.  1.
</event>
<event>
 6    1  0.1196607E-002  0.1849220E+03  0.7546771E-02  0.1066543E+00
        -11   -1    0    0    0    0  0.00000000000E+00  0.00000000000E+00  0.18250000000E+03  0.18250000000E+03  0.00000000000E+00 0.  1.
         11   -1    0    0    0    0 -0.00000000000E+00 -0.00000000000E+00 -0.18250000000E+03  0.18250000000E+03  0.00000000000E+00 0. -1.
        -11    1    1    2    0    0  0.31888814975E+01 -0.59207085894E+01  0.17995236614E+03  0.18007797709E+03  0.00000000000E+00 0.  1.
         11    1    1    2    0    0 -0.51610615192E+01 -0.93989670789E+00 -0.41603216898E+02  0.41932655749E+02  0.00000000000E+00 0. -1.
        -15    1    1    2    0    0 -0.13333511569E+02  0.69953297826E+01 -0.10688118148E+03  0.10795120126E+03  0.17770000000E+01 0. -1.
         15    1    1    2    0    0  0.15305691590E+02 -0.13472448533E+00 -0.31467967759E+02  0.35038165900E+02  0.17770000000E+01 0.  1.
</event>
<event>
 6    1  0.1196607E-002  0.1844014E+03  0.7546771E-02  0.1066951E+00
        -11   -1    0    0    0    0  0.00000000000E+00  0.00000000000E+00  0.18250000000E+03  0.18250000000E+03  0.00000000000E+00 0.  1.
         11   -1    0    0    0    0 -0.00000000000E+00 -0.00000000000E+00 -0.18250000000E+03  0.18250000000E+03  0.00000000000E+00 0. -1.
        -11    1    1    2    0    0 -0.41649877015E+01  0.19550994572E+01  0.18053995581E+03  0.18059857469E+03  0.00000000000E+00 0.  1.
         11    1    1    2    0    0  0.34942953837E+00 -0.23812889335E+01 -0.17595769773E+03  0.17597415728E+03  0.00000000000E+00 0. -1.
        -15    1    1    2    0    0  0.70329289336E+00 -0.29193440742E+00  0.65452262071E+00  0.20410721332E+01  0.17770000000E+01 0. -1.
         15    1    1    2    0    0  0.31122652698E+01  0.71812388366E+00 -0.52367806944E+01  0.63861958992E+01  0.17770000000E+01 0.  1.
</event>
<event>
 6    1  0.1196607E-002  0.1843711E+03  0.7546771E-02  0.1066975E+00
        -11   -1    0    0    0    0  0.00000000000E+00  0.00000000000E+00  0.18250000000E+03  0.18250000000E+03  0.00000000000E+00 0.  1.
         11   -1    0    0    0    0 -0.00000000000E+00 -0.00000000000E+00 -0.18250000000E+03  0.18250000000E+03  0.00000000000E+00 0. -1.
        -11    1    1    2    0    0  0.21547316625E+01  0.12028374357E+01  0.14951510877E+03  0.14953547217E+03  0.00000000000E+00 0.  1.
         11    1    1    2    0    0  0.72099511486E+01  0.42684733977E+00 -0.18048443518E+03  0.18062889286E+03  0.00000000000E+00 0. -1.
        -15    1    1    2    0    0  0.16897813281E+01 -0.28526334045E+01  0.13786277579E+02  0.14290278400E+02  0.17770000000E+01 0.  1.
         15    1    1    2    0    0 -0.11054464139E+02  0.12229486290E+01  0.17183048826E+02  0.20545356573E+02  0.17770000000E+01 0. -1.
</event>
<event>
 6    1  0.1196607E-002  0.1904585E+03  0.7546771E-02  0.1062291E+00
        -11   -1    0    0    0    0  0.00000000000E+00  0.00000000000E+00  0.18250000000E+03  0.18250000000E+03  0.00000000000E+00 0. -1.
         11   -1    0    0    0    0 -0.00000000000E+00 -0.00000000000E+00 -0.18250000000E+03  0.18250000000E+03  0.00000000000E+00 0.  1.
        -11    1    1    2    0    0 -0.20469407492E+01 -0.22324652093E+01  0.17451523329E+03  0.17454151517E+03  0.00000000000E+00 0. -1.
         11    1    1    2    0    0 -0.13456045880E+00 -0.54603792002E+01 -0.14314402726E+03  0.14324819855E+03  0.00000000000E+00 0.  1.
        -15    1    1    2    0    0 -0.10090284129E+02  0.11710779465E+02 -0.28049939293E+01  0.15810816216E+02  0.17770000000E+01 0.  1.
         15    1    1    2    0    0  0.12271785337E+02 -0.40179350551E+01 -0.28566212102E+02  0.31399470064E+02  0.17770000000E+01 0. -1.
</event>
<event>
 6    1  0.1196607E-002  0.1834511E+03  0.7546771E-02  0.1067700E+00
        -11   -1    0    0    0    0  0.00000000000E+00  0.00000000000E+00  0.18250000000E+03  0.18250000000E+03  0.00000000000E+00 0. -1.
         11   -1    0    0    0    0 -0.00000000000E+00 -0.00000000000E+00 -0.18250000000E+03  0.18250000000E+03  0.00000000000E+00 0.  1.
        -11    1    1    2    0    0 -0.30374373190E+00 -0.28864406334E+01  0.18152572863E+03  0.18154892991E+03  0.00000000000E+00 0. -1.
         11    1    1    2    0    0 -0.15508484550E+01  0.13706189581E+01 -0.98180177877E+02  0.98201991096E+02  0.00000000000E+00 0.  1.
        -15    1    1    2    0    0  0.24053165908E+01 -0.14418544633E+01 -0.20999123528E+01  0.39283397364E+01  0.17770000000E+01 0. -1.
         15    1    1    2    0    0 -0.55072440389E+00  0.29576761386E+01 -0.81245638396E+02  0.81320739254E+02  0.17770000000E+01 0.  1.
</event>
<event>
 6    1  0.1196607E-002  0.1833712E+03  0.7546771E-02  0.1067763E+00
        -11   -1    0    0    0    0  0.00000000000E+00  0.00000000000E+00  0.18250000000E+03  0.18250000000E+03  0.00000000000E+00 0.  1.
         11   -1    0    0    0    0 -0.00000000000E+00 -0.00000000000E+00 -0.18250000000E+03  0.18250000000E+03  0.00000000000E+00 0.  1.
        -11    1    1    2    0    0 -0.18798116051E+01  0.24430809022E+01  0.18160262065E+03  0.18162878120E+03  0.00000000000E+00 0.  1.
         11    1    1    2    0    0  0.52240367302E+00 -0.25956291672E+01 -0.15991676990E+03  0.15993868666E+03  0.00000000000E+00 0.  1.
        -15    1    1    2    0    0  0.30229060006E+01 -0.13788824024E+01 -0.39274446928E+01  0.54425938838E+01  0.17770000000E+01 0. -1.
         15    1    1    2    0    0 -0.16654980685E+01  0.15314306675E+01 -0.17758406056E+02  0.17989938253E+02  0.17770000000E+01 0.  1.
</event>
<event>
 6    1  0.1196607E-002  0.1835360E+03  0.7546771E-02  0.1067633E+00
        -11   -1    0    0    0    0  0.00000000000E+00  0.00000000000E+00  0.18250000000E+03  0.18250000000E+03  0.00000000000E+00 0.  1.
         11   -1    0    0    0    0 -0.00000000000E+00 -0.00000000000E+00 -0.18250000000E+03  0.18250000000E+03  0.00000000000E+00 0.  1.
        -11    1    1    2    0    0 -0.15393347008E+01 -0.19101078101E+01  0.18144739118E+03  0.18146397391E+03  0.00000000000E+00 0.  1.
         11    1    1    2    0    0  0.84595427788E+00 -0.26343858059E+01 -0.17215586470E+03  0.17217809784E+03  0.00000000000E+00 0.  1.
        -15    1    1    2    0    0  0.14188718819E+00  0.30173536020E+01 -0.77337021780E+01  0.84907263006E+01  0.17770000000E+01 0.  1.
         15    1    1    2    0    0  0.55149323472E+00  0.15271400139E+01 -0.15578243042E+01  0.28672019414E+01  0.17770000000E+01 0. -1.
</event>
<event>
 6    1  0.1196607E-002  0.1853418E+03  0.7546771E-02  0.1066215E+00
        -11   -1    0    0    0    0  0.00000000000E+00  0.00000000000E+00  0.18250000000E+03  0.18250000000E+03  0.00000000000E+00 0. -1.
         11   -1    0    0    0    0 -0.00000000000E+00 -0.00000000000E+00 -0.18250000000E+03  0.18250000000E+03  0.00000000000E+00 0. -1.
        -11    1    1    2    0    0 -0.57913239998E+01  0.12410609825E+02  0.15729075252E+03  0.15788585592E+03  0.00000000000E+00 0. -1.
         11    1    1    2    0    0 -0.27584154697E+01 -0.31015374679E+01 -0.17961025266E+03  0.17965820674E+03  0.00000000000E+00 0. -1.
        -15    1    1    2    0    0  0.31309044620E+00 -0.26160857049E+01  0.62444813924E+00  0.32387643510E+01  0.17770000000E+01 0.  1.
         15    1    1    2    0    0  0.82366490233E+01 -0.66929866524E+01  0.21695051995E+02  0.24217172988E+02  0.17770000000E+01 0. -1.
</event>
<event>
 6    1  0.1196607E-002  0.1864452E+03  0.7546771E-02  0.1065357E+00
        -11   -1    0    0    0    0  0.00000000000E+00  0.00000000000E+00  0.18250000000E+03  0.18250000000E+03  0.00000000000E+00 0. -1.
         11   -1    0    0    0    0 -0.00000000000E+00 -0.00000000000E+00 -0.18250000000E+03  0.18250000000E+03  0.00000000000E+00 0. -1.
        -11    1    1    2    0    0 -0.60302958087E+01  0.20256401275E+01  0.17844148183E+03  0.17855483786E+03  0.00000000000E+00 0. -1.
         11    1    1    2    0    0  0.21924595023E+01 -0.14557005093E+00 -0.12335674202E+03  0.12337631000E+03  0.00000000000E+00 0. -1.
        -15    1    1    2    0    0  0.11014958498E+02 -0.78662753941E+01 -0.50858842921E+02  0.52659160946E+02  0.17770000000E+01 0.  1.
         15    1    1    2    0    0 -0.71771221918E+01  0.59862053175E+01 -0.42258968951E+01  0.10409691188E+02  0.17770000000E+01 0. -1.
</event>
<event>
 6    1  0.1196607E-002  0.1829454E+03  0.7546771E-02  0.1068101E+00
        -11   -1    0    0    0    0  0.00000000000E+00  0.00000000000E+00  0.18250000000E+03  0.18250000000E+03  0.00000000000E+00 0.  1.
         11   -1    0    0    0    0 -0.00000000000E+00 -0.00000000000E+00 -0.18250000000E+03  0.18250000000E+03  0.00000000000E+00 0.  1.
        -11    1    1    2    0    0  0.20568615531E+01 -0.20095447706E+01  0.18203192787E+03  0.18205463936E+03  0.00000000000E+00 0.  1.
         11    1    1    2    0    0  0.33548570948E+01 -0.16278048644E+01 -0.83456671367E+02  0.83539935423E+02  0.00000000000E+00 0.  1.
        -15    1    1    2    0    0 -0.25803012803E+01  0.15999826330E+01 -0.88880610733E+02  0.88950202880E+02  0.17770000000E+01 0.  1.
         15    1    1    2    0    0 -0.28314173676E+01  0.20373670020E+01 -0.96946457665E+01  0.10455222339E+02  0.17770000000E+01 0.  1.
</event>
<event>
 6    1  0.1196607E-002  0.1825428E+03  0.7546771E-02  0.1068421E+00
        -11   -1    0    0    0    0  0.00000000000E+00  0.00000000000E+00  0.18250000000E+03  0.18250000000E+03  0.00000000000E+00 0. -1.
         11   -1    0    0    0    0 -0.00000000000E+00 -0.00000000000E+00 -0.18250000000E+03  0.18250000000E+03  0.00000000000E+00 0.  1.
        -11    1    1    2    0    0 -0.13064262592E+01 -0.24891667158E+01  0.18243557754E+03  0.18245723513E+03  0.00000000000E+00 0. -1.
         11    1    1    2    0    0 -0.17813262856E-01  0.95191449992E+00 -0.38678192868E+02  0.38689909047E+02  0.00000000000E+00 0.  1.
        -15    1    1    2    0    0  0.10305450146E+01 -0.77284387164E+00 -0.76932151792E+02  0.76963452489E+02  0.17770000000E+01 0.  1.
         15    1    1    2    0    0  0.29369450750E+00  0.23100960876E+01 -0.66825232876E+02  0.66889403334E+02  0.17770000000E+01 0.  1.
</event>
<event>
 6    1  0.1196607E-002  0.1832754E+03  0.7546771E-02  0.1067839E+00
        -11   -1    0    0    0    0  0.00000000000E+00  0.00000000000E+00  0.18250000000E+03  0.18250000000E+03  0.00000000000E+00 0. -1.
         11   -1    0    0    0    0 -0.00000000000E+00 -0.00000000000E+00 -0.18250000000E+03  0.18250000000E+03  0.00000000000E+00 0.  1.
        -11    1    1    2    0    0  0.30421449887E+01 -0.88131325970E-01  0.85426656953E+02  0.85480852426E+02  0.00000000000E+00 0. -1.
         11    1    1    2    0    0  0.49709754141E+01 -0.14434217957E+01 -0.18165085760E+03  0.18172459418E+03  0.00000000000E+00 0.  1.
        -15    1    1    2    0    0  0.12871450082E+01  0.11431752399E+01  0.22514596233E+01  0.33452042294E+01  0.17770000000E+01 0. -1.
         15    1    1    2    0    0 -0.93002654110E+01  0.38837788178E+00  0.93972741021E+02  0.94449349167E+02  0.17770000000E+01 0. -1.
</event>
<event>
 6    1  0.1196607E-002  0.1828406E+03  0.7546771E-02  0.1068184E+00
        -11   -1    0    0    0    0  0.00000000000E+00  0.00000000000E+00  0.18250000000E+03  0.18250000000E+03  0.00000000000E+00 0. -1.
         11   -1    0    0    0    0 -0.00000000000E+00 -0.00000000000E+00 -0.18250000000E+03  0.18250000000E+03  0.00000000000E+00 0.  1.
        -11    1    1    2    0    0  0.23041714810E+00 -0.28456999697E+01  0.14145195694E+03  0.14148076626E+03  0.00000000000E+00 0. -1.
         11    1    1    2    0    0 -0.26923197496E+01 -0.10080640465E+00 -0.18213947033E+03  0.18215939558E+03  0.00000000000E+00 0.  1.
        -15    1    1    2    0    0  0.32790719200E+00  0.21332434572E+01  0.33430579123E+02  0.33547274111E+02  0.17770000000E+01 0. -1.
         15    1    1    2    0    0  0.21339954095E+01  0.81326291710E+00  0.72569342696E+01  0.78125640460E+01  0.17770000000E+01 0.  1.
</event>
<event>
 6    1  0.1196607E-002  0.1992188E+03  0.7546771E-02  0.1055874E+00
        -11   -1    0    0    0    0  0.00000000000E+00  0.00000000000E+00  0.18250000000E+03  0.18250000000E+03  0.00000000000E+00 0. -1.
         11   -1    0    0    0    0 -0.00000000000E+00 -0.00000000000E+00 -0.18250000000E+03  0.18250000000E+03  0.00000000000E+00 0. -1.
        -11    1    1    2    0    0 -0.15144632243E+01 -0.16247697796E+01  0.16243074861E+03  0.16244593430E+03  0.00000000000E+00 0. -1.
         11    1    1    2    0    0 -0.27205037862E+01 -0.84535689965E+00 -0.16575671628E+03  0.16578119544E+03  0.00000000000E+00 0. -1.
        -15    1    1    2    0    0 -0.15971322478E+02  0.12562484709E+01 -0.34894891692E+00  0.16122679563E+02  0.17770000000E+01 0. -1.
         15    1    1    2    0    0  0.20206289489E+02  0.12138782084E+01  0.36749165841E+01  0.20650190704E+02  0.17770000000E+01 0.  1.
</event>
<event>
 6    1  0.1196607E-002  0.1854084E+03  0.7546771E-02  0.1066163E+00
        -11   -1    0    0    0    0  0.00000000000E+00  0.00000000000E+00  0.18250000000E+03  0.18250000000E+03  0.00000000000E+00 0.  1.
         11   -1    0    0    0    0 -0.00000000000E+00 -0.00000000000E+00 -0.18250000000E+03  0.18250000000E+03  0.00000000000E+00 0. -1.
        -11    1    1    2    0    0  0.29118004191E+01 -0.34708140506E+00  0.17956762124E+03  0.17959156341E+03  0.00000000000E+00 0.  1.
         11    1    1    2    0    0 -0.23329555938E+01  0.37481828052E+01 -0.17741209209E+03  0.17746701659E+03  0.00000000000E+00 0. -1.
        -15    1    1    2    0    0  0.99437197762E+00 -0.45444745084E+01 -0.17364480888E+01  0.52738984776E+01  0.17770000000E+01 0.  1.
         15    1    1    2    0    0 -0.15732168029E+01  0.11433731082E+01 -0.41908106378E+00  0.26675215298E+01  0.17770000000E+01 0. -1.
</event>
<event>
 6    1  0.1196607E-002  0.1830853E+03  0.7546771E-02  0.1067990E+00
        -11   -1    0    0    0    0  0.00000000000E+00  0.00000000000E+00  0.18250000000E+03  0.18250000000E+03  0.00000000000E+00 0.  1.
         11   -1    0    0    0    0 -0.00000000000E+00 -0.00000000000E+00 -0.18250000000E+03  0.18250000000E+03  0.00000000000E+00 0. -1.
        -11    1    1    2    0    0  0.24026656345E+01 -0.21090091691E+01  0.15499489734E+03  0.15502786499E+03  0.00000000000E+00 0.  1.
         11    1    1    2    0    0 -0.49755730935E+01 -0.26122090211E+01 -0.18182788229E+03  0.18191470183E+03  0.00000000000E+00 0. -1.
        -15    1    1    2    0    0  0.17799754516E+01  0.12106671862E+01  0.19491527543E+02  0.19690388584E+02  0.17770000000E+01 0. -1.
         15    1    1    2    0    0  0.79293200741E+00  0.35105510040E+01  0.73414573998E+01  0.83670445961E+01  0.17770000000E+01 0.  1.
</event>
<event>
 6    1  0.1196607E-002  0.1865004E+03  0.7546771E-02  0.1065314E+00
        -11   -1    0    0    0    0  0.00000000000E+00  0.00000000000E+00  0.18250000000E+03  0.18250000000E+03  0.00000000000E+00 0.  1.
         11   -1    0    0    0    0 -0.00000000000E+00 -0.00000000000E+00 -0.18250000000E+03  0.18250000000E+03  0.00000000000E+00 0. -1.
        -11    1    1    2    0    0 -0.14117523135E+01 -0.13275306100E+02  0.37289095802E+02  0.39606861304E+02  0.00000000000E+00 0.  1.
         11    1    1    2    0    0 -0.33691160945E+01  0.43733000868E+00 -0.17846725058E+03  0.17849958467E+03  0.00000000000E+00 0. -1.
        -15    1    1    2    0    0  0.15015420915E+01 -0.29205561458E+01 -0.94431916634E+00  0.38514600532E+01  0.17770000000E+01 0. -1.
         15    1    1    2    0    0  0.32793263165E+01  0.15758532237E+02  0.14212247394E+03  0.14304209397E+03  0.17770000000E+01 0.  1.
</event>
<event>
 6    1  0.1196607E-002  0.1831827E+03  0.7546771E-02  0.1067913E+00
        -11   -1    0    0    0    0  0.00000000000E+00  0.00000000000E+00  0.18250000000E+03  0.18250000000E+03  0.00000000000E+00 0.  1.
         11   -1    0    0    0    0 -0.00000000000E+00 -0.00000000000E+00 -0.18250000000E+03  0.18250000000E+03  0.00000000000E+00 0.  1.
        -11    1    1    2    0    0  0.14938487988E+01  0.23290190875E+01  0.18179628521E+03  0.18181734029E+03  0.00000000000E+00 0.  1.
         11    1    1    2    0    0  0.12644905835E+01 -0.27337106868E+01 -0.13802941562E+03  0.13806227467E+03  0.00000000000E+00 0.  1.
        -15    1    1    2    0    0 -0.70055297673E+00  0.15717543695E+01 -0.18243245370E+01  0.30736094884E+01  0.17770000000E+01 0.  1.
         15    1    1    2    0    0 -0.20577864056E+01 -0.11670627701E+01 -0.41942545053E+02  0.42046775559E+02  0.17770000000E+01 0.  1.
</event>
<event>
 6    1  0.1196607E-002  0.1851608E+03  0.7546771E-02  0.1066356E+00
        -11   -1    0    0    0    0  0.00000000000E+00  0.00000000000E+00  0.18250000000E+03  0.18250000000E+03  0.00000000000E+00 0. -1.
         11   -1    0    0    0    0 -0.00000000000E+00 -0.00000000000E+00 -0.18250000000E+03  0.18250000000E+03  0.00000000000E+00 0. -1.
        -11    1    1    2    0    0 -0.17104667877E+01 -0.28675226388E+01  0.17636021954E+03  0.17639182356E+03  0.00000000000E+00 0. -1.
         11    1    1    2    0    0  0.96350608945E+00  0.35024295807E+01 -0.17980254875E+03  0.17983923903E+03  0.00000000000E+00 0. -1.
        -15    1    1    2    0    0  0.70577407311E+00 -0.39003981489E+01  0.17301465185E+01  0.46757201304E+01  0.17770000000E+01 0.  1.
         15    1    1    2    0    0  0.41186625153E-01  0.32654912070E+01  0.17121826918E+01  0.40932172837E+01  0.17770000000E+01 0. -1.
</event>
<event>
 6    1  0.1196607E-002  0.1831775E+03  0.7546771E-02  0.1067917E+00
        -11   -1    0    0    0    0  0.00000000000E+00  0.00000000000E+00  0.18250000000E+03  0.18250000000E+03  0.00000000000E+00 0.  1.
         11   -1    0    0    0    0 -0.00000000000E+00 -0.00000000000E+00 -0.18250000000E+03  0.18250000000E+03  0.00000000000E+00 0. -1.
        -11    1    1    2    0    0  0.25753790989E+01 -0.36511885710E+01  0.18176764096E+03  0.18182254826E+03  0.00000000000E+00 0.  1.
         11    1    1    2    0    0 -0.45282285309E+01  0.18625208392E+01 -0.14365733791E+03  0.14374075474E+03  0.00000000000E+00 0. -1.
        -15    1    1    2    0    0  0.30537184115E+01 -0.16130941797E+01 -0.31317108115E+02  0.31557031842E+02  0.17770000000E+01 0. -1.
         15    1    1    2    0    0 -0.11008689794E+01  0.34017619115E+01 -0.67931949340E+01  0.78796651593E+01  0.17770000000E+01 0.  1.
</event>
<event>
 6    1  0.1196607E-002  0.1857503E+03  0.7546771E-02  0.1065897E+00
        -11   -1    0    0    0    0  0.00000000000E+00  0.00000000000E+00  0.18250000000E+03  0.18250000000E+03  0.00000000000E+00 0.  1.
         11   -1    0    0    0    0 -0.00000000000E+00 -0.00000000000E+00 -0.18250000000E+03  0.18250000000E+03  0.00000000000E+00 0.  1.
        -11    1    1    2    0    0  0.47044500999E-01 -0.29313120099E+01  0.17106831562E+03  0.17109343474E+03  0.00000000000E+00 0.  1.
         11    1    1    2    0    0 -0.51505089425E+00 -0.37389308665E+01 -0.17920996991E+03  0.17924970906E+03  0.00000000000E+00 0.  1.
        -15    1    1    2    0    0 -0.23213320431E+01  0.56273653490E+01  0.90699382854E+01  0.11066947760E+02  0.17770000000E+01 0. -1.
         15    1    1    2    0    0  0.27893384363E+01  0.10428775274E+01 -0.92828399444E+00  0.35899084423E+01  0.17770000000E+01 0.  1.
</event>
<event>
 6    1  0.1196607E-002  0.1831216E+03  0.7546771E-02  0.1067961E+00
        -11   -1    0    0    0    0  0.00000000000E+00  0.00000000000E+00  0.18250000000E+03  0.18250000000E+03  0.00000000000E+00 0.  1.
         11   -1    0    0    0    0 -0.00000000000E+00 -0.00000000000E+00 -0.18250000000E+03  0.18250000000E+03  0.00000000000E+00 0.  1.
        -11    1    1    2    0    0 -0.20225444536E+01  0.32799202012E+01  0.18183755786E+03  0.18187838248E+03  0.00000000000E+00 0.  1.
         11    1    1    2    0    0 -0.18995098794E+01 -0.15607927176E+01 -0.14364747774E+03  0.14366851455E+03  0.00000000000E+00 0.  1.
        -15    1    1    2    0    0  0.53106124599E+01  0.14061085627E+01 -0.18165578469E+02  0.19061104797E+02  0.17770000000E+01 0. -1.
         15    1    1    2    0    0 -0.13885581269E+01 -0.31252360462E+01 -0.20024501656E+02  0.20391998176E+02  0.17770000000E+01 0.  1.
</event>
<event>
 6    1  0.1196607E-002  0.1848597E+03  0.7546771E-02  0.1066592E+00
        -11   -1    0    0    0    0  0.00000000000E+00  0.00000000000E+00  0.18250000000E+03  0.18250000000E+03  0.00000000000E+00 0. -1.
         11   -1    0    0    0    0 -0.00000000000E+00 -0.00000000000E+00 -0.18250000000E+03  0.18250000000E+03  0.00000000000E+00 0.  1.
        -11    1    1    2    0    0 -0.21070923689E+01  0.16139300494E+01  0.15819652418E+03  0.15821878799E+03  0.00000000000E+00 0. -1.
         11    1    1    2    0    0 -0.71434094398E+01  0.23537409737E+01 -0.17998319383E+03  0.18014027438E+03  0.00000000000E+00 0.  1.
        -15    1    1    2    0    0  0.51999125493E+01 -0.61949505961E+01  0.63676029468E+01  0.10446080590E+02  0.17770000000E+01 0.  1.
         15    1    1    2    0    0  0.40505892595E+01  0.22272795730E+01  0.15419066700E+02  0.16194857040E+02  0.17770000000E+01 0. -1.
</event>
<event>
 6    1  0.1196607E-002  0.1842059E+03  0.7546771E-02  0.1067105E+00
        -11   -1    0    0    0    0  0.00000000000E+00  0.00000000000E+00  0.18250000000E+03  0.18250000000E+03  0.00000000000E+00 0. -1.
         11   -1    0    0    0    0 -0.00000000000E+00 -0.00000000000E+00 -0.18250000000E+03  0.18250000000E+03  0.00000000000E+00 0. -1.
        -11    1    1    2    0    0 -0.19149725876E+01 -0.25967975035E+01  0.18076528733E+03  0.18079408061E+03  0.00000000000E+00 0. -1.
         11    1    1    2    0    0  0.34331426043E+01 -0.29470653116E+00 -0.15124522504E+03  0.15128447183E+03  0.00000000000E+00 0. -1.
        -15    1    1    2    0    0  0.33489406208E+01 -0.12561833101E+01 -0.23879985443E+02  0.24211667302E+02  0.17770000000E+01 0.  1.
         15    1    1    2    0    0 -0.48671106375E+01  0.41476873448E+01 -0.56400768499E+01  0.87097802579E+01  0.17770000000E+01 0. -1.
</event>
<event>
 6    1  0.1196607E-002  0.1827799E+03  0.7546771E-02  0.1068232E+00
        -11   -1    0    0    0    0  0.00000000000E+00  0.00000000000E+00  0.18250000000E+03  0.18250000000E+03  0.00000000000E+00 0. -1.
         11   -1    0    0    0    0 -0.00000000000E+00 -0.00000000000E+00 -0.18250000000E+03  0.18250000000E+03  0.00000000000E+00 0. -1.
        -11    1    1    2    0    0  0.99511058721E+00  0.83847137540E+00  0.84888683103E+02  0.84898656045E+02  0.00000000000E+00 0. -1.
         11    1    1    2    0    0  0.46877694520E+01  0.22663582549E+01 -0.18214572124E+03  0.18222012877E+03  0.00000000000E+00 0. -1.
        -15    1    1    2    0    0 -0.49368252544E+00 -0.93621271412E+00  0.68212330484E+02  0.68243680848E+02  0.17770000000E+01 0. -1.
         15    1    1    2    0    0 -0.51891975137E+01 -0.21686169162E+01  0.29044707652E+02  0.29637534340E+02  0.17770000000E+01 0. -1.
</event>
<event>
 6    1  0.1196607E-002  0.1975756E+03  0.7546771E-02  0.1057050E+00
        -11   -1    0    0    0    0  0.00000000000E+00  0.00000000000E+00  0.18250000000E+03  0.18250000000E+03  0.00000000000E+00 0. -1.
         11   -1    0    0    0    0 -0.00000000000E+00 -0.00000000000E+00 -0.18250000000E+03  0.18250000000E+03  0.00000000000E+00 0.  1.
        -11    1    1    2    0    0 -0.33592236129E+01 -0.92714252897E+01  0.13877755962E+03  0.13912747667E+03  0.00000000000E+00 0. -1.
         11    1    1    2    0    0  0.42313509157E+01  0.32695652541E+00 -0.16737059551E+03  0.16742439330E+03  0.00000000000E+00 0.  1.
        -15    1    1    2    0    0  0.15258773626E+01  0.51124547967E+01 -0.14255811873E+02  0.15324862052E+02  0.17770000000E+01 0.  1.
         15    1    1    2    0    0 -0.23980046654E+01  0.38320139676E+01  0.42848847758E+02  0.43123267972E+02  0.17770000000E+01 0. -1.
</event>
<event>
 6    1  0.1196607E-002  0.1914079E+03  0.7546771E-02  0.1061577E+00
        -11   -1    0    0    0    0  0.00000000000E+00  0.00000000000E+00  0.18250000000E+03  0.18250000000E+03  0.00000000000E+00 0. -1.
         11   -1    0    0    0    0 -0.00000000000E+00 -0.00000000000E+00 -0.18250000000E+03  0.18250000000E+03  0.00000000000E+00 0.  1.
        -11    1    1    2    0    0  0.28039172102E+01  0.48344213440E+01  0.99607631586E+02  0.99764291465E+02  0.00000000000E+00 0. -1.
         11    1    1    2    0    0 -0.34276058881E+01  0.14412900680E+01 -0.17355230790E+03  0.17359213512E+03  0.00000000000E+00 0.  1.
        -15    1    1    2    0    0  0.33731481433E+01 -0.71185392584E+01 -0.69645873895E+01  0.10663720555E+02  0.17770000000E+01 0.  1.
         15    1    1    2    0    0 -0.27494594654E+01  0.84282784636E+00  0.80909263705E+02  0.80979852855E+02  0.17770000000E+01 0. -1.
</event>
<event>
 6    1  0.1196607E-002  0.1900216E+03  0.7546771E-02  0.1062620E+00
        -11   -1    0    0    0    0  0.00000000000E+00  0.00000000000E+00  0.18250000000E+03  0.18250000000E+03  0.00000000000E+00 0. -1.
         11   -1    0    0    0    0 -0.00000000000E+00 -0.00000000000E+00 -0.18250000000E+03  0.18250000000E+03  0.00000000000E+00 0.  1.
        -11    1    1    2    0    0 -0.68535794534E+00  0.50818214209E+01  0.16568698044E+03  0.16576631175E+03  0.00000000000E+00 0. -1.
         11    1    1    2    0    0 -0.23791427255E+01 -0.41554437219E+00 -0.17496168349E+03  0.17497835205E+03  0.00000000000E+00 0.  1.
        -15    1    1    2    0    0 -0.91424345771E+00 -0.46465599353E+01  0.15698370960E+02  0.16493117963E+02  0.17770000000E+01 0.  1.
         15    1    1    2    0    0  0.39787441285E+01 -0.19717113378E-01 -0.64236679039E+01  0.77622182361E+01  0.17770000000E+01 0.  1.
</event>
<event>
 6    1  0.1196607E-002  0.1887289E+03  0.7546771E-02  0.1063602E+00
        -11   -1    0    0    0    0  0.00000000000E+00  0.00000000000E+00  0.18250000000E+03  0.18250000000E+03  0.00000000000E+00 0. -1.
         11   -1    0    0    0    0 -0.00000000000E+00 -0.00000000000E+00 -0.18250000000E+03  0.18250000000E+03  0.00000000000E+00 0. -1.
        -11    1    1    2    0    0  0.20860350627E+01 -0.19956880909E+01  0.13011618154E+03  0.13014820403E+03  0.00000000000E+00 0. -1.
         11    1    1    2    0    0  0.15153140513E+01 -0.18183449280E+02 -0.17532416391E+03  0.17627108798E+03  0.00000000000E+00 0. -1.
        -15    1    1    2    0    0  0.22385518728E+01  0.22337542015E+02  0.13581185216E+02  0.26297969857E+02  0.17770000000E+01 0. -1.
         15    1    1    2    0    0 -0.58399009868E+01 -0.21584046437E+01  0.31626797158E+02  0.32282738137E+02  0.17770000000E+01 0.  1.
</event>
<event>
 6    1  0.1196607E-002  0.1832160E+03  0.7546771E-02  0.1067886E+00
        -11   -1    0    0    0    0  0.00000000000E+00  0.00000000000E+00  0.18250000000E+03  0.18250000000E+03  0.00000000000E+00 0. -1.
         11   -1    0    0    0    0 -0.00000000000E+00 -0.00000000000E+00 -0.18250000000E+03  0.18250000000E+03  0.00000000000E+00 0.  1.
        -11    1    1    2    0    0 -0.61021976513E+00  0.91361187494E+00  0.79466382224E+02  0.79473976612E+02  0.00000000000E+00 0. -1.
         11    1    1    2    0    0 -0.43870462436E+01  0.23882680572E+01 -0.18171531567E+03  0.18178395404E+03  0.00000000000E+00 0.  1.
        -15    1    1    2    0    0 -0.22670479577E+01 -0.72163026838E+01  0.29539266916E+02  0.30544075527E+02  0.17770000000E+01 0.  1.
         15    1    1    2    0    0  0.72643139664E+01  0.39144227517E+01  0.72709666530E+02  0.73197993816E+02  0.17770000000E+01 0. -1.
</event>
<event>
 6    1  0.1196607E-002  0.1879931E+03  0.7546771E-02  0.1064164E+00
        -11   -1    0    0    0    0  0.00000000000E+00  0.00000000000E+00  0.18250000000E+03  0.18250000000E+03  0.00000000000E+00 0. -1.
         11   -1    0    0    0    0 -0.00000000000E+00 -0.00000000000E+00 -0.18250000000E+03  0.18250000000E+03  0.00000000000E+00 0. -1.
        -11    1    1    2    0    0 -0.46086232825E+01  0.52504998297E+00  0.17694608425E+03  0.17700686941E+03  0.00000000000E+00 0. -1.
         11    1    1    2    0    0  0.43568871846E+01 -0.15876978629E+01 -0.17088561428E+03  0.17094851979E+03  0.00000000000E+00 0. -1.
        -15    1    1    2    0    0  0.66962808772E+01 -0.24087829624E+01  0.65934055552E-01  0.73351543437E+01  0.17770000000E+01 0.  1.
         15    1    1    2    0    0 -0.64445447793E+01  0.34714308424E+01 -0.61264040287E+01  0.97094564641E+01  0.17770000000E+01 0. -1.
</event>
<event>
 6    1  0.1196607E-002  0.1842930E+03  0.7546771E-02  0.1067036E+00
        -11   -1    0    0    0    0  0.00000000000E+00  0.00000000000E+00  0.18250000000E+03  0.18250000000E+03  0.00000000000E+00 0. -1.
         11   -1    0    0    0    0 -0.00000000000E+00 -0.00000000000E+00 -0.18250000000E+03  0.18250000000E+03  0.00000000000E+00 0.  1.
        -11    1    1    2    0    0 -0.39112767944E+01  0.12553966605E+01  0.18066031295E+03  0.18070700811E+03  0.00000000000E+00 0. -1.
         11    1    1    2    0    0  0.75389896505E+01  0.76428338958E+00 -0.15430984420E+03  0.15449578800E+03  0.00000000000E+00 0.  1.
        -15    1    1    2    0    0  0.26542624119E+01 -0.14044705018E+01 -0.21128201476E+02  0.21414394059E+02  0.17770000000E+01 0.  1.
         15    1    1    2    0    0 -0.62819752680E+01 -0.61520954833E+00 -0.52222672749E+01  0.83828098241E+01  0.17770000000E+01 0. -1.
</event>
<event>
 6    1  0.1196607E-002  0.1836170E+03  0.7546771E-02  0.1067569E+00
        -11   -1    0    0    0    0  0.00000000000E+00  0.00000000000E+00  0.18250000000E+03  0.18250000000E+03  0.00000000000E+00 0.  1.
         11   -1    0    0    0    0 -0.00000000000E+00 -0.00000000000E+00 -0.18250000000E+03  0.18250000000E+03  0.00000000000E+00 0.  1.
        -11    1    1    2    0    0  0.71208356798E+01  0.85423700740E+01  0.18104171325E+03  0.18138296591E+03  0.00000000000E+00 0.  1.
         11    1    1    2    0    0 -0.72750050634E+01 -0.37349659043E+01 -0.70124262419E+02  0.70599489012E+02  0.00000000000E+00 0.  1.
        -15    1    1    2    0    0 -0.21722832031E+01 -0.92366706227E+01 -0.10319794537E+03  0.10364848554E+03  0.17770000000E+01 0.  1.
         15    1    1    2    0    0  0.23264525867E+01  0.44292664529E+01 -0.77195054611E+01  0.93690595319E+01  0.17770000000E+01 0. -1.
</event>
<event>
 6    1  0.1196607E-002  0.1763111E+03  0.7546771E-02  0.1073491E+00
        -11   -1    0    0    0    0  0.00000000000E+00  0.00000000000E+00  0.18250000000E+03  0.18250000000E+03  0.00000000000E+00 0.  1.
         11   -1    0    0    0    0 -0.00000000000E+00 -0.00000000000E+00 -0.18250000000E+03  0.18250000000E+03  0.00000000000E+00 0.  1.
        -11    1    1    2    0    0  0.75362108640E+01 -0.23426783327E-01  0.17603788749E+03  0.17619912842E+03  0.00000000000E+00 0.  1.
         11    1    1    2    0    0 -0.21334487463E+00  0.26505281931E+01 -0.17648916387E+03  0.17650919461E+03  0.00000000000E+00 0.  1.
        -15    1    1    2    0    0 -0.83235991794E+01 -0.35487001264E+01  0.21659898657E+01  0.94723184588E+01  0.17770000000E+01 0. -1.
         15    1    1    2    0    0  0.10007331900E+01  0.92159871671E+00 -0.17147134837E+01  0.28193585163E+01  0.17770000000E+01 0. -1.
</event>
<event>
 6    1  0.1196607E-002  0.1833014E+03  0.7546771E-02  0.1067819E+00
        -11   -1    0    0    0    0  0.00000000000E+00  0.00000000000E+00  0.18250000000E+03  0.18250000000E+03  0.00000000000E+00 0. -1.
         11   -1    0    0    0    0 -0.00000000000E+00 -0.00000000000E+00 -0.18250000000E+03  0.18250000000E+03  0.00000000000E+00 0.  1.
        -11    1    1    2    0    0  0.80394204645E+00 -0.25301056177E+01  0.18167917216E+03  0.18169856729E+03  0.00000000000E+00 0. -1.
         11    1    1    2    0    0 -0.10895931384E+01 -0.48081089538E+00 -0.29370405283E+02  0.29394541990E+02  0.00000000000E+00 0.  1.
        -15    1    1    2    0    0  0.25810766217E+01 -0.52426050347E+01 -0.13439353685E+02  0.14762141462E+02  0.17770000000E+01 0.  1.
         15    1    1    2    0    0 -0.22954255297E+01  0.82535215478E+01 -0.13886941319E+03  0.13914474926E+03  0.17770000000E+01 0.  1.
</event>
<event>
 6    1  0.1196607E-002  0.1899054E+03  0.7546771E-02  0.1062708E+00
        -11   -1    0    0    0    0  0.00000000000E+00  0.00000000000E+00  0.18250000000E+03  0.18250000000E+03  0.00000000000E+00 0. -1.
         11   -1    0    0    0    0 -0.00000000000E+00 -0.00000000000E+00 -0.18250000000E+03  0.18250000000E+03  0.00000000000E+00 0. -1.
        -11    1    1    2    0    0 -0.14021376869E+02  0.22663477087E+02  0.17305456009E+03  0.17509458293E+03  0.00000000000E+00 0. -1.
         11    1    1    2    0    0  0.20228166648E+01  0.55190476528E+00 -0.13941016884E+03  0.13942593576E+03  0.00000000000E+00 0. -1.
        -15    1    1    2    0    0  0.18107546230E+01 -0.13344516843E+02 -0.33536295942E+02  0.36182811341E+02  0.17770000000E+01 0. -1.
         15    1    1    2    0    0  0.10187805581E+02 -0.98708650093E+01 -0.10809530716E+00  0.14296669968E+02  0.17770000000E+01 0.  1.
</event>
<event>
 6    1  0.1196607E-002  0.1855868E+03  0.7546771E-02  0.1066024E+00
        -11   -1    0    0    0    0  0.00000000000E+00  0.00000000000E+00  0.18250000000E+03  0.18250000000E+03  0.00000000000E+00 0. -1.
         11   -1    0    0    0    0 -0.00000000000E+00 -0.00000000000E+00 -0.18250000000E+03  0.18250000000E+03  0.00000000000E+00 0. -1.
        -11    1    1    2    0    0  0.47184799498E+01  0.14766812019E+01  0.17934506533E+03  0.17941320213E+03  0.00000000000E+00 0. -1.
         11    1    1    2    0    0 -0.24913321455E+01 -0.19044384055E+01 -0.17774508751E+03  0.17777274751E+03  0.00000000000E+00 0. -1.
        -15    1    1    2    0    0 -0.91570983299E+00  0.25199433140E+01  0.14302307158E+01  0.35202169968E+01  0.17770000000E+01 0. -1.
         15    1    1    2    0    0 -0.13114379713E+01 -0.20921861104E+01 -0.30302085279E+01  0.42938333684E+01  0.17770000000E+01 0.  1.
</event>
<event>
 6    1  0.1196607E-002  0.1841389E+03  0.7546771E-02  0.1067158E+00
        -11   -1    0    0    0    0  0.00000000000E+00  0.00000000000E+00  0.18250000000E+03  0.18250000000E+03  0.00000000000E+00 0. -1.
         11   -1    0    0    0    0 -0.00000000000E+00 -0.00000000000E+00 -0.18250000000E+03  0.18250000000E+03  0.00000000000E+00 0.  1.
        -11    1    1    2    0    0 -0.12480310551E+02  0.53691539211E+01  0.18035003776E+03  0.18086105741E+03  0.00000000000E+00 0. -1.
         11    1    1    2    0    0  0.12961059777E+02 -0.54923852519E+00 -0.11083609641E+03  0.11159270137E+03  0.00000000000E+00 0.  1.
        -15    1    1    2    0    0 -0.74453347400E+01 -0.88423337460E+01 -0.50291408835E+02  0.51633355567E+02  0.17770000000E+01 0. -1.
         15    1    1    2    0    0  0.69645855144E+01  0.40224183500E+01 -0.19222532522E+02  0.20912885653E+02  0.17770000000E+01 0.  1.
</event>
<event>
 6    1  0.1196607E-002  0.1829483E+03  0.7546771E-02  0.1068098E+00
        -11   -1    0    0    0    0  0.00000000000E+00  0.00000000000E+00  0.18250000000E+03  0.18250000000E+03  0.00000000000E+00 0.  1.
         11   -1    0    0    0    0 -0.00000000000E+00 -0.00000000000E+00 -0.18250000000E+03  0.18250000000E+03  0.00000000000E+00 0. -1.
        -11    1    1    2    0    0  0.77206644636E+00  0.33551527170E+00  0.37605278149E+02  0.37614699277E+02  0.00000000000E+00 0.  1.
         11    1    1    2    0    0 -0.32519383530E+01 -0.41172270776E+00 -0.18202215598E+03  0.18205166818E+03  0.00000000000E+00 0. -1.
        -15    1    1    2    0    0  0.35892984994E+01  0.24316054628E+01  0.13890534039E+03  0.13898434116E+03  0.17770000000E+01 0.  1.
         15    1    1    2    0    0 -0.11094265928E+01 -0.23553980268E+01  0.55115374403E+01  0.63492913924E+01  0.17770000000E+01 0. -1.
</event>
<event>
 6    1  0.1196607E-002  0.1897918E+03  0.7546771E-02  0.1062794E+00
        -11   -1    0    0    0    0  0.00000000000E+00  0.00000000000E+00  0.18250000000E+03  0.18250000000E+03  0.00000000000E+00 0.  1.
         11   -1    0    0    0    0 -0.00000000000E+00 -0.00000000000E+00 -0.18250000000E+03  0.18250000000E+03  0.00000000000E+00 0.  1.
        -11    1    1    2    0    0 -0.11170628082E+02  0.53190853740E+01  0.11135340687E+03  0.11203863986E+03  0.00000000000E+00 0.  1.
         11    1    1    2    0    0  0.31716316566E+00 -0.31858769154E+01 -0.17517891522E+03  0.17520816973E+03  0.00000000000E+00 0.  1.
        -15    1    1    2    0    0  0.10691268576E+02 -0.46667536568E+01  0.69923936572E+02  0.70912597246E+02  0.17770000000E+01 0.  1.
         15    1    1    2    0    0  0.16219634092E+00  0.25335451982E+01 -0.60984282238E+01  0.68405931560E+01  0.17770000000E+01 0.  1.
</event>
<event>
 6    1  0.1196607E-002  0.1827183E+03  0.7546771E-02  0.1068281E+00
        -11   -1    0    0    0    0  0.00000000000E+00  0.00000000000E+00  0.18250000000E+03  0.18250000000E+03  0.00000000000E+00 0.  1.
         11   -1    0    0    0    0 -0.00000000000E+00 -0.00000000000E+00 -0.18250000000E+03  0.18250000000E+03  0.00000000000E+00 0.  1.
        -11    1    1    2    0    0  0.14399928720E+01  0.84124721483E+01  0.18208175332E+03  0.18228167258E+03  0.00000000000E+00 0.  1.
         11    1    1    2    0    0  0.99019854510E-01 -0.33741818774E+01 -0.82742536264E+02  0.82811365257E+02  0.00000000000E+00 0.  1.
        -15    1    1    2    0    0 -0.50793843293E+00 -0.39148193479E+01 -0.17269686133E+02  0.17804033254E+02  0.17770000000E+01 0. -1.
         15    1    1    2    0    0 -0.10310742935E+01 -0.11234709230E+01 -0.82069530921E+02  0.82102928910E+02  0.17770000000E+01 0.  1.
</event>
<event>
 6    1  0.1196607E-002  0.1827712E+03  0.7546771E-02  0.1068239E+00
        -11   -1    0    0    0    0  0.00000000000E+00  0.00000000000E+00  0.18250000000E+03  0.18250000000E+03  0.00000000000E+00 0. -1.
         11   -1    0    0    0    0 -0.00000000000E+00 -0.00000000000E+00 -0.18250000000E+03  0.18250000000E+03  0.00000000000E+00 0.  1.
        -11    1    1    2    0    0  0.22149608149E+00  0.13647687328E+01  0.35909798309E+02  0.35936405897E+02  0.00000000000E+00 0. -1.
         11    1    1    2    0    0  0.33137270825E+01  0.32367381487E+01 -0.18216991684E+03  0.18222880086E+03  0.00000000000E+00 0.  1.
        -15    1    1    2    0    0  0.25472386244E+01 -0.40597259788E+01  0.32735243390E+02  0.33131913444E+02  0.17770000000E+01 0.  1.
         15    1    1    2    0    0 -0.60824617883E+01 -0.54178090275E+00  0.11352487515E+03  0.11370287980E+03  0.17770000000E+01 0. -1.
</event>
<event>
 6    1  0.1196607E-002  0.1837388E+03  0.7546771E-02  0.1067473E+00
        -11   -1    0    0    0    0  0.00000000000E+00  0.00000000000E+00  0.18250000000E+03  0.18250000000E+03  0.00000000000E+00 0. -1.
         11   -1    0    0    0    0 -0.00000000000E+00 -0.00000000000E+00 -0.18250000000E+03  0.18250000000E+03  0.00000000000E+00 0.  1.
        -11    1    1    2    0    0 -0.34506078328E+01 -0.19642525230E-01  0.18122835455E+03  0.18126120262E+03  0.00000000000E+00 0. -1.
         11    1    1    2    0    0 -0.65067834203E-01 -0.27372337596E+01 -0.17182891586E+03  0.17185072885E+03  0.00000000000E+00 0.  1.
        -15    1    1    2    0    0  0.46606995365E+00  0.78264829513E+00 -0.67841661795E+01  0.70719445209E+01  0.17770000000E+01 0.  1.
         15    1    1    2    0    0  0.30496057134E+01  0.19742279897E+01 -0.26152725121E+01  0.48161240095E+01  0.17770000000E+01 0.  1.
</event>
<event>
 6    1  0.1196607E-002  0.1867962E+03  0.7546771E-02  0.1065086E+00
        -11   -1    0    0    0    0  0.00000000000E+00  0.00000000000E+00  0.18250000000E+03  0.18250000000E+03  0.00000000000E+00 0. -1.
         11   -1    0    0    0    0 -0.00000000000E+00 -0.00000000000E+00 -0.18250000000E+03  0.18250000000E+03  0.00000000000E+00 0.  1.
        -11    1    1    2    0    0 -0.12358648914E+01 -0.45191894969E+01  0.13144508609E+03  0.13152855619E+03  0.00000000000E+00 0. -1.
         11    1    1    2    0    0  0.18418841464E+01 -0.16773044025E+01 -0.17818642712E+03  0.17820384030E+03  0.00000000000E+00 0.  1.
        -15    1    1    2    0    0 -0.28719511436E+01  0.14942041746E+02  0.12385999049E+02  0.19699832901E+02  0.17770000000E+01 0.  1.
         15    1    1    2    0    0  0.22659318886E+01 -0.87455478461E+01  0.34355341979E+02  0.35567770607E+02  0.17770000000E+01 0. -1.
</event>
<event>
 6    1  0.2249367E-002  0.1826779E+03  0.7546771E-02  0.1068313E+00
        -11   -1    0    0    0    0  0.00000000000E+00  0.00000000000E+00  0.18250000000E+03  0.18250000000E+03  0.00000000000E+00 0.  1.
         11   -1    0    0    0    0 -0.00000000000E+00 -0.00000000000E+00 -0.18250000000E+03  0.18250000000E+03  0.00000000000E+00 0. -1.
        -11    1    1    2    0    0 -0.14781370257E+01  0.32615205103E+01  0.18228693349E+03  0.18232210104E+03  0.00000000000E+00 0.  1.
         11    1    1    2    0    0 -0.57916309190E+00 -0.17672092449E+00 -0.41067614757E+02  0.41072078618E+02  0.00000000000E+00 0. -1.
        -15    1    1    2    0    0  0.40426266937E+01 -0.19777961258E+01 -0.33476294317E+02  0.33824170622E+02  0.17770000000E+01 0.  1.
         15    1    1    2    0    0 -0.19853265761E+01 -0.11070034600E+01 -0.10774302442E+03  0.10778164972E+03  0.17770000000E+01 0. -1.
</event>
<event>
 6    1  0.1196607E-002  0.1836435E+03  0.7546771E-02  0.1067548E+00
        -11   -1    0    0    0    0  0.00000000000E+00  0.00000000000E+00  0.18250000000E+03  0.18250000000E+03  0.00000000000E+00 0.  1.
         11   -1    0    0    0    0 -0.00000000000E+00 -0.00000000000E+00 -0.18250000000E+03  0.18250000000E+03  0.00000000000E+00 0. -1.
        -11    1    1    2    0    0  0.38995707687E+01 -0.11893767752E+01  0.13932088475E+03  0.13938052302E+03  0.00000000000E+00 0.  1.
         11    1    1    2    0    0 -0.30813170983E+01  0.14648031765E+01 -0.18132439437E+03  0.18135648916E+03  0.00000000000E+00 0. -1.
        -15    1    1    2    0    0  0.24145011160E+01 -0.23987403665E+01  0.26155321008E+01  0.46456978115E+01  0.17770000000E+01 0. -1.
         15    1    1    2    0    0 -0.32327547864E+01  0.21233139652E+01  0.39387977519E+02  0.39617290010E+02  0.17770000000E+01 0.  1.
</event>
<event>
 6    1  0.1196607E-002  0.1868451E+03  0.7546771E-02  0.1065048E+00
        -11   -1    0    0    0    0  0.00000000000E+00  0.00000000000E+00  0.18250000000E+03  0.18250000000E+03  0.00000000000E+00 0.  1.
         11   -1    0    0    0    0 -0.00000000000E+00 -0.00000000000E+00 -0.18250000000E+03  0.18250000000E+03  0.00000000000E+00 0.  1.
        -11    1    1    2    0    0 -0.48863659159E+00 -0.27594624383E+01  0.12762418215E+03  0.12765494612E+03  0.00000000000E+00 0.  1.
         11    1    1    2    0    0  0.13147658077E+01  0.35719578365E+01 -0.17811419437E+03  0.17815485884E+03  0.00000000000E+00 0.  1.
        -15    1    1    2    0    0  0.20503521385E+01  0.13597260307E+01 -0.37372015775E+01  0.48142708068E+01  0.17770000000E+01 0.  1.
         15    1    1    2    0    0 -0.28764813547E+01 -0.21722214288E+01  0.54227213801E+02  0.54375924236E+02  0.17770000000E+01 0. -1.
</event>
<event>
 6    1  0.1196607E-002  0.1846501E+03  0.7546771E-02  0.1066756E+00
        -11   -1    0    0    0    0  0.00000000000E+00  0.00000000000E+00  0.18250000000E+03  0.18250000000E+03  0.00000000000E+00 0. -1.
         11   -1    0    0    0    0 -0.00000000000E+00 -0.00000000000E+00 -0.18250000000E+03  0.18250000000E+03  0.00000000000E+00 0. -1.
        -11    1    1    2    0    0  0.56683748037E+01 -0.34754180725E+01  0.18022726436E+03  0.18034987059E+03  0.00000000000E+00 0. -1.
         11    1    1    2    0    0 -0.42960334948E+01  0.70684652190E+01 -0.82556458357E+02  0.82969801258E+02  0.00000000000E+00 0. -1.
        -15    1    1    2    0    0  0.66910317194E+01 -0.76930100710E+01 -0.13521968724E+02  0.17028026210E+02  0.17770000000E+01 0.  1.
         15    1    1    2    0    0 -0.80633730283E+01  0.40999629246E+01 -0.84148837276E+02  0.84652301944E+02  0.17770000000E+01 0. -1.
</event>
<event>
 6    1  0.1196607E-002  0.2057672E+03  0.7546771E-02  0.1051309E+00
        -11   -1    0    0    0    0  0.00000000000E+00  0.00000000000E+00  0.18250000000E+03  0.18250000000E+03  0.00000000000E+00 0. -1.
         11   -1    0    0    0    0 -0.00000000000E+00 -0.00000000000E+00 -0.18250000000E+03  0.18250000000E+03  0.00000000000E+00 0.  1.
        -11    1    1    2    0    0  0.22620248058E+02 -0.13381545716E+02  0.15704889377E+03  0.15923283714E+03  0.00000000000E+00 0. -1.
         11    1    1    2    0    0 -0.48909824785E+01  0.27084987205E+01 -0.97889897269E+02  0.98049424589E+02  0.00000000000E+00 0.  1.
        -15    1    1    2    0    0  0.25230905847E+01 -0.15799945047E+02 -0.70615827486E+02  0.72427598815E+02  0.17770000000E+01 0.  1.
         15    1    1    2    0    0 -0.20252356164E+02  0.26472992042E+02  0.11456830983E+02  0.35290139459E+02  0.17770000000E+01 0. -1.
</event>
<event>
 6    1  0.1196607E-002  0.1900012E+03  0.7546771E-02  0.1062636E+00
        -11   -1    0    0    0    0  0.00000000000E+00  0.00000000000E+00  0.18250000000E+03  0.18250000000E+03  0.00000000000E+00 0.  1.
         11   -1    0    0    0    0 -0.00000000000E+00 -0.00000000000E+00 -0.18250000000E+03  0.18250000000E+03  0.00000000000E+00 0.  1.
        -11    1    1    2    0    0  0.13154428120E+01  0.46620991755E+01  0.15783905121E+03  0.15791336753E+03  0.00000000000E+00 0.  1.
         11    1    1    2    0    0  0.56948613141E+01  0.39045611461E+01 -0.17486249402E+03  0.17499876816E+03  0.00000000000E+00 0.  1.
        -15    1    1    2    0    0 -0.29511946752E+00 -0.59831885819E+00 -0.62469604306E+01  0.65289604516E+01  0.17770000000E+01 0.  1.
         15    1    1    2    0    0 -0.67151846586E+01 -0.79683414634E+01  0.23270403238E+02  0.25558903860E+02  0.17770000000E+01 0. -1.
</event>
<event>
 6    1  0.1196607E-002  0.1875768E+03  0.7546771E-02  0.1064484E+00
        -11   -1    0    0    0    0  0.00000000000E+00  0.00000000000E+00  0.18250000000E+03  0.18250000000E+03  0.00000000000E+00 0. -1.
         11   -1    0    0    0    0 -0.00000000000E+00 -0.00000000000E+00 -0.18250000000E+03  0.18250000000E+03  0.00000000000E+00 0.  1.
        -11    1    1    2    0    0 -0.47402291315E+00  0.45067182870E+01  0.17736530808E+03  0.17742318821E+03  0.00000000000E+00 0. -1.
         11    1    1    2    0    0  0.37852562791E+00 -0.23140737649E+01 -0.16912936232E+03  0.16914561602E+03  0.00000000000E+00 0.  1.
        -15    1    1    2    0    0 -0.10227816522E+01 -0.43994673138E+01  0.37060309342E+01  0.61068641084E+01  0.17770000000E+01 0.  1.
         15    1    1    2    0    0  0.11182789375E+01  0.22068227916E+01 -0.11941976688E+02  0.12324331659E+02  0.17770000000E+01 0. -1.
</event>
<event>
 6    1  0.1196607E-002  0.1829507E+03  0.7546771E-02  0.1068097E+00
        -11   -1    0    0    0    0  0.00000000000E+00  0.00000000000E+00  0.18250000000E+03  0.18250000000E+03  0.00000000000E+00 0.  1.
         11   -1    0    0    0    0 -0.00000000000E+00 -0.00000000000E+00 -0.18250000000E+03  0.18250000000E+03  0.00000000000E+00 0. -1.
        -11    1    1    2    0    0 -0.77835421646E+00 -0.14388594489E+01  0.11830151016E+03  0.11831282035E+03  0.00000000000E+00 0.  1.
         11    1    1    2    0    0 -0.13355203905E+01 -0.41710821034E+01 -0.18199656425E+03  0.18204925416E+03  0.00000000000E+00 0. -1.
        -15    1    1    2    0    0 -0.96434089995E+00  0.28137719886E+01  0.75052154793E+01  0.82663930808E+01  0.17770000000E+01 0. -1.
         15    1    1    2    0    0  0.30782155070E+01  0.27961695638E+01  0.56189838607E+02  0.56371532414E+02  0.17770000000E+01 0.  1.
</event>
<event>
 6    1  0.1196607E-002  0.1828748E+03  0.7546771E-02  0.1068157E+00
        -11   -1    0    0    0    0  0.00000000000E+00  0.00000000000E+00  0.18250000000E+03  0.18250000000E+03  0.00000000000E+00 0.  1.
         11   -1    0    0    0    0 -0.00000000000E+00 -0.00000000000E+00 -0.18250000000E+03  0.18250000000E+03  0.00000000000E+00 0. -1.
        -11    1    1    2    0    0 -0.11814807197E+01  0.95702311014E+00  0.67014753578E+02  0.67031999724E+02  0.00000000000E+00 0.  1.
         11    1    1    2    0    0  0.25563201441E+01 -0.25937834944E+00 -0.18210709208E+03  0.18212521801E+03  0.00000000000E+00 0. -1.
        -15    1    1    2    0    0  0.16381045893E+01 -0.18981950066E+01  0.10575634771E+03  0.10580098932E+03  0.17770000000E+01 0. -1.
         15    1    1    2    0    0 -0.30129440137E+01  0.12005502459E+01  0.93359907919E+01  0.10041792947E+02  0.17770000000E+01 0.  1.
</event>
<event>
 6    1  0.1196607E-002  0.1872725E+03  0.7546771E-02  0.1064718E+00
        -11   -1    0    0    0    0  0.00000000000E+00  0.00000000000E+00  0.18250000000E+03  0.18250000000E+03  0.00000000000E+00 0. -1.
         11   -1    0    0    0    0 -0.00000000000E+00 -0.00000000000E+00 -0.18250000000E+03  0.18250000000E+03  0.00000000000E+00 0. -1.
        -11    1    1    2    0    0  0.33827672606E+01  0.64593048465E+01  0.87225351637E+02  0.87529581866E+02  0.00000000000E+00 0. -1.
         11    1    1    2    0    0 -0.12618159867E+01  0.49180251371E+01 -0.17765492367E+03  0.17772746286E+03  0.00000000000E+00 0. -1.
        -15    1    1    2    0    0 -0.71478877336E+01 -0.85423467581E+00 -0.10650806265E+01  0.74909373028E+01  0.17770000000E+01 0.  1.
         15    1    1    2    0    0  0.50269364598E+01 -0.10523095308E+02  0.91494652660E+02  0.92252017969E+02  0.17770000000E+01 0. -1.
</event>
<event>
 6    1  0.1196607E-002  0.1666518E+03  0.7546771E-02  0.1081820E+00
        -11   -1    0    0    0    0  0.00000000000E+00  0.00000000000E+00  0.18250000000E+03  0.18250000000E+03  0.00000000000E+00 0.  1.
         11   -1    0    0    0    0 -0.00000000000E+00 -0.00000000000E+00 -0.18250000000E+03  0.18250000000E+03  0.00000000000E+00 0.  1.
        -11    1    1    2    0    0 -0.22902032968E+01 -0.15358537092E+00  0.16639646136E+03  0.16641229214E+03  0.00000000000E+00 0.  1.
         11    1    1    2    0    0 -0.10166999985E+02  0.38553843909E+01 -0.16679067598E+03  0.16714473211E+03  0.00000000000E+00 0.  1.
        -15    1    1    2    0    0  0.27635601982E+01 -0.18770837460E+01  0.14023581151E+02  0.14525125324E+02  0.17770000000E+01 0.  1.
         15    1    1    2    0    0  0.96936430837E+01 -0.18247152740E+01 -0.13629366531E+02  0.16917850428E+02  0.17770000000E+01 0. -1.
</event>
<event>
 6    1  0.1196607E-002  0.1733444E+03  0.7546771E-02  0.1075986E+00
        -11   -1    0    0    0    0  0.00000000000E+00  0.00000000000E+00  0.18250000000E+03  0.18250000000E+03  0.00000000000E+00 0. -1.
         11   -1    0    0    0    0 -0.00000000000E+00 -0.00000000000E+00 -0.18250000000E+03  0.18250000000E+03  0.00000000000E+00 0.  1.
        -11    1    1    2    0    0  0.67566853888E+01  0.84090091299E+00  0.17371228404E+03  0.17384567161E+03  0.00000000000E+00 0. -1.
         11    1    1    2    0    0  0.66095579917E+01  0.33142907222E+01 -0.17296836341E+03  0.17312632821E+03  0.00000000000E+00 0.  1.
        -15    1    1    2    0    0 -0.13261186259E+02 -0.66552989469E+01 -0.61327586795E+00  0.14956132567E+02  0.17770000000E+01 0.  1.
         15    1    1    2    0    0 -0.10505712156E+00  0.25001073117E+01 -0.13064476236E+00  0.30718676115E+01  0.17770000000E+01 0. -1.
</event>
<event>
 6    1  0.1196607E-002  0.1849930E+03  0.7546771E-02  0.1066488E+00
        -11   -1    0    0    0    0  0.00000000000E+00  0.00000000000E+00  0.18250000000E+03  0.18250000000E+03  0.00000000000E+00 0. -1.
         11   -1    0    0    0    0 -0.00000000000E+00 -0.00000000000E+00 -0.18250000000E+03  0.18250000000E+03  0.00000000000E+00 0. -1.
        -11    1    1    2    0    0 -0.95403383485E+00  0.28846068713E+01  0.17998134424E+03  0.18000698711E+03  0.00000000000E+00 0. -1.
         11    1    1    2    0    0 -0.27194968884E+01  0.19647279589E+01 -0.17234561590E+03  0.17237826759E+03  0.00000000000E+00 0. -1.
        -15    1    1    2    0    0  0.44871160231E+00  0.16790652437E+01 -0.25238872734E+01  0.35423633585E+01  0.17770000000E+01 0.  1.
         15    1    1    2    0    0  0.32248191209E+01 -0.65284000738E+01 -0.51118410644E+01  0.90723819339E+01  0.17770000000E+01 0. -1.
</event>
<event>
 6    1  0.1196607E-002  0.1853038E+03  0.7546771E-02  0.1066245E+00
        -11   -1    0    0    0    0  0.00000000000E+00  0.00000000000E+00  0.18250000000E+03  0.18250000000E+03  0.00000000000E+00 0. -1.
         11   -1    0    0    0    0 -0.00000000000E+00 -0.00000000000E+00 -0.18250000000E+03  0.18250000000E+03  0.00000000000E+00 0. -1.
        -11    1    1    2    0    0 -0.21494500170E+01  0.44961368107E+01  0.17962708160E+03  0.17969619869E+03  0.00000000000E+00 0. -1.
         11    1    1    2    0    0 -0.40226926736E+01  0.17268072558E+01 -0.16688024558E+03  0.16693765389E+03  0.00000000000E+00 0. -1.
        -15    1    1    2    0    0 -0.16910264132E+01  0.58573042088E+00 -0.14560762755E+01  0.29121362565E+01  0.17770000000E+01 0.  1.
         15    1    1    2    0    0  0.78631691038E+01 -0.68086744874E+01 -0.11290759738E+02  0.15454011165E+02  0.17770000000E+01 0.  1.
</event>
<event>
 6    1  0.1196607E-002  0.1844755E+03  0.7546771E-02  0.1066893E+00
        -11   -1    0    0    0    0  0.00000000000E+00  0.00000000000E+00  0.18250000000E+03  0.18250000000E+03  0.00000000000E+00 0.  1.
         11   -1    0    0    0    0 -0.00000000000E+00 -0.00000000000E+00 -0.18250000000E+03  0.18250000000E+03  0.00000000000E+00 0.  1.
        -11    1    1    2    0    0  0.10885884613E+02  0.14721667625E+01  0.18018998917E+03  0.18052451899E+03  0.00000000000E+00 0.  1.
         11    1    1    2    0    0 -0.97877210813E+00 -0.38685407181E+01 -0.12921451456E+03  0.12927611680E+03  0.00000000000E+00 0.  1.
        -15    1    1    2    0    0  0.42430444109E+01  0.14638329148E+01 -0.45867807586E+01  0.66590179007E+01  0.17770000000E+01 0.  1.
         15    1    1    2    0    0 -0.14150156915E+02  0.93254104084E+00 -0.46388693850E+02  0.48540346307E+02  0.17770000000E+01 0. -1.
</event>
<event>
 6    1  0.1196607E-002  0.1828370E+03  0.7546771E-02  0.1068187E+00
        -11   -1    0    0    0    0  0.00000000000E+00  0.00000000000E+00  0.18250000000E+03  0.18250000000E+03  0.00000000000E+00 0.  1.
         11   -1    0    0    0    0 -0.00000000000E+00 -0.00000000000E+00 -0.18250000000E+03  0.18250000000E+03  0.00000000000E+00 0.  1.
        -11    1    1    2    0    0 -0.25522540334E+01 -0.25586937679E+00  0.18214494591E+03  0.18216300609E+03  0.00000000000E+00 0.  1.
         11    1    1    2    0    0  0.35677331148E+01  0.17489198433E+00 -0.12078992229E+03  0.12084272686E+03  0.00000000000E+00 0.  1.
        -15    1    1    2    0    0 -0.42040064230E+01 -0.14564746276E+01 -0.38725644538E+02  0.39020869573E+02  0.17770000000E+01 0.  1.
         15    1    1    2    0    0  0.31885273417E+01  0.15374520201E+01 -0.22629379077E+02  0.22973397479E+02  0.17770000000E+01 0.  1.
</event>
<event>
 6    1  0.1196607E-002  0.1886579E+03  0.7546771E-02  0.1063656E+00
        -11   -1    0    0    0    0  0.00000000000E+00  0.00000000000E+00  0.18250000000E+03  0.18250000000E+03  0.00000000000E+00 0. -1.
         11   -1    0    0    0    0 -0.00000000000E+00 -0.00000000000E+00 -0.18250000000E+03  0.18250000000E+03  0.00000000000E+00 0.  1.
        -11    1    1    2    0    0  0.65431303696E+01 -0.14733058949E+01  0.17621446474E+03  0.17634205616E+03  0.00000000000E+00 0. -1.
         11    1    1    2    0    0  0.21896704879E+01  0.17458245854E+00 -0.16041954084E+03  0.16043457925E+03  0.00000000000E+00 0.  1.
        -15    1    1    2    0    0 -0.11987613533E+02  0.87686285080E+00 -0.19492745912E+02  0.22969471889E+02  0.17770000000E+01 0.  1.
         15    1    1    2    0    0  0.32548126754E+01  0.42186058556E+00  0.36978220131E+01  0.52538927041E+01  0.17770000000E+01 0.  1.
</event>
<event>
 6    1  0.1196607E-002  0.1835475E+03  0.7546771E-02  0.1067624E+00
        -11   -1    0    0    0    0  0.00000000000E+00  0.00000000000E+00  0.18250000000E+03  0.18250000000E+03  0.00000000000E+00 0.  1.
         11   -1    0    0    0    0 -0.00000000000E+00 -0.00000000000E+00 -0.18250000000E+03  0.18250000000E+03  0.00000000000E+00 0.  1.
        -11    1    1    2    0    0  0.91401783556E+00  0.53566587834E+01  0.18137110192E+03  0.18145248920E+03  0.00000000000E+00 0.  1.
         11    1    1    2    0    0  0.55967289552E+01 -0.74507795005E+01 -0.87785210489E+02  0.88278426984E+02  0.00000000000E+00 0.  1.
        -15    1    1    2    0    0 -0.10062014853E+01 -0.59526700158E+01 -0.18705263424E+02  0.19735534715E+02  0.17770000000E+01 0.  1.
         15    1    1    2    0    0 -0.55045453055E+01  0.80467907328E+01 -0.74880628012E+02  0.75533549106E+02  0.17770000000E+01 0. -1.
</event>
<event>
 6    1  0.1196607E-002  0.1941791E+03  0.7546771E-02  0.1059521E+00
        -11   -1    0    0    0    0  0.00000000000E+00  0.00000000000E+00  0.18250000000E+03  0.18250000000E+03  0.00000000000E+00 0. -1.
         11   -1    0    0    0    0 -0.00000000000E+00 -0.00000000000E+00 -0.18250000000E+03  0.18250000000E+03  0.00000000000E+00 0.  1.
        -11    1    1    2    0    0 -0.47654769917E+01 -0.89409390803E+00  0.17075208107E+03  0.17082090728E+03  0.00000000000E+00 0. -1.
         11    1    1    2    0    0  0.31910449615E+01  0.42262659337E+01 -0.14484254228E+03  0.14493931884E+03  0.00000000000E+00 0.  1.
        -15    1    1    2    0    0 -0.14755472847E+01 -0.10379131818E+02  0.87033952606E+01  0.13740830948E+02  0.17770000000E+01 0. -1.
         15    1    1    2    0    0  0.30499793149E+01  0.70469597922E+01 -0.34612934050E+02  0.35498942924E+02  0.17770000000E+01 0.  1.
</event>
<event>
 6    1  0.1196607E-002  0.1842849E+03  0.7546771E-02  0.1067043E+00
        -11   -1    0    0    0    0  0.00000000000E+00  0.00000000000E+00  0.18250000000E+03  0.18250000000E+03  0.00000000000E+00 0. -1.
         11   -1    0    0    0    0 -0.00000000000E+00 -0.00000000000E+00 -0.18250000000E+03  0.18250000000E+03  0.00000000000E+00 0. -1.
        -11    1    1    2    0    0 -0.31534765742E+01  0.81654755074E+00  0.18068570977E+03  0.18071507098E+03  0.00000000000E+00 0. -1.
         11    1    1    2    0    0  0.23552437783E+01 -0.35830460319E+01 -0.17261438496E+03  0.17266763242E+03  0.00000000000E+00 0. -1.
        -15    1    1    2    0    0 -0.19112820728E+01  0.19838513255E+01 -0.75661755111E+01  0.82458114281E+01  0.17770000000E+01 0.  1.
         15    1    1    2    0    0  0.27095148687E+01  0.78264715572E+00 -0.50514930559E+00  0.33714851646E+01  0.17770000000E+01 0.  1.
</event>
<event>
 6    1  0.1196607E-002  0.1832864E+03  0.7546771E-02  0.1067831E+00
        -11   -1    0    0    0    0  0.00000000000E+00  0.00000000000E+00  0.18250000000E+03  0.18250000000E+03  0.00000000000E+00 0. -1.
         11   -1    0    0    0    0 -0.00000000000E+00 -0.00000000000E+00 -0.18250000000E+03  0.18250000000E+03  0.00000000000E+00 0.  1.
        -11    1    1    2    0    0 -0.18261007748E+01 -0.24601432719E+01  0.16888065024E+03  0.16890843962E+03  0.00000000000E+00 0. -1.
         11    1    1    2    0    0  0.11016587091E+01 -0.26374943227E+01 -0.18169113158E+03  0.18171361348E+03  0.00000000000E+00 0.  1.
        -15    1    1    2    0    0 -0.25282908043E+00  0.13225832641E+01  0.48278644576E+01  0.53178147068E+01  0.17770000000E+01 0. -1.
         15    1    1    2    0    0  0.97727114614E+00  0.37750543305E+01  0.79826168855E+01  0.90601321973E+01  0.17770000000E+01 0.  1.
</event>
<event>
 6    1  0.1196607E-002  0.2082773E+03  0.7546771E-02  0.1049607E+00
        -11   -1    0    0    0    0  0.00000000000E+00  0.00000000000E+00  0.18250000000E+03  0.18250000000E+03  0.00000000000E+00 0. -1.
         11   -1    0    0    0    0 -0.00000000000E+00 -0.00000000000E+00 -0.18250000000E+03  0.18250000000E+03  0.00000000000E+00 0. -1.
        -11    1    1    2    0    0  0.82317058264E+01 -0.17576686585E+00  0.15650629913E+03  0.15672272822E+03  0.00000000000E+00 0. -1.
         11    1    1    2    0    0  0.10974658006E+02  0.91768831192E+01 -0.13050101003E+03  0.13128279370E+03  0.00000000000E+00 0. -1.
        -15    1    1    2    0    0 -0.10152767936E+02  0.49480901710E+01  0.22744066266E+02  0.25456091067E+02  0.17770000000E+01 0.  1.
         15    1    1    2    0    0 -0.90535958968E+01 -0.13949206424E+02 -0.48749355364E+02  0.51538387013E+02  0.17770000000E+01 0. -1.
</event>
<event>
 6    1  0.1196607E-002  0.1839144E+03  0.7546771E-02  0.1067334E+00
        -11   -1    0    0    0    0  0.00000000000E+00  0.00000000000E+00  0.18250000000E+03  0.18250000000E+03  0.00000000000E+00 0.  1.
         11   -1    0    0    0    0 -0.00000000000E+00 -0.00000000000E+00 -0.18250000000E+03  0.18250000000E+03  0.00000000000E+00 0. -1.
        -11    1    1    2    0    0 -0.37191802717E+01 -0.80767009703E+00  0.18104556565E+03  0.18108556396E+03  0.00000000000E+00 0.  1.
         11    1    1    2    0    0 -0.34106506642E+01 -0.14612552526E+01 -0.10553463564E+03  0.10559984433E+03  0.00000000000E+00 0. -1.
        -15    1    1    2    0    0  0.23953150731E+01  0.27293433719E+01 -0.17940597659E+01  0.44230339118E+01  0.17770000000E+01 0.  1.
         15    1    1    2    0    0  0.47345158627E+01 -0.46041802230E+00 -0.73716870248E+02  0.73891557795E+02  0.17770000000E+01 0. -1.
</event>
<event>
 6    1  0.1196607E-002  0.1660466E+03  0.7546771E-02  0.1082362E+00
        -11   -1    0    0    0    0  0.00000000000E+00  0.00000000000E+00  0.18250000000E+03  0.18250000000E+03  0.00000000000E+00 0. -1.
         11   -1    0    0    0    0 -0.00000000000E+00 -0.00000000000E+00 -0.18250000000E+03  0.18250000000E+03  0.00000000000E+00 0.  1.
        -11    1    1    2    0    0  0.45332312226E+01  0.82039868423E+01  0.16174263493E+03  0.16201399797E+03  0.00000000000E+00 0. -1.
         11    1    1    2    0    0 -0.10295390882E+01  0.64567558998E+01 -0.17040871492E+03  0.17053410148E+03  0.00000000000E+00 0.  1.
        -15    1    1    2    0    0 -0.13308777274E+02 -0.16351987979E+02  0.55227624297E+01  0.21867091650E+02  0.17770000000E+01 0. -1.
         15    1    1    2    0    0  0.98050851396E+01  0.16912452368E+01  0.31433175587E+01  0.10584808894E+02  0.17770000000E+01 0.  1.
</event>
<event>
 6    1  0.1196607E-002  0.1834349E+03  0.7546771E-02  0.1067713E+00
        -11   -1    0    0    0    0  0.00000000000E+00  0.00000000000E+00  0.18250000000E+03  0.18250000000E+03  0.00000000000E+00 0.  1.
         11   -1    0    0    0    0 -0.00000000000E+00 -0.00000000000E+00 -0.18250000000E+03  0.18250000000E+03  0.00000000000E+00 0. -1.
        -11    1    1    2    0    0  0.15860232604E+00  0.30840231839E+01  0.18153883033E+03  0.18156509376E+03  0.00000000000E+00 0.  1.
         11    1    1    2    0    0 -0.94768239923E-01 -0.16157895436E+01 -0.99569530113E+02  0.99582684659E+02  0.00000000000E+00 0. -1.
        -15    1    1    2    0    0 -0.51025204575E+01 -0.69535045447E+01 -0.28271022987E+02  0.29610731335E+02  0.17770000000E+01 0. -1.
         15    1    1    2    0    0  0.50386863714E+01  0.54852709044E+01 -0.53698277233E+02  0.54241490245E+02  0.17770000000E+01 0.  1.
</event>
<event>
 6    1  0.1196607E-002  0.1839984E+03  0.7546771E-02  0.1067268E+00
        -11   -1    0    0    0    0  0.00000000000E+00  0.00000000000E+00  0.18250000000E+03  0.18250000000E+03  0.00000000000E+00 0. -1.
         11   -1    0    0    0    0 -0.00000000000E+00 -0.00000000000E+00 -0.18250000000E+03  0.18250000000E+03  0.00000000000E+00 0. -1.
        -11    1    1    2    0    0 -0.16580336331E+01  0.58525322904E+01  0.17200987657E+03  0.17211739845E+03  0.00000000000E+00 0. -1.
         11    1    1    2    0    0  0.10610961703E+01 -0.30662382878E+01 -0.18097249595E+03  0.18100158020E+03  0.00000000000E+00 0. -1.
        -15    1    1    2    0    0  0.30817643404E+00  0.19829727349E+01  0.35119043589E+01  0.44179582171E+01  0.17770000000E+01 0. -1.
         15    1    1    2    0    0  0.28876102869E+00 -0.47692667375E+01  0.54507150217E+01  0.74630631374E+01  0.17770000000E+01 0.  1.
</event>
<event>
 6    1  0.1196607E-002  0.1845646E+03  0.7546771E-02  0.1066823E+00
        -11   -1    0    0    0    0  0.00000000000E+00  0.00000000000E+00  0.18250000000E+03  0.18250000000E+03  0.00000000000E+00 0.  1.
         11   -1    0    0    0    0 -0.00000000000E+00 -0.00000000000E+00 -0.18250000000E+03  0.18250000000E+03  0.00000000000E+00 0. -1.
        -11    1    1    2    0    0 -0.38145685055E+01 -0.18934429713E+01  0.18038509899E+03  0.18043536238E+03  0.00000000000E+00 0.  1.
         11    1    1    2    0    0  0.28029209578E+01 -0.19176101603E+01 -0.13276203309E+03  0.13280546308E+03  0.00000000000E+00 0. -1.
        -15    1    1    2    0    0  0.59255990204E+01  0.13606916825E+01 -0.34541322843E+01  0.72147740396E+01  0.17770000000E+01 0.  1.
         15    1    1    2    0    0 -0.49139514727E+01  0.24503614490E+01 -0.44168933618E+02  0.44544400504E+02  0.17770000000E+01 0. -1.
</event>
<event>
 6    1  0.1196607E-002  0.1833504E+03  0.7546771E-02  0.1067780E+00
        -11   -1    0    0    0    0  0.00000000000E+00  0.00000000000E+00  0.18250000000E+03  0.18250000000E+03  0.00000000000E+00 0. -1.
         11   -1    0    0    0    0 -0.00000000000E+00 -0.00000000000E+00 -0.18250000000E+03  0.18250000000E+03  0.00000000000E+00 0. -1.
        -11    1    1    2    0    0  0.16650028074E+01  0.21868271356E+01  0.18162880619E+03  0.18164960140E+03  0.00000000000E+00 0. -1.
         11    1    1    2    0    0 -0.14915765452E+01 -0.47666020392E+00 -0.86682173663E+02  0.86696316164E+02  0.00000000000E+00 0. -1.
        -15    1    1    2    0    0  0.23842974448E+01  0.46274980117E+01 -0.79267580331E+02  0.79458200537E+02  0.17770000000E+01 0. -1.
         15    1    1    2    0    0 -0.25577237070E+01 -0.63376649434E+01 -0.15679052201E+02  0.17195881903E+02  0.17770000000E+01 0.  1.
</event>
<event>
 6    1  0.1196607E-002  0.1827304E+03  0.7546771E-02  0.1068272E+00
        -11   -1    0    0    0    0  0.00000000000E+00  0.00000000000E+00  0.18250000000E+03  0.18250000000E+03  0.00000000000E+00 0.  1.
         11   -1    0    0    0    0 -0.00000000000E+00 -0.00000000000E+00 -0.18250000000E+03  0.18250000000E+03  0.00000000000E+00 0. -1.
        -11    1    1    2    0    0 -0.37932675894E+00 -0.36411417575E+00  0.18563660607E+02  0.18571105596E+02  0.00000000000E+00 0.  1.
         11    1    1    2    0    0  0.70839714505E+01  0.25395903175E+01 -0.18211419633E+03  0.18226961534E+03  0.00000000000E+00 0. -1.
        -15    1    1    2    0    0 -0.26116745425E+01 -0.42862449839E+00  0.14381548182E+03  0.14385080849E+03  0.17770000000E+01 0.  1.
         15    1    1    2    0    0 -0.40929701490E+01 -0.17468516434E+01  0.19735053905E+02  0.20308470571E+02  0.17770000000E+01 0. -1.
</event>
<event>
 6    1  0.1196607E-002  0.1832311E+03  0.7546771E-02  0.1067874E+00
        -11   -1    0    0    0    0  0.00000000000E+00  0.00000000000E+00  0.18250000000E+03  0.18250000000E+03  0.00000000000E+00 0.  1.
         11   -1    0    0    0    0 -0.00000000000E+00 -0.00000000000E+00 -0.18250000000E+03  0.18250000000E+03  0.00000000000E+00 0. -1.
        -11    1    1    2    0    0 -0.26724309889E+01  0.75682255251E+00  0.15967565244E+03  0.15969980793E+03  0.00000000000E+00 0.  1.
         11    1    1    2    0    0  0.28032582197E+01 -0.64184752741E+00 -0.18174617025E+03  0.18176892096E+03  0.00000000000E+00 0. -1.
        -15    1    1    2    0    0 -0.34771595245E+01 -0.20981085309E-01  0.15102743136E+02  0.15599412098E+02  0.17770000000E+01 0. -1.
         15    1    1    2    0    0  0.33463322937E+01 -0.93993939782E-01  0.69677746698E+01  0.79318590211E+01  0.17770000000E+01 0. -1.
</event>
<event>
 6    1  0.1196607E-002  0.1855289E+03  0.7546771E-02  0.1066069E+00
        -11   -1    0    0    0    0  0.00000000000E+00  0.00000000000E+00  0.18250000000E+03  0.18250000000E+03  0.00000000000E+00 0.  1.
         11   -1    0    0    0    0 -0.00000000000E+00 -0.00000000000E+00 -0.18250000000E+03  0.18250000000E+03  0.00000000000E+00 0.  1.
        -11    1    1    2    0    0  0.12916996507E+01 -0.24485754021E+01  0.17944976027E+03  0.17947111319E+03  0.00000000000E+00 0.  1.
         11    1    1    2    0    0 -0.70604709479E+01  0.11993802359E+02 -0.13551862429E+03  0.13623141736E+03  0.00000000000E+00 0.  1.
        -15    1    1    2    0    0  0.48542055319E+01 -0.11828597476E+02 -0.44389673592E+02  0.46228561304E+02  0.17770000000E+01 0.  1.
         15    1    1    2    0    0  0.91456576535E+00  0.22833705192E+01  0.45853761644E+00  0.30689081467E+01  0.17770000000E+01 0. -1.
</event>
<event>
 6    1  0.1196607E-002  0.1827167E+03  0.7546771E-02  0.1068282E+00
        -11   -1    0    0    0    0  0.00000000000E+00  0.00000000000E+00  0.18250000000E+03  0.18250000000E+03  0.00000000000E+00 0.  1.
         11   -1    0    0    0    0 -0.00000000000E+00 -0.00000000000E+00 -0.18250000000E+03  0.18250000000E+03  0.00000000000E+00 0. -1.
        -11    1    1    2    0    0 -0.34899825231E+01 -0.31235065409E+00  0.18224957502E+03  0.18228325523E+03  0.00000000000E+00 0.  1.
         11    1    1    2    0    0 -0.75669036602E+00 -0.21813074485E+01 -0.11934558163E+03  0.11936791251E+03  0.00000000000E+00 0. -1.
        -15    1    1    2    0    0 -0.30536654684E+00  0.17616277136E+01 -0.24115738414E+02  0.24247126617E+02  0.17770000000E+01 0.  1.
         15    1    1    2    0    0  0.45520394359E+01  0.73203038896E+00 -0.38788254971E+02  0.39101705643E+02  0.17770000000E+01 0. -1.
</event>
<event>
 6    1  0.1196607E-002  0.1835567E+03  0.7546771E-02  0.1067617E+00
        -11   -1    0    0    0    0  0.00000000000E+00  0.00000000000E+00  0.18250000000E+03  0.18250000000E+03  0.00000000000E+00 0. -1.
         11   -1    0    0    0    0 -0.00000000000E+00 -0.00000000000E+00 -0.18250000000E+03  0.18250000000E+03  0.00000000000E+00 0.  1.
        -11    1    1    2    0    0 -0.31546516271E+01  0.44569135530E+01  0.18136111664E+03  0.18144329840E+03  0.00000000000E+00 0. -1.
         11    1    1    2    0    0 -0.19821752635E+01  0.22931916374E+01 -0.14209534967E+03  0.14212767551E+03  0.00000000000E+00 0.  1.
        -15    1    1    2    0    0  0.39788386642E+01 -0.57949331210E+01 -0.38179267939E+02  0.38861634504E+02  0.17770000000E+01 0. -1.
         15    1    1    2    0    0  0.11579882264E+01 -0.95517206944E+00 -0.10864990314E+01  0.25673915868E+01  0.17770000000E+01 0.  1.
</event>
<event>
 6    1  0.1196607E-002  0.1836966E+03  0.7546771E-02  0.1067506E+00
        -11   -1    0    0    0    0  0.00000000000E+00  0.00000000000E+00  0.18250000000E+03  0.18250000000E+03  0.00000000000E+00 0. -1.
         11   -1    0    0    0    0 -0.00000000000E+00 -0.00000000000E+00 -0.18250000000E+03  0.18250000000E+03  0.00000000000E+00 0.  1.
        -11    1    1    2    0    0  0.10697171476E+02  0.69999057256E+00  0.18098621776E+03  0.18130342105E+03  0.00000000000E+00 0. -1.
         11    1    1    2    0    0 -0.45214693823E+01 -0.77641503774E+00 -0.15393411646E+03  0.15400246334E+03  0.00000000000E+00 0.  1.
        -15    1    1    2    0    0 -0.73399077030E+01 -0.38394856750E+00 -0.26344313048E+02  0.27408068530E+02  0.17770000000E+01 0. -1.
         15    1    1    2    0    0  0.11642056097E+01  0.46037303268E+00 -0.70778825954E+00  0.22860470798E+01  0.17770000000E+01 0.  1.
</event>
<event>
 6    1  0.1196607E-002  0.1828370E+03  0.7546771E-02  0.1068187E+00
        -11   -1    0    0    0    0  0.00000000000E+00  0.00000000000E+00  0.18250000000E+03  0.18250000000E+03  0.00000000000E+00 0. -1.
         11   -1    0    0    0    0 -0.00000000000E+00 -0.00000000000E+00 -0.18250000000E+03  0.18250000000E+03  0.00000000000E+00 0.  1.
        -11    1    1    2    0    0 -0.13469393754E+01  0.12935642085E+01  0.10531483862E+03  0.10533139507E+03  0.00000000000E+00 0. -1.
         11    1    1    2    0    0  0.18043621517E+01  0.35895945058E+01 -0.18211864469E+03  0.18216295357E+03  0.00000000000E+00 0.  1.
        -15    1    1    2    0    0 -0.26783190381E+00 -0.68278293311E+00  0.61633183099E+02  0.61663156864E+02  0.17770000000E+01 0. -1.
         15    1    1    2    0    0 -0.18959087251E+00 -0.42003757812E+01  0.15170622969E+02  0.15842494491E+02  0.17770000000E+01 0.  1.
</event>
<event>
 6    1  0.1196607E-002  0.1827913E+03  0.7546771E-02  0.1068223E+00
        -11   -1    0    0    0    0  0.00000000000E+00  0.00000000000E+00  0.18250000000E+03  0.18250000000E+03  0.00000000000E+00 0.  1.
         11   -1    0    0    0    0 -0.00000000000E+00 -0.00000000000E+00 -0.18250000000E+03  0.18250000000E+03  0.00000000000E+00 0.  1.
        -11    1    1    2    0    0  0.24617446983E+01 -0.26959430361E+01  0.18217216212E+03  0.18220874004E+03  0.00000000000E+00 0.  1.
         11    1    1    2    0    0  0.42300206708E+00  0.25975969345E+01 -0.14535318820E+03  0.14537701249E+03  0.00000000000E+00 0.  1.
        -15    1    1    2    0    0 -0.26443509703E+01 -0.72200377823E+00 -0.99400624375E+01  0.10463099530E+02  0.17770000000E+01 0. -1.
         15    1    1    2    0    0 -0.24039579516E+00  0.82034987986E+00 -0.26878911475E+02  0.26951147938E+02  0.17770000000E+01 0.  1.
</event>
<event>
 6    1  0.1196607E-002  0.1890738E+03  0.7546771E-02  0.1063339E+00
        -11   -1    0    0    0    0  0.00000000000E+00  0.00000000000E+00  0.18250000000E+03  0.18250000000E+03  0.00000000000E+00 0.  1.
         11   -1    0    0    0    0 -0.00000000000E+00 -0.00000000000E+00 -0.18250000000E+03  0.18250000000E+03  0.00000000000E+00 0.  1.
        -11    1    1    2    0    0  0.23718826033E+01  0.46187822049E+00  0.16175356915E+03  0.16177161769E+03  0.00000000000E+00 0.  1.
         11    1    1    2    0    0  0.25603487268E+01  0.95569487617E+00 -0.17590495705E+03  0.17592618524E+03  0.00000000000E+00 0.  1.
        -15    1    1    2    0    0 -0.10820952120E+01  0.26274638424E+01  0.19246821023E+02  0.19536436338E+02  0.17770000000E+01 0. -1.
         15    1    1    2    0    0 -0.38501361180E+01 -0.40450369390E+01 -0.50954331221E+01  0.77657607269E+01  0.17770000000E+01 0.  1.
</event>
<event>
 6    1  0.1196607E-002  0.1835020E+03  0.7546771E-02  0.1067660E+00
        -11   -1    0    0    0    0  0.00000000000E+00  0.00000000000E+00  0.18250000000E+03  0.18250000000E+03  0.00000000000E+00 0. -1.
         11   -1    0    0    0    0 -0.00000000000E+00 -0.00000000000E+00 -0.18250000000E+03  0.18250000000E+03  0.00000000000E+00 0. -1.
        -11    1    1    2    0    0  0.42491768125E+01  0.65238240536E+01  0.18133094733E+03  0.18149801168E+03  0.00000000000E+00 0. -1.
         11    1    1    2    0    0 -0.74677094073E+00 -0.11739047814E+01 -0.46805103095E+02  0.46825777036E+02  0.00000000000E+00 0. -1.
        -15    1    1    2    0    0 -0.60405927622E+01 -0.69233293619E+01 -0.19825747450E+02  0.21923486067E+02  0.17770000000E+01 0. -1.
         15    1    1    2    0    0  0.25381868904E+01  0.15734100896E+01 -0.11470009679E+03  0.11475272521E+03  0.17770000000E+01 0. -1.
</event>
<event>
 6    1  0.1196607E-002  0.1930724E+03  0.7546771E-02  0.1060337E+00
        -11   -1    0    0    0    0  0.00000000000E+00  0.00000000000E+00  0.18250000000E+03  0.18250000000E+03  0.00000000000E+00 0.  1.
         11   -1    0    0    0    0 -0.00000000000E+00 -0.00000000000E+00 -0.18250000000E+03  0.18250000000E+03  0.00000000000E+00 0.  1.
        -11    1    1    2    0    0  0.14928309662E+01 -0.72378331556E+01  0.16071972569E+03  0.16088954285E+03  0.00000000000E+00 0.  1.
         11    1    1    2    0    0  0.21761241385E+01 -0.11139743860E+01 -0.17191017182E+03  0.17192755343E+03  0.00000000000E+00 0.  1.
        -15    1    1    2    0    0 -0.19106037165E+01 -0.89776399152E+01 -0.28127438683E+01  0.97630774901E+01  0.17770000000E+01 0.  1.
         15    1    1    2    0    0 -0.17583513882E+01  0.17329447457E+02  0.14003189997E+02  0.22419826222E+02  0.17770000000E+01 0. -1.
</event>
<event>
 6    1  0.1196607E-002  0.1831694E+03  0.7546771E-02  0.1067923E+00
        -11   -1    0    0    0    0  0.00000000000E+00  0.00000000000E+00  0.18250000000E+03  0.18250000000E+03  0.00000000000E+00 0.  1.
         11   -1    0    0    0    0 -0.00000000000E+00 -0.00000000000E+00 -0.18250000000E+03  0.18250000000E+03  0.00000000000E+00 0.  1.
        -11    1    1    2    0    0  0.34505309280E+01 -0.21656061623E+01  0.14319725706E+03  0.14325519342E+03  0.00000000000E+00 0.  1.
         11    1    1    2    0    0 -0.21741555823E+01  0.24468793057E+01 -0.18180116678E+03  0.18183063112E+03  0.00000000000E+00 0.  1.
        -15    1    1    2    0    0  0.17840626294E+01 -0.39612020731E+01  0.13398241669E+02  0.14196640805E+02  0.17770000000E+01 0.  1.
         15    1    1    2    0    0 -0.30604379751E+01  0.36799289296E+01  0.25205668055E+02  0.25717534653E+02  0.17770000000E+01 0.  1.
</event>
<event>
 6    1  0.1196607E-002  0.1825501E+03  0.7546771E-02  0.1068415E+00
        -11   -1    0    0    0    0  0.00000000000E+00  0.00000000000E+00  0.18250000000E+03  0.18250000000E+03  0.00000000000E+00 0. -1.
         11   -1    0    0    0    0 -0.00000000000E+00 -0.00000000000E+00 -0.18250000000E+03  0.18250000000E+03  0.00000000000E+00 0.  1.
        -11    1    1    2    0    0 -0.30105340052E+01  0.12606387536E+01  0.18242065577E+03  0.18244985113E+03  0.00000000000E+00 0. -1.
         11    1    1    2    0    0 -0.47031807706E+00  0.39599302720E+00 -0.24905880331E+02  0.24913467936E+02  0.00000000000E+00 0.  1.
        -15    1    1    2    0    0  0.29727918077E+01  0.26248407354E+00 -0.99833822220E+02  0.99894224944E+02  0.17770000000E+01 0.  1.
         15    1    1    2    0    0  0.50806027454E+00 -0.19191158543E+01 -0.57680953218E+02  0.57742455993E+02  0.17770000000E+01 0. -1.
</event>
<event>
 6    1  0.1196607E-002  0.1828659E+03  0.7546771E-02  0.1068164E+00
        -11   -1    0    0    0    0  0.00000000000E+00  0.00000000000E+00  0.18250000000E+03  0.18250000000E+03  0.00000000000E+00 0. -1.
         11   -1    0    0    0    0 -0.00000000000E+00 -0.00000000000E+00 -0.18250000000E+03  0.18250000000E+03  0.00000000000E+00 0.  1.
        -11    1    1    2    0    0 -0.34330073600E+01  0.29991314696E-01  0.13433436549E+03  0.13437822811E+03  0.00000000000E+00 0. -1.
         11    1    1    2    0    0  0.32024195573E-01 -0.42934450434E+01 -0.18208348191E+03  0.18213409642E+03  0.00000000000E+00 0.  1.
        -15    1    1    2    0    0 -0.46933200423E+00  0.14515701727E+01  0.27715381078E+02  0.27814158369E+02  0.17770000000E+01 0.  1.
         15    1    1    2    0    0  0.38703151687E+01  0.28118835560E+01  0.20033735342E+02  0.20673517103E+02  0.17770000000E+01 0. -1.
</event>
<event>
 6    1  0.1196607E-002  0.1936943E+03  0.7546771E-02  0.1059878E+00
        -11   -1    0    0    0    0  0.00000000000E+00  0.00000000000E+00  0.18250000000E+03  0.18250000000E+03  0.00000000000E+00 0. -1.
         11   -1    0    0    0    0 -0.00000000000E+00 -0.00000000000E+00 -0.18250000000E+03  0.18250000000E+03  0.00000000000E+00 0.  1.
        -11    1    1    2    0    0  0.15092235160E+02  0.76053402205E+00  0.17063790336E+03  0.17130571513E+03  0.00000000000E+00 0. -1.
         11    1    1    2    0    0 -0.19940823910E+01  0.12894051185E+01 -0.16150395442E+03  0.16152141103E+03  0.00000000000E+00 0.  1.
        -15    1    1    2    0    0 -0.14756622898E+02  0.36371062786E+00  0.64575616659E+01  0.16209504510E+02  0.17770000000E+01 0.  1.
         15    1    1    2    0    0  0.16584701297E+01 -0.24136497684E+01 -0.15591510606E+02  0.15963369330E+02  0.17770000000E+01 0.  1.
</event>
<event>
 6    1  0.1196607E-002  0.1893455E+03  0.7546771E-02  0.1063133E+00
        -11   -1    0    0    0    0  0.00000000000E+00  0.00000000000E+00  0.18250000000E+03  0.18250000000E+03  0.00000000000E+00 0. -1.
         11   -1    0    0    0    0 -0.00000000000E+00 -0.00000000000E+00 -0.18250000000E+03  0.18250000000E+03  0.00000000000E+00 0.  1.
        -11    1    1    2    0    0 -0.21573989018E+00  0.34394333623E+01  0.13193009828E+03  0.13197510022E+03  0.00000000000E+00 0. -1.
         11    1    1    2    0    0 -0.10302521779E+01 -0.33931299898E+01 -0.17561872417E+03  0.17565452180E+03  0.00000000000E+00 0.  1.
        -15    1    1    2    0    0  0.23142774194E+01  0.38314243396E+01 -0.58837177281E+01  0.76033910690E+01  0.17770000000E+01 0. -1.
         15    1    1    2    0    0 -0.10682853513E+01 -0.38777277120E+01  0.49572343616E+02  0.49766986913E+02  0.17770000000E+01 0.  1.
</event>
<event>
 6    1  0.1196607E-002  0.1827100E+03  0.7546771E-02  0.1068288E+00
        -11   -1    0    0    0    0  0.00000000000E+00  0.00000000000E+00  0.18250000000E+03  0.18250000000E+03  0.00000000000E+00 0.  1.
         11   -1    0    0    0    0 -0.00000000000E+00 -0.00000000000E+00 -0.18250000000E+03  0.18250000000E+03  0.00000000000E+00 0. -1.
        -11    1    1    2    0    0  0.39490358670E+01  0.21204190034E+01  0.18223486917E+03  0.18228998492E+03  0.00000000000E+00 0.  1.
         11    1    1    2    0    0  0.11315624995E+01  0.38609466060E+00 -0.63020577119E+02  0.63031917655E+02  0.00000000000E+00 0. -1.
        -15    1    1    2    0    0 -0.45216543037E+01  0.34860944825E+00 -0.29527812787E+02  0.29926849870E+02  0.17770000000E+01 0.  1.
         15    1    1    2    0    0 -0.55894406273E+00 -0.28551231122E+01 -0.89686479262E+02  0.89751247556E+02  0.17770000000E+01 0. -1.
</event>
<event>
 6    1  0.1196607E-002  0.1911138E+03  0.7546771E-02  0.1061798E+00
        -11   -1    0    0    0    0  0.00000000000E+00  0.00000000000E+00  0.18250000000E+03  0.18250000000E+03  0.00000000000E+00 0.  1.
         11   -1    0    0    0    0 -0.00000000000E+00 -0.00000000000E+00 -0.18250000000E+03  0.18250000000E+03  0.00000000000E+00 0. -1.
        -11    1    1    2    0    0  0.28274249546E+01 -0.20266767036E+01  0.14638776537E+03  0.14642909410E+03  0.00000000000E+00 0.  1.
         11    1    1    2    0    0  0.33605923348E+01 -0.29299296216E+00 -0.17385348166E+03  0.17388620564E+03  0.00000000000E+00 0. -1.
        -15    1    1    2    0    0 -0.11594033820E+02  0.14201634301E+02  0.25359891229E+02  0.31343098908E+02  0.17770000000E+01 0.  1.
         15    1    1    2    0    0  0.54060165307E+01 -0.11881964635E+02  0.21058250668E+01  0.13341601348E+02  0.17770000000E+01 0. -1.
</event>
<event>
 6    1  0.1196607E-002  0.1905552E+03  0.7546771E-02  0.1062218E+00
        -11   -1    0    0    0    0  0.00000000000E+00  0.00000000000E+00  0.18250000000E+03  0.18250000000E+03  0.00000000000E+00 0.  1.
         11   -1    0    0    0    0 -0.00000000000E+00 -0.00000000000E+00 -0.18250000000E+03  0.18250000000E+03  0.00000000000E+00 0. -1.
        -11    1    1    2    0    0 -0.12085171014E+01 -0.23882031560E+01  0.17093583268E+03  0.17095678671E+03  0.00000000000E+00 0.  1.
         11    1    1    2    0    0  0.34692430808E+01 -0.28074785715E+01 -0.17438765595E+03  0.17444475381E+03  0.00000000000E+00 0. -1.
        -15    1    1    2    0    0 -0.37380577310E+01  0.24613092164E+01 -0.70305468592E+01  0.85215865188E+01  0.17770000000E+01 0. -1.
         15    1    1    2    0    0  0.14773317515E+01  0.27343725111E+01  0.10482370131E+02  0.11076872966E+02  0.17770000000E+01 0. -1.
</event>
<event>
 6    1  0.1196607E-002  0.1879147E+03  0.7546771E-02  0.1064225E+00
        -11   -1    0    0    0    0  0.00000000000E+00  0.00000000000E+00  0.18250000000E+03  0.18250000000E+03  0.00000000000E+00 0. -1.
         11   -1    0    0    0    0 -0.00000000000E+00 -0.00000000000E+00 -0.18250000000E+03  0.18250000000E+03  0.00000000000E+00 0. -1.
        -11    1    1    2    0    0  0.20097787710E+01  0.19490234843E+01  0.15458536110E+03  0.15461071040E+03  0.00000000000E+00 0. -1.
         11    1    1    2    0    0 -0.27276049745E+01 -0.13301424973E+01 -0.17705929866E+03  0.17708530247E+03  0.00000000000E+00 0. -1.
        -15    1    1    2    0    0 -0.11010866767E+01  0.11300577153E+01 -0.50638887543E+01  0.55937572906E+01  0.17770000000E+01 0. -1.
         15    1    1    2    0    0  0.18189128802E+01 -0.17489387024E+01  0.27537826312E+02  0.27710229838E+02  0.17770000000E+01 0.  1.
</event>
<event>
 6    1  0.1196607E-002  0.1959502E+03  0.7546771E-02  0.1058226E+00
        -11   -1    0    0    0    0  0.00000000000E+00  0.00000000000E+00  0.18250000000E+03  0.18250000000E+03  0.00000000000E+00 0.  1.
         11   -1    0    0    0    0 -0.00000000000E+00 -0.00000000000E+00 -0.18250000000E+03  0.18250000000E+03  0.00000000000E+00 0.  1.
        -11    1    1    2    0    0 -0.23982415796E+01 -0.13966572633E+01  0.16902700182E+03  0.16904978426E+03  0.00000000000E+00 0.  1.
         11    1    1    2    0    0 -0.43635635778E+01 -0.39117296065E+00 -0.14881039830E+03  0.14887487479E+03  0.00000000000E+00 0.  1.
        -15    1    1    2    0    0  0.91750800317E+01 -0.73952294406E+01 -0.30632827569E+02  0.32869429048E+02  0.17770000000E+01 0.  1.
         15    1    1    2    0    0 -0.24132748744E+01  0.91830596645E+01  0.10416224046E+02  0.14205911896E+02  0.17770000000E+01 0. -1.
</event>
<event>
 6    1  0.1196607E-002  0.1835966E+03  0.7546771E-02  0.1067585E+00
        -11   -1    0    0    0    0  0.00000000000E+00  0.00000000000E+00  0.18250000000E+03  0.18250000000E+03  0.00000000000E+00 0.  1.
         11   -1    0    0    0    0 -0.00000000000E+00 -0.00000000000E+00 -0.18250000000E+03  0.18250000000E+03  0.00000000000E+00 0.  1.
        -11    1    1    2    0    0 -0.27353433476E+01 -0.47294931962E-01  0.18138273391E+03  0.18140336408E+03  0.00000000000E+00 0.  1.
         11    1    1    2    0    0  0.38857609770E+01 -0.68532384850E+00 -0.16645397052E+03  0.16650073005E+03  0.00000000000E+00 0.  1.
        -15    1    1    2    0    0  0.16072182231E+01  0.17449416685E+01 -0.12608335930E+02  0.12952059132E+02  0.17770000000E+01 0.  1.
         15    1    1    2    0    0 -0.27576358525E+01 -0.10123228880E+01 -0.23204274618E+01  0.41438467310E+01  0.17770000000E+01 0. -1.
</event>
<event>
 6    1  0.1196607E-002  0.1882302E+03  0.7546771E-02  0.1063983E+00
        -11   -1    0    0    0    0  0.00000000000E+00  0.00000000000E+00  0.18250000000E+03  0.18250000000E+03  0.00000000000E+00 0. -1.
         11   -1    0    0    0    0 -0.00000000000E+00 -0.00000000000E+00 -0.18250000000E+03  0.18250000000E+03  0.00000000000E+00 0.  1.
        -11    1    1    2    0    0 -0.10704950172E+02 -0.96056902543E+01  0.14979059751E+03  0.15047952800E+03  0.00000000000E+00 0. -1.
         11    1    1    2    0    0  0.34475298130E+01  0.13457894141E+01 -0.17673105177E+03  0.17676979739E+03  0.00000000000E+00 0.  1.
        -15    1    1    2    0    0  0.78864861872E+01 -0.38577779506E+01  0.94431671343E+00  0.90071403982E+01  0.17770000000E+01 0.  1.
         15    1    1    2    0    0 -0.62906582807E+00  0.12117678791E+02  0.25996137538E+02  0.28743534211E+02  0.17770000000E+01 0. -1.
</event>
<event>
 6    1  0.1196607E-002  0.1868068E+03  0.7546771E-02  0.1065077E+00
        -11   -1    0    0    0    0  0.00000000000E+00  0.00000000000E+00  0.18250000000E+03  0.18250000000E+03  0.00000000000E+00 0.  1.
         11   -1    0    0    0    0 -0.00000000000E+00 -0.00000000000E+00 -0.18250000000E+03  0.18250000000E+03  0.00000000000E+00 0. -1.
        -11    1    1    2    0    0 -0.24048646368E+01 -0.35687746526E+01  0.17143377496E+03  0.17148778010E+03  0.00000000000E+00 0.  1.
         11    1    1    2    0    0  0.74520003668E+00  0.24549375344E+01 -0.17817470205E+03  0.17819317185E+03  0.00000000000E+00 0. -1.
        -15    1    1    2    0    0  0.13053549086E+01  0.17501681678E+01 -0.37302150244E+01  0.46732508152E+01  0.17770000000E+01 0. -1.
         15    1    1    2    0    0  0.35430969151E+00 -0.63633104967E+00  0.10471142122E+02  0.10645797241E+02  0.17770000000E+01 0.  1.
</event>
<event>
 6    1  0.1196607E-002  0.1837355E+03  0.7546771E-02  0.1067476E+00
        -11   -1    0    0    0    0  0.00000000000E+00  0.00000000000E+00  0.18250000000E+03  0.18250000000E+03  0.00000000000E+00 0. -1.
         11   -1    0    0    0    0 -0.00000000000E+00 -0.00000000000E+00 -0.18250000000E+03  0.18250000000E+03  0.00000000000E+00 0. -1.
        -11    1    1    2    0    0 -0.19229724614E+01 -0.12166887078E+01  0.71691810583E+02  0.71727915481E+02  0.00000000000E+00 0. -1.
         11    1    1    2    0    0  0.62581689229E+01  0.10576762545E+01 -0.18115336183E+03  0.18126451351E+03  0.00000000000E+00 0. -1.
        -15    1    1    2    0    0 -0.51767488341E+00 -0.31851613419E+00 -0.51657648344E+00  0.19478244469E+01  0.17770000000E+01 0.  1.
         15    1    1    2    0    0 -0.38175215780E+01  0.47752858749E+00  0.10997812773E+03  0.11005974656E+03  0.17770000000E+01 0. -1.
</event>
<event>
 6    1  0.1196607E-002  0.1876934E+03  0.7546771E-02  0.1064394E+00
        -11   -1    0    0    0    0  0.00000000000E+00  0.00000000000E+00  0.18250000000E+03  0.18250000000E+03  0.00000000000E+00 0.  1.
         11   -1    0    0    0    0 -0.00000000000E+00 -0.00000000000E+00 -0.18250000000E+03  0.18250000000E+03  0.00000000000E+00 0. -1.
        -11    1    1    2    0    0  0.79505478530E+00  0.54834682451E+01  0.17721999428E+03  0.17730659014E+03  0.00000000000E+00 0.  1.
         11    1    1    2    0    0  0.39267755874E+01  0.34951415279E+01 -0.16991867667E+03  0.16999997724E+03  0.00000000000E+00 0. -1.
        -15    1    1    2    0    0 -0.54520858587E+01 -0.98372646487E+01 -0.93672333970E+01  0.14744483934E+02  0.17770000000E+01 0. -1.
         15    1    1    2    0    0  0.73025548602E+00  0.85865487574E+00  0.20659157933E+01  0.29489486831E+01  0.17770000000E+01 0.  1.
</event>
<event>
 6    1  0.1196607E-002  0.1839754E+03  0.7546771E-02  0.1067286E+00
        -11   -1    0    0    0    0  0.00000000000E+00  0.00000000000E+00  0.18250000000E+03  0.18250000000E+03  0.00000000000E+00 0. -1.
         11   -1    0    0    0    0 -0.00000000000E+00 -0.00000000000E+00 -0.18250000000E+03  0.18250000000E+03  0.00000000000E+00 0.  1.
        -11    1    1    2    0    0 -0.36360619057E+01  0.29204416151E+01  0.13650320741E+03  0.13658285236E+03  0.00000000000E+00 0. -1.
         11    1    1    2    0    0  0.11131975830E+02  0.54088039221E+01 -0.18060104968E+03  0.18102462592E+03  0.00000000000E+00 0.  1.
        -15    1    1    2    0    0  0.26715920067E+01 -0.83259407461E+00  0.18471348821E+02  0.18766434745E+02  0.17770000000E+01 0.  1.
         15    1    1    2    0    0 -0.10167505931E+02 -0.74966514626E+01  0.25626493442E+02  0.28626086969E+02  0.17770000000E+01 0.  1.
</event>
<event>
 6    1  0.1196607E-002  0.1828918E+03  0.7546771E-02  0.1068143E+00
        -11   -1    0    0    0    0  0.00000000000E+00  0.00000000000E+00  0.18250000000E+03  0.18250000000E+03  0.00000000000E+00 0.  1.
         11   -1    0    0    0    0 -0.00000000000E+00 -0.00000000000E+00 -0.18250000000E+03  0.18250000000E+03  0.00000000000E+00 0. -1.
        -11    1    1    2    0    0 -0.32537799114E+01 -0.15756626314E+00  0.52443131889E+02  0.52544209892E+02  0.00000000000E+00 0.  1.
         11    1    1    2    0    0 -0.37184478002E+00 -0.29806603552E+01 -0.18208344769E+03  0.18210822202E+03  0.00000000000E+00 0. -1.
        -15    1    1    2    0    0  0.15417888672E+01  0.39328331476E+01  0.15297625800E+02  0.15969326022E+02  0.17770000000E+01 0. -1.
         15    1    1    2    0    0  0.20838358243E+01 -0.79460652923E+00  0.11434269000E+03  0.11437824206E+03  0.17770000000E+01 0.  1.
</event>
<event>
 6    1  0.1196607E-002  0.1830218E+03  0.7546771E-02  0.1068040E+00
        -11   -1    0    0    0    0  0.00000000000E+00  0.00000000000E+00  0.18250000000E+03  0.18250000000E+03  0.00000000000E+00 0.  1.
         11   -1    0    0    0    0 -0.00000000000E+00 -0.00000000000E+00 -0.18250000000E+03  0.18250000000E+03  0.00000000000E+00 0. -1.
        -11    1    1    2    0    0  0.55245493534E+01 -0.19091572354E+01  0.18188431012E+03  0.18197820692E+03  0.00000000000E+00 0.  1.
         11    1    1    2    0    0 -0.91337451557E+00 -0.20843947631E+01 -0.14527069051E+03  0.14528851460E+03  0.00000000000E+00 0. -1.
        -15    1    1    2    0    0 -0.52275533401E+01  0.19646557900E+01 -0.18400236188E+02  0.19310971159E+02  0.17770000000E+01 0.  1.
         15    1    1    2    0    0  0.61637850227E+00  0.20288962085E+01 -0.18213383421E+02  0.18422307318E+02  0.17770000000E+01 0. -1.
</event>
<event>
 6    1  0.1196607E-002  0.1827732E+03  0.7546771E-02  0.1068238E+00
        -11   -1    0    0    0    0  0.00000000000E+00  0.00000000000E+00  0.18250000000E+03  0.18250000000E+03  0.00000000000E+00 0.  1.
         11   -1    0    0    0    0 -0.00000000000E+00 -0.00000000000E+00 -0.18250000000E+03  0.18250000000E+03  0.00000000000E+00 0.  1.
        -11    1    1    2    0    0  0.11261157647E+01 -0.24446193328E+01  0.58298536386E+02  0.58360634379E+02  0.00000000000E+00 0.  1.
         11    1    1    2    0    0  0.20373121823E+00 -0.28685328453E+01 -0.18220406880E+03  0.18222676169E+03  0.00000000000E+00 0.  1.
        -15    1    1    2    0    0 -0.46353627141E+00 -0.25828583539E+00  0.45870837749E+01  0.49477918313E+01  0.17770000000E+01 0.  1.
         15    1    1    2    0    0 -0.86631071156E+00  0.55714380134E+01  0.11931844864E+03  0.11946481210E+03  0.17770000000E+01 0.  1.
</event>
<event>
 6    1  0.1196607E-002  0.1825826E+03  0.7546771E-02  0.1068389E+00
        -11   -1    0    0    0    0  0.00000000000E+00  0.00000000000E+00  0.18250000000E+03  0.18250000000E+03  0.00000000000E+00 0. -1.
         11   -1    0    0    0    0 -0.00000000000E+00 -0.00000000000E+00 -0.18250000000E+03  0.18250000000E+03  0.00000000000E+00 0.  1.
        -11    1    1    2    0    0  0.27849427196E+01 -0.14310461147E+01  0.18239057299E+03  0.18241744685E+03  0.00000000000E+00 0. -1.
         11    1    1    2    0    0  0.60779732991E+00  0.54853096060E+00 -0.57735397575E+02  0.57741202247E+02  0.00000000000E+00 0.  1.
        -15    1    1    2    0    0  0.95516255380E-01  0.53019417222E+00 -0.77625440011E+02  0.77647645779E+02  0.17770000000E+01 0. -1.
         15    1    1    2    0    0 -0.34882563049E+01  0.35232098184E+00 -0.47029735405E+02  0.47193705124E+02  0.17770000000E+01 0.  1.
</event>
<event>
 6    1  0.1196607E-002  0.1870643E+03  0.7546771E-02  0.1064879E+00
        -11   -1    0    0    0    0  0.00000000000E+00  0.00000000000E+00  0.18250000000E+03  0.18250000000E+03  0.00000000000E+00 0.  1.
         11   -1    0    0    0    0 -0.00000000000E+00 -0.00000000000E+00 -0.18250000000E+03  0.18250000000E+03  0.00000000000E+00 0.  1.
        -11    1    1    2    0    0  0.85986706870E+01 -0.94003681336E+01  0.12406589848E+03  0.12471828745E+03  0.00000000000E+00 0.  1.
         11    1    1    2    0    0  0.61090430888E+01  0.96223951886E+00 -0.17782818621E+03  0.17793569097E+03  0.00000000000E+00 0.  1.
        -15    1    1    2    0    0 -0.58296985773E+01  0.83338485392E+01  0.29562760797E+01  0.10739446645E+02  0.17770000000E+01 0. -1.
         15    1    1    2    0    0 -0.88780151984E+01  0.10428007548E+00  0.50806011641E+02  0.51606574930E+02  0.17770000000E+01 0. -1.
</event>
<event>
 6    1  0.1196607E-002  0.1831372E+03  0.7546771E-02  0.1067949E+00
        -11   -1    0    0    0    0  0.00000000000E+00  0.00000000000E+00  0.18250000000E+03  0.18250000000E+03  0.00000000000E+00 0.  1.
         11   -1    0    0    0    0 -0.00000000000E+00 -0.00000000000E+00 -0.18250000000E+03  0.18250000000E+03  0.00000000000E+00 0.  1.
        -11    1    1    2    0    0  0.33695122045E+01  0.21274643505E+01  0.18181910103E+03  0.18186276478E+03  0.00000000000E+00 0.  1.
         11    1    1    2    0    0  0.12473241323E+01 -0.18839431665E+01 -0.16405618947E+03  0.16407174761E+03  0.00000000000E+00 0.  1.
        -15    1    1    2    0    0 -0.23333219094E+01  0.27590226406E+00 -0.38628621821E+01  0.48579776070E+01  0.17770000000E+01 0.  1.
         15    1    1    2    0    0 -0.22835144275E+01 -0.51942344804E+00 -0.13900049369E+02  0.14207509998E+02  0.17770000000E+01 0. -1.
</event>
<event>
 6    1  0.1196607E-002  0.1899554E+03  0.7546771E-02  0.1062670E+00
        -11   -1    0    0    0    0  0.00000000000E+00  0.00000000000E+00  0.18250000000E+03  0.18250000000E+03  0.00000000000E+00 0. -1.
         11   -1    0    0    0    0 -0.00000000000E+00 -0.00000000000E+00 -0.18250000000E+03  0.18250000000E+03  0.00000000000E+00 0.  1.
        -11    1    1    2    0    0  0.60292156360E+01 -0.19183769660E+01  0.17493021077E+03  0.17504459503E+03  0.00000000000E+00 0. -1.
         11    1    1    2    0    0 -0.29389581742E+00  0.22744414067E+02 -0.10360219417E+03  0.10606983257E+03  0.00000000000E+00 0.  1.
        -15    1    1    2    0    0  0.12812813172E+02 -0.17322395370E+02 -0.54131235197E+02  0.58288780359E+02  0.17770000000E+01 0.  1.
         15    1    1    2    0    0 -0.18548132990E+02 -0.35036417316E+01 -0.17196781402E+02  0.25596792033E+02  0.17770000000E+01 0. -1.
</event>
<event>
 6    1  0.1196607E-002  0.1863240E+03  0.7546771E-02  0.1065451E+00
        -11   -1    0    0    0    0  0.00000000000E+00  0.00000000000E+00  0.18250000000E+03  0.18250000000E+03  0.00000000000E+00 0. -1.
         11   -1    0    0    0    0 -0.00000000000E+00 -0.00000000000E+00 -0.18250000000E+03  0.18250000000E+03  0.00000000000E+00 0.  1.
        -11    1    1    2    0    0  0.20568210066E+01 -0.14547457720E+01  0.17865825330E+03  0.17867601481E+03  0.00000000000E+00 0. -1.
         11    1    1    2    0    0 -0.26908861071E+01 -0.61314553571E+00 -0.17216933813E+03  0.17219145684E+03  0.00000000000E+00 0.  1.
        -15    1    1    2    0    0  0.52719726863E+01 -0.28829815406E+00  0.74169082511E-01  0.55713590697E+01  0.17770000000E+01 0. -1.
         15    1    1    2    0    0 -0.46379075859E+01  0.23561894618E+01 -0.65630842501E+01  0.85611692793E+01  0.17770000000E+01 0.  1.
</event>
<event>
 6    1  0.1196607E-002  0.1918829E+03  0.7546771E-02  0.1061222E+00
        -11   -1    0    0    0    0  0.00000000000E+00  0.00000000000E+00  0.18250000000E+03  0.18250000000E+03  0.00000000000E+00 0. -1.
         11   -1    0    0    0    0 -0.00000000000E+00 -0.00000000000E+00 -0.18250000000E+03  0.18250000000E+03  0.00000000000E+00 0. -1.
        -11    1    1    2    0    0  0.17925797068E+02  0.13431957209E+02  0.12651328398E+03  0.12848098186E+03  0.00000000000E+00 0. -1.
         11    1    1    2    0    0  0.66033047161E+01  0.42864210023E+01 -0.17293799971E+03  0.17311709558E+03  0.00000000000E+00 0. -1.
        -15    1    1    2    0    0 -0.57021381399E+01  0.83523406764E+01  0.16526113211E+02  0.19456261743E+02  0.17770000000E+01 0. -1.
         15    1    1    2    0    0 -0.18826963645E+02 -0.26070718888E+02  0.29898602516E+02  0.43945660819E+02  0.17770000000E+01 0.  1.
</event>
<event>
 6    1  0.1196607E-002  0.1830153E+03  0.7546771E-02  0.1068045E+00
        -11   -1    0    0    0    0  0.00000000000E+00  0.00000000000E+00  0.18250000000E+03  0.18250000000E+03  0.00000000000E+00 0. -1.
         11   -1    0    0    0    0 -0.00000000000E+00 -0.00000000000E+00 -0.18250000000E+03  0.18250000000E+03  0.00000000000E+00 0.  1.
        -11    1    1    2    0    0 -0.34516137236E+01 -0.15786974961E+01  0.18194511515E+03  0.18198469949E+03  0.00000000000E+00 0. -1.
         11    1    1    2    0    0 -0.74598247292E+00 -0.22306422907E+01 -0.11546751769E+03  0.11549147110E+03  0.00000000000E+00 0.  1.
        -15    1    1    2    0    0  0.25876255196E+01  0.24885125527E+01 -0.62858298881E+02  0.62985807669E+02  0.17770000000E+01 0.  1.
         15    1    1    2    0    0  0.16099706769E+01  0.13208272342E+01 -0.36192985717E+01  0.45380217401E+01  0.17770000000E+01 0. -1.
</event>
<event>
 6    1  0.1196607E-002  0.1831322E+03  0.7546771E-02  0.1067953E+00
        -11   -1    0    0    0    0  0.00000000000E+00  0.00000000000E+00  0.18250000000E+03  0.18250000000E+03  0.00000000000E+00 0. -1.
         11   -1    0    0    0    0 -0.00000000000E+00 -0.00000000000E+00 -0.18250000000E+03  0.18250000000E+03  0.00000000000E+00 0. -1.
        -11    1    1    2    0    0  0.11852520806E+01 -0.30875299782E+01  0.11047371607E+03  0.11052320845E+03  0.00000000000E+00 0. -1.
         11    1    1    2    0    0  0.30150745779E+01 -0.47126112023E+01 -0.18178174510E+03  0.18186781527E+03  0.00000000000E+00 0. -1.
        -15    1    1    2    0    0 -0.13702139988E+00  0.40760333501E+01  0.90715173340E+01  0.10103612150E+02  0.17770000000E+01 0. -1.
         15    1    1    2    0    0 -0.40633052586E+01  0.37241078305E+01  0.62236511698E+02  0.62505364139E+02  0.17770000000E+01 0.  1.
</event>
<event>
 6    1  0.1196607E-002  0.1840368E+03  0.7546771E-02  0.1067238E+00
        -11   -1    0    0    0    0  0.00000000000E+00  0.00000000000E+00  0.18250000000E+03  0.18250000000E+03  0.00000000000E+00 0. -1.
         11   -1    0    0    0    0 -0.00000000000E+00 -0.00000000000E+00 -0.18250000000E+03  0.18250000000E+03  0.00000000000E+00 0.  1.
        -11    1    1    2    0    0 -0.70574167337E+01 -0.47047983361E+00  0.15539919106E+03  0.15556007542E+03  0.00000000000E+00 0. -1.
         11    1    1    2    0    0 -0.12854180640E+01 -0.54060807055E+01 -0.18087787773E+03  0.18096321355E+03  0.00000000000E+00 0.  1.
        -15    1    1    2    0    0  0.11540273919E+01  0.12920273078E+01  0.13518706259E+01  0.28260214038E+01  0.17770000000E+01 0.  1.
         15    1    1    2    0    0  0.71888074058E+01  0.45845332314E+01  0.24126816045E+02  0.25650689627E+02  0.17770000000E+01 0. -1.
</event>
<event>
 6    1  0.1196607E-002  0.1516719E+03  0.7546771E-02  0.1096043E+00
        -11   -1    0    0    0    0  0.00000000000E+00  0.00000000000E+00  0.18250000000E+03  0.18250000000E+03  0.00000000000E+00 0. -1.
         11   -1    0    0    0    0 -0.00000000000E+00 -0.00000000000E+00 -0.18250000000E+03  0.18250000000E+03  0.00000000000E+00 0. -1.
        -11    1    1    2    0    0  0.26756713568E+01 -0.26033238937E+01  0.15801990897E+03  0.15806400015E+03  0.00000000000E+00 0. -1.
         11    1    1    2    0    0  0.16912166565E+01 -0.23659704521E+01 -0.34839556154E+02  0.34960730870E+02  0.00000000000E+00 0. -1.
        -15    1    1    2    0    0  0.93427667623E+01  0.38163674231E+01 -0.14541086903E+03  0.14577150103E+03  0.17770000000E+01 0. -1.
         15    1    1    2    0    0 -0.13709654776E+02  0.11529269227E+01  0.22230516220E+02  0.26203767954E+02  0.17770000000E+01 0.  1.
</event>
<event>
 6    1  0.1196607E-002  0.2080077E+03  0.7546771E-02  0.1049789E+00
        -11   -1    0    0    0    0  0.00000000000E+00  0.00000000000E+00  0.18250000000E+03  0.18250000000E+03  0.00000000000E+00 0.  1.
         11   -1    0    0    0    0 -0.00000000000E+00 -0.00000000000E+00 -0.18250000000E+03  0.18250000000E+03  0.00000000000E+00 0. -1.
        -11    1    1    2    0    0  0.22747810230E+01  0.15407839157E+00  0.14264088019E+03  0.14265910090E+03  0.00000000000E+00 0.  1.
         11    1    1    2    0    0 -0.70834652658E+00 -0.33606994766E+01 -0.15695477056E+03  0.15699234394E+03  0.00000000000E+00 0. -1.
        -15    1    1    2    0    0  0.39105823387E+01 -0.29871476267E+02  0.72722558780E+01  0.31042570498E+02  0.17770000000E+01 0.  1.
         15    1    1    2    0    0 -0.54770168351E+01  0.33078097352E+02  0.70416344886E+01  0.34305984654E+02  0.17770000000E+01 0. -1.
</event>
<event>
 6    1  0.1196607E-002  0.1846242E+03  0.7546771E-02  0.1066776E+00
        -11   -1    0    0    0    0  0.00000000000E+00  0.00000000000E+00  0.18250000000E+03  0.18250000000E+03  0.00000000000E+00 0.  1.
         11   -1    0    0    0    0 -0.00000000000E+00 -0.00000000000E+00 -0.18250000000E+03  0.18250000000E+03  0.00000000000E+00 0. -1.
        -11    1    1    2    0    0 -0.95096065301E+01  0.90089777135E+00  0.18012271788E+03  0.18037582357E+03  0.00000000000E+00 0.  1.
         11    1    1    2    0    0  0.22255896795E+01  0.38047853367E+01 -0.92192866234E+02  0.92298181051E+02  0.00000000000E+00 0. -1.
        -15    1    1    2    0    0 -0.66932278480E+01  0.23731506604E+01 -0.58335999012E+02  0.58793517098E+02  0.17770000000E+01 0. -1.
         15    1    1    2    0    0  0.13977244699E+02 -0.70788337685E+01 -0.29593852633E+02  0.33532478279E+02  0.17770000000E+01 0.  1.
</event>
<event>
 6    1  0.1196607E-002  0.1830967E+03  0.7546771E-02  0.1067981E+00
        -11   -1    0    0    0    0  0.00000000000E+00  0.00000000000E+00  0.18250000000E+03  0.18250000000E+03  0.00000000000E+00 0. -1.
         11   -1    0    0    0    0 -0.00000000000E+00 -0.00000000000E+00 -0.18250000000E+03  0.18250000000E+03  0.00000000000E+00 0.  1.
        -11    1    1    2    0    0 -0.18829146275E+01 -0.16398048208E+01  0.15563890662E+03  0.15565893350E+03  0.00000000000E+00 0. -1.
         11    1    1    2    0    0 -0.20533448758E+01  0.26285747531E+01 -0.18187271550E+03  0.18190329924E+03  0.00000000000E+00 0.  1.
        -15    1    1    2    0    0  0.35262061647E+01  0.16653608983E+01  0.19607885336E+02  0.20070736239E+02  0.17770000000E+01 0. -1.
         15    1    1    2    0    0  0.41005333864E+00 -0.26541308306E+01  0.66259235464E+01  0.73670310200E+01  0.17770000000E+01 0.  1.
</event>
<event>
 6    1  0.1196607E-002  0.1909436E+03  0.7546771E-02  0.1061926E+00
        -11   -1    0    0    0    0  0.00000000000E+00  0.00000000000E+00  0.18250000000E+03  0.18250000000E+03  0.00000000000E+00 0.  1.
         11   -1    0    0    0    0 -0.00000000000E+00 -0.00000000000E+00 -0.18250000000E+03  0.18250000000E+03  0.00000000000E+00 0. -1.
        -11    1    1    2    0    0 -0.32994784058E+01 -0.13659590967E+02  0.17348824173E+03  0.17405643051E+03  0.00000000000E+00 0.  1.
         11    1    1    2    0    0 -0.18151331939E+01  0.89730993490E+00 -0.14951795494E+03  0.14953166461E+03  0.00000000000E+00 0. -1.
        -15    1    1    2    0    0  0.33476212583E+01  0.60452792820E+01  0.67765569426E+01  0.98402958636E+01  0.17770000000E+01 0.  1.
         15    1    1    2    0    0  0.17669903415E+01  0.67170017503E+01 -0.30746843734E+02  0.31571609018E+02  0.17770000000E+01 0. -1.
</event>
<event>
 6    1  0.1196607E-002  0.1841989E+03  0.7546771E-02  0.1067110E+00
        -11   -1    0    0    0    0  0.00000000000E+00  0.00000000000E+00  0.18250000000E+03  0.18250000000E+03  0.00000000000E+00 0.  1.
         11   -1    0    0    0    0 -0.00000000000E+00 -0.00000000000E+00 -0.18250000000E+03  0.18250000000E+03  0.00000000000E+00 0. -1.
        -11    1    1    2    0    0  0.21842351034E+01  0.47262304648E+01  0.18072614852E+03  0.18080113080E+03  0.00000000000E+00 0.  1.
         11    1    1    2    0    0 -0.26268751941E+01  0.23205550780E+01 -0.13658559400E+03  0.13663056005E+03  0.00000000000E+00 0. -1.
        -15    1    1    2    0    0  0.33776428660E+01 -0.10638352352E+01 -0.38374772015E+02  0.38578764533E+02  0.17770000000E+01 0.  1.
         15    1    1    2    0    0 -0.29350027753E+01 -0.59829503076E+01 -0.57657825039E+01  0.89895446245E+01  0.17770000000E+01 0.  1.
</event>
<event>
 6    1  0.1196607E-002  0.1834552E+03  0.7546771E-02  0.1067697E+00
        -11   -1    0    0    0    0  0.00000000000E+00  0.00000000000E+00  0.18250000000E+03  0.18250000000E+03  0.00000000000E+00 0. -1.
         11   -1    0    0    0    0 -0.00000000000E+00 -0.00000000000E+00 -0.18250000000E+03  0.18250000000E+03  0.00000000000E+00 0. -1.
        -11    1    1    2    0    0  0.19803161818E-01  0.22473756153E+01  0.16529556589E+03  0.16531084414E+03  0.00000000000E+00 0. -1.
         11    1    1    2    0    0  0.25153007620E+01  0.30187125461E+01 -0.18150227742E+03  0.18154480459E+03  0.00000000000E+00 0. -1.
        -15    1    1    2    0    0 -0.19361309560E+01 -0.19323315404E+01  0.12101268269E+02  0.12533193168E+02  0.17770000000E+01 0.  1.
         15    1    1    2    0    0 -0.59897296783E+00 -0.33337566211E+01  0.41054432651E+01  0.56111581004E+01  0.17770000000E+01 0.  1.
</event>
<event>
 6    1  0.1196607E-002  0.1855240E+03  0.7546771E-02  0.1066073E+00
        -11   -1    0    0    0    0  0.00000000000E+00  0.00000000000E+00  0.18250000000E+03  0.18250000000E+03  0.00000000000E+00 0. -1.
         11   -1    0    0    0    0 -0.00000000000E+00 -0.00000000000E+00 -0.18250000000E+03  0.18250000000E+03  0.00000000000E+00 0.  1.
        -11    1    1    2    0    0  0.36797338745E+01 -0.76714252798E+00  0.17943659642E+03  0.17947596241E+03  0.00000000000E+00 0. -1.
         11    1    1    2    0    0  0.41822560678E-01  0.29980519817E+01 -0.16224475768E+03  0.16227246057E+03  0.00000000000E+00 0.  1.
        -15    1    1    2    0    0 -0.16729235048E+01 -0.30838073386E+01 -0.19309962620E+02  0.19706367655E+02  0.17770000000E+01 0.  1.
         15    1    1    2    0    0 -0.20486329304E+01  0.85289788482E+00  0.21181238780E+01  0.35452093659E+01  0.17770000000E+01 0.  1.
</event>
<event>
 6    1  0.1196607E-002  0.1846408E+03  0.7546771E-02  0.1066763E+00
        -11   -1    0    0    0    0  0.00000000000E+00  0.00000000000E+00  0.18250000000E+03  0.18250000000E+03  0.00000000000E+00 0. -1.
         11   -1    0    0    0    0 -0.00000000000E+00 -0.00000000000E+00 -0.18250000000E+03  0.18250000000E+03  0.00000000000E+00 0.  1.
        -11    1    1    2    0    0 -0.21609622772E+01  0.15866433280E+01  0.18033929322E+03  0.18035921899E+03  0.00000000000E+00 0. -1.
         11    1    1    2    0    0 -0.16925791420E+01  0.31711793136E+01 -0.13122757630E+03  0.13127679911E+03  0.00000000000E+00 0.  1.
        -15    1    1    2    0    0  0.96848826171E-01 -0.50028224819E+00 -0.47021677523E+02  0.47058001956E+02  0.17770000000E+01 0. -1.
         15    1    1    2    0    0  0.37566925930E+01 -0.42575403934E+01 -0.20900393919E+01  0.63059799476E+01  0.17770000000E+01 0. -1.
</event>
<event>
 6    1  0.1196607E-002  0.1826827E+03  0.7546771E-02  0.1068309E+00
        -11   -1    0    0    0    0  0.00000000000E+00  0.00000000000E+00  0.18250000000E+03  0.18250000000E+03  0.00000000000E+00 0.  1.
         11   -1    0    0    0    0 -0.00000000000E+00 -0.00000000000E+00 -0.18250000000E+03  0.18250000000E+03  0.00000000000E+00 0.  1.
        -11    1    1    2    0    0 -0.23091244904E+01 -0.10046828597E+00  0.14173042092E+03  0.14174926583E+03  0.00000000000E+00 0.  1.
         11    1    1    2    0    0  0.53001764468E+00 -0.29960170421E+01 -0.18229190015E+03  0.18231728908E+03  0.00000000000E+00 0.  1.
        -15    1    1    2    0    0  0.20787295896E+01  0.20256109156E+01  0.26038575795E+02  0.26260033791E+02  0.17770000000E+01 0.  1.
         15    1    1    2    0    0 -0.29962274382E+00  0.10708744124E+01  0.14522903439E+02  0.14673411297E+02  0.17770000000E+01 0. -1.
</event>
<event>
 6    1  0.1196607E-002  0.1861010E+03  0.7546771E-02  0.1065624E+00
        -11   -1    0    0    0    0  0.00000000000E+00  0.00000000000E+00  0.18250000000E+03  0.18250000000E+03  0.00000000000E+00 0. -1.
         11   -1    0    0    0    0 -0.00000000000E+00 -0.00000000000E+00 -0.18250000000E+03  0.18250000000E+03  0.00000000000E+00 0.  1.
        -11    1    1    2    0    0  0.18737860399E+01 -0.48388432170E+01  0.17505917942E+03  0.17513606646E+03  0.00000000000E+00 0. -1.
         11    1    1    2    0    0 -0.18978811430E+01  0.25946987359E+01 -0.17887010383E+03  0.17889898954E+03  0.00000000000E+00 0.  1.
        -15    1    1    2    0    0 -0.74221398233E+00 -0.27748131422E+01 -0.12284301399E+01  0.35940560901E+01  0.17770000000E+01 0. -1.
         15    1    1    2    0    0  0.76630908537E+00  0.50189576233E+01  0.50393545512E+01  0.73708879065E+01  0.17770000000E+01 0.  1.
</event>
<event>
 6    1  0.1196607E-002  0.1830554E+03  0.7546771E-02  0.1068014E+00
        -11   -1    0    0    0    0  0.00000000000E+00  0.00000000000E+00  0.18250000000E+03  0.18250000000E+03  0.00000000000E+00 0. -1.
         11   -1    0    0    0    0 -0.00000000000E+00 -0.00000000000E+00 -0.18250000000E+03  0.18250000000E+03  0.00000000000E+00 0.  1.
        -11    1    1    2    0    0  0.27813515796E+01  0.58217215630E+00  0.18192244670E+03  0.18194463843E+03  0.00000000000E+00 0. -1.
         11    1    1    2    0    0 -0.16626158423E+01 -0.37963647491E+01 -0.19091041095E+02  0.19535724375E+02  0.00000000000E+00 0.  1.
        -15    1    1    2    0    0  0.37647546620E+01  0.71375351388E+01 -0.10442072826E+03  0.10474714318E+03  0.17770000000E+01 0. -1.
         15    1    1    2    0    0 -0.48834903992E+01 -0.39233425459E+01 -0.58410677347E+02  0.58772494012E+02  0.17770000000E+01 0.  1.
</event>
<event>
 6    1  0.1196607E-002  0.1849021E+03  0.7546771E-02  0.1066559E+00
        -11   -1    0    0    0    0  0.00000000000E+00  0.00000000000E+00  0.18250000000E+03  0.18250000000E+03  0.00000000000E+00 0.  1.
         11   -1    0    0    0    0 -0.00000000000E+00 -0.00000000000E+00 -0.18250000000E+03  0.18250000000E+03  0.00000000000E+00 0.  1.
        -11    1    1    2    0    0  0.18611886001E+01  0.16325981462E+01  0.18008092984E+03  0.18009794749E+03  0.00000000000E+00 0.  1.
         11    1    1    2    0    0  0.22207448667E+01 -0.18726428005E+01 -0.11079614553E+03  0.11083422018E+03  0.00000000000E+00 0.  1.
        -15    1    1    2    0    0 -0.46791798128E+01  0.90341860915E+01 -0.10981376858E+02  0.15075132131E+02  0.17770000000E+01 0. -1.
         15    1    1    2    0    0  0.59724634606E+00 -0.87941414371E+01 -0.58303407448E+02  0.58992700191E+02  0.17770000000E+01 0.  1.
</event>
<event>
 6    1  0.1196607E-002  0.1854241E+03  0.7546771E-02  0.1066151E+00
        -11   -1    0    0    0    0  0.00000000000E+00  0.00000000000E+00  0.18250000000E+03  0.18250000000E+03  0.00000000000E+00 0. -1.
         11   -1    0    0    0    0 -0.00000000000E+00 -0.00000000000E+00 -0.18250000000E+03  0.18250000000E+03  0.00000000000E+00 0. -1.
        -11    1    1    2    0    0 -0.20298854554E+01  0.17689311618E+01  0.17046078244E+03  0.17048204569E+03  0.00000000000E+00 0. -1.
         11    1    1    2    0    0  0.43419523470E+01 -0.36975250824E+01 -0.17948529993E+03  0.17957588127E+03  0.00000000000E+00 0. -1.
        -15    1    1    2    0    0  0.19161353687E+01  0.36801527618E+01 -0.17225308593E+00  0.45169125769E+01  0.17770000000E+01 0. -1.
         15    1    1    2    0    0 -0.42282022603E+01 -0.17515588413E+01  0.91967705741E+01  0.10425160465E+02  0.17770000000E+01 0.  1.
</event>
<event>
 6    1  0.1196607E-002  0.2009787E+03  0.7546771E-02  0.1054629E+00
        -11   -1    0    0    0    0  0.00000000000E+00  0.00000000000E+00  0.18250000000E+03  0.18250000000E+03  0.00000000000E+00 0. -1.
         11   -1    0    0    0    0 -0.00000000000E+00 -0.00000000000E+00 -0.18250000000E+03  0.18250000000E+03  0.00000000000E+00 0. -1.
        -11    1    1    2    0    0 -0.87197143056E+01  0.51333208291E+01  0.16370890103E+03  0.16402130556E+03  0.00000000000E+00 0. -1.
         11    1    1    2    0    0  0.66435881479E+01  0.44020091515E+01 -0.14478814137E+03  0.14500731302E+03  0.00000000000E+00 0. -1.
        -15    1    1    2    0    0 -0.77644315640E+01 -0.67762822598E+01 -0.35170810641E+02  0.36692615727E+02  0.17770000000E+01 0. -1.
         15    1    1    2    0    0  0.98405577217E+01 -0.27590477208E+01  0.16250050979E+02  0.19278765687E+02  0.17770000000E+01 0. -1.
</event>
<event>
 6    1  0.1196607E-002  0.8795837E+02  0.7546771E-02  0.1186453E+00
        -11   -1    0    0    0    0  0.00000000000E+00  0.00000000000E+00  0.18250000000E+03  0.18250000000E+03  0.00000000000E+00 0.  1.
         11   -1    0    0    0    0 -0.00000000000E+00 -0.00000000000E+00 -0.18250000000E+03  0.18250000000E+03  0.00000000000E+00 0.  1.
        -11    1    1    2    0    0  0.12214749546E+02 -0.41251947740E+01  0.11105898425E+03  0.11180480903E+03  0.00000000000E+00 0.  1.
         11    1    1    2    0    0 -0.98392361021E+01 -0.56128880470E+01 -0.10990012904E+03  0.11048236711E+03  0.00000000000E+00 0.  1.
        -15    1    1    2    0    0 -0.19585446959E+02 -0.12592839680E+02  0.65916923857E+02  0.69931165610E+02  0.17770000000E+01 0. -1.
         15    1    1    2    0    0  0.17209933515E+02  0.22330922501E+02 -0.67075779074E+02  0.72781658258E+02  0.17770000000E+01 0.  1.
</event>
<event>
 6    1  0.1196607E-002  0.1827979E+03  0.7546771E-02  0.1068218E+00
        -11   -1    0    0    0    0  0.00000000000E+00  0.00000000000E+00  0.18250000000E+03  0.18250000000E+03  0.00000000000E+00 0. -1.
         11   -1    0    0    0    0 -0.00000000000E+00 -0.00000000000E+00 -0.18250000000E+03  0.18250000000E+03  0.00000000000E+00 0. -1.
        -11    1    1    2    0    0  0.12779296993E+01  0.11098291890E+01  0.91822803203E+02  0.91838401626E+02  0.00000000000E+00 0. -1.
         11    1    1    2    0    0  0.24548475681E+01  0.13200348143E+01 -0.18218073161E+03  0.18220205196E+03  0.00000000000E+00 0. -1.
        -15    1    1    2    0    0 -0.13274229214E+01 -0.17810699179E+01  0.82157811454E+02  0.82207043333E+02  0.17770000000E+01 0. -1.
         15    1    1    2    0    0 -0.24053543460E+01 -0.64879408554E+00  0.82001169481E+01  0.87525030853E+01  0.17770000000E+01 0.  1.
</event>
<event>
 6    1  0.1196607E-002  0.1838440E+03  0.7546771E-02  0.1067390E+00
        -11   -1    0    0    0    0  0.00000000000E+00  0.00000000000E+00  0.18250000000E+03  0.18250000000E+03  0.00000000000E+00 0. -1.
         11   -1    0    0    0    0 -0.00000000000E+00 -0.00000000000E+00 -0.18250000000E+03  0.18250000000E+03  0.00000000000E+00 0. -1.
        -11    1    1    2    0    0 -0.16374404215E+01 -0.23305120925E+01  0.15446943267E+03  0.15449568967E+03  0.00000000000E+00 0. -1.
         11    1    1    2    0    0 -0.25423786572E+01 -0.14699729100E+01 -0.18113218033E+03  0.18115598599E+03  0.00000000000E+00 0. -1.
        -15    1    1    2    0    0  0.69954305161E-01  0.21821271484E+01  0.23418291835E+02  0.23586875460E+02  0.17770000000E+01 0. -1.
         15    1    1    2    0    0  0.41098647735E+01  0.16183578541E+01  0.32444558271E+01  0.57614488815E+01  0.17770000000E+01 0. -1.
</event>
<event>
 6    1  0.1196607E-002  0.1827047E+03  0.7546771E-02  0.1068292E+00
        -11   -1    0    0    0    0  0.00000000000E+00  0.00000000000E+00  0.18250000000E+03  0.18250000000E+03  0.00000000000E+00 0.  1.
         11   -1    0    0    0    0 -0.00000000000E+00 -0.00000000000E+00 -0.18250000000E+03  0.18250000000E+03  0.00000000000E+00 0. -1.
        -11    1    1    2    0    0  0.10228022992E+00 -0.10768279875E+01  0.44376550384E+02  0.44389731287E+02  0.00000000000E+00 0.  1.
         11    1    1    2    0    0 -0.14648152780E+01 -0.67452434208E+01 -0.18216453680E+03  0.18229526176E+03  0.00000000000E+00 0. -1.
        -15    1    1    2    0    0 -0.42034203399E+00  0.90293779572E+00  0.84081699201E+02  0.84106372253E+02  0.17770000000E+01 0.  1.
         15    1    1    2    0    0  0.17828770821E+01  0.69191336126E+01  0.53706287215E+02  0.54208634700E+02  0.17770000000E+01 0.  1.
</event>
<event>
 6    1  0.1196607E-002  0.1833884E+03  0.7546771E-02  0.1067750E+00
        -11   -1    0    0    0    0  0.00000000000E+00  0.00000000000E+00  0.18250000000E+03  0.18250000000E+03  0.00000000000E+00 0.  1.
         11   -1    0    0    0    0 -0.00000000000E+00 -0.00000000000E+00 -0.18250000000E+03  0.18250000000E+03  0.00000000000E+00 0. -1.
        -11    1    1    2    0    0 -0.10164481748E+01 -0.24377965511E+01  0.18159235383E+03  0.18161156072E+03  0.00000000000E+00 0.  1.
         11    1    1    2    0    0 -0.20022380901E+01  0.32714823836E+01 -0.17472800414E+03  0.17477009752E+03  0.00000000000E+00 0. -1.
        -15    1    1    2    0    0  0.24753159124E+01  0.12270138819E+00 -0.47557808560E+01  0.56495508713E+01  0.17770000000E+01 0.  1.
         15    1    1    2    0    0  0.54337035258E+00 -0.95638722068E+00 -0.21085688293E+01  0.29687908926E+01  0.17770000000E+01 0. -1.
</event>
<event>
 6    1  0.1196607E-002  0.2138659E+03  0.7546771E-02  0.1045911E+00
        -11   -1    0    0    0    0  0.00000000000E+00  0.00000000000E+00  0.18250000000E+03  0.18250000000E+03  0.00000000000E+00 0.  1.
         11   -1    0    0    0    0 -0.00000000000E+00 -0.00000000000E+00 -0.18250000000E+03  0.18250000000E+03  0.00000000000E+00 0. -1.
        -11    1    1    2    0    0 -0.19654602606E+01  0.23473710353E+01  0.13626292762E+03  0.13629731703E+03  0.00000000000E+00 0.  1.
         11    1    1    2    0    0  0.72082356014E+01 -0.32764296781E+01 -0.15092654112E+03  0.15113409432E+03  0.00000000000E+00 0. -1.
        -15    1    1    2    0    0  0.55389535966E+00  0.67094430486E+01 -0.30678722026E+02  0.31458943724E+02  0.17770000000E+01 0. -1.
         15    1    1    2    0    0 -0.57966707004E+01 -0.57803844058E+01  0.45342335526E+02  0.46109644924E+02  0.17770000000E+01 0.  1.
</event>
<event>
 6    1  0.1196607E-002  0.1847109E+03  0.7546771E-02  0.1066708E+00
        -11   -1    0    0    0    0  0.00000000000E+00  0.00000000000E+00  0.18250000000E+03  0.18250000000E+03  0.00000000000E+00 0. -1.
         11   -1    0    0    0    0 -0.00000000000E+00 -0.00000000000E+00 -0.18250000000E+03  0.18250000000E+03  0.00000000000E+00 0.  1.
        -11    1    1    2    0    0 -0.19253170456E+01  0.97853001564E+00  0.14111117105E+03  0.14112769736E+03  0.00000000000E+00 0. -1.
         11    1    1    2    0    0 -0.30136500215E+01  0.30339844020E+01 -0.18023835621E+03  0.18028907953E+03  0.00000000000E+00 0.  1.
        -15    1    1    2    0    0  0.25555926409E+01 -0.85259291529E+01  0.83431147756E+01  0.12328333822E+02  0.17770000000E+01 0.  1.
         15    1    1    2    0    0  0.23833744261E+01  0.45134147352E+01  0.30784070387E+02  0.31254889295E+02  0.17770000000E+01 0. -1.
</event>
<event>
 6    1  0.1196607E-002  0.1828248E+03  0.7546771E-02  0.1068197E+00
        -11   -1    0    0    0    0  0.00000000000E+00  0.00000000000E+00  0.18250000000E+03  0.18250000000E+03  0.00000000000E+00 0.  1.
         11   -1    0    0    0    0 -0.00000000000E+00 -0.00000000000E+00 -0.18250000000E+03  0.18250000000E+03  0.00000000000E+00 0. -1.
        -11    1    1    2    0    0  0.50185163500E+00 -0.27391574664E+01  0.18215392618E+03  0.18217521143E+03  0.00000000000E+00 0.  1.
         11    1    1    2    0    0 -0.10091476445E+01 -0.21379159854E+01 -0.77158184034E+02  0.77194393755E+02  0.00000000000E+00 0. -1.
        -15    1    1    2    0    0  0.22077485482E+01  0.13510026628E+01 -0.89338680228E+02  0.89393830189E+02  0.17770000000E+01 0. -1.
         15    1    1    2    0    0 -0.17004525387E+01  0.35260707891E+01 -0.15657061914E+02  0.16236564625E+02  0.17770000000E+01 0. -1.
</event>
<event>
 6    1  0.1196607E-002  0.1831316E+03  0.7546771E-02  0.1067953E+00
        -11   -1    0    0    0    0  0.00000000000E+00  0.00000000000E+00  0.18250000000E+03  0.18250000000E+03  0.00000000000E+00 0.  1.
         11   -1    0    0    0    0 -0.00000000000E+00 -0.00000000000E+00 -0.18250000000E+03  0.18250000000E+03  0.00000000000E+00 0. -1.
        -11    1    1    2    0    0 -0.10089730868E+01 -0.23430384251E+01  0.18185052449E+03  0.18186841703E+03  0.00000000000E+00 0.  1.
         11    1    1    2    0    0  0.23220035937E+01 -0.85175286576E+00 -0.16697568257E+03  0.16699399916E+03  0.00000000000E+00 0. -1.
        -15    1    1    2    0    0 -0.26007711956E+01  0.15684106766E+01 -0.87660111820E+01  0.94458776143E+01  0.17770000000E+01 0.  1.
         15    1    1    2    0    0  0.12877406886E+01  0.16263806142E+01 -0.61088307328E+01  0.66917062029E+01  0.17770000000E+01 0. -1.
</event>
<event>
 6    1  0.1196607E-002  0.1855327E+03  0.7546771E-02  0.1066066E+00
        -11   -1    0    0    0    0  0.00000000000E+00  0.00000000000E+00  0.18250000000E+03  0.18250000000E+03  0.00000000000E+00 0. -1.
         11   -1    0    0    0    0 -0.00000000000E+00 -0.00000000000E+00 -0.18250000000E+03  0.18250000000E+03  0.00000000000E+00 0. -1.
        -11    1    1    2    0    0 -0.17923524806E+00 -0.38728368676E+01  0.17942539489E+03  0.17946727646E+03  0.00000000000E+00 0. -1.
         11    1    1    2    0    0  0.38473694969E+01 -0.30902443682E+01 -0.16664818540E+03  0.16672123308E+03  0.00000000000E+00 0. -1.
        -15    1    1    2    0    0  0.15973968732E+01  0.73061316986E+01 -0.99307244728E+01  0.12558194724E+02  0.17770000000E+01 0. -1.
         15    1    1    2    0    0 -0.52655311221E+01 -0.34305046293E+00 -0.28464850163E+01  0.62532957363E+01  0.17770000000E+01 0.  1.
</event>
<event>
 6    1  0.1196607E-002  0.1660237E+03  0.7546771E-02  0.1082383E+00
        -11   -1    0    0    0    0  0.00000000000E+00  0.00000000000E+00  0.18250000000E+03  0.18250000000E+03  0.00000000000E+00 0. -1.
         11   -1    0    0    0    0 -0.00000000000E+00 -0.00000000000E+00 -0.18250000000E+03  0.18250000000E+03  0.00000000000E+00 0.  1.
        -11    1    1    2    0    0 -0.11129949483E+02  0.20745548670E+01  0.16209236720E+03  0.16248727660E+03  0.00000000000E+00 0. -1.
         11    1    1    2    0    0 -0.32486627446E+01  0.30596549747E+01 -0.16994509244E+03  0.17000367568E+03  0.00000000000E+00 0.  1.
        -15    1    1    2    0    0  0.10851065762E+02 -0.48029335368E+01 -0.91252392164E+01  0.15074532115E+02  0.17770000000E+01 0. -1.
         15    1    1    2    0    0  0.35275464660E+01 -0.33127630497E+00  0.16977964462E+02  0.17434515604E+02  0.17770000000E+01 0.  1.
</event>
<event>
 6    1  0.1196607E-002  0.1550610E+03  0.7546771E-02  0.1092671E+00
        -11   -1    0    0    0    0  0.00000000000E+00  0.00000000000E+00  0.18250000000E+03  0.18250000000E+03  0.00000000000E+00 0.  1.
         11   -1    0    0    0    0 -0.00000000000E+00 -0.00000000000E+00 -0.18250000000E+03  0.18250000000E+03  0.00000000000E+00 0. -1.
        -11    1    1    2    0    0 -0.36279519844E+01 -0.48043592357E+01  0.15377162488E+03  0.15388942953E+03  0.00000000000E+00 0.  1.
         11    1    1    2    0    0 -0.11046033218E+02 -0.55858092989E+01 -0.15627392164E+03  0.15676337168E+03  0.00000000000E+00 0. -1.
        -15    1    1    2    0    0  0.73545327171E+01  0.14575055627E+02  0.25194610835E+02  0.30074034351E+02  0.17770000000E+01 0.  1.
         15    1    1    2    0    0  0.73194524851E+01 -0.41848870926E+01 -0.22692314078E+02  0.24273164438E+02  0.17770000000E+01 0. -1.
</event>
<event>
 6    1  0.1196607E-002  0.1831107E+03  0.7546771E-02  0.1067970E+00
        -11   -1    0    0    0    0  0.00000000000E+00  0.00000000000E+00  0.18250000000E+03  0.18250000000E+03  0.00000000000E+00 0. -1.
         11   -1    0    0    0    0 -0.00000000000E+00 -0.00000000000E+00 -0.18250000000E+03  0.18250000000E+03  0.00000000000E+00 0.  1.
        -11    1    1    2    0    0 -0.12770952512E+01  0.13906835740E+01  0.43557725840E+02  0.43598629032E+02  0.00000000000E+00 0. -1.
         11    1    1    2    0    0  0.26936273818E+01 -0.16410276872E+01 -0.18186191892E+03  0.18188926894E+03  0.00000000000E+00 0.  1.
        -15    1    1    2    0    0 -0.13614590981E+01  0.68684546510E+01  0.25599651683E+02  0.26599419833E+02  0.17770000000E+01 0.  1.
         15    1    1    2    0    0 -0.55073032574E-01 -0.66181105377E+01  0.11270454140E+03  0.11291268220E+03  0.17770000000E+01 0. -1.
</event>
<event>
 6    1  0.1196607E-002  0.1746466E+03  0.7546771E-02  0.1074884E+00
        -11   -1    0    0    0    0  0.00000000000E+00  0.00000000000E+00  0.18250000000E+03  0.18250000000E+03  0.00000000000E+00 0. -1.
         11   -1    0    0    0    0 -0.00000000000E+00 -0.00000000000E+00 -0.18250000000E+03  0.18250000000E+03  0.00000000000E+00 0. -1.
        -11    1    1    2    0    0  0.19016872720E+01 -0.63789306381E+01  0.17537577448E+03  0.17550204969E+03  0.00000000000E+00 0. -1.
         11    1    1    2    0    0 -0.23824294799E+01 -0.67334688375E+01 -0.17389412840E+03  0.17404075231E+03  0.00000000000E+00 0. -1.
        -15    1    1    2    0    0 -0.13841265291E+01  0.12538920376E+02 -0.10462157046E+01  0.12782512537E+02  0.17770000000E+01 0. -1.
         15    1    1    2    0    0  0.18648687371E+01  0.57347909926E+00 -0.43543037426E+00  0.26746854571E+01  0.17770000000E+01 0.  1.
</event>
<event>
 6    1  0.1196607E-002  0.1959112E+03  0.7546771E-02  0.1058254E+00
        -11   -1    0    0    0    0  0.00000000000E+00  0.00000000000E+00  0.18250000000E+03  0.18250000000E+03  0.00000000000E+00 0.  1.
         11   -1    0    0    0    0 -0.00000000000E+00 -0.00000000000E+00 -0.18250000000E+03  0.18250000000E+03  0.00000000000E+00 0.  1.
        -11    1    1    2    0    0 -0.18906809902E-01 -0.24528123679E+01  0.16907105684E+03  0.16908884915E+03  0.00000000000E+00 0.  1.
         11    1    1    2    0    0  0.21177278335E+01  0.23764621842E+01 -0.16128381156E+03  0.16131522004E+03  0.00000000000E+00 0.  1.
        -15    1    1    2    0    0  0.84370216840E+00  0.94978859915E+00 -0.20899054621E+02  0.21012904244E+02  0.17770000000E+01 0. -1.
         15    1    1    2    0    0 -0.29425231920E+01 -0.87343841548E+00  0.13111809348E+02  0.13583026569E+02  0.17770000000E+01 0.  1.
</event>
<event>
 6    1  0.1196607E-002  0.1866303E+03  0.7546771E-02  0.1065214E+00
        -11   -1    0    0    0    0  0.00000000000E+00  0.00000000000E+00  0.18250000000E+03  0.18250000000E+03  0.00000000000E+00 0. -1.
         11   -1    0    0    0    0 -0.00000000000E+00 -0.00000000000E+00 -0.18250000000E+03  0.18250000000E+03  0.00000000000E+00 0. -1.
        -11    1    1    2    0    0 -0.54278700589E+01 -0.71782189722E+00  0.17828562862E+03  0.17836967907E+03  0.00000000000E+00 0. -1.
         11    1    1    2    0    0 -0.51268375379E+01  0.11414381697E+01 -0.16765746223E+03  0.16773971499E+03  0.00000000000E+00 0. -1.
        -15    1    1    2    0    0 -0.17732389345E+01  0.16193940167E+01 -0.22754397272E+01  0.37552853756E+01  0.17770000000E+01 0.  1.
         15    1    1    2    0    0  0.12327946531E+02 -0.20430102892E+01 -0.83527266572E+01  0.15135320556E+02  0.17770000000E+01 0.  1.
</event>
<event>
 6    1  0.1196607E-002  0.1848720E+03  0.7546771E-02  0.1066582E+00
        -11   -1    0    0    0    0  0.00000000000E+00  0.00000000000E+00  0.18250000000E+03  0.18250000000E+03  0.00000000000E+00 0.  1.
         11   -1    0    0    0    0 -0.00000000000E+00 -0.00000000000E+00 -0.18250000000E+03  0.18250000000E+03  0.00000000000E+00 0. -1.
        -11    1    1    2    0    0 -0.25729656415E+01  0.63194189176E+01  0.17999869357E+03  0.18012796810E+03  0.00000000000E+00 0.  1.
         11    1    1    2    0    0 -0.15565748327E+01  0.10344518507E+01 -0.57955770609E+02  0.57985897964E+02  0.00000000000E+00 0. -1.
        -15    1    1    2    0    0  0.76939980781E+01  0.46759944013E+01 -0.80993825762E+01  0.12240108545E+02  0.17770000000E+01 0.  1.
         15    1    1    2    0    0 -0.35644576039E+01 -0.12029865170E+02 -0.11394354038E+03  0.11464602539E+03  0.17770000000E+01 0. -1.
</event>
<event>
 6    1  0.1196607E-002  0.1832489E+03  0.7546771E-02  0.1067860E+00
        -11   -1    0    0    0    0  0.00000000000E+00  0.00000000000E+00  0.18250000000E+03  0.18250000000E+03  0.00000000000E+00 0. -1.
         11   -1    0    0    0    0 -0.00000000000E+00 -0.00000000000E+00 -0.18250000000E+03  0.18250000000E+03  0.00000000000E+00 0. -1.
        -11    1    1    2    0    0 -0.87375500634E+01 -0.23601695573E+01  0.18152562943E+03  0.18175111918E+03  0.00000000000E+00 0. -1.
         11    1    1    2    0    0 -0.22130856737E+01 -0.94640024912E+00 -0.12829430353E+03  0.12831688018E+03  0.00000000000E+00 0. -1.
        -15    1    1    2    0    0  0.47016644435E+01  0.54424284538E+00 -0.35314041613E+02  0.35674095824E+02  0.17770000000E+01 0. -1.
         15    1    1    2    0    0  0.62489712936E+01  0.27623269610E+01 -0.17917284294E+02  0.19257904817E+02  0.17770000000E+01 0.  1.
</event>
<event>
 6    1  0.1196607E-002  0.1850798E+03  0.7546771E-02  0.1066420E+00
        -11   -1    0    0    0    0  0.00000000000E+00  0.00000000000E+00  0.18250000000E+03  0.18250000000E+03  0.00000000000E+00 0. -1.
         11   -1    0    0    0    0 -0.00000000000E+00 -0.00000000000E+00 -0.18250000000E+03  0.18250000000E+03  0.00000000000E+00 0. -1.
        -11    1    1    2    0    0  0.51517935431E+01 -0.15709911881E+01  0.14646181417E+03  0.14656081332E+03  0.00000000000E+00 0. -1.
         11    1    1    2    0    0  0.38612671865E+01  0.69776205570E-02 -0.17987879295E+03  0.17992023118E+03  0.00000000000E+00 0. -1.
        -15    1    1    2    0    0  0.37488410209E+01 -0.21738381762E+01  0.15129985052E+02  0.15838357178E+02  0.17770000000E+01 0. -1.
         15    1    1    2    0    0 -0.12761901751E+02  0.37378517437E+01  0.18286993729E+02  0.22680598329E+02  0.17770000000E+01 0.  1.
</event>
<event>
 6    1  0.1196607E-002  0.1891903E+03  0.7546771E-02  0.1063251E+00
        -11   -1    0    0    0    0  0.00000000000E+00  0.00000000000E+00  0.18250000000E+03  0.18250000000E+03  0.00000000000E+00 0.  1.
         11   -1    0    0    0    0 -0.00000000000E+00 -0.00000000000E+00 -0.18250000000E+03  0.18250000000E+03  0.00000000000E+00 0. -1.
        -11    1    1    2    0    0 -0.29267129190E+01 -0.12675339089E+02  0.17532777753E+03  0.17580972511E+03  0.00000000000E+00 0.  1.
         11    1    1    2    0    0 -0.60809066148E+01  0.13598361319E+02 -0.15182143023E+03  0.15255044914E+03  0.00000000000E+00 0. -1.
        -15    1    1    2    0    0  0.48278504250E+01  0.12258808746E+02 -0.69720333251E+01  0.15011779018E+02  0.17770000000E+01 0. -1.
         15    1    1    2    0    0  0.41797691088E+01 -0.13181830975E+02 -0.16534313974E+02  0.21628046728E+02  0.17770000000E+01 0.  1.
</event>
<event>
 6    1  0.1196607E-002  0.1879250E+03  0.7546771E-02  0.1064217E+00
        -11   -1    0    0    0    0  0.00000000000E+00  0.00000000000E+00  0.18250000000E+03  0.18250000000E+03  0.00000000000E+00 0. -1.
         11   -1    0    0    0    0 -0.00000000000E+00 -0.00000000000E+00 -0.18250000000E+03  0.18250000000E+03  0.00000000000E+00 0.  1.
        -11    1    1    2    0    0 -0.16259398842E+01 -0.12391121669E+01  0.11706814212E+03  0.11708598968E+03  0.00000000000E+00 0. -1.
         11    1    1    2    0    0 -0.70238755053E+01  0.31783452500E+01 -0.17690709950E+03  0.17707500828E+03  0.00000000000E+00 0.  1.
        -15    1    1    2    0    0 -0.78927272674E+01  0.51931183474E+01  0.48578061727E+02  0.49520192164E+02  0.17770000000E+01 0. -1.
         15    1    1    2    0    0  0.16542542657E+02 -0.71323514305E+01  0.11260895650E+02  0.21318809871E+02  0.17770000000E+01 0.  1.
</event>
<event>
 6    1  0.1196607E-002  0.1827251E+03  0.7546771E-02  0.1068276E+00
        -11   -1    0    0    0    0  0.00000000000E+00  0.00000000000E+00  0.18250000000E+03  0.18250000000E+03  0.00000000000E+00 0.  1.
         11   -1    0    0    0    0 -0.00000000000E+00 -0.00000000000E+00 -0.18250000000E+03  0.18250000000E+03  0.00000000000E+00 0.  1.
        -11    1    1    2    0    0 -0.55449105703E+00 -0.36404564101E+00  0.46840631544E+02  0.46845327974E+02  0.00000000000E+00 0.  1.
         11    1    1    2    0    0  0.42346569438E+01 -0.27826223419E+01 -0.18220444811E+03  0.18227489190E+03  0.00000000000E+00 0.  1.
        -15    1    1    2    0    0 -0.13099948958E+01 -0.36509448622E+01  0.60240602152E+02  0.60391500740E+02  0.17770000000E+01 0.  1.
         15    1    1    2    0    0 -0.23701709910E+01  0.67976128451E+01  0.75123214416E+02  0.75488279383E+02  0.17770000000E+01 0. -1.
</event>
<event>
 6    1  0.1196607E-002  0.1860307E+03  0.7546771E-02  0.1065679E+00
        -11   -1    0    0    0    0  0.00000000000E+00  0.00000000000E+00  0.18250000000E+03  0.18250000000E+03  0.00000000000E+00 0.  1.
         11   -1    0    0    0    0 -0.00000000000E+00 -0.00000000000E+00 -0.18250000000E+03  0.18250000000E+03  0.00000000000E+00 0. -1.
        -11    1    1    2    0    0  0.30783284028E+01 -0.72409917398E+00  0.16704995050E+03  0.16707988026E+03  0.00000000000E+00 0.  1.
         11    1    1    2    0    0 -0.22349258595E+01  0.10590117950E+01 -0.17895221837E+03  0.17896930703E+03  0.00000000000E+00 0. -1.
        -15    1    1    2    0    0  0.26182539413E+01 -0.20531705839E+00 -0.24959838997E+01  0.40354768520E+01  0.17770000000E+01 0.  1.
         15    1    1    2    0    0 -0.34616564846E+01 -0.12959556266E+00  0.14398251776E+02  0.14915335860E+02  0.17770000000E+01 0. -1.
</event>
<event>
 6    1  0.1196607E-002  0.1835371E+03  0.7546771E-02  0.1067632E+00
        -11   -1    0    0    0    0  0.00000000000E+00  0.00000000000E+00  0.18250000000E+03  0.18250000000E+03  0.00000000000E+00 0. -1.
         11   -1    0    0    0    0 -0.00000000000E+00 -0.00000000000E+00 -0.18250000000E+03  0.18250000000E+03  0.00000000000E+00 0.  1.
        -11    1    1    2    0    0  0.52882619484E+00 -0.38202839625E+01  0.18142190487E+03  0.18146289371E+03  0.00000000000E+00 0. -1.
         11    1    1    2    0    0 -0.22761477754E+01  0.22185674109E+01 -0.16456521516E+03  0.16459590800E+03  0.00000000000E+00 0.  1.
        -15    1    1    2    0    0 -0.14936813237E+01  0.33373127804E+01 -0.11554967092E+02  0.12249234016E+02  0.17770000000E+01 0. -1.
         15    1    1    2    0    0  0.32410029043E+01 -0.17355962288E+01 -0.53017226179E+01  0.66919642716E+01  0.17770000000E+01 0.  1.
</event>
<event>
 6    1  0.1196607E-002  0.1826454E+03  0.7546771E-02  0.1068339E+00
        -11   -1    0    0    0    0  0.00000000000E+00  0.00000000000E+00  0.18250000000E+03  0.18250000000E+03  0.00000000000E+00 0. -1.
         11   -1    0    0    0    0 -0.00000000000E+00 -0.00000000000E+00 -0.18250000000E+03  0.18250000000E+03  0.00000000000E+00 0. -1.
        -11    1    1    2    0    0  0.13334852682E+00  0.12955536113E+01  0.73001966484E+02  0.73013583335E+02  0.00000000000E+00 0. -1.
         11    1    1    2    0    0  0.30323965492E+01  0.28916517983E+01 -0.18230648635E+03  0.18235463263E+03  0.00000000000E+00 0. -1.
        -15    1    1    2    0    0  0.11667816078E+01 -0.13281291467E+01  0.19599918679E+02  0.19759550794E+02  0.17770000000E+01 0.  1.
         15    1    1    2    0    0 -0.43325266838E+01 -0.28590762629E+01  0.89704601184E+02  0.89872233238E+02  0.17770000000E+01 0. -1.
</event>
<event>
 6    1  0.1196607E-002  0.1834034E+03  0.7546771E-02  0.1067738E+00
        -11   -1    0    0    0    0  0.00000000000E+00  0.00000000000E+00  0.18250000000E+03  0.18250000000E+03  0.00000000000E+00 0.  1.
         11   -1    0    0    0    0 -0.00000000000E+00 -0.00000000000E+00 -0.18250000000E+03  0.18250000000E+03  0.00000000000E+00 0. -1.
        -11    1    1    2    0    0  0.40506445383E+01 -0.19104986534E+01  0.18154136156E+03  0.18159659602E+03  0.00000000000E+00 0.  1.
         11    1    1    2    0    0  0.19932455314E+01 -0.26915443265E+01 -0.12565759663E+03  0.12570222364E+03  0.00000000000E+00 0. -1.
        -15    1    1    2    0    0  0.30654215248E+01 -0.19435282448E+00 -0.20594669015E+02  0.20898150708E+02  0.17770000000E+01 0.  1.
         15    1    1    2    0    0 -0.91093115944E+01  0.47963958043E+01 -0.35289095918E+02  0.36803029633E+02  0.17770000000E+01 0. -1.
</event>
<event>
 6    1  0.1196607E-002  0.2106048E+03  0.7546771E-02  0.1048053E+00
        -11   -1    0    0    0    0  0.00000000000E+00  0.00000000000E+00  0.18250000000E+03  0.18250000000E+03  0.00000000000E+00 0.  1.
         11   -1    0    0    0    0 -0.00000000000E+00 -0.00000000000E+00 -0.18250000000E+03  0.18250000000E+03  0.00000000000E+00 0. -1.
        -11    1    1    2    0    0  0.46674720965E+01  0.31440250133E+01  0.13943053022E+03  0.13954405378E+03  0.00000000000E+00 0.  1.
         11    1    1    2    0    0  0.31813098804E+01 -0.15252863897E+01 -0.15435490393E+03  0.15439521883E+03  0.00000000000E+00 0. -1.
        -15    1    1    2    0    0 -0.16873894245E+01  0.94232226965E+01 -0.26225841695E+02  0.27974933614E+02  0.17770000000E+01 0. -1.
         15    1    1    2    0    0 -0.61613925524E+01 -0.11041961320E+02  0.41150215409E+02  0.43085793775E+02  0.17770000000E+01 0.  1.
</event>
<event>
 6    1  0.1196607E-002  0.1826536E+03  0.7546771E-02  0.1068333E+00
        -11   -1    0    0    0    0  0.00000000000E+00  0.00000000000E+00  0.18250000000E+03  0.18250000000E+03  0.00000000000E+00 0.  1.
         11   -1    0    0    0    0 -0.00000000000E+00 -0.00000000000E+00 -0.18250000000E+03  0.18250000000E+03  0.00000000000E+00 0. -1.
        -11    1    1    2    0    0  0.65560779058E+00 -0.15306530017E+01  0.97114149342E+02  0.97128423866E+02  0.00000000000E+00 0.  1.
         11    1    1    2    0    0 -0.24806992727E+01  0.31738454337E+00 -0.18232928564E+03  0.18234643678E+03  0.00000000000E+00 0. -1.
        -15    1    1    2    0    0  0.23303912498E+01  0.15293994621E+01  0.19135780221E+02  0.19419206981E+02  0.17770000000E+01 0. -1.
         15    1    1    2    0    0 -0.50529976759E+00 -0.31613100379E+00  0.66079356079E+02  0.66105932378E+02  0.17770000000E+01 0. -1.
</event>
<event>
 6    1  0.1196607E-002  0.1850907E+03  0.7546771E-02  0.1066411E+00
        -11   -1    0    0    0    0  0.00000000000E+00  0.00000000000E+00  0.18250000000E+03  0.18250000000E+03  0.00000000000E+00 0.  1.
         11   -1    0    0    0    0 -0.00000000000E+00 -0.00000000000E+00 -0.18250000000E+03  0.18250000000E+03  0.00000000000E+00 0. -1.
        -11    1    1    2    0    0  0.24650883699E+01 -0.10359567196E+01  0.17988942418E+03  0.17990929604E+03  0.00000000000E+00 0.  1.
         11    1    1    2    0    0 -0.41410901811E+01 -0.18743049588E+01 -0.16465381521E+03  0.16471654595E+03  0.00000000000E+00 0. -1.
        -15    1    1    2    0    0  0.12387031747E+00  0.39482887208E+01  0.56182880344E+00  0.43678035994E+01  0.17770000000E+01 0.  1.
         15    1    1    2    0    0  0.15521314938E+01 -0.10380270424E+01 -0.15797437776E+02  0.16006354414E+02  0.17770000000E+01 0. -1.
</event>
<event>
 6    1  0.1196607E-002  0.1829720E+03  0.7546771E-02  0.1068080E+00
        -11   -1    0    0    0    0  0.00000000000E+00  0.00000000000E+00  0.18250000000E+03  0.18250000000E+03  0.00000000000E+00 0.  1.
         11   -1    0    0    0    0 -0.00000000000E+00 -0.00000000000E+00 -0.18250000000E+03  0.18250000000E+03  0.00000000000E+00 0. -1.
        -11    1    1    2    0    0 -0.22436596598E+01  0.23256711055E+00  0.14464116337E+03  0.14465875099E+03  0.00000000000E+00 0.  1.
         11    1    1    2    0    0  0.14012721379E+01  0.65305214844E+01 -0.18190545947E+03  0.18202804031E+03  0.00000000000E+00 0. -1.
        -15    1    1    2    0    0  0.25600779417E+01 -0.27722719075E+01  0.15766053459E+02  0.16308453675E+02  0.17770000000E+01 0. -1.
         15    1    1    2    0    0 -0.17176904197E+01 -0.39908166874E+01  0.21498242638E+02  0.22004755026E+02  0.17770000000E+01 0.  1.
</event>
<event>
 6    1  0.1196607E-002  0.1844046E+03  0.7546771E-02  0.1066949E+00
        -11   -1    0    0    0    0  0.00000000000E+00  0.00000000000E+00  0.18250000000E+03  0.18250000000E+03  0.00000000000E+00 0.  1.
         11   -1    0    0    0    0 -0.00000000000E+00 -0.00000000000E+00 -0.18250000000E+03  0.18250000000E+03  0.00000000000E+00 0.  1.
        -11    1    1    2    0    0  0.31106064950E+01 -0.18759781038E+01  0.18055890513E+03  0.18059544122E+03  0.00000000000E+00 0.  1.
         11    1    1    2    0    0 -0.51176694927E+01 -0.85628541426E+01 -0.14933180485E+03  0.14966462826E+03  0.00000000000E+00 0.  1.
        -15    1    1    2    0    0  0.22846042171E+01  0.85598420861E+01 -0.30807468468E+02  0.32105266785E+02  0.17770000000E+01 0. -1.
         15    1    1    2    0    0 -0.27754121941E+00  0.18789901603E+01 -0.41963180833E+00  0.26346637367E+01  0.17770000000E+01 0.  1.
</event>
<event>
 6    1  0.1196607E-002  0.2072353E+03  0.7546771E-02  0.1050310E+00
        -11   -1    0    0    0    0  0.00000000000E+00  0.00000000000E+00  0.18250000000E+03  0.18250000000E+03  0.00000000000E+00 0. -1.
         11   -1    0    0    0    0 -0.00000000000E+00 -0.00000000000E+00 -0.18250000000E+03  0.18250000000E+03  0.00000000000E+00 0. -1.
        -11    1    1    2    0    0 -0.71404056770E+00 -0.17708522838E+01  0.13106710224E+03  0.13108100954E+03  0.00000000000E+00 0. -1.
         11    1    1    2    0    0 -0.15542158561E+01 -0.17449355694E+01 -0.15774734422E+03  0.15776465065E+03  0.00000000000E+00 0. -1.
        -15    1    1    2    0    0 -0.12439766341E+02  0.13880998949E+01  0.48262117330E+02  0.49890523210E+02  0.17770000000E+01 0.  1.
         15    1    1    2    0    0  0.14708022765E+02  0.21276879583E+01 -0.21581875351E+02  0.26263816600E+02  0.17770000000E+01 0. -1.
</event>
<event>
 6    1  0.1196607E-002  0.1843488E+03  0.7546771E-02  0.1066993E+00
        -11   -1    0    0    0    0  0.00000000000E+00  0.00000000000E+00  0.18250000000E+03  0.18250000000E+03  0.00000000000E+00 0.  1.
         11   -1    0    0    0    0 -0.00000000000E+00 -0.00000000000E+00 -0.18250000000E+03  0.18250000000E+03  0.00000000000E+00 0.  1.
        -11    1    1    2    0    0  0.31260944614E+01 -0.32479364613E+01  0.18059496825E+03  0.18065122229E+03  0.00000000000E+00 0.  1.
         11    1    1    2    0    0  0.32627350238E+01 -0.63642911476E+00 -0.14373438918E+03  0.14377282467E+03  0.00000000000E+00 0.  1.
        -15    1    1    2    0    0 -0.76292411453E+01  0.60591253501E+01 -0.12147222552E+02  0.15672621517E+02  0.17770000000E+01 0.  1.
         15    1    1    2    0    0  0.12404116601E+01 -0.21747597741E+01 -0.24713356519E+02  0.24903331516E+02  0.17770000000E+01 0. -1.
</event>
<event>
 6    1  0.1196607E-002  0.1699584E+03  0.7546771E-02  0.1078901E+00
        -11   -1    0    0    0    0  0.00000000000E+00  0.00000000000E+00  0.18250000000E+03  0.18250000000E+03  0.00000000000E+00 0.  1.
         11   -1    0    0    0    0 -0.00000000000E+00 -0.00000000000E+00 -0.18250000000E+03  0.18250000000E+03  0.00000000000E+00 0.  1.
        -11    1    1    2    0    0 -0.50004112553E+01 -0.25618713835E+01  0.16987944497E+03  0.16997233045E+03  0.00000000000E+00 0.  1.
         11    1    1    2    0    0  0.39855378960E+01  0.17941416393E+01 -0.16989063961E+03  0.16994685312E+03  0.00000000000E+00 0.  1.
        -15    1    1    2    0    0  0.21395196490E+01 -0.19094182568E+01 -0.12068195887E+02  0.12530862037E+02  0.17770000000E+01 0.  1.
         15    1    1    2    0    0 -0.11246462898E+01  0.26771480010E+01  0.12079390531E+02  0.12549954394E+02  0.17770000000E+01 0. -1.
</event>
<event>
 6    1  0.1196607E-002  0.1844022E+03  0.7546771E-02  0.1066951E+00
        -11   -1    0    0    0    0  0.00000000000E+00  0.00000000000E+00  0.18250000000E+03  0.18250000000E+03  0.00000000000E+00 0.  1.
         11   -1    0    0    0    0 -0.00000000000E+00 -0.00000000000E+00 -0.18250000000E+03  0.18250000000E+03  0.00000000000E+00 0. -1.
        -11    1    1    2    0    0  0.48971356307E+01  0.40369184990E+00  0.15624064419E+03  0.15631789342E+03  0.00000000000E+00 0.  1.
         11    1    1    2    0    0 -0.85061574963E+00  0.58633329617E+01 -0.18050059296E+03  0.18059780253E+03  0.00000000000E+00 0. -1.
        -15    1    1    2    0    0 -0.64366217579E+01 -0.42698461376E+01  0.73870941213E+01  0.10834600789E+02  0.17770000000E+01 0.  1.
         15    1    1    2    0    0  0.23901018768E+01 -0.19971786740E+01  0.16872854648E+02  0.17249703261E+02  0.17770000000E+01 0. -1.
</event>
<event>
 6    1  0.1196607E-002  0.1859202E+03  0.7546771E-02  0.1065764E+00
        -11   -1    0    0    0    0  0.00000000000E+00  0.00000000000E+00  0.18250000000E+03  0.18250000000E+03  0.00000000000E+00 0.  1.
         11   -1    0    0    0    0 -0.00000000000E+00 -0.00000000000E+00 -0.18250000000E+03  0.18250000000E+03  0.00000000000E+00 0.  1.
        -11    1    1    2    0    0  0.17460436060E-01 -0.24886484432E+01  0.15075762778E+03  0.15077816821E+03  0.00000000000E+00 0.  1.
         11    1    1    2    0    0  0.24472456095E+01  0.18825928228E+00 -0.17906301819E+03  0.17907983956E+03  0.00000000000E+00 0.  1.
        -15    1    1    2    0    0 -0.27808683945E+01 -0.42186955358E+01 -0.66053266250E+00  0.53967261788E+01  0.17770000000E+01 0. -1.
         15    1    1    2    0    0  0.31616234894E+00  0.65190846967E+01  0.28965923072E+02  0.29745266049E+02  0.17770000000E+01 0.  1.
</event>
<event>
 6    1  0.1196607E-002  0.1833819E+03  0.7546771E-02  0.1067755E+00
        -11   -1    0    0    0    0  0.00000000000E+00  0.00000000000E+00  0.18250000000E+03  0.18250000000E+03  0.00000000000E+00 0.  1.
         11   -1    0    0    0    0 -0.00000000000E+00 -0.00000000000E+00 -0.18250000000E+03  0.18250000000E+03  0.00000000000E+00 0. -1.
        -11    1    1    2    0    0  0.10963025701E+01  0.50510219628E+01  0.12277825284E+03  0.12288699716E+03  0.00000000000E+00 0.  1.
         11    1    1    2    0    0  0.33078795075E+00 -0.45151581721E+01 -0.18156167237E+03  0.18161810743E+03  0.00000000000E+00 0. -1.
        -15    1    1    2    0    0  0.13661458856E+01  0.30537817252E+01  0.40552302939E+01  0.55492845614E+01  0.17770000000E+01 0. -1.
         15    1    1    2    0    0 -0.27932364064E+01 -0.35896455159E+01  0.54728189238E+02  0.54945610842E+02  0.17770000000E+01 0.  1.
</event>
<event>
 6    1  0.1196607E-002  0.1837074E+03  0.7546771E-02  0.1067498E+00
        -11   -1    0    0    0    0  0.00000000000E+00  0.00000000000E+00  0.18250000000E+03  0.18250000000E+03  0.00000000000E+00 0.  1.
         11   -1    0    0    0    0 -0.00000000000E+00 -0.00000000000E+00 -0.18250000000E+03  0.18250000000E+03  0.00000000000E+00 0. -1.
        -11    1    1    2    0    0  0.18034474137E+01  0.17617869969E+01  0.18127508804E+03  0.18129261943E+03  0.00000000000E+00 0.  1.
         11    1    1    2    0    0 -0.33587769747E+01 -0.13147899884E+01 -0.15607428701E+03  0.15611596049E+03  0.00000000000E+00 0. -1.
        -15    1    1    2    0    0 -0.32899773545E+01  0.39758345853E+00 -0.30794214507E+01  0.48603075078E+01  0.17770000000E+01 0. -1.
         15    1    1    2    0    0  0.48453069155E+01 -0.84458046708E+00 -0.22121379577E+02  0.22731112569E+02  0.17770000000E+01 0.  1.
</event>
<event>
 6    1  0.1196607E-002  0.1871800E+03  0.7546771E-02  0.1064789E+00
        -11   -1    0    0    0    0  0.00000000000E+00  0.00000000000E+00  0.18250000000E+03  0.18250000000E+03  0.00000000000E+00 0.  1.
         11   -1    0    0    0    0 -0.00000000000E+00 -0.00000000000E+00 -0.18250000000E+03  0.18250000000E+03  0.00000000000E+00 0.  1.
        -11    1    1    2    0    0 -0.94250869073E+01  0.16631266971E+01  0.17756229821E+03  0.17782004386E+03  0.00000000000E+00 0.  1.
         11    1    1    2    0    0  0.99112959315E+00  0.27866167260E+00 -0.13360878175E+02  0.13400487148E+02  0.00000000000E+00 0.  1.
        -15    1    1    2    0    0  0.28508446185E+01  0.43331424750E+01 -0.16506047767E+03  0.16515151364E+03  0.17770000000E+01 0.  1.
         15    1    1    2    0    0  0.55831126957E+01 -0.62749308447E+01  0.85905763483E+00  0.86279553487E+01  0.17770000000E+01 0. -1.
</event>
<event>
 6    1  0.1196607E-002  0.1825989E+03  0.7546771E-02  0.1068376E+00
        -11   -1    0    0    0    0  0.00000000000E+00  0.00000000000E+00  0.18250000000E+03  0.18250000000E+03  0.00000000000E+00 0.  1.
         11   -1    0    0    0    0 -0.00000000000E+00 -0.00000000000E+00 -0.18250000000E+03  0.18250000000E+03  0.00000000000E+00 0.  1.
        -11    1    1    2    0    0 -0.50505490549E+01 -0.14079043205E+01  0.18232572660E+03  0.18240109874E+03  0.00000000000E+00 0.  1.
         11    1    1    2    0    0  0.48381198507E+00  0.12646078542E+01 -0.18411689173E+02  0.18461408539E+02  0.00000000000E+00 0.  1.
        -15    1    1    2    0    0  0.41174211755E+01  0.26895343861E+01 -0.11842426897E+03  0.11853966409E+03  0.17770000000E+01 0.  1.
         15    1    1    2    0    0  0.44931589435E+00 -0.25462379198E+01 -0.45489768459E+02  0.45597828630E+02  0.17770000000E+01 0. -1.
</event>
<event>
 6    1  0.1196607E-002  0.1755289E+03  0.7546771E-02  0.1074143E+00
        -11   -1    0    0    0    0  0.00000000000E+00  0.00000000000E+00  0.18250000000E+03  0.18250000000E+03  0.00000000000E+00 0. -1.
         11   -1    0    0    0    0 -0.00000000000E+00 -0.00000000000E+00 -0.18250000000E+03  0.18250000000E+03  0.00000000000E+00 0.  1.
        -11    1    1    2    0    0 -0.36603827956E+01  0.17918967889E+00  0.17336467078E+03  0.17340340131E+03  0.00000000000E+00 0. -1.
         11    1    1    2    0    0 -0.50550577478E+01 -0.32895807743E+01 -0.17770081833E+03  0.17780313773E+03  0.00000000000E+00 0.  1.
        -15    1    1    2    0    0  0.63168431040E+01  0.43926450216E+01 -0.56118356631E+00  0.79164697361E+01  0.17770000000E+01 0.  1.
         15    1    1    2    0    0  0.23985974393E+01 -0.12822539262E+01  0.48973311131E+01  0.58769912233E+01  0.17770000000E+01 0.  1.
</event>
<event>
 6    1  0.1196607E-002  0.1840361E+03  0.7546771E-02  0.1067239E+00
        -11   -1    0    0    0    0  0.00000000000E+00  0.00000000000E+00  0.18250000000E+03  0.18250000000E+03  0.00000000000E+00 0. -1.
         11   -1    0    0    0    0 -0.00000000000E+00 -0.00000000000E+00 -0.18250000000E+03  0.18250000000E+03  0.00000000000E+00 0.  1.
        -11    1    1    2    0    0  0.15501232060E+01  0.23771239298E+01  0.15997864309E+03  0.16000381197E+03  0.00000000000E+00 0. -1.
         11    1    1    2    0    0  0.31131048908E+01  0.12225381476E+00 -0.18093708351E+03  0.18096390402E+03  0.00000000000E+00 0.  1.
        -15    1    1    2    0    0 -0.20263724289E+01 -0.60496771289E+00  0.12927875435E-01  0.27622576426E+01  0.17770000000E+01 0.  1.
         15    1    1    2    0    0 -0.26368556680E+01 -0.18944100317E+01  0.20945512545E+02  0.21270026374E+02  0.17770000000E+01 0. -1.
</event>
<event>
 6    1  0.1196607E-002  0.1827250E+03  0.7546771E-02  0.1068276E+00
        -11   -1    0    0    0    0  0.00000000000E+00  0.00000000000E+00  0.18250000000E+03  0.18250000000E+03  0.00000000000E+00 0. -1.
         11   -1    0    0    0    0 -0.00000000000E+00 -0.00000000000E+00 -0.18250000000E+03  0.18250000000E+03  0.00000000000E+00 0.  1.
        -11    1    1    2    0    0 -0.43604386816E+01 -0.53805967496E+01  0.18214339241E+03  0.18227501103E+03  0.00000000000E+00 0. -1.
         11    1    1    2    0    0  0.12516301487E+01 -0.79076859253E+00 -0.93541400889E+02  0.93553116321E+02  0.00000000000E+00 0.  1.
        -15    1    1    2    0    0  0.15133589344E+00  0.12959623339E+01 -0.54932399855E+02  0.54976619610E+02  0.17770000000E+01 0.  1.
         15    1    1    2    0    0  0.29574726394E+01  0.48754030082E+01 -0.33669591663E+02  0.34195253043E+02  0.17770000000E+01 0.  1.
</event>
<event>
 6    1  0.1196607E-002  0.1888185E+03  0.7546771E-02  0.1063534E+00
        -11   -1    0    0    0    0  0.00000000000E+00  0.00000000000E+00  0.18250000000E+03  0.18250000000E+03  0.00000000000E+00 0.  1.
         11   -1    0    0    0    0 -0.00000000000E+00 -0.00000000000E+00 -0.18250000000E+03  0.18250000000E+03  0.00000000000E+00 0.  1.
        -11    1    1    2    0    0 -0.10028770234E+01 -0.24835268329E+01  0.17616109653E+03  0.17618145645E+03  0.00000000000E+00 0.  1.
         11    1    1    2    0    0  0.95250768608E+01  0.26395733314E+01 -0.11495329662E+03  0.11537744511E+03  0.00000000000E+00 0.  1.
        -15    1    1    2    0    0 -0.56015898661E+01 -0.13319077940E+02 -0.46669905661E+01  0.15287713241E+02  0.17770000000E+01 0. -1.
         15    1    1    2    0    0 -0.29206099713E+01  0.13163031441E+02 -0.56540809348E+02  0.58153385198E+02  0.17770000000E+01 0.  1.
</event>
<event>
 6    1  0.1196607E-002  0.1944558E+03  0.7546771E-02  0.1059317E+00
        -11   -1    0    0    0    0  0.00000000000E+00  0.00000000000E+00  0.18250000000E+03  0.18250000000E+03  0.00000000000E+00 0.  1.
         11   -1    0    0    0    0 -0.00000000000E+00 -0.00000000000E+00 -0.18250000000E+03  0.18250000000E+03  0.00000000000E+00 0.  1.
        -11    1    1    2    0    0  0.14351674421E+02  0.68205640210E+01  0.14903724968E+03  0.14988192835E+03  0.00000000000E+00 0.  1.
         11    1    1    2    0    0 -0.25411685635E+01  0.50761361796E+00 -0.17052447807E+03  0.17054416680E+03  0.00000000000E+00 0.  1.
        -15    1    1    2    0    0 -0.15855319646E+02 -0.11319590352E+02  0.29004179031E+02  0.34984631155E+02  0.17770000000E+01 0.  1.
         15    1    1    2    0    0  0.40448137890E+01  0.39914127126E+01 -0.75169506480E+01  0.95892736990E+01  0.17770000000E+01 0. -1.
</event>
<event>
 6    1  0.1196607E-002  0.1748074E+03  0.7546771E-02  0.1074749E+00
        -11   -1    0    0    0    0  0.00000000000E+00  0.00000000000E+00  0.18250000000E+03  0.18250000000E+03  0.00000000000E+00 0. -1.
         11   -1    0    0    0    0 -0.00000000000E+00 -0.00000000000E+00 -0.18250000000E+03  0.18250000000E+03  0.00000000000E+00 0.  1.
        -11    1    1    2    0    0 -0.27287953419E+01  0.34167856143E+01  0.17321453756E+03  0.17326972260E+03  0.00000000000E+00 0. -1.
         11    1    1    2    0    0 -0.28586518895E+01  0.31854469594E+01 -0.17641477413E+03  0.17646668664E+03  0.00000000000E+00 0.  1.
        -15    1    1    2    0    0  0.44623723448E+01 -0.20384535152E+01 -0.39358083791E+01  0.65357766389E+01  0.17770000000E+01 0.  1.
         15    1    1    2    0    0  0.11250748867E+01 -0.45637790586E+01  0.71360449530E+01  0.87278141231E+01  0.17770000000E+01 0.  1.
</event>
<event>
 6    1  0.1196607E-002  0.1839060E+03  0.7546771E-02  0.1067341E+00
        -11   -1    0    0    0    0  0.00000000000E+00  0.00000000000E+00  0.18250000000E+03  0.18250000000E+03  0.00000000000E+00 0. -1.
         11   -1    0    0    0    0 -0.00000000000E+00 -0.00000000000E+00 -0.18250000000E+03  0.18250000000E+03  0.00000000000E+00 0.  1.
        -11    1    1    2    0    0  0.39957839499E-01 -0.38348228920E+01  0.12308614932E+03  0.12314587942E+03  0.00000000000E+00 0. -1.
         11    1    1    2    0    0 -0.77157112963E+01 -0.10128835105E+02 -0.18064580773E+03  0.18109399038E+03  0.00000000000E+00 0.  1.
        -15    1    1    2    0    0 -0.11626385121E+01  0.25609819647E+01  0.23414207771E+02  0.23649380784E+02  0.17770000000E+01 0.  1.
         15    1    1    2    0    0  0.88383919689E+01  0.11402676032E+02  0.34145450642E+02  0.37110749411E+02  0.17770000000E+01 0. -1.
</event>
<event>
 6    1  0.1196607E-002  0.1706505E+03  0.7546771E-02  0.1078299E+00
        -11   -1    0    0    0    0  0.00000000000E+00  0.00000000000E+00  0.18250000000E+03  0.18250000000E+03  0.00000000000E+00 0. -1.
         11   -1    0    0    0    0 -0.00000000000E+00 -0.00000000000E+00 -0.18250000000E+03  0.18250000000E+03  0.00000000000E+00 0. -1.
        -11    1    1    2    0    0  0.35837568823E+01 -0.10810862342E+00  0.17183368310E+03  0.17187108439E+03  0.00000000000E+00 0. -1.
         11    1    1    2    0    0 -0.10789806711E+01  0.36539529587E+01 -0.16942316438E+03  0.16946599718E+03  0.00000000000E+00 0. -1.
        -15    1    1    2    0    0  0.46978591261E+01 -0.11463961684E+02  0.13983679663E+00  0.12516771996E+02  0.17770000000E+01 0.  1.
         15    1    1    2    0    0 -0.72026353373E+01  0.79181173490E+01 -0.25503555127E+01  0.11146146437E+02  0.17770000000E+01 0. -1.
</event>
<event>
 6    1  0.1196607E-002  0.1828525E+03  0.7546771E-02  0.1068175E+00
        -11   -1    0    0    0    0  0.00000000000E+00  0.00000000000E+00  0.18250000000E+03  0.18250000000E+03  0.00000000000E+00 0. -1.
         11   -1    0    0    0    0 -0.00000000000E+00 -0.00000000000E+00 -0.18250000000E+03  0.18250000000E+03  0.00000000000E+00 0. -1.
        -11    1    1    2    0    0  0.99797004729E+00  0.29067141079E+01  0.18212154105E+03  0.18214746950E+03  0.00000000000E+00 0. -1.
         11    1    1    2    0    0 -0.18435999875E+01  0.51204171809E+01 -0.10931716922E+03  0.10945255145E+03  0.00000000000E+00 0. -1.
        -15    1    1    2    0    0 -0.15628925593E+00 -0.65746255362E+01 -0.51329816823E+02  0.51779899106E+02  0.17770000000E+01 0.  1.
         15    1    1    2    0    0  0.10019191961E+01 -0.14525057526E+01 -0.21474555009E+02  0.21620079946E+02  0.17770000000E+01 0. -1.
</event>
<event>
 6    1  0.1196607E-002  0.1856557E+03  0.7546771E-02  0.1065970E+00
        -11   -1    0    0    0    0  0.00000000000E+00  0.00000000000E+00  0.18250000000E+03  0.18250000000E+03  0.00000000000E+00 0. -1.
         11   -1    0    0    0    0 -0.00000000000E+00 -0.00000000000E+00 -0.18250000000E+03  0.18250000000E+03  0.00000000000E+00 0. -1.
        -11    1    1    2    0    0  0.29388236003E+01  0.21301653789E+01  0.17930759635E+03  0.17934432914E+03  0.00000000000E+00 0. -1.
         11    1    1    2    0    0  0.35120283441E+01  0.16471255507E+01 -0.16703048777E+03  0.16707552547E+03  0.00000000000E+00 0. -1.
        -15    1    1    2    0    0 -0.46338302769E+01 -0.36036406115E+01 -0.94394578551E-01  0.61339422909E+01  0.17770000000E+01 0.  1.
         15    1    1    2    0    0 -0.18170216675E+01 -0.17365031807E+00 -0.12182714001E+02  0.12446203100E+02  0.17770000000E+01 0. -1.
</event>
<event>
 6    1  0.1196607E-002  0.1876391E+03  0.7546771E-02  0.1064436E+00
        -11   -1    0    0    0    0  0.00000000000E+00  0.00000000000E+00  0.18250000000E+03  0.18250000000E+03  0.00000000000E+00 0. -1.
         11   -1    0    0    0    0 -0.00000000000E+00 -0.00000000000E+00 -0.18250000000E+03  0.18250000000E+03  0.00000000000E+00 0. -1.
        -11    1    1    2    0    0  0.55365684491E+01  0.17887800396E+00  0.16661428910E+03  0.16670634937E+03  0.00000000000E+00 0. -1.
         11    1    1    2    0    0  0.24221915376E+01 -0.18781161262E+01 -0.17733437353E+03  0.17736085917E+03  0.00000000000E+00 0. -1.
        -15    1    1    2    0    0 -0.82669410226E+01  0.23655176632E+01 -0.11969760491E+01  0.88616289896E+01  0.17770000000E+01 0. -1.
         15    1    1    2    0    0  0.30818103599E+00 -0.66627954094E+00  0.11917060475E+02  0.12071162468E+02  0.17770000000E+01 0.  1.
</event>
<event>
 6    1  0.1196607E-002  0.1832988E+03  0.7546771E-02  0.1067821E+00
        -11   -1    0    0    0    0  0.00000000000E+00  0.00000000000E+00  0.18250000000E+03  0.18250000000E+03  0.00000000000E+00 0.  1.
         11   -1    0    0    0    0 -0.00000000000E+00 -0.00000000000E+00 -0.18250000000E+03  0.18250000000E+03  0.00000000000E+00 0. -1.
        -11    1    1    2    0    0 -0.12180127883E+02 -0.13474248190E+01  0.18128745629E+03  0.18170116366E+03  0.00000000000E+00 0.  1.
         11    1    1    2    0    0  0.23878700269E+00  0.49828850563E+00 -0.36616275060E+02  0.36620443880E+02  0.00000000000E+00 0. -1.
        -15    1    1    2    0    0 -0.47589792773E+01 -0.42020807785E+01 -0.35371569730E+02  0.35980703729E+02  0.17770000000E+01 0.  1.
         15    1    1    2    0    0  0.16700320158E+02  0.50512170919E+01 -0.10929961150E+03  0.11069768873E+03  0.17770000000E+01 0. -1.
</event>
<event>
 6    1  0.1196607E-002  0.1827070E+03  0.7546771E-02  0.1068290E+00
        -11   -1    0    0    0    0  0.00000000000E+00  0.00000000000E+00  0.18250000000E+03  0.18250000000E+03  0.00000000000E+00 0. -1.
         11   -1    0    0    0    0 -0.00000000000E+00 -0.00000000000E+00 -0.18250000000E+03  0.18250000000E+03  0.00000000000E+00 0. -1.
        -11    1    1    2    0    0 -0.18212259899E+00  0.13187979012E+01  0.74967962921E+02  0.74979783016E+02  0.00000000000E+00 0. -1.
         11    1    1    2    0    0 -0.12263807539E+01 -0.23805191068E+01 -0.18227333035E+03  0.18229299997E+03  0.00000000000E+00 0. -1.
        -15    1    1    2    0    0  0.11452737644E+00 -0.18221603868E+01  0.90465271007E+02  0.90501140171E+02  0.17770000000E+01 0. -1.
         15    1    1    2    0    0  0.12939759764E+01  0.28838815924E+01  0.16840096422E+02  0.17226076842E+02  0.17770000000E+01 0. -1.
</event>
<event>
 6    1  0.1196607E-002  0.1773423E+03  0.7546771E-02  0.1072636E+00
        -11   -1    0    0    0    0  0.00000000000E+00  0.00000000000E+00  0.18250000000E+03  0.18250000000E+03  0.00000000000E+00 0. -1.
         11   -1    0    0    0    0 -0.00000000000E+00 -0.00000000000E+00 -0.18250000000E+03  0.18250000000E+03  0.00000000000E+00 0.  1.
        -11    1    1    2    0    0  0.17288612321E+01  0.35415302135E+01  0.17894478184E+03  0.17898817375E+03  0.00000000000E+00 0. -1.
         11    1    1    2    0    0 -0.12255391910E+01  0.24278642927E+01 -0.17574051687E+03  0.17576155934E+03  0.00000000000E+00 0.  1.
        -15    1    1    2    0    0 -0.79715775236E+00 -0.46794461249E+01 -0.52049923053E+01  0.72651462763E+01  0.17770000000E+01 0. -1.
         15    1    1    2    0    0  0.29383571128E+00 -0.12899483813E+01  0.20007273435E+01  0.29851206265E+01  0.17770000000E+01 0.  1.
</event>
<event>
 6    1  0.1196607E-002  0.2007432E+03  0.7546771E-02  0.1054795E+00
        -11   -1    0    0    0    0  0.00000000000E+00  0.00000000000E+00  0.18250000000E+03  0.18250000000E+03  0.00000000000E+00 0. -1.
         11   -1    0    0    0    0 -0.00000000000E+00 -0.00000000000E+00 -0.18250000000E+03  0.18250000000E+03  0.00000000000E+00 0.  1.
        -11    1    1    2    0    0 -0.79294755850E+00 -0.23888684543E+01  0.16423754609E+03  0.16425683244E+03  0.00000000000E+00 0. -1.
         11    1    1    2    0    0  0.24884787225E+01  0.12479418319E+01 -0.14542074106E+03  0.14544738505E+03  0.00000000000E+00 0.  1.
        -15    1    1    2    0    0  0.22101302575E+01 -0.94595528957E+01  0.15914820196E+02  0.18729843769E+02  0.17770000000E+01 0. -1.
         15    1    1    2    0    0 -0.39056614215E+01  0.10600479518E+02 -0.34731625218E+02  0.36565938746E+02  0.17770000000E+01 0.  1.
</event>
<event>
 6    1  0.1196607E-002  0.1828148E+03  0.7546771E-02  0.1068204E+00
        -11   -1    0    0    0    0  0.00000000000E+00  0.00000000000E+00  0.18250000000E+03  0.18250000000E+03  0.00000000000E+00 0.  1.
         11   -1    0    0    0    0 -0.00000000000E+00 -0.00000000000E+00 -0.18250000000E+03  0.18250000000E+03  0.00000000000E+00 0.  1.
        -11    1    1    2    0    0 -0.55634269921E+01 -0.37746888184E+00  0.18209983451E+03  0.18218519130E+03  0.00000000000E+00 0.  1.
         11    1    1    2    0    0  0.15534997107E+01  0.70263129777E-01 -0.25570103456E+02  0.25617347424E+02  0.00000000000E+00 0.  1.
        -15    1    1    2    0    0  0.46182134745E+01 -0.28051685448E+00 -0.18461689167E+02  0.19115393830E+02  0.17770000000E+01 0.  1.
         15    1    1    2    0    0 -0.60828619304E+00  0.58772260655E+00 -0.13806804189E+03  0.13808206744E+03  0.17770000000E+01 0.  1.
</event>
<event>
 6    1  0.1196607E-002  0.1825837E+03  0.7546771E-02  0.1068388E+00
        -11   -1    0    0    0    0  0.00000000000E+00  0.00000000000E+00  0.18250000000E+03  0.18250000000E+03  0.00000000000E+00 0.  1.
         11   -1    0    0    0    0 -0.00000000000E+00 -0.00000000000E+00 -0.18250000000E+03  0.18250000000E+03  0.00000000000E+00 0. -1.
        -11    1    1    2    0    0 -0.13183964993E+01 -0.32282449070E+01  0.18238298704E+03  0.18241631971E+03  0.00000000000E+00 0.  1.
         11    1    1    2    0    0  0.24541178863E+00  0.67155076593E+00 -0.11851895802E+02  0.11873442697E+02  0.00000000000E+00 0. -1.
        -15    1    1    2    0    0 -0.36876562624E+00  0.14193911233E+01 -0.16728257904E+02  0.16886177802E+02  0.17770000000E+01 0. -1.
         15    1    1    2    0    0  0.14417503369E+01  0.11373030178E+01 -0.15380283333E+03  0.15382405980E+03  0.17770000000E+01 0. -1.
</event>
<event>
 6    1  0.1196607E-002  0.1830061E+03  0.7546771E-02  0.1068053E+00
        -11   -1    0    0    0    0  0.00000000000E+00  0.00000000000E+00  0.18250000000E+03  0.18250000000E+03  0.00000000000E+00 0. -1.
         11   -1    0    0    0    0 -0.00000000000E+00 -0.00000000000E+00 -0.18250000000E+03  0.18250000000E+03  0.00000000000E+00 0.  1.
        -11    1    1    2    0    0  0.23557584682E+01  0.41419658198E+00  0.11365340092E+03  0.11367856745E+03  0.00000000000E+00 0. -1.
         11    1    1    2    0    0  0.12005858504E+01  0.26920828562E+01 -0.18197002663E+03  0.18199389909E+03  0.00000000000E+00 0.  1.
        -15    1    1    2    0    0  0.31900615002E+01 -0.29025577924E+01  0.32977712113E+02  0.33305983837E+02  0.17770000000E+01 0.  1.
         15    1    1    2    0    0 -0.67464058189E+01 -0.20372164585E+00  0.35338913589E+02  0.36021549615E+02  0.17770000000E+01 0. -1.
</event>
<event>
 6    1  0.1196607E-002  0.1842420E+03  0.7546771E-02  0.1067077E+00
        -11   -1    0    0    0    0  0.00000000000E+00  0.00000000000E+00  0.18250000000E+03  0.18250000000E+03  0.00000000000E+00 0. -1.
         11   -1    0    0    0    0 -0.00000000000E+00 -0.00000000000E+00 -0.18250000000E+03  0.18250000000E+03  0.00000000000E+00 0. -1.
        -11    1    1    2    0    0 -0.28026122246E+01  0.59808113912E+01  0.15233500484E+03  0.15247812446E+03  0.00000000000E+00 0. -1.
         11    1    1    2    0    0  0.63284440311E+01 -0.14736932447E+01 -0.18064115515E+03  0.18075798159E+03  0.00000000000E+00 0. -1.
        -15    1    1    2    0    0 -0.41885921503E+01 -0.27964961757E+01  0.26156855535E+01  0.59467835825E+01  0.17770000000E+01 0.  1.
         15    1    1    2    0    0  0.66276034382E+00 -0.17106219708E+01  0.25690464758E+02  0.25817110359E+02  0.17770000000E+01 0. -1.
</event>
<event>
 6    1  0.1196607E-002  0.1826521E+03  0.7546771E-02  0.1068334E+00
        -11   -1    0    0    0    0  0.00000000000E+00  0.00000000000E+00  0.18250000000E+03  0.18250000000E+03  0.00000000000E+00 0.  1.
         11   -1    0    0    0    0 -0.00000000000E+00 -0.00000000000E+00 -0.18250000000E+03  0.18250000000E+03  0.00000000000E+00 0. -1.
        -11    1    1    2    0    0  0.31792165145E+00  0.25240537526E+01  0.18233012258E+03  0.18234786953E+03  0.00000000000E+00 0.  1.
         11    1    1    2    0    0 -0.10551225937E+01  0.52621010532E+00 -0.76663248025E+02  0.76672314289E+02  0.00000000000E+00 0. -1.
        -15    1    1    2    0    0  0.24799666128E+01  0.32250814046E+00 -0.22604044587E+02  0.22811286825E+02  0.17770000000E+01 0. -1.
         15    1    1    2    0    0 -0.17427656705E+01 -0.33727719984E+01 -0.83062829972E+02  0.83168529355E+02  0.17770000000E+01 0. -1.
</event>
<event>
 6    1  0.1196607E-002  0.1881774E+03  0.7546771E-02  0.1064023E+00
        -11   -1    0    0    0    0  0.00000000000E+00  0.00000000000E+00  0.18250000000E+03  0.18250000000E+03  0.00000000000E+00 0.  1.
         11   -1    0    0    0    0 -0.00000000000E+00 -0.00000000000E+00 -0.18250000000E+03  0.18250000000E+03  0.00000000000E+00 0. -1.
        -11    1    1    2    0    0  0.29250584400E+01  0.58710496628E+01  0.10634102831E+03  0.10654313442E+03  0.00000000000E+00 0.  1.
         11    1    1    2    0    0  0.77467998382E+01 -0.24934711531E+01 -0.17663522025E+03  0.17682259850E+03  0.00000000000E+00 0. -1.
        -15    1    1    2    0    0 -0.20212853398E+02  0.13609779911E+01  0.14934981855E+02  0.25231391471E+02  0.17770000000E+01 0. -1.
         15    1    1    2    0    0  0.95409951194E+01 -0.47385565008E+01  0.55359210090E+02  0.56402875604E+02  0.17770000000E+01 0.  1.
</event>
<event>
 6    1  0.1196607E-002  0.1850728E+03  0.7546771E-02  0.1066425E+00
        -11   -1    0    0    0    0  0.00000000000E+00  0.00000000000E+00  0.18250000000E+03  0.18250000000E+03  0.00000000000E+00 0.  1.
         11   -1    0    0    0    0 -0.00000000000E+00 -0.00000000000E+00 -0.18250000000E+03  0.18250000000E+03  0.00000000000E+00 0. -1.
        -11    1    1    2    0    0  0.70384439140E+01  0.59930038739E+01  0.17968953990E+03  0.17992717009E+03  0.00000000000E+00 0.  1.
         11    1    1    2    0    0 -0.32288562779E+01  0.10990108626E+01 -0.16558346710E+03  0.16561859169E+03  0.00000000000E+00 0. -1.
        -15    1    1    2    0    0  0.31166484922E+01 -0.24619872517E+01 -0.75137451195E+01  0.86826824065E+01  0.17770000000E+01 0. -1.
         15    1    1    2    0    0 -0.69262361283E+01 -0.46300274848E+01 -0.65923276765E+01  0.10771555812E+02  0.17770000000E+01 0.  1.
</event>
<event>
 6    1  0.1196607E-002  0.1868181E+03  0.7546771E-02  0.1065069E+00
        -11   -1    0    0    0    0  0.00000000000E+00  0.00000000000E+00  0.18250000000E+03  0.18250000000E+03  0.00000000000E+00 0. -1.
         11   -1    0    0    0    0 -0.00000000000E+00 -0.00000000000E+00 -0.18250000000E+03  0.18250000000E+03  0.00000000000E+00 0.  1.
        -11    1    1    2    0    0 -0.34781083295E+01  0.22071460477E+01  0.17813425172E+03  0.17818187440E+03  0.00000000000E+00 0. -1.
         11    1    1    2    0    0  0.49817004897E+01 -0.43135338340E+01 -0.16913586019E+03  0.16926418143E+03  0.00000000000E+00 0.  1.
        -15    1    1    2    0    0  0.53871088202E+01 -0.10653059087E+01 -0.16290067417E+00  0.57740872655E+01  0.17770000000E+01 0.  1.
         15    1    1    2    0    0 -0.68907009805E+01  0.31716936949E+01 -0.88354908519E+01  0.11779856896E+02  0.17770000000E+01 0.  1.
</event>
<event>
 6    1  0.1196607E-002  0.1723634E+03  0.7546771E-02  0.1076823E+00
        -11   -1    0    0    0    0  0.00000000000E+00  0.00000000000E+00  0.18250000000E+03  0.18250000000E+03  0.00000000000E+00 0. -1.
         11   -1    0    0    0    0 -0.00000000000E+00 -0.00000000000E+00 -0.18250000000E+03  0.18250000000E+03  0.00000000000E+00 0.  1.
        -11    1    1    2    0    0 -0.10083704673E+02  0.10773672872E+01  0.16946782719E+03  0.16977098183E+03  0.00000000000E+00 0. -1.
         11    1    1    2    0    0 -0.14462107024E+01  0.36520071740E+01 -0.17518440799E+03  0.17522843800E+03  0.00000000000E+00 0.  1.
        -15    1    1    2    0    0  0.37859008022E+00  0.42752214642E+01  0.62746707457E+00  0.46874612475E+01  0.17770000000E+01 0. -1.
         15    1    1    2    0    0  0.11151325295E+02 -0.90045959254E+01  0.50891137288E+01  0.15313118923E+02  0.17770000000E+01 0.  1.
</event>
<event>
 6    1  0.1196607E-002  0.1829289E+03  0.7546771E-02  0.1068114E+00
        -11   -1    0    0    0    0  0.00000000000E+00  0.00000000000E+00  0.18250000000E+03  0.18250000000E+03  0.00000000000E+00 0. -1.
         11   -1    0    0    0    0 -0.00000000000E+00 -0.00000000000E+00 -0.18250000000E+03  0.18250000000E+03  0.00000000000E+00 0. -1.
        -11    1    1    2    0    0  0.87820791717E+01  0.21130145416E+01  0.18184689773E+03  0.18207109589E+03  0.00000000000E+00 0. -1.
         11    1    1    2    0    0 -0.76166149232E+00  0.11891225422E+01 -0.52317008183E+02  0.52336062958E+02  0.00000000000E+00 0. -1.
        -15    1    1    2    0    0  0.24632697308E-01 -0.72625461440E+01 -0.56033909622E+02  0.56530539886E+02  0.17770000000E+01 0.  1.
         15    1    1    2    0    0 -0.80450503767E+01  0.39604090601E+01 -0.73495979921E+02  0.74062301268E+02  0.17770000000E+01 0. -1.
</event>
<event>
 6    1  0.1196607E-002  0.1942532E+03  0.7546771E-02  0.1059466E+00
        -11   -1    0    0    0    0  0.00000000000E+00  0.00000000000E+00  0.18250000000E+03  0.18250000000E+03  0.00000000000E+00 0.  1.
         11   -1    0    0    0    0 -0.00000000000E+00 -0.00000000000E+00 -0.18250000000E+03  0.18250000000E+03  0.00000000000E+00 0. -1.
        -11    1    1    2    0    0  0.97986719775E+00  0.52188485446E+01  0.16515182523E+03  0.16523716863E+03  0.00000000000E+00 0.  1.
         11    1    1    2    0    0 -0.93432310162E+01 -0.47862440241E+01 -0.17042378731E+03  0.17074680489E+03  0.00000000000E+00 0. -1.
        -15    1    1    2    0    0  0.45491999743E+01 -0.46200064302E+01  0.15665230770E+02  0.17046901885E+02  0.17770000000E+01 0.  1.
         15    1    1    2    0    0  0.38141638442E+01  0.41874019097E+01 -0.10393268685E+02  0.11969124594E+02  0.17770000000E+01 0. -1.
</event>
<event>
 6    1  0.1196607E-002  0.1828809E+03  0.7546771E-02  0.1068152E+00
        -11   -1    0    0    0    0  0.00000000000E+00  0.00000000000E+00  0.18250000000E+03  0.18250000000E+03  0.00000000000E+00 0. -1.
         11   -1    0    0    0    0 -0.00000000000E+00 -0.00000000000E+00 -0.18250000000E+03  0.18250000000E+03  0.00000000000E+00 0. -1.
        -11    1    1    2    0    0 -0.46343842801E+00  0.62334059663E+01  0.18201185270E+03  0.18211914960E+03  0.00000000000E+00 0. -1.
         11    1    1    2    0    0  0.50681343084E+01 -0.91151021381E+00 -0.13868163487E+03  0.13877720521E+03  0.00000000000E+00 0. -1.
        -15    1    1    2    0    0 -0.24946907123E+01 -0.14981566249E+01 -0.21631642815E+02  0.21898713544E+02  0.17770000000E+01 0. -1.
         15    1    1    2    0    0 -0.21100051682E+01 -0.38237391276E+01 -0.21698575016E+02  0.22204931647E+02  0.17770000000E+01 0.  1.
</event>
<event>
 6    1  0.1196607E-002  0.1858620E+03  0.7546771E-02  0.1065810E+00
        -11   -1    0    0    0    0  0.00000000000E+00  0.00000000000E+00  0.18250000000E+03  0.18250000000E+03  0.00000000000E+00 0.  1.
         11   -1    0    0    0    0 -0.00000000000E+00 -0.00000000000E+00 -0.18250000000E+03  0.18250000000E+03  0.00000000000E+00 0.  1.
        -11    1    1    2    0    0 -0.25286128030E+01 -0.29362290685E+01  0.17909610465E+03  0.17913801948E+03  0.00000000000E+00 0.  1.
         11    1    1    2    0    0 -0.52994698458E+01  0.42871831043E+01 -0.16489766238E+03  0.16503849059E+03  0.00000000000E+00 0.  1.
        -15    1    1    2    0    0  0.42918569151E+01 -0.29108299733E+01 -0.15446393610E+02  0.16390295039E+02  0.17770000000E+01 0.  1.
         15    1    1    2    0    0  0.35362257337E+01  0.15598759375E+01  0.12479513365E+01  0.44331948884E+01  0.17770000000E+01 0. -1.
</event>
<event>
 6    1  0.1196607E-002  0.1880018E+03  0.7546771E-02  0.1064158E+00
        -11   -1    0    0    0    0  0.00000000000E+00  0.00000000000E+00  0.18250000000E+03  0.18250000000E+03  0.00000000000E+00 0.  1.
         11   -1    0    0    0    0 -0.00000000000E+00 -0.00000000000E+00 -0.18250000000E+03  0.18250000000E+03  0.00000000000E+00 0.  1.
        -11    1    1    2    0    0 -0.38560261433E+01  0.26224948701E+01  0.17693680101E+03  0.17699824284E+03  0.00000000000E+00 0.  1.
         11    1    1    2    0    0 -0.57559631195E+01  0.11332980564E+01 -0.16923002076E+03  0.16933167277E+03  0.00000000000E+00 0.  1.
        -15    1    1    2    0    0  0.81159144478E+01  0.29496333035E+01 -0.94280643586E+00  0.88665109781E+01  0.17770000000E+01 0.  1.
         15    1    1    2    0    0  0.14960748149E+01 -0.67054262300E+01 -0.67639738127E+01  0.98035734055E+01  0.17770000000E+01 0. -1.
</event>
<event>
 6    1  0.1196607E-002  0.1910686E+03  0.7546771E-02  0.1061832E+00
        -11   -1    0    0    0    0  0.00000000000E+00  0.00000000000E+00  0.18250000000E+03  0.18250000000E+03  0.00000000000E+00 0. -1.
         11   -1    0    0    0    0 -0.00000000000E+00 -0.00000000000E+00 -0.18250000000E+03  0.18250000000E+03  0.00000000000E+00 0. -1.
        -11    1    1    2    0    0  0.96135217486E+01  0.22885932005E+02  0.17215097053E+03  0.17393142999E+03  0.00000000000E+00 0. -1.
         11    1    1    2    0    0  0.11263997209E+01 -0.14031980217E+02 -0.14337827074E+03  0.14406767078E+03  0.00000000000E+00 0. -1.
        -15    1    1    2    0    0 -0.27108629202E+01  0.86955872481E+01 -0.25768735842E+02  0.27388820553E+02  0.17770000000E+01 0. -1.
         15    1    1    2    0    0 -0.80290585493E+01 -0.17549539036E+02 -0.30039639512E+01  0.19612078676E+02  0.17770000000E+01 0.  1.
</event>
<event>
 6    1  0.1196607E-002  0.1829141E+03  0.7546771E-02  0.1068126E+00
        -11   -1    0    0    0    0  0.00000000000E+00  0.00000000000E+00  0.18250000000E+03  0.18250000000E+03  0.00000000000E+00 0. -1.
         11   -1    0    0    0    0 -0.00000000000E+00 -0.00000000000E+00 -0.18250000000E+03  0.18250000000E+03  0.00000000000E+00 0.  1.
        -11    1    1    2    0    0  0.13454576234E+01  0.27152939336E+01  0.18206070660E+03  0.18208592467E+03  0.00000000000E+00 0. -1.
         11    1    1    2    0    0  0.72543171917E+00  0.64457525608E+00 -0.55369923903E+02  0.55378427221E+02  0.00000000000E+00 0.  1.
        -15    1    1    2    0    0  0.26036657833E+01 -0.73089729737E+01 -0.56806469486E+02  0.57361423150E+02  0.17770000000E+01 0. -1.
         15    1    1    2    0    0 -0.46745551259E+01  0.39491037840E+01 -0.69884313209E+02  0.70174224955E+02  0.17770000000E+01 0.  1.
</event>
<event>
 6    1  0.1196607E-002  0.1866437E+03  0.7546771E-02  0.1065203E+00
        -11   -1    0    0    0    0  0.00000000000E+00  0.00000000000E+00  0.18250000000E+03  0.18250000000E+03  0.00000000000E+00 0.  1.
         11   -1    0    0    0    0 -0.00000000000E+00 -0.00000000000E+00 -0.18250000000E+03  0.18250000000E+03  0.00000000000E+00 0.  1.
        -11    1    1    2    0    0 -0.32887707027E+01 -0.25935838693E+00  0.17832581462E+03  0.17835632717E+03  0.00000000000E+00 0.  1.
         11    1    1    2    0    0  0.49777370275E+00  0.61027523476E+01 -0.16678975847E+03  0.16690211172E+03  0.00000000000E+00 0.  1.
        -15    1    1    2    0    0  0.21693354971E+01  0.36085540693E+01  0.17665153506E+00  0.45734684578E+01  0.17770000000E+01 0. -1.
         15    1    1    2    0    0  0.62166150288E+00 -0.94519480300E+01 -0.11712707688E+02  0.15168092661E+02  0.17770000000E+01 0.  1.
</event>
<event>
 6    1  0.1261730E-002  0.1210766E+03  0.7546771E-02  0.1131664E+00
        -11   -1    0    0    0    0  0.00000000000E+00  0.00000000000E+00  0.18250000000E+03  0.18250000000E+03  0.00000000000E+00 0.  1.
         11   -1    0    0    0    0 -0.00000000000E+00 -0.00000000000E+00 -0.18250000000E+03  0.18250000000E+03  0.00000000000E+00 0.  1.
        -11    1    1    2    0    0  0.43399533274E+02 -0.36183230176E+02  0.13495102491E+03  0.14630285287E+03  0.00000000000E+00 0.  1.
         11    1    1    2    0    0  0.86137115202E+01  0.11055289129E+02 -0.55884900037E+02  0.57615427587E+02  0.00000000000E+00 0.  1.
        -15    1    1    2    0    0 -0.41153534622E+02  0.31815291067E+02  0.23928774435E+02  0.57284990465E+02  0.17770000000E+01 0.  1.
         15    1    1    2    0    0 -0.10859710172E+02 -0.66873500200E+01 -0.10299489931E+03  0.10379672908E+03  0.17770000000E+01 0. -1.
</event>
<event>
 6    1  0.1196607E-002  0.1865806E+03  0.7546771E-02  0.1065252E+00
        -11   -1    0    0    0    0  0.00000000000E+00  0.00000000000E+00  0.18250000000E+03  0.18250000000E+03  0.00000000000E+00 0.  1.
         11   -1    0    0    0    0 -0.00000000000E+00 -0.00000000000E+00 -0.18250000000E+03  0.18250000000E+03  0.00000000000E+00 0. -1.
        -11    1    1    2    0    0 -0.70455600205E+00  0.82395490411E+01  0.15043562271E+03  0.15066274638E+03  0.00000000000E+00 0.  1.
         11    1    1    2    0    0  0.34619562381E+01 -0.46014819829E+01 -0.17832649822E+03  0.17841944609E+03  0.00000000000E+00 0. -1.
        -15    1    1    2    0    0  0.29916349835E+00 -0.49975026037E+01  0.30728849227E+02  0.31184682697E+02  0.17770000000E+01 0.  1.
         15    1    1    2    0    0 -0.30565637344E+01  0.13594355456E+01 -0.28379737139E+01  0.47331248311E+01  0.17770000000E+01 0. -1.
</event>
<event>
 6    1  0.1196607E-002  0.1836006E+03  0.7546771E-02  0.1067582E+00
        -11   -1    0    0    0    0  0.00000000000E+00  0.00000000000E+00  0.18250000000E+03  0.18250000000E+03  0.00000000000E+00 0.  1.
         11   -1    0    0    0    0 -0.00000000000E+00 -0.00000000000E+00 -0.18250000000E+03  0.18250000000E+03  0.00000000000E+00 0.  1.
        -11    1    1    2    0    0  0.20596148954E+01  0.18059390725E+01  0.18137868027E+03  0.18139936352E+03  0.00000000000E+00 0.  1.
         11    1    1    2    0    0  0.58853494334E+00  0.21755405941E+01 -0.14353624667E+03  0.14355393919E+03  0.00000000000E+00 0.  1.
        -15    1    1    2    0    0 -0.93880682829E+00 -0.42042543074E+01 -0.40800873198E+01  0.61937027761E+01  0.17770000000E+01 0.  1.
         15    1    1    2    0    0 -0.17093430105E+01  0.22277464080E+00 -0.33762346280E+02  0.33852994511E+02  0.17770000000E+01 0.  1.
</event>
<event>
 6    1  0.1196607E-002  0.1905688E+03  0.7546771E-02  0.1062208E+00
        -11   -1    0    0    0    0  0.00000000000E+00  0.00000000000E+00  0.18250000000E+03  0.18250000000E+03  0.00000000000E+00 0. -1.
         11   -1    0    0    0    0 -0.00000000000E+00 -0.00000000000E+00 -0.18250000000E+03  0.18250000000E+03  0.00000000000E+00 0.  1.
        -11    1    1    2    0    0  0.35913469869E+01  0.37929575973E+01  0.17435298308E+03  0.17443120997E+03  0.00000000000E+00 0. -1.
         11    1    1    2    0    0  0.11627169015E+00  0.22942733385E+01 -0.16704148610E+03  0.16705728146E+03  0.00000000000E+00 0.  1.
        -15    1    1    2    0    0 -0.43331191731E+01  0.44529987453E+01 -0.10508994816E+02  0.12337010198E+02  0.17770000000E+01 0.  1.
         15    1    1    2    0    0  0.62550049608E+00 -0.10540229681E+02  0.31974978326E+01  0.11174498378E+02  0.17770000000E+01 0. -1.
</event>
<event>
 6    1  0.1196607E-002  0.1860989E+03  0.7546771E-02  0.1065626E+00
        -11   -1    0    0    0    0  0.00000000000E+00  0.00000000000E+00  0.18250000000E+03  0.18250000000E+03  0.00000000000E+00 0.  1.
         11   -1    0    0    0    0 -0.00000000000E+00 -0.00000000000E+00 -0.18250000000E+03  0.18250000000E+03  0.00000000000E+00 0. -1.
        -11    1    1    2    0    0  0.30918758961E+01 -0.41902778533E+01  0.17882530528E+03  0.17890111217E+03  0.00000000000E+00 0.  1.
         11    1    1    2    0    0 -0.12856481130E+01  0.29900212591E+01 -0.11165719704E+03  0.11170462286E+03  0.00000000000E+00 0. -1.
        -15    1    1    2    0    0 -0.12350007246E+01  0.51033594282E+01  0.13778605771E+01  0.57118939952E+01  0.17770000000E+01 0.  1.
         15    1    1    2    0    0 -0.57122705836E+00 -0.39031028340E+01 -0.68545968825E+02  0.68682370978E+02  0.17770000000E+01 0. -1.
</event>
<event>
 6    1  0.1196607E-002  0.1859101E+03  0.7546771E-02  0.1065772E+00
        -11   -1    0    0    0    0  0.00000000000E+00  0.00000000000E+00  0.18250000000E+03  0.18250000000E+03  0.00000000000E+00 0. -1.
         11   -1    0    0    0    0 -0.00000000000E+00 -0.00000000000E+00 -0.18250000000E+03  0.18250000000E+03  0.00000000000E+00 0.  1.
        -11    1    1    2    0    0 -0.37487862600E+01  0.12997995959E+01  0.17904597081E+03  0.17908992864E+03  0.00000000000E+00 0. -1.
         11    1    1    2    0    0  0.16187479634E+00 -0.11199196457E+01 -0.64025086876E+02  0.64035085484E+02  0.00000000000E+00 0.  1.
        -15    1    1    2    0    0  0.48784110746E+01  0.18393554112E+02 -0.37011481648E+02  0.41654882430E+02  0.17770000000E+01 0. -1.
         15    1    1    2    0    0 -0.12914996109E+01 -0.18573434062E+02 -0.78009402281E+02  0.80220103449E+02  0.17770000000E+01 0.  1.
</event>
<event>
 6    1  0.1196607E-002  0.1843561E+03  0.7546771E-02  0.1066987E+00
        -11   -1    0    0    0    0  0.00000000000E+00  0.00000000000E+00  0.18250000000E+03  0.18250000000E+03  0.00000000000E+00 0.  1.
         11   -1    0    0    0    0 -0.00000000000E+00 -0.00000000000E+00 -0.18250000000E+03  0.18250000000E+03  0.00000000000E+00 0. -1.
        -11    1    1    2    0    0  0.29387608735E+01  0.76324795382E+00  0.18061834936E+03  0.18064386784E+03  0.00000000000E+00 0.  1.
         11    1    1    2    0    0 -0.26120853068E+01  0.79872619874E-01 -0.17727023856E+03  0.17728950010E+03  0.00000000000E+00 0. -1.
        -15    1    1    2    0    0 -0.79286037456E+00 -0.26453194374E+01 -0.30395247031E+01  0.44746823261E+01  0.17770000000E+01 0.  1.
         15    1    1    2    0    0  0.46618480781E+00  0.18021988637E+01 -0.30858610039E+00  0.25919497296E+01  0.17770000000E+01 0. -1.
</event>
<event>
 6    1  0.1196607E-002  0.1880442E+03  0.7546771E-02  0.1064125E+00
        -11   -1    0    0    0    0  0.00000000000E+00  0.00000000000E+00  0.18250000000E+03  0.18250000000E+03  0.00000000000E+00 0.  1.
         11   -1    0    0    0    0 -0.00000000000E+00 -0.00000000000E+00 -0.18250000000E+03  0.18250000000E+03  0.00000000000E+00 0. -1.
        -11    1    1    2    0    0 -0.14779205316E+01  0.21211822020E+01  0.17104139452E+03  0.17106093155E+03  0.00000000000E+00 0.  1.
         11    1    1    2    0    0 -0.28349325477E+01  0.10956838794E+01 -0.17692968896E+03  0.17695579165E+03  0.00000000000E+00 0. -1.
        -15    1    1    2    0    0  0.35704058794E+00 -0.18906470621E+01  0.10317221309E+02  0.10644473159E+02  0.17770000000E+01 0. -1.
         15    1    1    2    0    0  0.39558124913E+01 -0.13262190193E+01 -0.44289268717E+01  0.63388036402E+01  0.17770000000E+01 0. -1.
</event>
<event>
 6    1  0.1196607E-002  0.1836726E+03  0.7546771E-02  0.1067525E+00
        -11   -1    0    0    0    0  0.00000000000E+00  0.00000000000E+00  0.18250000000E+03  0.18250000000E+03  0.00000000000E+00 0. -1.
         11   -1    0    0    0    0 -0.00000000000E+00 -0.00000000000E+00 -0.18250000000E+03  0.18250000000E+03  0.00000000000E+00 0.  1.
        -11    1    1    2    0    0 -0.17178581626E+01  0.16977970085E+01  0.90510395586E+02  0.90542615715E+02  0.00000000000E+00 0. -1.
         11    1    1    2    0    0 -0.35517985364E+01  0.19993890790E+00 -0.18129252287E+03  0.18132742235E+03  0.00000000000E+00 0.  1.
        -15    1    1    2    0    0  0.62004648703E+00 -0.29202107696E+01  0.86253111341E+02  0.86323050419E+02  0.17770000000E+01 0. -1.
         15    1    1    2    0    0  0.46496102119E+01  0.10224748532E+01  0.45290159422E+01  0.68069115135E+01  0.17770000000E+01 0. -1.
</event>
<event>
 6    1  0.1196607E-002  0.1832831E+03  0.7546771E-02  0.1067833E+00
        -11   -1    0    0    0    0  0.00000000000E+00  0.00000000000E+00  0.18250000000E+03  0.18250000000E+03  0.00000000000E+00 0. -1.
         11   -1    0    0    0    0 -0.00000000000E+00 -0.00000000000E+00 -0.18250000000E+03  0.18250000000E+03  0.00000000000E+00 0.  1.
        -11    1    1    2    0    0  0.62921922653E+01 -0.53465169258E+01  0.18152922517E+03  0.18171691313E+03  0.00000000000E+00 0. -1.
         11    1    1    2    0    0  0.23387757648E+01 -0.31267494432E+01 -0.11961132266E+03  0.11967503893E+03  0.00000000000E+00 0.  1.
        -15    1    1    2    0    0  0.70591022133E+00  0.29891766981E+01 -0.17351691555E+02  0.17710799400E+02  0.17770000000E+01 0. -1.
         15    1    1    2    0    0 -0.93368782514E+01  0.54840896709E+01 -0.44566210956E+02  0.45897248534E+02  0.17770000000E+01 0.  1.
</event>
<event>
 6    1  0.1196607E-002  0.1827058E+03  0.7546771E-02  0.1068291E+00
        -11   -1    0    0    0    0  0.00000000000E+00  0.00000000000E+00  0.18250000000E+03  0.18250000000E+03  0.00000000000E+00 0. -1.
         11   -1    0    0    0    0 -0.00000000000E+00 -0.00000000000E+00 -0.18250000000E+03  0.18250000000E+03  0.00000000000E+00 0.  1.
        -11    1    1    2    0    0  0.51650385801E+01 -0.30133945214E+01  0.18219611236E+03  0.18229421694E+03  0.00000000000E+00 0. -1.
         11    1    1    2    0    0  0.27747201059E+00 -0.51503543282E+00 -0.26159383697E+02  0.26165924552E+02  0.00000000000E+00 0.  1.
        -15    1    1    2    0    0 -0.76620433745E+01  0.10992594977E+01 -0.75545293041E+02  0.75961597599E+02  0.17770000000E+01 0.  1.
         15    1    1    2    0    0  0.22195327838E+01  0.24291704565E+01 -0.80491435619E+02  0.80578260914E+02  0.17770000000E+01 0.  1.
</event>
<event>
 6    1  0.1196607E-002  0.1831128E+03  0.7546771E-02  0.1067968E+00
        -11   -1    0    0    0    0  0.00000000000E+00  0.00000000000E+00  0.18250000000E+03  0.18250000000E+03  0.00000000000E+00 0. -1.
         11   -1    0    0    0    0 -0.00000000000E+00 -0.00000000000E+00 -0.18250000000E+03  0.18250000000E+03  0.00000000000E+00 0.  1.
        -11    1    1    2    0    0  0.14187380571E+01 -0.39067946810E+01  0.54509613577E+02  0.54667850101E+02  0.00000000000E+00 0. -1.
         11    1    1    2    0    0  0.31782648008E+01 -0.13546487406E+02 -0.18135415911E+03  0.18188716204E+03  0.00000000000E+00 0.  1.
        -15    1    1    2    0    0 -0.14143679356E+01  0.15578007693E+02  0.10930104263E+03  0.11042893828E+03  0.17770000000E+01 0. -1.
         15    1    1    2    0    0 -0.31826349223E+01  0.18752743944E+01  0.17543502910E+02  0.18016049580E+02  0.17770000000E+01 0.  1.
</event>
<event>
 6    1  0.1196607E-002  0.1868977E+03  0.7546771E-02  0.1065007E+00
        -11   -1    0    0    0    0  0.00000000000E+00  0.00000000000E+00  0.18250000000E+03  0.18250000000E+03  0.00000000000E+00 0. -1.
         11   -1    0    0    0    0 -0.00000000000E+00 -0.00000000000E+00 -0.18250000000E+03  0.18250000000E+03  0.00000000000E+00 0. -1.
        -11    1    1    2    0    0  0.55461802846E+01  0.46218280404E-01  0.11567580560E+03  0.11580869679E+03  0.00000000000E+00 0. -1.
         11    1    1    2    0    0 -0.10872042716E+02  0.72721372003E+01 -0.17762133939E+03  0.17810228943E+03  0.00000000000E+00 0. -1.
        -15    1    1    2    0    0 -0.11155993164E+01  0.71270543789E+00 -0.38645785358E+01  0.44547959701E+01  0.17770000000E+01 0.  1.
         15    1    1    2    0    0  0.64414617483E+01 -0.80310609185E+01  0.65810112330E+02  0.66634217808E+02  0.17770000000E+01 0. -1.
</event>
<event>
 6    1  0.1196607E-002  0.1833228E+03  0.7546771E-02  0.1067802E+00
        -11   -1    0    0    0    0  0.00000000000E+00  0.00000000000E+00  0.18250000000E+03  0.18250000000E+03  0.00000000000E+00 0. -1.
         11   -1    0    0    0    0 -0.00000000000E+00 -0.00000000000E+00 -0.18250000000E+03  0.18250000000E+03  0.00000000000E+00 0. -1.
        -11    1    1    2    0    0 -0.32119418642E+01 -0.77603429003E+01  0.18148294401E+03  0.18167718200E+03  0.00000000000E+00 0. -1.
         11    1    1    2    0    0 -0.38521549826E+01  0.20714889308E+01 -0.87738682486E+02  0.87847632688E+02  0.00000000000E+00 0. -1.
        -15    1    1    2    0    0  0.64389263156E+01  0.49551843422E+01 -0.19451912556E+02  0.21155336326E+02  0.17770000000E+01 0. -1.
         15    1    1    2    0    0  0.62517053117E+00  0.73366962725E+00 -0.74292348968E+02  0.74319848987E+02  0.17770000000E+01 0.  1.
</event>
<event>
 6    1  0.1196607E-002  0.1826782E+03  0.7546771E-02  0.1068313E+00
        -11   -1    0    0    0    0  0.00000000000E+00  0.00000000000E+00  0.18250000000E+03  0.18250000000E+03  0.00000000000E+00 0. -1.
         11   -1    0    0    0    0 -0.00000000000E+00 -0.00000000000E+00 -0.18250000000E+03  0.18250000000E+03  0.00000000000E+00 0.  1.
        -11    1    1    2    0    0 -0.26998755862E+00  0.88531140706E+00  0.57011161624E+02  0.57018674304E+02  0.00000000000E+00 0. -1.
         11    1    1    2    0    0  0.24686303531E+01  0.21397490523E+01 -0.18229255361E+03  0.18232182470E+03  0.00000000000E+00 0.  1.
        -15    1    1    2    0    0 -0.37534313233E+01 -0.24172539646E+01  0.11470974548E+03  0.11481034274E+03  0.17770000000E+01 0. -1.
         15    1    1    2    0    0  0.15547885288E+01 -0.60780649482E+00  0.10571646503E+02  0.10849158257E+02  0.17770000000E+01 0. -1.
</event>
<event>
 6    1  0.1196607E-002  0.1849760E+03  0.7546771E-02  0.1066501E+00
        -11   -1    0    0    0    0  0.00000000000E+00  0.00000000000E+00  0.18250000000E+03  0.18250000000E+03  0.00000000000E+00 0. -1.
         11   -1    0    0    0    0 -0.00000000000E+00 -0.00000000000E+00 -0.18250000000E+03  0.18250000000E+03  0.00000000000E+00 0. -1.
        -11    1    1    2    0    0  0.23449640014E+00 -0.30786668938E+01  0.17088301284E+03  0.17091090444E+03  0.00000000000E+00 0. -1.
         11    1    1    2    0    0  0.44030843794E+01  0.83791938525E-01 -0.17997012116E+03  0.18002399475E+03  0.00000000000E+00 0. -1.
        -15    1    1    2    0    0 -0.29394575154E+01 -0.14270595412E+01  0.80963632372E+01  0.89098673440E+01  0.17770000000E+01 0. -1.
         15    1    1    2    0    0 -0.16981232642E+01  0.44219344964E+01  0.99074508028E+00  0.51552334695E+01  0.17770000000E+01 0.  1.
</event>
<event>
 6    1  0.1196607E-002  0.1834242E+03  0.7546771E-02  0.1067721E+00
        -11   -1    0    0    0    0  0.00000000000E+00  0.00000000000E+00  0.18250000000E+03  0.18250000000E+03  0.00000000000E+00 0.  1.
         11   -1    0    0    0    0 -0.00000000000E+00 -0.00000000000E+00 -0.18250000000E+03  0.18250000000E+03  0.00000000000E+00 0.  1.
        -11    1    1    2    0    0 -0.21681557567E+01  0.27999554448E+01  0.15049709822E+03  0.15053875655E+03  0.00000000000E+00 0.  1.
         11    1    1    2    0    0 -0.44863565036E+01  0.92780131720E+00 -0.18151795413E+03  0.18157575797E+03  0.00000000000E+00 0.  1.
        -15    1    1    2    0    0  0.68523329594E+01 -0.30037726782E+01  0.16119784673E+02  0.17860075705E+02  0.17770000000E+01 0.  1.
         15    1    1    2    0    0 -0.19782069910E+00 -0.72398408378E+00  0.14901071238E+02  0.15025409779E+02  0.17770000000E+01 0. -1.
</event>
<event>
 6    1  0.1196607E-002  0.1831594E+03  0.7546771E-02  0.1067931E+00
        -11   -1    0    0    0    0  0.00000000000E+00  0.00000000000E+00  0.18250000000E+03  0.18250000000E+03  0.00000000000E+00 0.  1.
         11   -1    0    0    0    0 -0.00000000000E+00 -0.00000000000E+00 -0.18250000000E+03  0.18250000000E+03  0.00000000000E+00 0.  1.
        -11    1    1    2    0    0  0.21336572390E+01  0.25347080860E+01  0.10120514691E+03  0.10125936500E+03  0.00000000000E+00 0.  1.
         11    1    1    2    0    0  0.25200697568E+01 -0.58642207909E+00 -0.18182218230E+03  0.18184059123E+03  0.00000000000E+00 0.  1.
        -15    1    1    2    0    0  0.65590702386E+00 -0.54589312563E+01  0.59331081827E+02  0.59611786957E+02  0.17770000000E+01 0.  1.
         15    1    1    2    0    0 -0.53096340196E+01  0.35106452494E+01  0.21285953564E+02  0.22288256809E+02  0.17770000000E+01 0. -1.
</event>
<event>
 6    1  0.1196607E-002  0.2000509E+03  0.7546771E-02  0.1055284E+00
        -11   -1    0    0    0    0  0.00000000000E+00  0.00000000000E+00  0.18250000000E+03  0.18250000000E+03  0.00000000000E+00 0.  1.
         11   -1    0    0    0    0 -0.00000000000E+00 -0.00000000000E+00 -0.18250000000E+03  0.18250000000E+03  0.00000000000E+00 0.  1.
        -11    1    1    2    0    0  0.30359027935E+01  0.34423135198E+01  0.11166415420E+03  0.11175844291E+03  0.00000000000E+00 0.  1.
         11    1    1    2    0    0 -0.56213623492E+00 -0.26085405000E+02 -0.16287249421E+03  0.16494912465E+03  0.00000000000E+00 0.  1.
        -15    1    1    2    0    0 -0.18587636228E+01  0.45901349987E+02  0.22167861693E+02  0.51038816149E+02  0.17770000000E+01 0.  1.
         15    1    1    2    0    0 -0.61500293579E+00 -0.23258258506E+02  0.29040478316E+02  0.37253616296E+02  0.17770000000E+01 0. -1.
</event>
<event>
 6    1  0.1196607E-002  0.1763580E+03  0.7546771E-02  0.1073452E+00
        -11   -1    0    0    0    0  0.00000000000E+00  0.00000000000E+00  0.18250000000E+03  0.18250000000E+03  0.00000000000E+00 0.  1.
         11   -1    0    0    0    0 -0.00000000000E+00 -0.00000000000E+00 -0.18250000000E+03  0.18250000000E+03  0.00000000000E+00 0.  1.
        -11    1    1    2    0    0 -0.32368005493E+01 -0.51211641931E+00  0.17482645319E+03  0.17485716421E+03  0.00000000000E+00 0.  1.
         11    1    1    2    0    0 -0.26830230351E+01 -0.58362674567E+01 -0.17786270941E+03  0.17797866172E+03  0.00000000000E+00 0.  1.
        -15    1    1    2    0    0  0.21673382086E+01  0.69465406232E+01  0.26744838437E+01  0.79537647922E+01  0.17770000000E+01 0.  1.
         15    1    1    2    0    0  0.37524853758E+01 -0.59815674715E+00  0.36177237171E+00  0.42104092721E+01  0.17770000000E+01 0. -1.
</event>
<event>
 6    1  0.1196607E-002  0.1875834E+03  0.7546771E-02  0.1064479E+00
        -11   -1    0    0    0    0  0.00000000000E+00  0.00000000000E+00  0.18250000000E+03  0.18250000000E+03  0.00000000000E+00 0.  1.
         11   -1    0    0    0    0 -0.00000000000E+00 -0.00000000000E+00 -0.18250000000E+03  0.18250000000E+03  0.00000000000E+00 0. -1.
        -11    1    1    2    0    0  0.18634670779E+01 -0.69288270638E+01  0.12246974427E+03  0.12267974330E+03  0.00000000000E+00 0.  1.
         11    1    1    2    0    0 -0.52730131964E+01  0.53222310278E+00 -0.17733738470E+03  0.17741656051E+03  0.00000000000E+00 0. -1.
        -15    1    1    2    0    0 -0.53840037597E+01  0.90176835417E+00 -0.27272878399E+01  0.63558249355E+01  0.17770000000E+01 0.  1.
         15    1    1    2    0    0  0.87935498783E+01  0.54948356068E+01  0.57594928268E+02  0.58547871260E+02  0.17770000000E+01 0. -1.
</event>
<event>
 6    1  0.1196607E-002  0.1826719E+03  0.7546771E-02  0.1068318E+00
        -11   -1    0    0    0    0  0.00000000000E+00  0.00000000000E+00  0.18250000000E+03  0.18250000000E+03  0.00000000000E+00 0. -1.
         11   -1    0    0    0    0 -0.00000000000E+00 -0.00000000000E+00 -0.18250000000E+03  0.18250000000E+03  0.00000000000E+00 0. -1.
        -11    1    1    2    0    0  0.20301947377E+01  0.16789804850E+01  0.18230910190E+03  0.18232813634E+03  0.00000000000E+00 0. -1.
         11    1    1    2    0    0 -0.41146002114E+00 -0.15886273530E+01 -0.64289926980E+02  0.64310868034E+02  0.00000000000E+00 0. -1.
        -15    1    1    2    0    0  0.22808393902E+01 -0.32564589189E+00 -0.86735975119E+02  0.86784764691E+02  0.17770000000E+01 0. -1.
         15    1    1    2    0    0 -0.38995741068E+01  0.23529275990E+00 -0.31283199803E+02  0.31576230931E+02  0.17770000000E+01 0.  1.
</event>
<event>
 6    1  0.1196607E-002  0.1831578E+03  0.7546771E-02  0.1067932E+00
        -11   -1    0    0    0    0  0.00000000000E+00  0.00000000000E+00  0.18250000000E+03  0.18250000000E+03  0.00000000000E+00 0. -1.
         11   -1    0    0    0    0 -0.00000000000E+00 -0.00000000000E+00 -0.18250000000E+03  0.18250000000E+03  0.00000000000E+00 0. -1.
        -11    1    1    2    0    0 -0.27271222584E+01  0.65236134660E-01  0.18182169167E+03  0.18184215412E+03  0.00000000000E+00 0. -1.
         11    1    1    2    0    0 -0.17271459470E+01  0.47656776287E+01 -0.13683144645E+03  0.13692530611E+03  0.00000000000E+00 0. -1.
        -15    1    1    2    0    0  0.12455225424E+01 -0.50017331385E+01 -0.37460473842E+02  0.37855164645E+02  0.17770000000E+01 0.  1.
         15    1    1    2    0    0  0.32087456629E+01  0.17081937511E+00 -0.75297713822E+01  0.83773751292E+01  0.17770000000E+01 0. -1.
</event>
<event>
 6    1  0.1196607E-002  0.1836632E+03  0.7546771E-02  0.1067533E+00
        -11   -1    0    0    0    0  0.00000000000E+00  0.00000000000E+00  0.18250000000E+03  0.18250000000E+03  0.00000000000E+00 0.  1.
         11   -1    0    0    0    0 -0.00000000000E+00 -0.00000000000E+00 -0.18250000000E+03  0.18250000000E+03  0.00000000000E+00 0. -1.
        -11    1    1    2    0    0 -0.20868068745E+01 -0.13452757035E+01  0.17141124357E+03  0.17142922432E+03  0.00000000000E+00 0.  1.
         11    1    1    2    0    0  0.12079434734E+01  0.24549150154E+01 -0.18131618768E+03  0.18133682927E+03  0.00000000000E+00 0. -1.
        -15    1    1    2    0    0 -0.37226476022E+00  0.24159574354E+01  0.45967206906E+01  0.55011818266E+01  0.17770000000E+01 0. -1.
         15    1    1    2    0    0  0.12511281613E+01 -0.35255967473E+01  0.53082234166E+01  0.67327645838E+01  0.17770000000E+01 0.  1.
</event>
<event>
 6    1  0.1196607E-002  0.1868619E+03  0.7546771E-02  0.1065035E+00
        -11   -1    0    0    0    0  0.00000000000E+00  0.00000000000E+00  0.18250000000E+03  0.18250000000E+03  0.00000000000E+00 0. -1.
         11   -1    0    0    0    0 -0.00000000000E+00 -0.00000000000E+00 -0.18250000000E+03  0.18250000000E+03  0.00000000000E+00 0.  1.
        -11    1    1    2    0    0  0.58822449976E+01  0.42383052826E+01  0.22382924453E+02  0.23527841910E+02  0.00000000000E+00 0. -1.
         11    1    1    2    0    0 -0.22556096240E+02 -0.18189769467E+02 -0.17576554746E+03  0.17813807247E+03  0.00000000000E+00 0.  1.
        -15    1    1    2    0    0  0.16244590003E+02  0.69978383789E+01  0.11288380273E+02  0.21058055574E+02  0.17770000000E+01 0.  1.
         15    1    1    2    0    0  0.42926123857E+00  0.69536258051E+01  0.14209424273E+03  0.14227603004E+03  0.17770000000E+01 0. -1.
</event>
<event>
 6    1  0.1196607E-002  0.1861396E+03  0.7546771E-02  0.1065594E+00
        -11   -1    0    0    0    0  0.00000000000E+00  0.00000000000E+00  0.18250000000E+03  0.18250000000E+03  0.00000000000E+00 0.  1.
         11   -1    0    0    0    0 -0.00000000000E+00 -0.00000000000E+00 -0.18250000000E+03  0.18250000000E+03  0.00000000000E+00 0.  1.
        -11    1    1    2    0    0 -0.30625945207E+01 -0.77876827299E+01  0.11825821893E+03  0.11855392795E+03  0.00000000000E+00 0.  1.
         11    1    1    2    0    0 -0.59756054709E+01 -0.82919358267E+01 -0.17856817902E+03  0.17886044454E+03  0.00000000000E+00 0.  1.
        -15    1    1    2    0    0  0.16371998329E+02  0.15709379816E+02  0.48357254896E+02  0.53445381218E+02  0.17770000000E+01 0. -1.
         15    1    1    2    0    0 -0.73337983372E+01  0.37023874063E+00  0.11952705196E+02  0.14140246295E+02  0.17770000000E+01 0.  1.
</event>
<event>
 6    1  0.1196607E-002  0.1722660E+03  0.7546771E-02  0.1076906E+00
        -11   -1    0    0    0    0  0.00000000000E+00  0.00000000000E+00  0.18250000000E+03  0.18250000000E+03  0.00000000000E+00 0.  1.
         11   -1    0    0    0    0 -0.00000000000E+00 -0.00000000000E+00 -0.18250000000E+03  0.18250000000E+03  0.00000000000E+00 0.  1.
        -11    1    1    2    0    0  0.21422207308E+01 -0.97466334788E+00  0.17273299909E+03  0.17274903199E+03  0.00000000000E+00 0.  1.
         11    1    1    2    0    0  0.31776970676E+01  0.11511842941E+01 -0.17179214475E+03  0.17182538806E+03  0.00000000000E+00 0.  1.
        -15    1    1    2    0    0 -0.39987575623E+01  0.90864249909E+01 -0.33044349461E+01  0.10612737652E+02  0.17770000000E+01 0. -1.
         15    1    1    2    0    0 -0.13211602361E+01 -0.92629459371E+01  0.23635806028E+01  0.98128423033E+01  0.17770000000E+01 0.  1.
</event>
<event>
 6    1  0.1196607E-002  0.1879683E+03  0.7546771E-02  0.1064183E+00
        -11   -1    0    0    0    0  0.00000000000E+00  0.00000000000E+00  0.18250000000E+03  0.18250000000E+03  0.00000000000E+00 0. -1.
         11   -1    0    0    0    0 -0.00000000000E+00 -0.00000000000E+00 -0.18250000000E+03  0.18250000000E+03  0.00000000000E+00 0. -1.
        -11    1    1    2    0    0 -0.52850636178E+01 -0.23233594604E+01  0.16431183857E+03  0.16441322998E+03  0.00000000000E+00 0. -1.
         11    1    1    2    0    0  0.26872870959E+01  0.25179495284E+01 -0.17699338765E+03  0.17703169449E+03  0.00000000000E+00 0. -1.
        -15    1    1    2    0    0 -0.35039790732E-01 -0.11917501108E+01  0.17537436881E+02  0.17667510223E+02  0.17770000000E+01 0. -1.
         15    1    1    2    0    0  0.26328163126E+01  0.99716004277E+00 -0.48558878075E+01  0.58875653106E+01  0.17770000000E+01 0.  1.
</event>
<event>
 6    1  0.1196607E-002  0.1852304E+03  0.7546771E-02  0.1066302E+00
        -11   -1    0    0    0    0  0.00000000000E+00  0.00000000000E+00  0.18250000000E+03  0.18250000000E+03  0.00000000000E+00 0.  1.
         11   -1    0    0    0    0 -0.00000000000E+00 -0.00000000000E+00 -0.18250000000E+03  0.18250000000E+03  0.00000000000E+00 0.  1.
        -11    1    1    2    0    0 -0.46548565965E+01  0.25248461601E+01  0.17969153877E+03  0.17976955149E+03  0.00000000000E+00 0.  1.
         11    1    1    2    0    0  0.22047818204E+01 -0.13427818376E+01 -0.17561301210E+03  0.17563198497E+03  0.00000000000E+00 0.  1.
        -15    1    1    2    0    0 -0.22325795566E+01 -0.48936996783E+00 -0.34493658329E+01  0.45033041304E+01  0.17770000000E+01 0. -1.
         15    1    1    2    0    0  0.46826543327E+01 -0.69269435469E+00 -0.62916084002E+00  0.50951594117E+01  0.17770000000E+01 0.  1.
</event>
<event>
 6    1  0.1196607E-002  0.1919344E+03  0.7546771E-02  0.1061184E+00
        -11   -1    0    0    0    0  0.00000000000E+00  0.00000000000E+00  0.18250000000E+03  0.18250000000E+03  0.00000000000E+00 0.  1.
         11   -1    0    0    0    0 -0.00000000000E+00 -0.00000000000E+00 -0.18250000000E+03  0.18250000000E+03  0.00000000000E+00 0.  1.
        -11    1    1    2    0    0  0.12004675987E+01  0.90071657060E+00  0.65106117603E+02  0.65123413317E+02  0.00000000000E+00 0.  1.
         11    1    1    2    0    0 -0.84496970910E+00  0.39750593313E+01 -0.17301789136E+03  0.17306561126E+03  0.00000000000E+00 0.  1.
        -15    1    1    2    0    0  0.11440269041E+02  0.32652064160E+01  0.11132339537E+03  0.11197141338E+03  0.17770000000E+01 0.  1.
         15    1    1    2    0    0 -0.11795766930E+02 -0.81409823178E+01 -0.34116216137E+01  0.14839562042E+02  0.17770000000E+01 0. -1.
</event>
<event>
 6    1  0.1196607E-002  0.1833394E+03  0.7546771E-02  0.1067789E+00
        -11   -1    0    0    0    0  0.00000000000E+00  0.00000000000E+00  0.18250000000E+03  0.18250000000E+03  0.00000000000E+00 0. -1.
         11   -1    0    0    0    0 -0.00000000000E+00 -0.00000000000E+00 -0.18250000000E+03  0.18250000000E+03  0.00000000000E+00 0. -1.
        -11    1    1    2    0    0  0.11064903908E+01  0.16221772555E+01  0.91454621463E+02  0.91475699325E+02  0.00000000000E+00 0. -1.
         11    1    1    2    0    0 -0.49097330979E+01 -0.31581697095E+01 -0.18156682090E+03  0.18166064507E+03  0.00000000000E+00 0. -1.
        -15    1    1    2    0    0  0.83506120135E+00 -0.22060914309E+01  0.83319329471E+02  0.83371653211E+02  0.17770000000E+01 0. -1.
         15    1    1    2    0    0  0.29681815058E+01  0.37420838850E+01  0.67928699676E+01  0.84920023935E+01  0.17770000000E+01 0.  1.
</event>
<event>
 6    1  0.1196607E-002  0.1831055E+03  0.7546771E-02  0.1067974E+00
        -11   -1    0    0    0    0  0.00000000000E+00  0.00000000000E+00  0.18250000000E+03  0.18250000000E+03  0.00000000000E+00 0. -1.
         11   -1    0    0    0    0 -0.00000000000E+00 -0.00000000000E+00 -0.18250000000E+03  0.18250000000E+03  0.00000000000E+00 0. -1.
        -11    1    1    2    0    0 -0.70258637695E+00 -0.32952577399E+01  0.16022482830E+03  0.16026025070E+03  0.00000000000E+00 0. -1.
         11    1    1    2    0    0 -0.29895429576E+01  0.42594849956E+01 -0.18182000320E+03  0.18189445881E+03  0.00000000000E+00 0. -1.
        -15    1    1    2    0    0  0.39488332377E+01  0.10793121364E+01  0.10264760591E+02  0.11192910150E+02  0.17770000000E+01 0.  1.
         15    1    1    2    0    0 -0.25670390313E+00 -0.20435393921E+01  0.11330414310E+02  0.11652380340E+02  0.17770000000E+01 0. -1.
</event>
<event>
 6    1  0.1196607E-002  0.1862766E+03  0.7546771E-02  0.1065488E+00
        -11   -1    0    0    0    0  0.00000000000E+00  0.00000000000E+00  0.18250000000E+03  0.18250000000E+03  0.00000000000E+00 0. -1.
         11   -1    0    0    0    0 -0.00000000000E+00 -0.00000000000E+00 -0.18250000000E+03  0.18250000000E+03  0.00000000000E+00 0. -1.
        -11    1    1    2    0    0 -0.54974647252E+01  0.13119024590E+01  0.17863397950E+03  0.17872336679E+03  0.00000000000E+00 0. -1.
         11    1    1    2    0    0  0.15137949370E+01  0.18379255691E+01 -0.16756008560E+03  0.16757700270E+03  0.00000000000E+00 0. -1.
        -15    1    1    2    0    0  0.31575898367E+01 -0.12518507620E+01  0.26802801674E+01  0.46775137288E+01  0.17770000000E+01 0.  1.
         15    1    1    2    0    0  0.82607995143E+00 -0.18979772661E+01 -0.13754174066E+02  0.14022116781E+02  0.17770000000E+01 0. -1.
</event>
<event>
 6    1  0.1196607E-002  0.1845012E+03  0.7546771E-02  0.1066873E+00
        -11   -1    0    0    0    0  0.00000000000E+00  0.00000000000E+00  0.18250000000E+03  0.18250000000E+03  0.00000000000E+00 0.  1.
         11   -1    0    0    0    0 -0.00000000000E+00 -0.00000000000E+00 -0.18250000000E+03  0.18250000000E+03  0.00000000000E+00 0. -1.
        -11    1    1    2    0    0 -0.51191081776E+00  0.55153296343E+01  0.18041379671E+03  0.18049880597E+03  0.00000000000E+00 0.  1.
         11    1    1    2    0    0 -0.25760699553E+01  0.23609938570E+00 -0.17009137881E+03  0.17011104909E+03  0.00000000000E+00 0. -1.
        -15    1    1    2    0    0  0.36025381022E+01 -0.48001487024E+01 -0.33198379497E+01  0.70851084222E+01  0.17770000000E+01 0.  1.
         15    1    1    2    0    0 -0.51455732918E+00 -0.95128031761E+00 -0.70025799540E+01  0.73050365160E+01  0.17770000000E+01 0. -1.
</event>
<event>
 6    1  0.1196607E-002  0.1916505E+03  0.7546771E-02  0.1061396E+00
        -11   -1    0    0    0    0  0.00000000000E+00  0.00000000000E+00  0.18250000000E+03  0.18250000000E+03  0.00000000000E+00 0.  1.
         11   -1    0    0    0    0 -0.00000000000E+00 -0.00000000000E+00 -0.18250000000E+03  0.18250000000E+03  0.00000000000E+00 0. -1.
        -11    1    1    2    0    0 -0.18567637553E+01  0.45590442395E+01  0.14864514935E+03  0.14872663811E+03  0.00000000000E+00 0.  1.
         11    1    1    2    0    0 -0.41693467501E+01  0.65484222932E+00 -0.17329814354E+03  0.17334952790E+03  0.00000000000E+00 0. -1.
        -15    1    1    2    0    0 -0.58686006103E+01 -0.25458097470E+01  0.29083922118E+02  0.29832094716E+02  0.17770000000E+01 0.  1.
         15    1    1    2    0    0  0.11894711116E+02 -0.26680767218E+01 -0.44309279348E+01  0.13091739276E+02  0.17770000000E+01 0. -1.
</event>
<event>
 6    1  0.1196607E-002  0.1833999E+03  0.7546771E-02  0.1067741E+00
        -11   -1    0    0    0    0  0.00000000000E+00  0.00000000000E+00  0.18250000000E+03  0.18250000000E+03  0.00000000000E+00 0.  1.
         11   -1    0    0    0    0 -0.00000000000E+00 -0.00000000000E+00 -0.18250000000E+03  0.18250000000E+03  0.00000000000E+00 0. -1.
        -11    1    1    2    0    0  0.18026187970E+01  0.17370102803E+01  0.18158282562E+03  0.18160008040E+03  0.00000000000E+00 0.  1.
         11    1    1    2    0    0 -0.21411703482E+01  0.43541373669E+01 -0.12657379255E+03  0.12666675998E+03  0.00000000000E+00 0. -1.
        -15    1    1    2    0    0 -0.42863237187E+01 -0.74186234238E+01 -0.34417561231E+02  0.35512459710E+02  0.17770000000E+01 0. -1.
         15    1    1    2    0    0  0.46248752699E+01  0.13274757766E+01 -0.20591471844E+02  0.21220699916E+02  0.17770000000E+01 0.  1.
</event>
<event>
 6    1  0.1196607E-002  0.1836111E+03  0.7546771E-02  0.1067574E+00
        -11   -1    0    0    0    0  0.00000000000E+00  0.00000000000E+00  0.18250000000E+03  0.18250000000E+03  0.00000000000E+00 0. -1.
         11   -1    0    0    0    0 -0.00000000000E+00 -0.00000000000E+00 -0.18250000000E+03  0.18250000000E+03  0.00000000000E+00 0. -1.
        -11    1    1    2    0    0  0.57493153837E+01 -0.39392499441E+01  0.10140660587E+03  0.10164581659E+03  0.00000000000E+00 0. -1.
         11    1    1    2    0    0  0.59872179236E+01 -0.36161024249E+01 -0.18125395964E+03  0.18138886642E+03  0.00000000000E+00 0. -1.
        -15    1    1    2    0    0 -0.59438467942E+00  0.26452925669E+01  0.42909936143E+02  0.43032211362E+02  0.17770000000E+01 0.  1.
         15    1    1    2    0    0 -0.11142148628E+02  0.49100598021E+01  0.36937417631E+02  0.38933105624E+02  0.17770000000E+01 0. -1.
</event>
<event>
 6    1  0.7123169E-002  0.1935029E+03  0.7546771E-02  0.1060019E+00
        -11   -1    0    0    0    0  0.00000000000E+00  0.00000000000E+00  0.18250000000E+03  0.18250000000E+03  0.00000000000E+00 0.  1.
         11   -1    0    0    0    0 -0.00000000000E+00 -0.00000000000E+00 -0.18250000000E+03  0.18250000000E+03  0.00000000000E+00 0.  1.
        -11    1    1    2    0    0  0.19476868972E+01  0.67084546505E+00  0.15174812987E+03  0.15176211133E+03  0.00000000000E+00 0.  1.
         11    1    1    2    0    0  0.83000310872E+00  0.97230850255E+01 -0.17121925019E+03  0.17149711054E+03  0.00000000000E+00 0.  1.
        -15    1    1    2    0    0 -0.15160858579E+01 -0.99744478457E+01 -0.87257120777E+01  0.13456742043E+02  0.17770000000E+01 0. -1.
         15    1    1    2    0    0 -0.12616041479E+01 -0.41948264481E+00  0.28196832401E+02  0.28284036083E+02  0.17770000000E+01 0. -1.
</event>
<event>
 6    1  0.1196607E-002  0.1840832E+03  0.7546771E-02  0.1067202E+00
        -11   -1    0    0    0    0  0.00000000000E+00  0.00000000000E+00  0.18250000000E+03  0.18250000000E+03  0.00000000000E+00 0.  1.
         11   -1    0    0    0    0 -0.00000000000E+00 -0.00000000000E+00 -0.18250000000E+03  0.18250000000E+03  0.00000000000E+00 0.  1.
        -11    1    1    2    0    0  0.43597785395E+01 -0.85283126637E+00  0.15143469347E+03  0.15149983953E+03  0.00000000000E+00 0.  1.
         11    1    1    2    0    0 -0.28271926322E+00  0.45894117678E+01 -0.18085838518E+03  0.18091682652E+03  0.00000000000E+00 0.  1.
        -15    1    1    2    0    0  0.63346327344E+00  0.21865737189E+01  0.20692228005E+02  0.20892783662E+02  0.17770000000E+01 0.  1.
         15    1    1    2    0    0 -0.47105225497E+01 -0.59231542204E+01  0.87314637030E+01  0.11690550287E+02  0.17770000000E+01 0. -1.
</event>
<event>
 6    1  0.1196607E-002  0.1844197E+03  0.7546771E-02  0.1066937E+00
        -11   -1    0    0    0    0  0.00000000000E+00  0.00000000000E+00  0.18250000000E+03  0.18250000000E+03  0.00000000000E+00 0. -1.
         11   -1    0    0    0    0 -0.00000000000E+00 -0.00000000000E+00 -0.18250000000E+03  0.18250000000E+03  0.00000000000E+00 0.  1.
        -11    1    1    2    0    0 -0.13580891259E+02  0.12385110670E+01  0.18006462171E+03  0.18058029380E+03  0.00000000000E+00 0. -1.
         11    1    1    2    0    0 -0.23760891642E+01 -0.40005130235E+01 -0.10367915625E+03  0.10378351191E+03  0.00000000000E+00 0.  1.
        -15    1    1    2    0    0  0.96516386991E+01  0.41256277166E+01 -0.71655160866E+02  0.72441664402E+02  0.17770000000E+01 0.  1.
         15    1    1    2    0    0  0.63053417237E+01 -0.13636257601E+01 -0.47303045971E+01  0.81945298856E+01  0.17770000000E+01 0. -1.
</event>
<event>
 6    1  0.1196607E-002  0.1842879E+03  0.7546771E-02  0.1067041E+00
        -11   -1    0    0    0    0  0.00000000000E+00  0.00000000000E+00  0.18250000000E+03  0.18250000000E+03  0.00000000000E+00 0.  1.
         11   -1    0    0    0    0 -0.00000000000E+00 -0.00000000000E+00 -0.18250000000E+03  0.18250000000E+03  0.00000000000E+00 0.  1.
        -11    1    1    2    0    0 -0.25254046332E+01  0.11216779186E+01  0.18069100592E+03  0.18071213421E+03  0.00000000000E+00 0.  1.
         11    1    1    2    0    0 -0.64400256363E+01 -0.31931996287E+01 -0.10347587531E+03  0.10372524873E+03  0.00000000000E+00 0.  1.
        -15    1    1    2    0    0  0.27275481347E+01 -0.10271994993E+01 -0.70935942196E+02  0.71018027865E+02  0.17770000000E+01 0. -1.
         15    1    1    2    0    0  0.62378821348E+01  0.30987212094E+01 -0.62791884160E+01  0.95445891910E+01  0.17770000000E+01 0.  1.
</event>
<event>
 6    1  0.1196607E-002  0.1827480E+03  0.7546771E-02  0.1068258E+00
        -11   -1    0    0    0    0  0.00000000000E+00  0.00000000000E+00  0.18250000000E+03  0.18250000000E+03  0.00000000000E+00 0. -1.
         11   -1    0    0    0    0 -0.00000000000E+00 -0.00000000000E+00 -0.18250000000E+03  0.18250000000E+03  0.00000000000E+00 0.  1.
        -11    1    1    2    0    0 -0.18240474002E+01  0.54713752898E+00  0.12073974869E+03  0.12075476563E+03  0.00000000000E+00 0. -1.
         11    1    1    2    0    0 -0.34257330897E+01  0.12646531605E+01 -0.18221542272E+03  0.18225201034E+03  0.00000000000E+00 0.  1.
        -15    1    1    2    0    0  0.53551041303E+00 -0.10240623372E+01  0.32744872307E+02  0.32813409857E+02  0.17770000000E+01 0.  1.
         15    1    1    2    0    0  0.47142700769E+01 -0.78772835223E+00  0.28730801730E+02  0.29179814177E+02  0.17770000000E+01 0.  1.
</event>
<event>
 6    1  0.1196607E-002  0.1830998E+03  0.7546771E-02  0.1067978E+00
        -11   -1    0    0    0    0  0.00000000000E+00  0.00000000000E+00  0.18250000000E+03  0.18250000000E+03  0.00000000000E+00 0.  1.
         11   -1    0    0    0    0 -0.00000000000E+00 -0.00000000000E+00 -0.18250000000E+03  0.18250000000E+03  0.00000000000E+00 0.  1.
        -11    1    1    2    0    0  0.49516173693E+01 -0.28300357473E+01  0.12961614802E+03  0.12974156406E+03  0.00000000000E+00 0.  1.
         11    1    1    2    0    0 -0.31936483624E+01 -0.25624507737E+01 -0.18185407525E+03  0.18190016556E+03  0.00000000000E+00 0.  1.
        -15    1    1    2    0    0 -0.26348341382E+00  0.31556685405E+01  0.47433776091E+02  0.47572560481E+02  0.17770000000E+01 0.  1.
         15    1    1    2    0    0 -0.14944855930E+01  0.22368179805E+01  0.48041511438E+01  0.57857099027E+01  0.17770000000E+01 0. -1.
</event>
<event>
 6    1  0.1196607E-002  0.1826555E+03  0.7546771E-02  0.1068331E+00
        -11   -1    0    0    0    0  0.00000000000E+00  0.00000000000E+00  0.18250000000E+03  0.18250000000E+03  0.00000000000E+00 0. -1.
         11   -1    0    0    0    0 -0.00000000000E+00 -0.00000000000E+00 -0.18250000000E+03  0.18250000000E+03  0.00000000000E+00 0. -1.
        -11    1    1    2    0    0  0.15123547647E+01 -0.10763542310E+01  0.10390000850E+03  0.10391658925E+03  0.00000000000E+00 0. -1.
         11    1    1    2    0    0  0.28235297578E+01  0.33222729119E+00 -0.18232229190E+03  0.18234445651E+03  0.00000000000E+00 0. -1.
        -15    1    1    2    0    0 -0.21999637633E+01  0.24856135416E+01  0.39769817965E+02  0.39947644051E+02  0.17770000000E+01 0. -1.
         15    1    1    2    0    0 -0.21359207592E+01 -0.17414866018E+01  0.38652465435E+02  0.38791310190E+02  0.17770000000E+01 0.  1.
</event>
<event>
 6    1  0.1196607E-002  0.1775969E+03  0.7546771E-02  0.1072426E+00
        -11   -1    0    0    0    0  0.00000000000E+00  0.00000000000E+00  0.18250000000E+03  0.18250000000E+03  0.00000000000E+00 0.  1.
         11   -1    0    0    0    0 -0.00000000000E+00 -0.00000000000E+00 -0.18250000000E+03  0.18250000000E+03  0.00000000000E+00 0. -1.
        -11    1    1    2    0    0  0.17481298288E+01 -0.31295001802E+01  0.95746713429E+01  0.10223700925E+02  0.00000000000E+00 0.  1.
         11    1    1    2    0    0  0.76836383486E+01  0.72306001071E+01 -0.18157856522E+03  0.18188484055E+03  0.00000000000E+00 0. -1.
        -15    1    1    2    0    0 -0.18928456385E+01 -0.78739289893E+01  0.62208857916E+02  0.62758914542E+02  0.17770000000E+01 0.  1.
         15    1    1    2    0    0 -0.75389225389E+01  0.37728290624E+01  0.10979503596E+03  0.11013254398E+03  0.17770000000E+01 0. -1.
</event>
<event>
 6    1  0.1196607E-002  0.1325111E+03  0.7546771E-02  0.1117116E+00
        -11   -1    0    0    0    0  0.00000000000E+00  0.00000000000E+00  0.18250000000E+03  0.18250000000E+03  0.00000000000E+00 0. -1.
         11   -1    0    0    0    0 -0.00000000000E+00 -0.00000000000E+00 -0.18250000000E+03  0.18250000000E+03  0.00000000000E+00 0. -1.
        -11    1    1    2    0    0 -0.29115250697E+01 -0.40474461973E+01  0.14058806531E+03  0.14067644759E+03  0.00000000000E+00 0. -1.
         11    1    1    2    0    0  0.27567490115E+01  0.26006104859E+02 -0.12308199404E+03  0.12582962454E+03  0.00000000000E+00 0. -1.
        -15    1    1    2    0    0  0.10918863136E+02 -0.49833686609E+02  0.16065454165E+02  0.53515179526E+02  0.17770000000E+01 0.  1.
         15    1    1    2    0    0 -0.10764087078E+02  0.27875027948E+02 -0.33571525437E+02  0.44978748347E+02  0.17770000000E+01 0. -1.
</event>
<event>
 6    1  0.1196607E-002  0.1854568E+03  0.7546771E-02  0.1066125E+00
        -11   -1    0    0    0    0  0.00000000000E+00  0.00000000000E+00  0.18250000000E+03  0.18250000000E+03  0.00000000000E+00 0. -1.
         11   -1    0    0    0    0 -0.00000000000E+00 -0.00000000000E+00 -0.18250000000E+03  0.18250000000E+03  0.00000000000E+00 0.  1.
        -11    1    1    2    0    0 -0.15696079202E+01 -0.57390144728E+01  0.17944454442E+03  0.17954315492E+03  0.00000000000E+00 0. -1.
         11    1    1    2    0    0 -0.57684127360E+01  0.60581382313E+01 -0.97090252571E+02  0.97449950069E+02  0.00000000000E+00 0.  1.
        -15    1    1    2    0    0  0.33221253998E+01 -0.64492177525E+00  0.14491691980E+01  0.40878186888E+01  0.17770000000E+01 0. -1.
         15    1    1    2    0    0  0.40158952565E+01  0.32579801675E+00 -0.83803461045E+02  0.83919076325E+02  0.17770000000E+01 0.  1.
</event>
<event>
 6    1  0.1196607E-002  0.1834030E+03  0.7546771E-02  0.1067738E+00
        -11   -1    0    0    0    0  0.00000000000E+00  0.00000000000E+00  0.18250000000E+03  0.18250000000E+03  0.00000000000E+00 0.  1.
         11   -1    0    0    0    0 -0.00000000000E+00 -0.00000000000E+00 -0.18250000000E+03  0.18250000000E+03  0.00000000000E+00 0. -1.
        -11    1    1    2    0    0 -0.28732276826E+01 -0.39405026163E+01  0.27969580545E+02  0.28391555683E+02  0.00000000000E+00 0.  1.
         11    1    1    2    0    0  0.18424006316E+01 -0.12229796292E+02 -0.18117534027E+03  0.18159698863E+03  0.00000000000E+00 0. -1.
        -15    1    1    2    0    0  0.50866504941E+01 -0.19570575682E-01  0.18645466841E+02  0.19408388882E+02  0.17770000000E+01 0. -1.
         15    1    1    2    0    0 -0.40558234431E+01  0.16189869484E+02  0.13456029288E+03  0.13560306681E+03  0.17770000000E+01 0.  1.
</event>
<event>
 6    1  0.1196607E-002  0.1833654E+03  0.7546771E-02  0.1067768E+00
        -11   -1    0    0    0    0  0.00000000000E+00  0.00000000000E+00  0.18250000000E+03  0.18250000000E+03  0.00000000000E+00 0. -1.
         11   -1    0    0    0    0 -0.00000000000E+00 -0.00000000000E+00 -0.18250000000E+03  0.18250000000E+03  0.00000000000E+00 0.  1.
        -11    1    1    2    0    0  0.46516457959E+01  0.22469485261E+01  0.18156108649E+03  0.18163456365E+03  0.00000000000E+00 0. -1.
         11    1    1    2    0    0 -0.12975878868E+01 -0.22117510286E+01 -0.89933679314E+02  0.89970229809E+02  0.00000000000E+00 0.  1.
        -15    1    1    2    0    0  0.71572449024E+00  0.25580675670E+00 -0.86829811533E+02  0.86851318922E+02  0.17770000000E+01 0. -1.
         15    1    1    2    0    0 -0.40697823993E+01 -0.29100425418E+00 -0.47975956394E+01  0.65438876192E+01  0.17770000000E+01 0.  1.
</event>
<event>
 6    1  0.1196607E-002  0.1858217E+03  0.7546771E-02  0.1065841E+00
        -11   -1    0    0    0    0  0.00000000000E+00  0.00000000000E+00  0.18250000000E+03  0.18250000000E+03  0.00000000000E+00 0. -1.
         11   -1    0    0    0    0 -0.00000000000E+00 -0.00000000000E+00 -0.18250000000E+03  0.18250000000E+03  0.00000000000E+00 0. -1.
        -11    1    1    2    0    0  0.46521167696E+01 -0.23476029433E+01  0.16448746716E+03  0.16456998597E+03  0.00000000000E+00 0. -1.
         11    1    1    2    0    0  0.19438895415E+01 -0.30823463873E+01 -0.17914123945E+03  0.17917830013E+03  0.00000000000E+00 0. -1.
        -15    1    1    2    0    0  0.30624001477E+01  0.41962802822E+01  0.54465540070E+01  0.77336758674E+01  0.17770000000E+01 0.  1.
         15    1    1    2    0    0 -0.96584064588E+01  0.12336690483E+01  0.92072182856E+01  0.13518038031E+02  0.17770000000E+01 0. -1.
</event>
<event>
 6    1  0.1196607E-002  0.1828566E+03  0.7546771E-02  0.1068171E+00
        -11   -1    0    0    0    0  0.00000000000E+00  0.00000000000E+00  0.18250000000E+03  0.18250000000E+03  0.00000000000E+00 0.  1.
         11   -1    0    0    0    0 -0.00000000000E+00 -0.00000000000E+00 -0.18250000000E+03  0.18250000000E+03  0.00000000000E+00 0.  1.
        -11    1    1    2    0    0  0.26042579036E+01 -0.47318517161E+00  0.17941421923E+02  0.18135619208E+02  0.00000000000E+00 0.  1.
         11    1    1    2    0    0 -0.39028048647E+01 -0.51088447023E+01 -0.18202994930E+03  0.18214344518E+03  0.00000000000E+00 0.  1.
        -15    1    1    2    0    0 -0.32465453291E+01 -0.39949404175E+00  0.11215766202E+03  0.11221942137E+03  0.17770000000E+01 0. -1.
         15    1    1    2    0    0  0.45450922902E+01  0.59815239157E+01  0.51930865355E+02  0.52501514243E+02  0.17770000000E+01 0.  1.
</event>
<event>
 6    1  0.1196607E-002  0.1853859E+03  0.7546771E-02  0.1066181E+00
        -11   -1    0    0    0    0  0.00000000000E+00  0.00000000000E+00  0.18250000000E+03  0.18250000000E+03  0.00000000000E+00 0. -1.
         11   -1    0    0    0    0 -0.00000000000E+00 -0.00000000000E+00 -0.18250000000E+03  0.18250000000E+03  0.00000000000E+00 0. -1.
        -11    1    1    2    0    0 -0.41605029529E+01  0.30608849967E+01  0.16833690216E+03  0.16841612581E+03  0.00000000000E+00 0. -1.
         11    1    1    2    0    0 -0.23413431626E+01  0.99612919114E+00 -0.17959608259E+03  0.17961410591E+03  0.00000000000E+00 0. -1.
        -15    1    1    2    0    0  0.30420749719E+01 -0.45511531252E+01  0.11685486131E+02  0.13025956012E+02  0.17770000000E+01 0. -1.
         15    1    1    2    0    0  0.34597711437E+01  0.49413893732E+00 -0.42630570531E+00  0.39438122687E+01  0.17770000000E+01 0.  1.
</event>
<event>
 6    1  0.1196607E-002  0.1848196E+03  0.7546771E-02  0.1066623E+00
        -11   -1    0    0    0    0  0.00000000000E+00  0.00000000000E+00  0.18250000000E+03  0.18250000000E+03  0.00000000000E+00 0. -1.
         11   -1    0    0    0    0 -0.00000000000E+00 -0.00000000000E+00 -0.18250000000E+03  0.18250000000E+03  0.00000000000E+00 0.  1.
        -11    1    1    2    0    0 -0.56164238787E+01  0.87991238526E+00  0.18009069890E+03  0.18018040485E+03  0.00000000000E+00 0. -1.
         11    1    1    2    0    0  0.94725137220E+01  0.50875589368E+00 -0.16077139572E+03  0.16105101375E+03  0.00000000000E+00 0.  1.
        -15    1    1    2    0    0 -0.13952051960E+01  0.41743498163E+00  0.14396358088E+01  0.27112966943E+01  0.17770000000E+01 0. -1.
         15    1    1    2    0    0 -0.24608846474E+01 -0.18061032606E+01 -0.20758938985E+02  0.21057284702E+02  0.17770000000E+01 0.  1.
</event>
<event>
 6    1  0.1196607E-002  0.2013766E+03  0.7546771E-02  0.1054349E+00
        -11   -1    0    0    0    0  0.00000000000E+00  0.00000000000E+00  0.18250000000E+03  0.18250000000E+03  0.00000000000E+00 0.  1.
         11   -1    0    0    0    0 -0.00000000000E+00 -0.00000000000E+00 -0.18250000000E+03  0.18250000000E+03  0.00000000000E+00 0.  1.
        -11    1    1    2    0    0  0.37274593977E+01  0.15235126018E+01  0.14116884407E+03  0.14122626378E+03  0.00000000000E+00 0.  1.
         11    1    1    2    0    0 -0.42178997983E+01 -0.15894376870E+01 -0.16356128195E+03  0.16362337836E+03  0.00000000000E+00 0.  1.
        -15    1    1    2    0    0  0.39309874139E+01 -0.17250390653E+01 -0.18480384071E+02  0.19055464996E+02  0.17770000000E+01 0. -1.
         15    1    1    2    0    0 -0.34405470133E+01  0.17909641505E+01  0.40872821956E+02  0.41094892870E+02  0.17770000000E+01 0.  1.
</event>
<event>
 6    1  0.1196607E-002  0.1852810E+03  0.7546771E-02  0.1066262E+00
        -11   -1    0    0    0    0  0.00000000000E+00  0.00000000000E+00  0.18250000000E+03  0.18250000000E+03  0.00000000000E+00 0.  1.
         11   -1    0    0    0    0 -0.00000000000E+00 -0.00000000000E+00 -0.18250000000E+03  0.18250000000E+03  0.00000000000E+00 0. -1.
        -11    1    1    2    0    0 -0.37394234720E+01 -0.13785132810E+01  0.17967476896E+03  0.17971896446E+03  0.00000000000E+00 0.  1.
         11    1    1    2    0    0  0.18802937556E+01  0.77190759610E+00 -0.85387644773E+02  0.85411833055E+02  0.00000000000E+00 0. -1.
        -15    1    1    2    0    0  0.58542130500E+01  0.53637470730E+01 -0.35078419880E+01  0.88602639640E+01  0.17770000000E+01 0.  1.
         15    1    1    2    0    0 -0.39950833336E+01 -0.47571413881E+01 -0.90779282198E+02  0.91008938520E+02  0.17770000000E+01 0. -1.
</event>
<event>
 6    1  0.1196607E-002  0.1830888E+03  0.7546771E-02  0.1067987E+00
        -11   -1    0    0    0    0  0.00000000000E+00  0.00000000000E+00  0.18250000000E+03  0.18250000000E+03  0.00000000000E+00 0.  1.
         11   -1    0    0    0    0 -0.00000000000E+00 -0.00000000000E+00 -0.18250000000E+03  0.18250000000E+03  0.00000000000E+00 0.  1.
        -11    1    1    2    0    0  0.13415065586E+01 -0.16626914720E+01  0.11919964733E+03  0.11921879091E+03  0.00000000000E+00 0.  1.
         11    1    1    2    0    0 -0.53227146614E+01 -0.76772385806E+00 -0.18183173144E+03  0.18191124003E+03  0.00000000000E+00 0.  1.
        -15    1    1    2    0    0  0.47826588888E+01  0.24267164159E+01  0.12702000623E+02  0.13901846188E+02  0.17770000000E+01 0.  1.
         15    1    1    2    0    0 -0.80145078599E+00  0.36989141605E-02  0.49930083485E+02  0.49968122867E+02  0.17770000000E+01 0.  1.
</event>
<event>
 6    1  0.1196607E-002  0.1834450E+03  0.7546771E-02  0.1067705E+00
        -11   -1    0    0    0    0  0.00000000000E+00  0.00000000000E+00  0.18250000000E+03  0.18250000000E+03  0.00000000000E+00 0.  1.
         11   -1    0    0    0    0 -0.00000000000E+00 -0.00000000000E+00 -0.18250000000E+03  0.18250000000E+03  0.00000000000E+00 0.  1.
        -11    1    1    2    0    0 -0.53629137960E+00  0.27231720265E+01  0.15646366933E+03  0.15648828421E+03  0.00000000000E+00 0.  1.
         11    1    1    2    0    0 -0.17704751602E-01  0.37217878025E+01 -0.18151681859E+03  0.18155497088E+03  0.00000000000E+00 0.  1.
        -15    1    1    2    0    0  0.25584277177E+01 -0.40337142811E+01  0.77040129275E+01  0.92372045271E+01  0.17770000000E+01 0.  1.
         15    1    1    2    0    0 -0.20044315865E+01 -0.24112455479E+01  0.17349136330E+02  0.17719540386E+02  0.17770000000E+01 0. -1.
</event>
<event>
 6    1  0.1196607E-002  0.1830372E+03  0.7546771E-02  0.1068028E+00
        -11   -1    0    0    0    0  0.00000000000E+00  0.00000000000E+00  0.18250000000E+03  0.18250000000E+03  0.00000000000E+00 0. -1.
         11   -1    0    0    0    0 -0.00000000000E+00 -0.00000000000E+00 -0.18250000000E+03  0.18250000000E+03  0.00000000000E+00 0. -1.
        -11    1    1    2    0    0  0.25866700061E+01 -0.16762821137E+01  0.18193665381E+03  0.18196276208E+03  0.00000000000E+00 0. -1.
         11    1    1    2    0    0  0.15031035009E+01 -0.39875059722E+01 -0.14510336796E+03  0.14516592892E+03  0.00000000000E+00 0. -1.
        -15    1    1    2    0    0 -0.43796670082E+01  0.42609967303E+01 -0.23613557939E+02  0.24455989528E+02  0.17770000000E+01 0. -1.
         15    1    1    2    0    0  0.28989350126E+00  0.14027913555E+01 -0.13219727906E+02  0.13415319480E+02  0.17770000000E+01 0.  1.
</event>
<event>
 6    1  0.1196607E-002  0.1825735E+03  0.7546771E-02  0.1068396E+00
        -11   -1    0    0    0    0  0.00000000000E+00  0.00000000000E+00  0.18250000000E+03  0.18250000000E+03  0.00000000000E+00 0. -1.
         11   -1    0    0    0    0 -0.00000000000E+00 -0.00000000000E+00 -0.18250000000E+03  0.18250000000E+03  0.00000000000E+00 0. -1.
        -11    1    1    2    0    0 -0.17149757199E+01 -0.25820657831E+01  0.18240014627E+03  0.18242648263E+03  0.00000000000E+00 0. -1.
         11    1    1    2    0    0 -0.18398530620E+00  0.91447642718E+00 -0.55920601022E+02  0.55928380420E+02  0.00000000000E+00 0. -1.
        -15    1    1    2    0    0  0.26783717805E+01  0.18809569352E+01 -0.49124275701E+02  0.49265239942E+02  0.17770000000E+01 0. -1.
         15    1    1    2    0    0 -0.77941075447E+00 -0.21336757933E+00 -0.77355269542E+02  0.77379897013E+02  0.17770000000E+01 0. -1.
</event>
<event>
 6    1  0.1196607E-002  0.1852486E+03  0.7546771E-02  0.1066288E+00
        -11   -1    0    0    0    0  0.00000000000E+00  0.00000000000E+00  0.18250000000E+03  0.18250000000E+03  0.00000000000E+00 0. -1.
         11   -1    0    0    0    0 -0.00000000000E+00 -0.00000000000E+00 -0.18250000000E+03  0.18250000000E+03  0.00000000000E+00 0.  1.
        -11    1    1    2    0    0  0.61415077409E+00 -0.19972108102E+01  0.15359458085E+03  0.15360879304E+03  0.00000000000E+00 0. -1.
         11    1    1    2    0    0  0.75916146031E+01  0.95032262607E+01 -0.17933938073E+03  0.17975137663E+03  0.00000000000E+00 0.  1.
        -15    1    1    2    0    0 -0.20669611246E+01 -0.61310567566E+01  0.19849899860E+01  0.69971493830E+01  0.17770000000E+01 0.  1.
         15    1    1    2    0    0 -0.61388042526E+01 -0.13749586939E+01  0.23759809894E+02  0.24642680947E+02  0.17770000000E+01 0. -1.
</event>
<event>
 6    1  0.1196607E-002  0.1830673E+03  0.7546771E-02  0.1068004E+00
        -11   -1    0    0    0    0  0.00000000000E+00  0.00000000000E+00  0.18250000000E+03  0.18250000000E+03  0.00000000000E+00 0. -1.
         11   -1    0    0    0    0 -0.00000000000E+00 -0.00000000000E+00 -0.18250000000E+03  0.18250000000E+03  0.00000000000E+00 0.  1.
        -11    1    1    2    0    0 -0.40643005604E+01 -0.40996219747E+00  0.18188680665E+03  0.18193267172E+03  0.00000000000E+00 0. -1.
         11    1    1    2    0    0  0.87874565318E+00  0.22190684650E+01 -0.14852577207E+03  0.14854494750E+03  0.00000000000E+00 0.  1.
        -15    1    1    2    0    0  0.26107629041E+01 -0.56990979865E-01 -0.42310192747E+01  0.52800174257E+01  0.17770000000E+01 0.  1.
         15    1    1    2    0    0  0.57479200313E+00 -0.17521152877E+01 -0.29130015304E+02  0.29242363353E+02  0.17770000000E+01 0. -1.
</event>
<event>
 6    1  0.1196607E-002  0.1781807E+03  0.7546771E-02  0.1071946E+00
        -11   -1    0    0    0    0  0.00000000000E+00  0.00000000000E+00  0.18250000000E+03  0.18250000000E+03  0.00000000000E+00 0. -1.
         11   -1    0    0    0    0 -0.00000000000E+00 -0.00000000000E+00 -0.18250000000E+03  0.18250000000E+03  0.00000000000E+00 0. -1.
        -11    1    1    2    0    0  0.38987335277E+01  0.15999942594E-03  0.17788835955E+03  0.17793107819E+03  0.00000000000E+00 0. -1.
         11    1    1    2    0    0 -0.40668895202E+01 -0.15622929143E+01 -0.17838102895E+03  0.17843422273E+03  0.00000000000E+00 0. -1.
        -15    1    1    2    0    0  0.27345377376E+01  0.28953500937E+01 -0.16021355734E+01  0.46460000214E+01  0.17770000000E+01 0. -1.
         15    1    1    2    0    0 -0.25663817451E+01 -0.13332171787E+01  0.20948049794E+01  0.39886990622E+01  0.17770000000E+01 0.  1.
</event>
<event>
 6    1  0.1196607E-002  0.1895330E+03  0.7546771E-02  0.1062990E+00
        -11   -1    0    0    0    0  0.00000000000E+00  0.00000000000E+00  0.18250000000E+03  0.18250000000E+03  0.00000000000E+00 0. -1.
         11   -1    0    0    0    0 -0.00000000000E+00 -0.00000000000E+00 -0.18250000000E+03  0.18250000000E+03  0.00000000000E+00 0.  1.
        -11    1    1    2    0    0 -0.11072036613E+02 -0.43610450928E+01  0.17506297258E+03  0.17546695722E+03  0.00000000000E+00 0. -1.
         11    1    1    2    0    0 -0.78210465607E+01  0.16292286468E+02 -0.12102071846E+03  0.12236266450E+03  0.00000000000E+00 0.  1.
        -15    1    1    2    0    0  0.41834267406E+01  0.33031226929E+01  0.29492291824E+01  0.63456568288E+01  0.17770000000E+01 0. -1.
         15    1    1    2    0    0  0.14709656434E+02 -0.15234364068E+02 -0.56991483304E+02  0.60824721447E+02  0.17770000000E+01 0.  1.
</event>
<event>
 6    1  0.1196607E-002  0.1921436E+03  0.7546771E-02  0.1061028E+00
        -11   -1    0    0    0    0  0.00000000000E+00  0.00000000000E+00  0.18250000000E+03  0.18250000000E+03  0.00000000000E+00 0.  1.
         11   -1    0    0    0    0 -0.00000000000E+00 -0.00000000000E+00 -0.18250000000E+03  0.18250000000E+03  0.00000000000E+00 0.  1.
        -11    1    1    2    0    0  0.28726181773E+01  0.68436079583E+00  0.17283114197E+03  0.17285636789E+03  0.00000000000E+00 0.  1.
         11    1    1    2    0    0 -0.10849580136E+02  0.52835677857E+00 -0.16432936413E+03  0.16468798519E+03  0.00000000000E+00 0.  1.
        -15    1    1    2    0    0  0.25434346550E+00 -0.29645749921E+01  0.81912895072E+01  0.88942873955E+01  0.17770000000E+01 0. -1.
         15    1    1    2    0    0  0.77226184929E+01  0.17518574177E+01 -0.16693067347E+02  0.18561359521E+02  0.17770000000E+01 0.  1.
</event>
<event>
 6    1  0.1196607E-002  0.1857308E+03  0.7546771E-02  0.1065912E+00
        -11   -1    0    0    0    0  0.00000000000E+00  0.00000000000E+00  0.18250000000E+03  0.18250000000E+03  0.00000000000E+00 0.  1.
         11   -1    0    0    0    0 -0.00000000000E+00 -0.00000000000E+00 -0.18250000000E+03  0.18250000000E+03  0.00000000000E+00 0. -1.
        -11    1    1    2    0    0 -0.40251867657E+01  0.26288006778E+01  0.17920469529E+03  0.17926917062E+03  0.00000000000E+00 0.  1.
         11    1    1    2    0    0 -0.51336809339E+01 -0.43045127322E+01 -0.17038726184E+03  0.17051892126E+03  0.00000000000E+00 0. -1.
        -15    1    1    2    0    0  0.77997887936E+01 -0.14629183211E+01 -0.40611244100E+01  0.90899557596E+01  0.17770000000E+01 0.  1.
         15    1    1    2    0    0  0.13590789059E+01  0.31386303755E+01 -0.47563090313E+01  0.61219523608E+01  0.17770000000E+01 0. -1.
</event>
<event>
 6    1  0.1196607E-002  0.1734096E+03  0.7546771E-02  0.1075930E+00
        -11   -1    0    0    0    0  0.00000000000E+00  0.00000000000E+00  0.18250000000E+03  0.18250000000E+03  0.00000000000E+00 0. -1.
         11   -1    0    0    0    0 -0.00000000000E+00 -0.00000000000E+00 -0.18250000000E+03  0.18250000000E+03  0.00000000000E+00 0. -1.
        -11    1    1    2    0    0 -0.52489611400E+01  0.10426048863E+01  0.17257508594E+03  0.17265804038E+03  0.00000000000E+00 0. -1.
         11    1    1    2    0    0  0.50812121155E+01  0.29013775322E+01 -0.17408856804E+03  0.17418687158E+03  0.00000000000E+00 0. -1.
        -15    1    1    2    0    0  0.59143844274E+01 -0.75367224814E-01 -0.54030794557E+01  0.82058893472E+01  0.17770000000E+01 0.  1.
         15    1    1    2    0    0 -0.57466354029E+01 -0.38686151937E+01  0.69165615543E+01  0.99491986967E+01  0.17770000000E+01 0. -1.
</event>
<event>
 6    1  0.1196607E-002  0.1853707E+03  0.7546771E-02  0.1066192E+00
        -11   -1    0    0    0    0  0.00000000000E+00  0.00000000000E+00  0.18250000000E+03  0.18250000000E+03  0.00000000000E+00 0.  1.
         11   -1    0    0    0    0 -0.00000000000E+00 -0.00000000000E+00 -0.18250000000E+03  0.18250000000E+03  0.00000000000E+00 0. -1.
        -11    1    1    2    0    0 -0.25733085674E+01 -0.58998107026E-01  0.17961090029E+03  0.17962934310E+03  0.00000000000E+00 0.  1.
         11    1    1    2    0    0 -0.29043029334E+01  0.47037076897E+01 -0.88827102717E+02  0.88998955155E+02  0.00000000000E+00 0. -1.
        -15    1    1    2    0    0 -0.10976649868E+02 -0.93280779584E+00 -0.61721723252E+02  0.62722291276E+02  0.17770000000E+01 0.  1.
         15    1    1    2    0    0  0.16454261369E+02 -0.37119017868E+01 -0.29062074324E+02  0.33649410472E+02  0.17770000000E+01 0. -1.
</event>
<event>
 6    1  0.1196607E-002  0.1827054E+03  0.7546771E-02  0.1068291E+00
        -11   -1    0    0    0    0  0.00000000000E+00  0.00000000000E+00  0.18250000000E+03  0.18250000000E+03  0.00000000000E+00 0. -1.
         11   -1    0    0    0    0 -0.00000000000E+00 -0.00000000000E+00 -0.18250000000E+03  0.18250000000E+03  0.00000000000E+00 0.  1.
        -11    1    1    2    0    0 -0.11035197557E+01 -0.15165501181E+01  0.38684762444E+02  0.38730201723E+02  0.00000000000E+00 0. -1.
         11    1    1    2    0    0  0.73293374297E+00 -0.33865405932E+01 -0.18226168495E+03  0.18229461772E+03  0.00000000000E+00 0.  1.
        -15    1    1    2    0    0  0.75237068989E+00  0.33426856297E+01  0.19670041459E+02  0.20045145768E+02  0.17770000000E+01 0.  1.
         15    1    1    2    0    0 -0.38178467716E+00  0.15604050816E+01  0.12390688105E+03  0.12393003479E+03  0.17770000000E+01 0. -1.
</event>
<event>
 6    1  0.1196607E-002  0.1903248E+03  0.7546771E-02  0.1062391E+00
        -11   -1    0    0    0    0  0.00000000000E+00  0.00000000000E+00  0.18250000000E+03  0.18250000000E+03  0.00000000000E+00 0. -1.
         11   -1    0    0    0    0 -0.00000000000E+00 -0.00000000000E+00 -0.18250000000E+03  0.18250000000E+03  0.00000000000E+00 0. -1.
        -11    1    1    2    0    0  0.13353794065E+01 -0.80538740885E+00  0.56686151571E+02  0.56707597965E+02  0.00000000000E+00 0. -1.
         11    1    1    2    0    0 -0.27621363892E+01 -0.91589628978E-01 -0.17465334857E+03  0.17467521276E+03  0.00000000000E+00 0. -1.
        -15    1    1    2    0    0 -0.13715035759E+02  0.37069087301E+00  0.11754522153E+03  0.11835656488E+03  0.17770000000E+01 0. -1.
         15    1    1    2    0    0  0.15141792741E+02  0.52628616481E+00  0.42197546544E+00  0.15260624392E+02  0.17770000000E+01 0.  1.
</event>
<event>
 6    1  0.1196607E-002  0.1862149E+03  0.7546771E-02  0.1065536E+00
        -11   -1    0    0    0    0  0.00000000000E+00  0.00000000000E+00  0.18250000000E+03  0.18250000000E+03  0.00000000000E+00 0. -1.
         11   -1    0    0    0    0 -0.00000000000E+00 -0.00000000000E+00 -0.18250000000E+03  0.18250000000E+03  0.00000000000E+00 0. -1.
        -11    1    1    2    0    0  0.61658908173E+01 -0.11918408295E+02  0.17828077300E+03  0.17878506841E+03  0.00000000000E+00 0. -1.
         11    1    1    2    0    0 -0.16104484994E+02  0.10847443868E+01 -0.14965654711E+03  0.15052446047E+03  0.00000000000E+00 0. -1.
        -15    1    1    2    0    0  0.46829304399E+01  0.93305955149E+01 -0.27967252661E+02  0.29905096565E+02  0.17770000000E+01 0.  1.
         15    1    1    2    0    0  0.52556637364E+01  0.15030683929E+01 -0.65697323235E+00  0.57853745542E+01  0.17770000000E+01 0. -1.
</event>
<event>
 6    1  0.1196607E-002  0.1769093E+03  0.7546771E-02  0.1072994E+00
        -11   -1    0    0    0    0  0.00000000000E+00  0.00000000000E+00  0.18250000000E+03  0.18250000000E+03  0.00000000000E+00 0. -1.
         11   -1    0    0    0    0 -0.00000000000E+00 -0.00000000000E+00 -0.18250000000E+03  0.18250000000E+03  0.00000000000E+00 0. -1.
        -11    1    1    2    0    0  0.53567928858E+01 -0.93271768338E+00  0.17624469029E+03  0.17632854576E+03  0.00000000000E+00 0. -1.
         11    1    1    2    0    0  0.17837756354E+01  0.34478348125E+01 -0.17753092917E+03  0.17757336577E+03  0.00000000000E+00 0. -1.
        -15    1    1    2    0    0 -0.57264692263E+01 -0.39885360577E+00  0.37947731526E+01  0.71070082509E+01  0.17770000000E+01 0.  1.
         15    1    1    2    0    0 -0.14140992949E+01 -0.21162635234E+01 -0.25085342770E+01  0.39910802216E+01  0.17770000000E+01 0. -1.
</event>
<event>
 6    1  0.1196607E-002  0.1828935E+03  0.7546771E-02  0.1068142E+00
        -11   -1    0    0    0    0  0.00000000000E+00  0.00000000000E+00  0.18250000000E+03  0.18250000000E+03  0.00000000000E+00 0. -1.
         11   -1    0    0    0    0 -0.00000000000E+00 -0.00000000000E+00 -0.18250000000E+03  0.18250000000E+03  0.00000000000E+00 0. -1.
        -11    1    1    2    0    0 -0.65972848541E+01  0.51923620804E+01  0.18191286724E+03  0.18210649647E+03  0.00000000000E+00 0. -1.
         11    1    1    2    0    0 -0.62428967432E+00 -0.13573947324E+01 -0.71349770145E+02  0.71365411495E+02  0.00000000000E+00 0. -1.
        -15    1    1    2    0    0  0.26430445989E+01 -0.70990563590E+01 -0.42213810602E+02  0.42924885794E+02  0.17770000000E+01 0.  1.
         15    1    1    2    0    0  0.45785299295E+01  0.32640890110E+01 -0.68349286490E+02  0.68603206237E+02  0.17770000000E+01 0. -1.
</event>
<event>
 6    1  0.1196607E-002  0.1780363E+03  0.7546771E-02  0.1072065E+00
        -11   -1    0    0    0    0  0.00000000000E+00  0.00000000000E+00  0.18250000000E+03  0.18250000000E+03  0.00000000000E+00 0. -1.
         11   -1    0    0    0    0 -0.00000000000E+00 -0.00000000000E+00 -0.18250000000E+03  0.18250000000E+03  0.00000000000E+00 0.  1.
        -11    1    1    2    0    0 -0.62979378333E+01  0.50180131317E+01  0.18199466286E+03  0.18217272514E+03  0.00000000000E+00 0. -1.
         11    1    1    2    0    0  0.41714977126E+00 -0.31667834825E+00 -0.94244119359E+01  0.94389533024E+01  0.00000000000E+00 0.  1.
        -15    1    1    2    0    0 -0.18645718976E+01 -0.63676657132E+01 -0.11983265746E+03  0.12002936023E+03  0.17770000000E+01 0.  1.
         15    1    1    2    0    0  0.77453599596E+01  0.16663309297E+01 -0.52737593465E+02  0.53358961320E+02  0.17770000000E+01 0. -1.
</event>
<event>
 6    1  0.1196607E-002  0.1759973E+03  0.7546771E-02  0.1073752E+00
        -11   -1    0    0    0    0  0.00000000000E+00  0.00000000000E+00  0.18250000000E+03  0.18250000000E+03  0.00000000000E+00 0. -1.
         11   -1    0    0    0    0 -0.00000000000E+00 -0.00000000000E+00 -0.18250000000E+03  0.18250000000E+03  0.00000000000E+00 0. -1.
        -11    1    1    2    0    0 -0.19550741130E+01  0.50302673568E+01  0.17641667597E+03  0.17649920528E+03  0.00000000000E+00 0. -1.
         11    1    1    2    0    0  0.27986733417E+01 -0.64108777819E+00 -0.17550144411E+03  0.17552492829E+03  0.00000000000E+00 0. -1.
        -15    1    1    2    0    0 -0.46718141186E+01 -0.20602207715E+00 -0.38838234082E+01  0.63332539442E+01  0.17770000000E+01 0. -1.
         15    1    1    2    0    0  0.38282148899E+01 -0.41831575014E+01  0.29685915483E+01  0.66426124910E+01  0.17770000000E+01 0. -1.
</event>
<event>
 6    1  0.1196607E-002  0.2237978E+03  0.7546771E-02  0.1039636E+00
        -11   -1    0    0    0    0  0.00000000000E+00  0.00000000000E+00  0.18250000000E+03  0.18250000000E+03  0.00000000000E+00 0. -1.
         11   -1    0    0    0    0 -0.00000000000E+00 -0.00000000000E+00 -0.18250000000E+03  0.18250000000E+03  0.00000000000E+00 0.  1.
        -11    1    1    2    0    0  0.39197106684E+01 -0.20914539989E+01  0.12115513933E+03  0.12123657080E+03  0.00000000000E+00 0. -1.
         11    1    1    2    0    0  0.42434326374E+01  0.46193627370E+00 -0.14113766866E+03  0.14120220118E+03  0.00000000000E+00 0.  1.
        -15    1    1    2    0    0  0.23249880332E+02  0.14967229184E+02 -0.30750303424E+02  0.41392194609E+02  0.17770000000E+01 0.  1.
         15    1    1    2    0    0 -0.31413023638E+02 -0.13337711459E+02  0.50732832747E+02  0.61169033412E+02  0.17770000000E+01 0. -1.
</event>
<event>
 6    1  0.1196607E-002  0.1839684E+03  0.7546771E-02  0.1067292E+00
        -11   -1    0    0    0    0  0.00000000000E+00  0.00000000000E+00  0.18250000000E+03  0.18250000000E+03  0.00000000000E+00 0. -1.
         11   -1    0    0    0    0 -0.00000000000E+00 -0.00000000000E+00 -0.18250000000E+03  0.18250000000E+03  0.00000000000E+00 0. -1.
        -11    1    1    2    0    0 -0.27595456368E+01  0.17500184043E+01  0.18100213963E+03  0.18103163316E+03  0.00000000000E+00 0. -1.
         11    1    1    2    0    0 -0.61399327171E+01 -0.25252090890E+01 -0.15688779295E+03  0.15702819821E+03  0.00000000000E+00 0. -1.
        -15    1    1    2    0    0  0.92749016990E+01 -0.24813916829E+00 -0.16174349422E+02  0.18731061977E+02  0.17770000000E+01 0. -1.
         15    1    1    2    0    0 -0.37542334517E+00  0.10233298530E+01 -0.79399972505E+01  0.82091066514E+01  0.17770000000E+01 0. -1.
</event>
<event>
 6    1  0.1196607E-002  0.1521918E+03  0.7546771E-02  0.1095519E+00
        -11   -1    0    0    0    0  0.00000000000E+00  0.00000000000E+00  0.18250000000E+03  0.18250000000E+03  0.00000000000E+00 0. -1.
         11   -1    0    0    0    0 -0.00000000000E+00 -0.00000000000E+00 -0.18250000000E+03  0.18250000000E+03  0.00000000000E+00 0.  1.
        -11    1    1    2    0    0  0.87957352152E+01  0.42732237183E+01  0.15929498411E+03  0.15959485381E+03  0.00000000000E+00 0. -1.
         11    1    1    2    0    0 -0.14153481756E+02  0.15793969909E+02 -0.14431421568E+03  0.14586419498E+03  0.00000000000E+00 0.  1.
        -15    1    1    2    0    0  0.28889004196E+02 -0.61532770532E+01 -0.33502823762E+01  0.29779514820E+02  0.17770000000E+01 0. -1.
         15    1    1    2    0    0 -0.23531257655E+02 -0.13913916574E+02 -0.11630486058E+02  0.29761436394E+02  0.17770000000E+01 0.  1.
</event>
<event>
 6    1  0.1196607E-002  0.1826580E+03  0.7546771E-02  0.1068329E+00
        -11   -1    0    0    0    0  0.00000000000E+00  0.00000000000E+00  0.18250000000E+03  0.18250000000E+03  0.00000000000E+00 0.  1.
         11   -1    0    0    0    0 -0.00000000000E+00 -0.00000000000E+00 -0.18250000000E+03  0.18250000000E+03  0.00000000000E+00 0.  1.
        -11    1    1    2    0    0 -0.35962549980E+01  0.19902915139E+01  0.18229564927E+03  0.18234198105E+03  0.00000000000E+00 0.  1.
         11    1    1    2    0    0  0.70459884604E+00 -0.53117708186E+00 -0.33673722101E+02  0.33685281189E+02  0.00000000000E+00 0.  1.
        -15    1    1    2    0    0  0.15945942229E+01 -0.23577581277E+00 -0.13918993166E+03  0.13921060709E+03  0.17770000000E+01 0.  1.
         15    1    1    2    0    0  0.12970619290E+01 -0.12233386193E+01 -0.94319955072E+01  0.97621306728E+01  0.17770000000E+01 0. -1.
</event>
<event>
 6    1  0.1196607E-002  0.1871415E+03  0.7546771E-02  0.1064819E+00
        -11   -1    0    0    0    0  0.00000000000E+00  0.00000000000E+00  0.18250000000E+03  0.18250000000E+03  0.00000000000E+00 0. -1.
         11   -1    0    0    0    0 -0.00000000000E+00 -0.00000000000E+00 -0.18250000000E+03  0.18250000000E+03  0.00000000000E+00 0.  1.
        -11    1    1    2    0    0 -0.29844694838E+01 -0.22579807888E+01  0.16248560455E+03  0.16252869661E+03  0.00000000000E+00 0. -1.
         11    1    1    2    0    0  0.25614794061E+01  0.13505359499E+01 -0.17783492229E+03  0.17785849631E+03  0.00000000000E+00 0.  1.
        -15    1    1    2    0    0 -0.46440925880E+01  0.58441362938E+00 -0.27630380325E+01  0.57185001028E+01  0.17770000000E+01 0.  1.
         15    1    1    2    0    0  0.50670826657E+01  0.32303120945E+00  0.18112355771E+02  0.18894306986E+02  0.17770000000E+01 0. -1.
</event>
<event>
 6    1  0.1196607E-002  0.1867454E+03  0.7546771E-02  0.1065125E+00
        -11   -1    0    0    0    0  0.00000000000E+00  0.00000000000E+00  0.18250000000E+03  0.18250000000E+03  0.00000000000E+00 0. -1.
         11   -1    0    0    0    0 -0.00000000000E+00 -0.00000000000E+00 -0.18250000000E+03  0.18250000000E+03  0.00000000000E+00 0.  1.
        -11    1    1    2    0    0  0.37686168855E+01 -0.18413835478E+01  0.16227165590E+03  0.16232585584E+03  0.00000000000E+00 0. -1.
         11    1    1    2    0    0  0.37103230132E+01  0.25594622380E+01 -0.17819762696E+03  0.17825462575E+03  0.00000000000E+00 0.  1.
        -15    1    1    2    0    0 -0.55914671363E+01  0.74881138549E+01  0.58460578243E+01  0.11165593353E+02  0.17770000000E+01 0.  1.
         15    1    1    2    0    0 -0.18874727624E+01 -0.82061925451E+01  0.10079913239E+02  0.13253925057E+02  0.17770000000E+01 0. -1.
</event>
<event>
 6    1  0.1196607E-002  0.1852900E+03  0.7546771E-02  0.1066255E+00
        -11   -1    0    0    0    0  0.00000000000E+00  0.00000000000E+00  0.18250000000E+03  0.18250000000E+03  0.00000000000E+00 0.  1.
         11   -1    0    0    0    0 -0.00000000000E+00 -0.00000000000E+00 -0.18250000000E+03  0.18250000000E+03  0.00000000000E+00 0. -1.
        -11    1    1    2    0    0 -0.34310611169E+01  0.42918749569E+01  0.17962602008E+03  0.17971004274E+03  0.00000000000E+00 0.  1.
         11    1    1    2    0    0  0.10971540854E+01 -0.57497244693E+01 -0.17001315214E+03  0.17011388826E+03  0.00000000000E+00 0. -1.
        -15    1    1    2    0    0  0.58806074512E+01  0.94707283461E+00 -0.19200592601E+01  0.65056012414E+01  0.17770000000E+01 0.  1.
         15    1    1    2    0    0 -0.35467004197E+01  0.51077667779E+00 -0.76928086791E+01  0.86704677530E+01  0.17770000000E+01 0. -1.
</event>
<event>
 6    1  0.1196607E-002  0.1834434E+03  0.7546771E-02  0.1067706E+00
        -11   -1    0    0    0    0  0.00000000000E+00  0.00000000000E+00  0.18250000000E+03  0.18250000000E+03  0.00000000000E+00 0. -1.
         11   -1    0    0    0    0 -0.00000000000E+00 -0.00000000000E+00 -0.18250000000E+03  0.18250000000E+03  0.00000000000E+00 0. -1.
        -11    1    1    2    0    0 -0.18662786514E+01  0.21536397789E+01  0.15373909114E+03  0.15376550102E+03  0.00000000000E+00 0. -1.
         11    1    1    2    0    0  0.24222160459E+01  0.32827726663E+01 -0.18151073269E+03  0.18155657468E+03  0.00000000000E+00 0. -1.
        -15    1    1    2    0    0 -0.11189065088E+01 -0.43538753927E+01  0.55830535535E+01  0.73848763491E+01  0.17770000000E+01 0. -1.
         15    1    1    2    0    0  0.56296911440E+00 -0.10825370525E+01  0.22188587997E+02  0.22293047952E+02  0.17770000000E+01 0.  1.
</event>
<event>
 6    1  0.1196607E-002  0.1835696E+03  0.7546771E-02  0.1067607E+00
        -11   -1    0    0    0    0  0.00000000000E+00  0.00000000000E+00  0.18250000000E+03  0.18250000000E+03  0.00000000000E+00 0.  1.
         11   -1    0    0    0    0 -0.00000000000E+00 -0.00000000000E+00 -0.18250000000E+03  0.18250000000E+03  0.00000000000E+00 0.  1.
        -11    1    1    2    0    0 -0.23203006194E+01 -0.32626886520E+01  0.98075501955E+02  0.98157185249E+02  0.00000000000E+00 0.  1.
         11    1    1    2    0    0  0.52605823551E+01  0.31876069508E+01 -0.18132614423E+03  0.18143044161E+03  0.00000000000E+00 0.  1.
        -15    1    1    2    0    0  0.12013922412E+01  0.50004277773E+01  0.72853302363E+02  0.73056204497E+02  0.17770000000E+01 0.  1.
         15    1    1    2    0    0 -0.41416739768E+01 -0.49253460761E+01  0.10397339907E+02  0.12356168640E+02  0.17770000000E+01 0.  1.
</event>
<event>
 6    1  0.1196607E-002  0.1838554E+03  0.7546771E-02  0.1067381E+00
        -11   -1    0    0    0    0  0.00000000000E+00  0.00000000000E+00  0.18250000000E+03  0.18250000000E+03  0.00000000000E+00 0.  1.
         11   -1    0    0    0    0 -0.00000000000E+00 -0.00000000000E+00 -0.18250000000E+03  0.18250000000E+03  0.00000000000E+00 0. -1.
        -11    1    1    2    0    0  0.69638385775E+01  0.24628576133E+01  0.14785219405E+03  0.14803659008E+03  0.00000000000E+00 0.  1.
         11    1    1    2    0    0  0.19435088732E+01  0.15388474157E+01 -0.18112765586E+03  0.18114461901E+03  0.00000000000E+00 0. -1.
        -15    1    1    2    0    0  0.11606209357E+01  0.25588614900E+00  0.43839823591E+01  0.48774531266E+01  0.17770000000E+01 0. -1.
         15    1    1    2    0    0 -0.10067968386E+02 -0.42575911779E+01  0.28891479451E+02  0.30941337785E+02  0.17770000000E+01 0.  1.
</event>
<event>
 6    1  0.1196607E-002  0.1828127E+03  0.7546771E-02  0.1068206E+00
        -11   -1    0    0    0    0  0.00000000000E+00  0.00000000000E+00  0.18250000000E+03  0.18250000000E+03  0.00000000000E+00 0.  1.
         11   -1    0    0    0    0 -0.00000000000E+00 -0.00000000000E+00 -0.18250000000E+03  0.18250000000E+03  0.00000000000E+00 0. -1.
        -11    1    1    2    0    0 -0.13166895356E+01 -0.29802015596E+01  0.18215817896E+03  0.18218731414E+03  0.00000000000E+00 0.  1.
         11    1    1    2    0    0 -0.30881454115E+01  0.39628019725E-01 -0.13809533588E+03  0.13812986644E+03  0.00000000000E+00 0. -1.
        -15    1    1    2    0    0  0.24018543340E+01  0.19844796954E+01 -0.35028288747E+02  0.35211444240E+02  0.17770000000E+01 0.  1.
         15    1    1    2    0    0  0.20029806131E+01  0.95609384445E+00 -0.90345543316E+01  0.94713751772E+01  0.17770000000E+01 0. -1.
</event>
<event>
 6    1  0.1196607E-002  0.1903404E+03  0.7546771E-02  0.1062380E+00
        -11   -1    0    0    0    0  0.00000000000E+00  0.00000000000E+00  0.18250000000E+03  0.18250000000E+03  0.00000000000E+00 0. -1.
         11   -1    0    0    0    0 -0.00000000000E+00 -0.00000000000E+00 -0.18250000000E+03  0.18250000000E+03  0.00000000000E+00 0. -1.
        -11    1    1    2    0    0  0.13241662202E+01  0.91887666448E+01  0.17441269919E+03  0.17465960177E+03  0.00000000000E+00 0. -1.
         11    1    1    2    0    0 -0.50668800551E+01 -0.18074804478E+01 -0.15742887656E+03  0.15752076509E+03  0.00000000000E+00 0. -1.
        -15    1    1    2    0    0 -0.16505356436E+01 -0.57778260832E+01  0.62487869582E+01  0.88494412031E+01  0.17770000000E+01 0.  1.
         15    1    1    2    0    0  0.53932494785E+01 -0.16034601139E+01 -0.23232609596E+02  0.23970191945E+02  0.17770000000E+01 0. -1.
</event>
<event>
 6    1  0.1196607E-002  0.1842418E+03  0.7546771E-02  0.1067077E+00
        -11   -1    0    0    0    0  0.00000000000E+00  0.00000000000E+00  0.18250000000E+03  0.18250000000E+03  0.00000000000E+00 0.  1.
         11   -1    0    0    0    0 -0.00000000000E+00 -0.00000000000E+00 -0.18250000000E+03  0.18250000000E+03  0.00000000000E+00 0. -1.
        -11    1    1    2    0    0 -0.53562128106E+01 -0.11464966648E+01  0.17124124216E+03  0.17132882562E+03  0.00000000000E+00 0.  1.
         11    1    1    2    0    0 -0.61192531299E+00  0.32438461538E+01 -0.18072805956E+03  0.18075820452E+03  0.00000000000E+00 0. -1.
        -15    1    1    2    0    0  0.98660158672E+00 -0.73508680114E+00  0.61356424155E+01  0.65051957808E+01  0.17770000000E+01 0. -1.
         15    1    1    2    0    0  0.49815365369E+01 -0.13622626879E+01  0.33511749821E+01  0.64077740800E+01  0.17770000000E+01 0.  1.
</event>
<event>
 6    1  0.1196607E-002  0.1997219E+03  0.7546771E-02  0.1055517E+00
        -11   -1    0    0    0    0  0.00000000000E+00  0.00000000000E+00  0.18250000000E+03  0.18250000000E+03  0.00000000000E+00 0.  1.
         11   -1    0    0    0    0 -0.00000000000E+00 -0.00000000000E+00 -0.18250000000E+03  0.18250000000E+03  0.00000000000E+00 0.  1.
        -11    1    1    2    0    0  0.12815802455E+02 -0.22836345200E+01  0.88786803994E+02  0.89736037034E+02  0.00000000000E+00 0.  1.
         11    1    1    2    0    0 -0.82515266493E+01 -0.56057054370E+01 -0.16497675483E+03  0.16527807253E+03  0.00000000000E+00 0.  1.
        -15    1    1    2    0    0 -0.10665181039E+02  0.26571896706E+01  0.91728523432E+02  0.92401766669E+02  0.17770000000E+01 0.  1.
         15    1    1    2    0    0  0.61009052329E+01  0.52321502864E+01 -0.15538572599E+02  0.17584123769E+02  0.17770000000E+01 0. -1.
</event>
<event>
 6    1  0.1196607E-002  0.1834050E+03  0.7546771E-02  0.1067737E+00
        -11   -1    0    0    0    0  0.00000000000E+00  0.00000000000E+00  0.18250000000E+03  0.18250000000E+03  0.00000000000E+00 0. -1.
         11   -1    0    0    0    0 -0.00000000000E+00 -0.00000000000E+00 -0.18250000000E+03  0.18250000000E+03  0.00000000000E+00 0.  1.
        -11    1    1    2    0    0 -0.15536245041E+01  0.14106771340E+01  0.13184213559E+03  0.13185883541E+03  0.00000000000E+00 0. -1.
         11    1    1    2    0    0 -0.11040270618E+01  0.27366521836E+01 -0.18157103010E+03  0.18159500850E+03  0.00000000000E+00 0.  1.
        -15    1    1    2    0    0  0.14157764425E+01 -0.40238448077E+01  0.49055521481E+02  0.49272686823E+02  0.17770000000E+01 0. -1.
         15    1    1    2    0    0  0.12418751233E+01 -0.12348451001E+00  0.67337303475E+00  0.22734692631E+01  0.17770000000E+01 0.  1.
</event>
<event>
 6    1  0.1196607E-002  0.1827978E+03  0.7546771E-02  0.1068218E+00
        -11   -1    0    0    0    0  0.00000000000E+00  0.00000000000E+00  0.18250000000E+03  0.18250000000E+03  0.00000000000E+00 0. -1.
         11   -1    0    0    0    0 -0.00000000000E+00 -0.00000000000E+00 -0.18250000000E+03  0.18250000000E+03  0.00000000000E+00 0. -1.
        -11    1    1    2    0    0 -0.44890013469E+01  0.88805061532E+00  0.96943086463E+02  0.97051026682E+02  0.00000000000E+00 0. -1.
         11    1    1    2    0    0 -0.10166010341E+01  0.31108262040E+01 -0.18217279772E+03  0.18220219249E+03  0.00000000000E+00 0. -1.
        -15    1    1    2    0    0  0.27926596906E+00 -0.32987268866E+01  0.28991410046E+02  0.29233870322E+02  0.17770000000E+01 0. -1.
         15    1    1    2    0    0  0.52263364119E+01 -0.70014993276E+00  0.56238301211E+02  0.56512910510E+02  0.17770000000E+01 0. -1.
</event>
<event>
 6    1  0.1196607E-002  0.1836387E+03  0.7546771E-02  0.1067552E+00
        -11   -1    0    0    0    0  0.00000000000E+00  0.00000000000E+00  0.18250000000E+03  0.18250000000E+03  0.00000000000E+00 0.  1.
         11   -1    0    0    0    0 -0.00000000000E+00 -0.00000000000E+00 -0.18250000000E+03  0.18250000000E+03  0.00000000000E+00 0.  1.
        -11    1    1    2    0    0  0.71147418793E+00  0.27844475378E+01  0.16337128916E+03  0.16339656503E+03  0.00000000000E+00 0.  1.
         11    1    1    2    0    0 -0.47846122401E-01  0.26224567226E+01 -0.18134237562E+03  0.18136134308E+03  0.00000000000E+00 0.  1.
        -15    1    1    2    0    0 -0.20275882671E+01 -0.62785664934E+01  0.12064268970E+02  0.13864913493E+02  0.17770000000E+01 0. -1.
         15    1    1    2    0    0  0.13639602016E+01  0.87166223299E+00  0.59068174897E+01  0.63771783993E+01  0.17770000000E+01 0.  1.
</event>
<event>
 6    1  0.1412694E-002  0.2051382E+03  0.7546771E-02  0.1051739E+00
        -11   -1    0    0    0    0  0.00000000000E+00  0.00000000000E+00  0.18250000000E+03  0.18250000000E+03  0.00000000000E+00 0. -1.
         11   -1    0    0    0    0 -0.00000000000E+00 -0.00000000000E+00 -0.18250000000E+03  0.18250000000E+03  0.00000000000E+00 0. -1.
        -11    1    1    2    0    0 -0.26775779683E+01  0.72163676212E+00  0.11055804722E+03  0.11059282069E+03  0.00000000000E+00 0. -1.
         11    1    1    2    0    0  0.26326821666E+01  0.73129565143E+00 -0.15983849642E+03  0.15986184894E+03  0.00000000000E+00 0. -1.
        -15    1    1    2    0    0 -0.49899658868E+01  0.10168434253E+01 -0.22188515619E+02  0.22834659719E+02  0.17770000000E+01 0.  1.
         15    1    1    2    0    0  0.50348616885E+01 -0.24697758388E+01  0.71468964813E+02  0.71710670652E+02  0.17770000000E+01 0. -1.
</event>
<event>
 6    1  0.1196607E-002  0.2071145E+03  0.7546771E-02  0.1050392E+00
        -11   -1    0    0    0    0  0.00000000000E+00  0.00000000000E+00  0.18250000000E+03  0.18250000000E+03  0.00000000000E+00 0.  1.
         11   -1    0    0    0    0 -0.00000000000E+00 -0.00000000000E+00 -0.18250000000E+03  0.18250000000E+03  0.00000000000E+00 0. -1.
        -11    1    1    2    0    0  0.17885870378E+01 -0.29247839685E+01  0.15784823264E+03  0.15788545833E+03  0.00000000000E+00 0.  1.
         11    1    1    2    0    0 -0.13819524515E+01 -0.12093496648E+00 -0.49787230671E+02  0.49806553341E+02  0.00000000000E+00 0. -1.
        -15    1    1    2    0    0 -0.18064552385E+01 -0.27918137486E+01 -0.13225926284E+03  0.13231299195E+03  0.17770000000E+01 0. -1.
         15    1    1    2    0    0  0.13998206522E+01  0.58375326836E+01  0.24198260870E+02  0.24994996376E+02  0.17770000000E+01 0.  1.
</event>
<event>
 6    1  0.1196607E-002  0.1846922E+03  0.7546771E-02  0.1066723E+00
        -11   -1    0    0    0    0  0.00000000000E+00  0.00000000000E+00  0.18250000000E+03  0.18250000000E+03  0.00000000000E+00 0. -1.
         11   -1    0    0    0    0 -0.00000000000E+00 -0.00000000000E+00 -0.18250000000E+03  0.18250000000E+03  0.00000000000E+00 0.  1.
        -11    1    1    2    0    0 -0.44254531933E+00  0.30822983374E+01  0.15902463049E+03  0.15905511470E+03  0.00000000000E+00 0. -1.
         11    1    1    2    0    0  0.35092944039E+01  0.33961938648E+00 -0.18027327880E+03  0.18030775229E+03  0.00000000000E+00 0.  1.
        -15    1    1    2    0    0 -0.26598932769E+01 -0.13535994073E+01  0.22386620090E+02  0.22654486347E+02  0.17770000000E+01 0. -1.
         15    1    1    2    0    0 -0.40685580773E+00 -0.20683183165E+01 -0.11379717862E+01  0.29826466591E+01  0.17770000000E+01 0.  1.
</event>
<event>
 6    1  0.1196607E-002  0.1826938E+03  0.7546771E-02  0.1068301E+00
        -11   -1    0    0    0    0  0.00000000000E+00  0.00000000000E+00  0.18250000000E+03  0.18250000000E+03  0.00000000000E+00 0.  1.
         11   -1    0    0    0    0 -0.00000000000E+00 -0.00000000000E+00 -0.18250000000E+03  0.18250000000E+03  0.00000000000E+00 0. -1.
        -11    1    1    2    0    0  0.11535081654E+01  0.57316395428E+01  0.18221242540E+03  0.18230619913E+03  0.00000000000E+00 0.  1.
         11    1    1    2    0    0  0.10751038032E+00 -0.51433594541E+00 -0.25216378651E+02  0.25221852672E+02  0.00000000000E+00 0. -1.
        -15    1    1    2    0    0 -0.22285126831E+01  0.25267672356E+01 -0.33282981168E+02  0.33500229639E+02  0.17770000000E+01 0.  1.
         15    1    1    2    0    0  0.96749413737E+00 -0.77440708329E+01 -0.12371306558E+03  0.12397171856E+03  0.17770000000E+01 0. -1.
</event>
<event>
 6    1  0.1196607E-002  0.1847729E+03  0.7546771E-02  0.1066660E+00
        -11   -1    0    0    0    0  0.00000000000E+00  0.00000000000E+00  0.18250000000E+03  0.18250000000E+03  0.00000000000E+00 0. -1.
         11   -1    0    0    0    0 -0.00000000000E+00 -0.00000000000E+00 -0.18250000000E+03  0.18250000000E+03  0.00000000000E+00 0. -1.
        -11    1    1    2    0    0  0.91375095745E+00 -0.18805809381E+01  0.14889947713E+03  0.14891415586E+03  0.00000000000E+00 0. -1.
         11    1    1    2    0    0 -0.35101640761E+01  0.25946196432E+01 -0.18017422598E+03  0.18022709288E+03  0.00000000000E+00 0. -1.
        -15    1    1    2    0    0  0.42679282917E+01 -0.19335983103E+01  0.58176175587E+00  0.50448181404E+01  0.17770000000E+01 0. -1.
         15    1    1    2    0    0 -0.16715151731E+01  0.12195596053E+01  0.30692987089E+02  0.30813933116E+02  0.17770000000E+01 0.  1.
</event>
<event>
 6    1  0.1196607E-002  0.1827833E+03  0.7546771E-02  0.1068230E+00
        -11   -1    0    0    0    0  0.00000000000E+00  0.00000000000E+00  0.18250000000E+03  0.18250000000E+03  0.00000000000E+00 0. -1.
         11   -1    0    0    0    0 -0.00000000000E+00 -0.00000000000E+00 -0.18250000000E+03  0.18250000000E+03  0.00000000000E+00 0.  1.
        -11    1    1    2    0    0  0.88937647619E+00  0.44256859981E+01  0.18216074726E+03  0.18221667193E+03  0.00000000000E+00 0. -1.
         11    1    1    2    0    0 -0.38984253371E+01 -0.13919224798E+01 -0.12520780958E+03  0.12527621781E+03  0.00000000000E+00 0.  1.
        -15    1    1    2    0    0  0.23161966458E+01 -0.40005599296E+01 -0.25186847946E+02  0.25669130977E+02  0.17770000000E+01 0. -1.
         15    1    1    2    0    0  0.69285221510E+00  0.96679641128E+00 -0.31766089725E+02  0.31837979284E+02  0.17770000000E+01 0.  1.
</event>
<event>
 6    1  0.1196607E-002  0.1842591E+03  0.7546771E-02  0.1067063E+00
        -11   -1    0    0    0    0  0.00000000000E+00  0.00000000000E+00  0.18250000000E+03  0.18250000000E+03  0.00000000000E+00 0.  1.
         11   -1    0    0    0    0 -0.00000000000E+00 -0.00000000000E+00 -0.18250000000E+03  0.18250000000E+03  0.00000000000E+00 0. -1.
        -11    1    1    2    0    0 -0.32821730000E+01  0.18947098952E+01  0.17364160451E+03  0.17368295657E+03  0.00000000000E+00 0.  1.
         11    1    1    2    0    0 -0.24367736696E+01  0.35326381112E-01 -0.18072450545E+03  0.18074093611E+03  0.00000000000E+00 0. -1.
        -15    1    1    2    0    0  0.47056097325E+01 -0.20207641487E+00  0.55405337463E+01  0.74859094989E+01  0.17770000000E+01 0.  1.
         15    1    1    2    0    0  0.10133369371E+01 -0.17279598614E+01  0.15423671974E+01  0.30901978258E+01  0.17770000000E+01 0. -1.
</event>
<event>
 6    1  0.1196607E-002  0.1867121E+03  0.7546771E-02  0.1065151E+00
        -11   -1    0    0    0    0  0.00000000000E+00  0.00000000000E+00  0.18250000000E+03  0.18250000000E+03  0.00000000000E+00 0. -1.
         11   -1    0    0    0    0 -0.00000000000E+00 -0.00000000000E+00 -0.18250000000E+03  0.18250000000E+03  0.00000000000E+00 0.  1.
        -11    1    1    2    0    0  0.20587848748E+01  0.25403732262E+01  0.17545446933E+03  0.17548493639E+03  0.00000000000E+00 0. -1.
         11    1    1    2    0    0 -0.18465320977E+01 -0.34823840778E+01 -0.17824430944E+03  0.17828788665E+03  0.00000000000E+00 0.  1.
        -15    1    1    2    0    0  0.31089397381E+00  0.35960249605E+01 -0.27064258081E+01  0.48487648153E+01  0.17770000000E+01 0.  1.
         15    1    1    2    0    0 -0.52314675086E+00 -0.26540141089E+01  0.54962659195E+01  0.63784121434E+01  0.17770000000E+01 0.  1.
</event>
<event>
 6    1  0.1196607E-002  0.1853598E+03  0.7546771E-02  0.1066201E+00
        -11   -1    0    0    0    0  0.00000000000E+00  0.00000000000E+00  0.18250000000E+03  0.18250000000E+03  0.00000000000E+00 0.  1.
         11   -1    0    0    0    0 -0.00000000000E+00 -0.00000000000E+00 -0.18250000000E+03  0.18250000000E+03  0.00000000000E+00 0. -1.
        -11    1    1    2    0    0  0.35057138121E+01 -0.17033890219E+01  0.17959791896E+03  0.17964020725E+03  0.00000000000E+00 0.  1.
         11    1    1    2    0    0 -0.24522787597E+01  0.12010940943E+01 -0.16659559477E+03  0.16661797170E+03  0.00000000000E+00 0. -1.
        -15    1    1    2    0    0  0.25399042303E+01  0.24261249170E+01  0.99087651976E+00  0.40591576576E+01  0.17770000000E+01 0.  1.
         15    1    1    2    0    0 -0.35933392827E+01 -0.19238299894E+01 -0.13993200715E+02  0.14682663392E+02  0.17770000000E+01 0. -1.
</event>
<event>
 6    1  0.1196607E-002  0.1857109E+03  0.7546771E-02  0.1065927E+00
        -11   -1    0    0    0    0  0.00000000000E+00  0.00000000000E+00  0.18250000000E+03  0.18250000000E+03  0.00000000000E+00 0.  1.
         11   -1    0    0    0    0 -0.00000000000E+00 -0.00000000000E+00 -0.18250000000E+03  0.18250000000E+03  0.00000000000E+00 0. -1.
        -11    1    1    2    0    0 -0.32382212900E+01  0.31973245759E+00  0.17925957404E+03  0.17928910505E+03  0.00000000000E+00 0.  1.
         11    1    1    2    0    0  0.99353357863E-01  0.24373306068E+01 -0.17611646613E+03  0.17613335884E+03  0.00000000000E+00 0. -1.
        -15    1    1    2    0    0  0.26298616907E+01  0.16960280270E+01 -0.31094004973E+01  0.47559209448E+01  0.17770000000E+01 0. -1.
         15    1    1    2    0    0  0.50900624145E+00 -0.44530910914E+01 -0.33707408309E-01  0.48216151663E+01  0.17770000000E+01 0.  1.
</event>
<event>
 6    1  0.1196607E-002  0.1831227E+03  0.7546771E-02  0.1067960E+00
        -11   -1    0    0    0    0  0.00000000000E+00  0.00000000000E+00  0.18250000000E+03  0.18250000000E+03  0.00000000000E+00 0.  1.
         11   -1    0    0    0    0 -0.00000000000E+00 -0.00000000000E+00 -0.18250000000E+03  0.18250000000E+03  0.00000000000E+00 0.  1.
        -11    1    1    2    0    0 -0.10939820357E+01 -0.12547379956E+01  0.10364125798E+03  0.10365462613E+03  0.00000000000E+00 0.  1.
         11    1    1    2    0    0 -0.60431474992E+01  0.26547717634E+01 -0.18175751828E+03  0.18187732925E+03  0.00000000000E+00 0.  1.
        -15    1    1    2    0    0  0.21905922653E+01 -0.31295621500E+01  0.66154003788E+02  0.66288029085E+02  0.17770000000E+01 0. -1.
         15    1    1    2    0    0  0.49465372695E+01  0.17295283822E+01  0.11962256516E+02  0.13180015529E+02  0.17770000000E+01 0.  1.
</event>
<event>
 6    1  0.1196607E-002  0.1827519E+03  0.7546771E-02  0.1068255E+00
        -11   -1    0    0    0    0  0.00000000000E+00  0.00000000000E+00  0.18250000000E+03  0.18250000000E+03  0.00000000000E+00 0.  1.
         11   -1    0    0    0    0 -0.00000000000E+00 -0.00000000000E+00 -0.18250000000E+03  0.18250000000E+03  0.00000000000E+00 0. -1.
        -11    1    1    2    0    0  0.20617141894E+01 -0.31539574142E+01  0.18220918257E+03  0.18224813943E+03  0.00000000000E+00 0.  1.
         11    1    1    2    0    0  0.88000169605E+00 -0.22017758351E+01 -0.11193614710E+03  0.11196125780E+03  0.00000000000E+00 0. -1.
        -15    1    1    2    0    0  0.91271135745E+00  0.23361744704E+01 -0.18205808222E+02  0.18463475707E+02  0.17770000000E+01 0. -1.
         15    1    1    2    0    0 -0.38544272429E+01  0.30195587789E+01 -0.52067227248E+02  0.52327127065E+02  0.17770000000E+01 0.  1.
</event>
<event>
 6    1  0.1196607E-002  0.1848532E+03  0.7546771E-02  0.1066597E+00
        -11   -1    0    0    0    0  0.00000000000E+00  0.00000000000E+00  0.18250000000E+03  0.18250000000E+03  0.00000000000E+00 0.  1.
         11   -1    0    0    0    0 -0.00000000000E+00 -0.00000000000E+00 -0.18250000000E+03  0.18250000000E+03  0.00000000000E+00 0.  1.
        -11    1    1    2    0    0  0.89474943091E+00  0.33507796897E+01  0.17675501027E+03  0.17678903234E+03  0.00000000000E+00 0.  1.
         11    1    1    2    0    0 -0.14762781272E+01 -0.21444973145E+01 -0.18012794492E+03  0.18014675908E+03  0.00000000000E+00 0.  1.
        -15    1    1    2    0    0  0.44616476001E+00 -0.19031897898E+01  0.49326403794E+01  0.55955218239E+01  0.17770000000E+01 0. -1.
         15    1    1    2    0    0  0.13536393632E+00  0.69690741465E+00 -0.15597057313E+01  0.24686867578E+01  0.17770000000E+01 0. -1.
</event>
<event>
 6    1  0.1196607E-002  0.1836552E+03  0.7546771E-02  0.1067539E+00
        -11   -1    0    0    0    0  0.00000000000E+00  0.00000000000E+00  0.18250000000E+03  0.18250000000E+03  0.00000000000E+00 0.  1.
         11   -1    0    0    0    0 -0.00000000000E+00 -0.00000000000E+00 -0.18250000000E+03  0.18250000000E+03  0.00000000000E+00 0.  1.
        -11    1    1    2    0    0 -0.18490077498E+01  0.23845961357E+01  0.18131966168E+03  0.18134476788E+03  0.00000000000E+00 0.  1.
         11    1    1    2    0    0 -0.21709742684E+01  0.16947436956E+00 -0.15048702459E+03  0.15050277878E+03  0.00000000000E+00 0.  1.
        -15    1    1    2    0    0 -0.34599211838E+01 -0.21455450793E+01 -0.12639633989E+02  0.13397480907E+02  0.17770000000E+01 0.  1.
         15    1    1    2    0    0  0.74799032019E+01 -0.40852542603E+00 -0.18193003094E+02  0.19754972425E+02  0.17770000000E+01 0. -1.
</event>
<event>
 6    1  0.1196607E-002  0.1921851E+03  0.7546771E-02  0.1060997E+00
        -11   -1    0    0    0    0  0.00000000000E+00  0.00000000000E+00  0.18250000000E+03  0.18250000000E+03  0.00000000000E+00 0.  1.
         11   -1    0    0    0    0 -0.00000000000E+00 -0.00000000000E+00 -0.18250000000E+03  0.18250000000E+03  0.00000000000E+00 0.  1.
        -11    1    1    2    0    0 -0.76840402140E+00 -0.24441624288E+01  0.16168492173E+03  0.16170522035E+03  0.00000000000E+00 0.  1.
         11    1    1    2    0    0  0.37815545348E+01  0.10037309876E+01 -0.17277058034E+03  0.17281487512E+03  0.00000000000E+00 0.  1.
        -15    1    1    2    0    0  0.13745089389E+00  0.50534143356E+01 -0.86046254000E+01  0.10136725135E+02  0.17770000000E+01 0. -1.
         15    1    1    2    0    0 -0.31506014073E+01 -0.36129828944E+01  0.19690284011E+02  0.20343179399E+02  0.17770000000E+01 0.  1.
</event>
<event>
 6    1  0.1196607E-002  0.1832273E+03  0.7546771E-02  0.1067877E+00
        -11   -1    0    0    0    0  0.00000000000E+00  0.00000000000E+00  0.18250000000E+03  0.18250000000E+03  0.00000000000E+00 0.  1.
         11   -1    0    0    0    0 -0.00000000000E+00 -0.00000000000E+00 -0.18250000000E+03  0.18250000000E+03  0.00000000000E+00 0. -1.
        -11    1    1    2    0    0  0.22858376798E+01  0.28155154349E+01  0.16021029130E+03  0.16025133266E+03  0.00000000000E+00 0.  1.
         11    1    1    2    0    0  0.31594387397E+01 -0.60776468168E+00 -0.18174424551E+03  0.18177272130E+03  0.00000000000E+00 0. -1.
        -15    1    1    2    0    0 -0.19402893088E+01 -0.59207539844E+00  0.33420725719E+01  0.42944678314E+01  0.17770000000E+01 0.  1.
         15    1    1    2    0    0 -0.35049871107E+01 -0.16156753548E+01  0.18191881643E+02  0.18681478213E+02  0.17770000000E+01 0. -1.
</event>
<event>
 6    1  0.1196607E-002  0.1831143E+03  0.7546771E-02  0.1067967E+00
        -11   -1    0    0    0    0  0.00000000000E+00  0.00000000000E+00  0.18250000000E+03  0.18250000000E+03  0.00000000000E+00 0. -1.
         11   -1    0    0    0    0 -0.00000000000E+00 -0.00000000000E+00 -0.18250000000E+03  0.18250000000E+03  0.00000000000E+00 0.  1.
        -11    1    1    2    0    0  0.15071720206E+01 -0.16780432232E+01  0.16173588738E+03  0.16175161410E+03  0.00000000000E+00 0. -1.
         11    1    1    2    0    0  0.26296900072E+00 -0.26777391022E+01 -0.18186581012E+03  0.18188571228E+03  0.00000000000E+00 0.  1.
        -15    1    1    2    0    0  0.96638675006E+00  0.12551370844E+01  0.99710135167E+01  0.10251249290E+02  0.17770000000E+01 0. -1.
         15    1    1    2    0    0 -0.27365277714E+01  0.31006452409E+01  0.10158909222E+02  0.11111424334E+02  0.17770000000E+01 0.  1.
</event>
<event>
 6    1  0.1196607E-002  0.1717367E+03  0.7546771E-02  0.1077361E+00
        -11   -1    0    0    0    0  0.00000000000E+00  0.00000000000E+00  0.18250000000E+03  0.18250000000E+03  0.00000000000E+00 0. -1.
         11   -1    0    0    0    0 -0.00000000000E+00 -0.00000000000E+00 -0.18250000000E+03  0.18250000000E+03  0.00000000000E+00 0. -1.
        -11    1    1    2    0    0 -0.15691333051E+01  0.20896317381E+01  0.17245891079E+03  0.17247870782E+03  0.00000000000E+00 0. -1.
         11    1    1    2    0    0  0.39153603561E-01  0.42241345563E+01 -0.17100704713E+03  0.17105921493E+03  0.00000000000E+00 0. -1.
        -15    1    1    2    0    0 -0.92678407216E+01 -0.30530810534E+01 -0.15770968407E+01  0.10042865079E+02  0.17770000000E+01 0. -1.
         15    1    1    2    0    0  0.10797820423E+02 -0.32606852409E+01  0.12523317257E+00  0.11419212165E+02  0.17770000000E+01 0.  1.
</event>
<event>
 6    1  0.1196607E-002  0.1930718E+03  0.7546771E-02  0.1060338E+00
        -11   -1    0    0    0    0  0.00000000000E+00  0.00000000000E+00  0.18250000000E+03  0.18250000000E+03  0.00000000000E+00 0.  1.
         11   -1    0    0    0    0 -0.00000000000E+00 -0.00000000000E+00 -0.18250000000E+03  0.18250000000E+03  0.00000000000E+00 0. -1.
        -11    1    1    2    0    0 -0.38347729075E+01 -0.96512831861E+00  0.13695499507E+03  0.13701207111E+03  0.00000000000E+00 0.  1.
         11    1    1    2    0    0 -0.57580842885E+01  0.26167086369E+01 -0.17181185768E+03  0.17192823253E+03  0.00000000000E+00 0. -1.
        -15    1    1    2    0    0  0.62355697034E+00 -0.36458940875E-01  0.43400833771E+02  0.43441687968E+02  0.17770000000E+01 0. -1.
         15    1    1    2    0    0  0.89693002256E+01 -0.16151213774E+01 -0.85439711580E+01  0.12618008391E+02  0.17770000000E+01 0. -1.
</event>
<event>
 6    1  0.1196607E-002  0.1827117E+03  0.7546771E-02  0.1068286E+00
        -11   -1    0    0    0    0  0.00000000000E+00  0.00000000000E+00  0.18250000000E+03  0.18250000000E+03  0.00000000000E+00 0.  1.
         11   -1    0    0    0    0 -0.00000000000E+00 -0.00000000000E+00 -0.18250000000E+03  0.18250000000E+03  0.00000000000E+00 0. -1.
        -11    1    1    2    0    0  0.12911352725E+01  0.11413137010E+01  0.34787415246E+02  0.34830071587E+02  0.00000000000E+00 0.  1.
         11    1    1    2    0    0 -0.18119772904E+00  0.46738441199E+01 -0.18222824863E+03  0.18228826690E+03  0.00000000000E+00 0. -1.
        -15    1    1    2    0    0  0.20992452460E+01 -0.62537259396E+01  0.11985314144E+03  0.12004769536E+03  0.17770000000E+01 0.  1.
         15    1    1    2    0    0 -0.32091827894E+01  0.43856811868E+00  0.27587691944E+02  0.27833966156E+02  0.17770000000E+01 0. -1.
</event>
<event>
 6    1  0.3721182E-002  0.1826432E+03  0.7546771E-02  0.1068341E+00
        -11   -1    0    0    0    0  0.00000000000E+00  0.00000000000E+00  0.18250000000E+03  0.18250000000E+03  0.00000000000E+00 0.  1.
         11   -1    0    0    0    0 -0.00000000000E+00 -0.00000000000E+00 -0.18250000000E+03  0.18250000000E+03  0.00000000000E+00 0.  1.
        -11    1    1    2    0    0 -0.21226774695E+01 -0.13816400316E+01  0.18233921492E+03  0.18235680406E+03  0.00000000000E+00 0.  1.
         11    1    1    2    0    0  0.10415048607E+01 -0.60355343277E+00 -0.86374287183E+02  0.86382674742E+02  0.00000000000E+00 0.  1.
        -15    1    1    2    0    0 -0.82976693804E+00  0.76708126230E+00 -0.88158959582E+01  0.90639217439E+01  0.17770000000E+01 0. -1.
         15    1    1    2    0    0  0.19109395469E+01  0.12181122021E+01 -0.87149031780E+02  0.87196599454E+02  0.17770000000E+01 0.  1.
</event>
<event>
 6    1  0.1196607E-002  0.1871830E+03  0.7546771E-02  0.1064787E+00
        -11   -1    0    0    0    0  0.00000000000E+00  0.00000000000E+00  0.18250000000E+03  0.18250000000E+03  0.00000000000E+00 0. -1.
         11   -1    0    0    0    0 -0.00000000000E+00 -0.00000000000E+00 -0.18250000000E+03  0.18250000000E+03  0.00000000000E+00 0. -1.
        -11    1    1    2    0    0  0.49533567427E+01 -0.33442212443E+01  0.16309711137E+03  0.16320657859E+03  0.00000000000E+00 0. -1.
         11    1    1    2    0    0 -0.94228698283E+01 -0.39727947790E+01 -0.17752269000E+03  0.17781698186E+03  0.00000000000E+00 0. -1.
        -15    1    1    2    0    0  0.80950132343E+01  0.76016217720E+01  0.26910403456E+01  0.11563447581E+02  0.17770000000E+01 0. -1.
         15    1    1    2    0    0 -0.36255001486E+01 -0.28460574871E+00  0.11734538284E+02  0.12412991964E+02  0.17770000000E+01 0.  1.
</event>
<event>
 6    1  0.1196607E-002  0.1812320E+03  0.7546771E-02  0.1069469E+00
        -11   -1    0    0    0    0  0.00000000000E+00  0.00000000000E+00  0.18250000000E+03  0.18250000000E+03  0.00000000000E+00 0. -1.
         11   -1    0    0    0    0 -0.00000000000E+00 -0.00000000000E+00 -0.18250000000E+03  0.18250000000E+03  0.00000000000E+00 0.  1.
        -11    1    1    2    0    0  0.18041542215E+01  0.22447292279E+00  0.40405609594E+01  0.44307441152E+01  0.00000000000E+00 0. -1.
         11    1    1    2    0    0 -0.40842661464E+01 -0.26759554867E+01 -0.18128434343E+03  0.18135008999E+03  0.00000000000E+00 0.  1.
        -15    1    1    2    0    0 -0.23098264029E+01  0.26877570398E+01  0.17191713561E+03  0.17196284070E+03  0.17770000000E+01 0. -1.
         15    1    1    2    0    0  0.45899383278E+01 -0.23627447594E+00  0.53266468622E+01  0.72563251908E+01  0.17770000000E+01 0. -1.
</event>
<event>
 6    1  0.1196607E-002  0.1590436E+03  0.7546771E-02  0.1088829E+00
        -11   -1    0    0    0    0  0.00000000000E+00  0.00000000000E+00  0.18250000000E+03  0.18250000000E+03  0.00000000000E+00 0.  1.
         11   -1    0    0    0    0 -0.00000000000E+00 -0.00000000000E+00 -0.18250000000E+03  0.18250000000E+03  0.00000000000E+00 0.  1.
        -11    1    1    2    0    0 -0.57748770140E+01 -0.11932618162E+01  0.17421270343E+03  0.17431247550E+03  0.00000000000E+00 0.  1.
         11    1    1    2    0    0  0.12733523011E+01 -0.11719724169E+01 -0.24154654317E+02  0.24216570166E+02  0.00000000000E+00 0.  1.
        -15    1    1    2    0    0  0.89370694757E+01  0.17889328253E+02 -0.52453878400E+01  0.20750207198E+02  0.17770000000E+01 0. -1.
         15    1    1    2    0    0 -0.44355447627E+01 -0.15524094020E+02 -0.14481266127E+03  0.14572074714E+03  0.17770000000E+01 0.  1.
</event>
<event>
 6    1  0.1196607E-002  0.1829530E+03  0.7546771E-02  0.1068095E+00
        -11   -1    0    0    0    0  0.00000000000E+00  0.00000000000E+00  0.18250000000E+03  0.18250000000E+03  0.00000000000E+00 0. -1.
         11   -1    0    0    0    0 -0.00000000000E+00 -0.00000000000E+00 -0.18250000000E+03  0.18250000000E+03  0.00000000000E+00 0.  1.
        -11    1    1    2    0    0  0.42489399292E+01 -0.12335884898E+01  0.18199325816E+03  0.18204703032E+03  0.00000000000E+00 0. -1.
         11    1    1    2    0    0  0.28542548449E+01  0.22982033492E-01 -0.10848102285E+03  0.10851856808E+03  0.00000000000E+00 0.  1.
        -15    1    1    2    0    0 -0.48409033221E+01 -0.12003703655E+01 -0.63843433042E+02  0.64062601458E+02  0.17770000000E+01 0.  1.
         15    1    1    2    0    0 -0.22622914520E+01  0.24109768218E+01 -0.96688022680E+01  0.10371800140E+02  0.17770000000E+01 0. -1.
</event>
<event>
 6    1  0.1196607E-002  0.1828991E+03  0.7546771E-02  0.1068138E+00
        -11   -1    0    0    0    0  0.00000000000E+00  0.00000000000E+00  0.18250000000E+03  0.18250000000E+03  0.00000000000E+00 0.  1.
         11   -1    0    0    0    0 -0.00000000000E+00 -0.00000000000E+00 -0.18250000000E+03  0.18250000000E+03  0.00000000000E+00 0.  1.
        -11    1    1    2    0    0 -0.34849760164E+01  0.17866400730E+00  0.12032305457E+03  0.12037364513E+03  0.00000000000E+00 0.  1.
         11    1    1    2    0    0 -0.26570606628E+01  0.34117657161E+01 -0.18204958713E+03  0.18210093985E+03  0.00000000000E+00 0.  1.
        -15    1    1    2    0    0  0.41996456755E+01 -0.44609961788E+01  0.52642562868E+02  0.53027678292E+02  0.17770000000E+01 0.  1.
         15    1    1    2    0    0  0.19423910037E+01  0.87056645544E+00  0.90839696923E+01  0.94977367376E+01  0.17770000000E+01 0. -1.
</event>
<event>
 6    1  0.1196607E-002  0.1609905E+03  0.7546771E-02  0.1086995E+00
        -11   -1    0    0    0    0  0.00000000000E+00  0.00000000000E+00  0.18250000000E+03  0.18250000000E+03  0.00000000000E+00 0.  1.
         11   -1    0    0    0    0 -0.00000000000E+00 -0.00000000000E+00 -0.18250000000E+03  0.18250000000E+03  0.00000000000E+00 0. -1.
        -11    1    1    2    0    0 -0.38111354420E+01 -0.90820227286E+01  0.15631906454E+03  0.15662904529E+03  0.00000000000E+00 0.  1.
         11    1    1    2    0    0 -0.74664093381E+00 -0.14620413536E+02 -0.16574782940E+03  0.16639307953E+03  0.00000000000E+00 0. -1.
        -15    1    1    2    0    0  0.92961711226E+01 -0.15255661707E+01 -0.66221015166E+01  0.11651442279E+02  0.17770000000E+01 0.  1.
         15    1    1    2    0    0 -0.47383947468E+01  0.25228002435E+02  0.16050866376E+02  0.30326432894E+02  0.17770000000E+01 0. -1.
</event>
<event>
 6    1  0.1196607E-002  0.1828544E+03  0.7546771E-02  0.1068173E+00
        -11   -1    0    0    0    0  0.00000000000E+00  0.00000000000E+00  0.18250000000E+03  0.18250000000E+03  0.00000000000E+00 0.  1.
         11   -1    0    0    0    0 -0.00000000000E+00 -0.00000000000E+00 -0.18250000000E+03  0.18250000000E+03  0.00000000000E+00 0. -1.
        -11    1    1    2    0    0 -0.13705162378E+01  0.21451295234E+01  0.18212778189E+03  0.18214557045E+03  0.00000000000E+00 0.  1.
         11    1    1    2    0    0 -0.10330762310E+00  0.28796609968E+01 -0.14673333111E+03  0.14676162161E+03  0.00000000000E+00 0. -1.
        -15    1    1    2    0    0  0.52270872748E+00 -0.39286628060E+00 -0.69510960262E+01  0.72043759822E+01  0.17770000000E+01 0.  1.
         15    1    1    2    0    0  0.95111513347E+00 -0.46319242396E+01 -0.28443354756E+02  0.28888431957E+02  0.17770000000E+01 0. -1.
</event>
<event>
 6    1  0.1196607E-002  0.1827540E+03  0.7546771E-02  0.1068253E+00
        -11   -1    0    0    0    0  0.00000000000E+00  0.00000000000E+00  0.18250000000E+03  0.18250000000E+03  0.00000000000E+00 0. -1.
         11   -1    0    0    0    0 -0.00000000000E+00 -0.00000000000E+00 -0.18250000000E+03  0.18250000000E+03  0.00000000000E+00 0. -1.
        -11    1    1    2    0    0  0.37099047956E+01 -0.17671302549E+01  0.18219964192E+03  0.18224597570E+03  0.00000000000E+00 0. -1.
         11    1    1    2    0    0  0.11219172050E+01  0.36605629309E+00 -0.28778030194E+02  0.28802217228E+02  0.00000000000E+00 0. -1.
        -15    1    1    2    0    0 -0.50003004574E+01 -0.20480227889E-01 -0.27379040735E+02  0.27888582336E+02  0.17770000000E+01 0.  1.
         15    1    1    2    0    0  0.16847845677E+00  0.14215541897E+01 -0.12604257099E+03  0.12606322474E+03  0.17770000000E+01 0. -1.
</event>
<event>
 6    1  0.1196607E-002  0.1828250E+03  0.7546771E-02  0.1068196E+00
        -11   -1    0    0    0    0  0.00000000000E+00  0.00000000000E+00  0.18250000000E+03  0.18250000000E+03  0.00000000000E+00 0.  1.
         11   -1    0    0    0    0 -0.00000000000E+00 -0.00000000000E+00 -0.18250000000E+03  0.18250000000E+03  0.00000000000E+00 0. -1.
        -11    1    1    2    0    0 -0.86156967532E+00  0.84297921733E+00  0.53626777713E+02  0.53640322558E+02  0.00000000000E+00 0.  1.
         11    1    1    2    0    0  0.19870659537E+00  0.24710155240E+01 -0.18215814347E+03  0.18217501101E+03  0.00000000000E+00 0. -1.
        -15    1    1    2    0    0  0.24221546761E+01 -0.74798651255E+00  0.11836390973E+03  0.11840438832E+03  0.17770000000E+01 0.  1.
         15    1    1    2    0    0 -0.17592915962E+01 -0.25660082288E+01  0.10167456031E+02  0.10780278118E+02  0.17770000000E+01 0. -1.
</event>
<event>
 6    1  0.1196607E-002  0.1778907E+03  0.7546771E-02  0.1072184E+00
        -11   -1    0    0    0    0  0.00000000000E+00  0.00000000000E+00  0.18250000000E+03  0.18250000000E+03  0.00000000000E+00 0.  1.
         11   -1    0    0    0    0 -0.00000000000E+00 -0.00000000000E+00 -0.18250000000E+03  0.18250000000E+03  0.00000000000E+00 0. -1.
        -11    1    1    2    0    0 -0.29756270747E+01 -0.22422378791E+01  0.17876223396E+03  0.17880105782E+03  0.00000000000E+00 0.  1.
         11    1    1    2    0    0 -0.22811604404E+01  0.22939283658E+01 -0.17699393174E+03  0.17702349470E+03  0.00000000000E+00 0. -1.
        -15    1    1    2    0    0  0.61501123944E+01 -0.14589136940E+01 -0.12225314218E+01  0.66786693067E+01  0.17770000000E+01 0.  1.
         15    1    1    2    0    0 -0.89332487939E+00  0.14072232073E+01 -0.54577079519E+00  0.24967781752E+01  0.17770000000E+01 0. -1.
</event>
<event>
 6    1  0.1196607E-002  0.1870198E+03  0.7546771E-02  0.1064913E+00
        -11   -1    0    0    0    0  0.00000000000E+00  0.00000000000E+00  0.18250000000E+03  0.18250000000E+03  0.00000000000E+00 0.  1.
         11   -1    0    0    0    0 -0.00000000000E+00 -0.00000000000E+00 -0.18250000000E+03  0.18250000000E+03  0.00000000000E+00 0. -1.
        -11    1    1    2    0    0  0.30999326507E+01 -0.24501929261E+01  0.17793637160E+03  0.17798023869E+03  0.00000000000E+00 0.  1.
         11    1    1    2    0    0 -0.31259060993E+01  0.29123711127E+01 -0.17062860439E+03  0.17068208409E+03  0.00000000000E+00 0. -1.
        -15    1    1    2    0    0  0.10523566771E+01 -0.55606601218E+01  0.13493639979E+01  0.60833303185E+01  0.17770000000E+01 0.  1.
         15    1    1    2    0    0 -0.10263832285E+01  0.50984819352E+01 -0.86571312035E+01  0.10254346895E+02  0.17770000000E+01 0. -1.
</event>
<event>
 6    1  0.1196607E-002  0.1851331E+03  0.7546771E-02  0.1066378E+00
        -11   -1    0    0    0    0  0.00000000000E+00  0.00000000000E+00  0.18250000000E+03  0.18250000000E+03  0.00000000000E+00 0.  1.
         11   -1    0    0    0    0 -0.00000000000E+00 -0.00000000000E+00 -0.18250000000E+03  0.18250000000E+03  0.00000000000E+00 0.  1.
        -11    1    1    2    0    0  0.81981328175E+01 -0.66903521512E+01  0.17955540305E+03  0.17986693125E+03  0.00000000000E+00 0.  1.
         11    1    1    2    0    0 -0.29920071769E+01 -0.34759124969E+01 -0.31197795643E+02  0.31533102093E+02  0.00000000000E+00 0.  1.
        -15    1    1    2    0    0 -0.72204042754E+01  0.21844544902E+01 -0.35102245256E+01  0.85079659461E+01  0.17770000000E+01 0. -1.
         15    1    1    2    0    0  0.20142786347E+01  0.79818101579E+01 -0.14484738288E+03  0.14509200071E+03  0.17770000000E+01 0.  1.
</event>
<event>
 6    1  0.1196607E-002  0.1867604E+03  0.7546771E-02  0.1065113E+00
        -11   -1    0    0    0    0  0.00000000000E+00  0.00000000000E+00  0.18250000000E+03  0.18250000000E+03  0.00000000000E+00 0. -1.
         11   -1    0    0    0    0 -0.00000000000E+00 -0.00000000000E+00 -0.18250000000E+03  0.18250000000E+03  0.00000000000E+00 0.  1.
        -11    1    1    2    0    0  0.48778909368E+00 -0.51028233143E+01 -0.18015947346E+02  0.18731019800E+02  0.00000000000E+00 0. -1.
         11    1    1    2    0    0 -0.22887381821E+01 -0.14061255023E+02 -0.15887107923E+03  0.15950854846E+03  0.00000000000E+00 0.  1.
        -15    1    1    2    0    0 -0.58396532480E+01  0.36087749288E+02  0.14734112826E+03  0.15181894811E+03  0.17770000000E+01 0.  1.
         15    1    1    2    0    0  0.76406023364E+01 -0.16923670951E+02  0.29545898313E+02  0.34941483636E+02  0.17770000000E+01 0. -1.
</event>
<event>
 6    1  0.1196607E-002  0.1830631E+03  0.7546771E-02  0.1068007E+00
        -11   -1    0    0    0    0  0.00000000000E+00  0.00000000000E+00  0.18250000000E+03  0.18250000000E+03  0.00000000000E+00 0.  1.
         11   -1    0    0    0    0 -0.00000000000E+00 -0.00000000000E+00 -0.18250000000E+03  0.18250000000E+03  0.00000000000E+00 0. -1.
        -11    1    1    2    0    0  0.15682414534E+01 -0.31153700544E+01  0.13648001642E+03  0.13652457578E+03  0.00000000000E+00 0.  1.
         11    1    1    2    0    0  0.41088343214E+01 -0.27741582054E+01 -0.18186931043E+03  0.18193686968E+03  0.00000000000E+00 0. -1.
        -15    1    1    2    0    0 -0.32515763997E+01  0.96751446320E+00  0.10518802980E+02  0.11194274361E+02  0.17770000000E+01 0. -1.
         15    1    1    2    0    0 -0.24254993751E+01  0.49220137966E+01  0.34870491034E+02  0.35344280173E+02  0.17770000000E+01 0.  1.
</event>
<event>
 6    1  0.1196607E-002  0.1834061E+03  0.7546771E-02  0.1067736E+00
        -11   -1    0    0    0    0  0.00000000000E+00  0.00000000000E+00  0.18250000000E+03  0.18250000000E+03  0.00000000000E+00 0. -1.
         11   -1    0    0    0    0 -0.00000000000E+00 -0.00000000000E+00 -0.18250000000E+03  0.18250000000E+03  0.00000000000E+00 0. -1.
        -11    1    1    2    0    0  0.18786236104E+01  0.23163878732E+01  0.18156944690E+03  0.18159393967E+03  0.00000000000E+00 0. -1.
         11    1    1    2    0    0  0.18498214334E+01  0.15650218135E+01 -0.14369288078E+03  0.14371330877E+03  0.00000000000E+00 0. -1.
        -15    1    1    2    0    0 -0.66708219880E+01 -0.27618539358E+01 -0.17755280005E+02  0.19249296096E+02  0.17770000000E+01 0. -1.
         15    1    1    2    0    0  0.29423769442E+01 -0.11195557509E+01 -0.20121286114E+02  0.20443455458E+02  0.17770000000E+01 0.  1.
</event>
<event>
 6    1  0.1196607E-002  0.1828009E+03  0.7546771E-02  0.1068216E+00
        -11   -1    0    0    0    0  0.00000000000E+00  0.00000000000E+00  0.18250000000E+03  0.18250000000E+03  0.00000000000E+00 0. -1.
         11   -1    0    0    0    0 -0.00000000000E+00 -0.00000000000E+00 -0.18250000000E+03  0.18250000000E+03  0.00000000000E+00 0.  1.
        -11    1    1    2    0    0  0.16457682331E+01  0.52056536052E+01  0.18211727545E+03  0.18219909275E+03  0.00000000000E+00 0. -1.
         11    1    1    2    0    0 -0.22361146754E+01  0.33961415624E+00 -0.12007689265E+03  0.12009819189E+03  0.00000000000E+00 0.  1.
        -15    1    1    2    0    0  0.15452277659E+01 -0.30245244511E+01 -0.52319004446E+02  0.52459235910E+02  0.17770000000E+01 0. -1.
         15    1    1    2    0    0 -0.95488132363E+00 -0.25207433103E+01 -0.97213783473E+01  0.10243479445E+02  0.17770000000E+01 0.  1.
</event>
<event>
 6    1  0.1196607E-002  0.1775564E+03  0.7546771E-02  0.1072459E+00
        -11   -1    0    0    0    0  0.00000000000E+00  0.00000000000E+00  0.18250000000E+03  0.18250000000E+03  0.00000000000E+00 0.  1.
         11   -1    0    0    0    0 -0.00000000000E+00 -0.00000000000E+00 -0.18250000000E+03  0.18250000000E+03  0.00000000000E+00 0. -1.
        -11    1    1    2    0    0 -0.43709065581E+01  0.40790197756E+01  0.17828045689E+03  0.17838067310E+03  0.00000000000E+00 0.  1.
         11    1    1    2    0    0  0.57393951377E+00  0.34207549738E+01 -0.17680065130E+03  0.17683467214E+03  0.00000000000E+00 0. -1.
        -15    1    1    2    0    0  0.27516337254E+01 -0.48401368749E+01  0.52455848902E+00  0.58678193339E+01  0.17770000000E+01 0. -1.
         15    1    1    2    0    0  0.10453333189E+01 -0.26596378745E+01 -0.20043640810E+01  0.39168354242E+01  0.17770000000E+01 0.  1.
</event>
<event>
 6    1  0.1196607E-002  0.1830581E+03  0.7546771E-02  0.1068011E+00
        -11   -1    0    0    0    0  0.00000000000E+00  0.00000000000E+00  0.18250000000E+03  0.18250000000E+03  0.00000000000E+00 0. -1.
         11   -1    0    0    0    0 -0.00000000000E+00 -0.00000000000E+00 -0.18250000000E+03  0.18250000000E+03  0.00000000000E+00 0. -1.
        -11    1    1    2    0    0 -0.25789412169E+01  0.17671843118E+01  0.18191498982E+03  0.18194185169E+03  0.00000000000E+00 0. -1.
         11    1    1    2    0    0 -0.23611129946E+01  0.71719436533E+00 -0.14976543621E+03  0.14978576403E+03  0.00000000000E+00 0. -1.
        -15    1    1    2    0    0  0.32440085448E+01 -0.14725303742E+01 -0.76010273687E+01  0.85805176535E+01  0.17770000000E+01 0.  1.
         15    1    1    2    0    0  0.16960456667E+01 -0.10118483029E+01 -0.24548526234E+02  0.24691866619E+02  0.17770000000E+01 0.  1.
</event>
<event>
 6    1  0.1761712E-002  0.1829293E+03  0.7546771E-02  0.1068114E+00
        -11   -1    0    0    0    0  0.00000000000E+00  0.00000000000E+00  0.18250000000E+03  0.18250000000E+03  0.00000000000E+00 0.  1.
         11   -1    0    0    0    0 -0.00000000000E+00 -0.00000000000E+00 -0.18250000000E+03  0.18250000000E+03  0.00000000000E+00 0.  1.
        -11    1    1    2    0    0  0.31093827159E+01  0.14832555733E+01  0.18203807011E+03  0.18207066562E+03  0.00000000000E+00 0.  1.
         11    1    1    2    0    0  0.73046329761E+00  0.12162203658E-01 -0.48824844594E+02  0.48830309994E+02  0.00000000000E+00 0.  1.
        -15    1    1    2    0    0 -0.44433863967E+01 -0.37073387048E+00 -0.13061134624E+03  0.13069951271E+03  0.17770000000E+01 0.  1.
         15    1    1    2    0    0  0.60354038326E+00 -0.11246839065E+01 -0.26018792787E+01  0.33995116804E+01  0.17770000000E+01 0. -1.
</event>
<event>
 6    1  0.1196607E-002  0.1834698E+03  0.7546771E-02  0.1067685E+00
        -11   -1    0    0    0    0  0.00000000000E+00  0.00000000000E+00  0.18250000000E+03  0.18250000000E+03  0.00000000000E+00 0.  1.
         11   -1    0    0    0    0 -0.00000000000E+00 -0.00000000000E+00 -0.18250000000E+03  0.18250000000E+03  0.00000000000E+00 0. -1.
        -11    1    1    2    0    0  0.17113956416E+01  0.45241087707E+01  0.18146578083E+03  0.18153023452E+03  0.00000000000E+00 0.  1.
         11    1    1    2    0    0 -0.12836121844E+01 -0.31410711165E+01 -0.17289311239E+03  0.17292640718E+03  0.00000000000E+00 0. -1.
        -15    1    1    2    0    0 -0.81835224344E+00 -0.29429749729E+01 -0.37190332416E+01  0.51302767311E+01  0.17770000000E+01 0.  1.
         15    1    1    2    0    0  0.39056878621E+00  0.15599373187E+01 -0.48536351984E+01  0.54130815673E+01  0.17770000000E+01 0. -1.
</event>
<event>
 6    1  0.1196607E-002  0.1856660E+03  0.7546771E-02  0.1065962E+00
        -11   -1    0    0    0    0  0.00000000000E+00  0.00000000000E+00  0.18250000000E+03  0.18250000000E+03  0.00000000000E+00 0.  1.
         11   -1    0    0    0    0 -0.00000000000E+00 -0.00000000000E+00 -0.18250000000E+03  0.18250000000E+03  0.00000000000E+00 0. -1.
        -11    1    1    2    0    0  0.17298625864E+01 -0.65152456000E+01  0.17920722609E+03  0.17933396424E+03  0.00000000000E+00 0.  1.
         11    1    1    2    0    0  0.14384016959E+01 -0.12500560182E+00 -0.53825126142E+02  0.53844487462E+02  0.00000000000E+00 0. -1.
        -15    1    1    2    0    0 -0.26178742737E+01  0.89537171176E+01 -0.12770160278E+03  0.12805420492E+03  0.17770000000E+01 0. -1.
         15    1    1    2    0    0 -0.55039000857E+00 -0.23134659157E+01  0.23195028341E+01  0.37673433746E+01  0.17770000000E+01 0.  1.
</event>
<event>
 6    1  0.1196607E-002  0.1959690E+03  0.7546771E-02  0.1058212E+00
        -11   -1    0    0    0    0  0.00000000000E+00  0.00000000000E+00  0.18250000000E+03  0.18250000000E+03  0.00000000000E+00 0.  1.
         11   -1    0    0    0    0 -0.00000000000E+00 -0.00000000000E+00 -0.18250000000E+03  0.18250000000E+03  0.00000000000E+00 0. -1.
        -11    1    1    2    0    0 -0.89586309039E+00 -0.32737344250E+01  0.16899690417E+03  0.16903098393E+03  0.00000000000E+00 0.  1.
         11    1    1    2    0    0  0.24273767982E+01  0.81202484757E+01 -0.15597323673E+03  0.15620333278E+03  0.00000000000E+00 0. -1.
        -15    1    1    2    0    0  0.94238062487E+00  0.39472397484E+01 -0.24552741864E+02  0.24949221329E+02  0.17770000000E+01 0. -1.
         15    1    1    2    0    0 -0.24738943326E+01 -0.87937537991E+01  0.11529074428E+02  0.14816461967E+02  0.17770000000E+01 0.  1.
</event>
<event>
 6    1  0.1196607E-002  0.1772703E+03  0.7546771E-02  0.1072696E+00
        -11   -1    0    0    0    0  0.00000000000E+00  0.00000000000E+00  0.18250000000E+03  0.18250000000E+03  0.00000000000E+00 0.  1.
         11   -1    0    0    0    0 -0.00000000000E+00 -0.00000000000E+00 -0.18250000000E+03  0.18250000000E+03  0.00000000000E+00 0. -1.
        -11    1    1    2    0    0 -0.44711779193E+01  0.12825340567E+00  0.17839705571E+03  0.17845312373E+03  0.00000000000E+00 0.  1.
         11    1    1    2    0    0  0.45631753168E+00 -0.42364381648E+01 -0.17608988231E+03  0.17614142695E+03  0.00000000000E+00 0. -1.
        -15    1    1    2    0    0  0.13761190599E+01 -0.21559849335E+01 -0.87840232257E+00  0.32359379383E+01  0.17770000000E+01 0.  1.
         15    1    1    2    0    0  0.26387413277E+01  0.62641696926E+01 -0.14287710811E+01  0.71695113874E+01  0.17770000000E+01 0. -1.
</event>
<event>
 6    1  0.1196607E-002  0.1837145E+03  0.7546771E-02  0.1067492E+00
        -11   -1    0    0    0    0  0.00000000000E+00  0.00000000000E+00  0.18250000000E+03  0.18250000000E+03  0.00000000000E+00 0.  1.
         11   -1    0    0    0    0 -0.00000000000E+00 -0.00000000000E+00 -0.18250000000E+03  0.18250000000E+03  0.00000000000E+00 0. -1.
        -11    1    1    2    0    0  0.35068813261E+01  0.28484115208E+01  0.18122918432E+03  0.18128549008E+03  0.00000000000E+00 0.  1.
         11    1    1    2    0    0 -0.28748145327E+01 -0.24493517347E+01 -0.12559959345E+03  0.12565636378E+03  0.00000000000E+00 0. -1.
        -15    1    1    2    0    0 -0.35374013501E+01 -0.48866802369E+01 -0.83979631711E+01  0.10491728479E+02  0.17770000000E+01 0.  1.
         15    1    1    2    0    0  0.29053345567E+01  0.44876204508E+01 -0.47231627693E+02  0.47566417667E+02  0.17770000000E+01 0.  1.
</event>
<event>
 6    1  0.1196607E-002  0.1850092E+03  0.7546771E-02  0.1066475E+00
        -11   -1    0    0    0    0  0.00000000000E+00  0.00000000000E+00  0.18250000000E+03  0.18250000000E+03  0.00000000000E+00 0. -1.
         11   -1    0    0    0    0 -0.00000000000E+00 -0.00000000000E+00 -0.18250000000E+03  0.18250000000E+03  0.00000000000E+00 0. -1.
        -11    1    1    2    0    0 -0.46471926145E+01 -0.22529804608E+01  0.17991668990E+03  0.17999079872E+03  0.00000000000E+00 0. -1.
         11    1    1    2    0    0 -0.88592755757E-01  0.41813431796E+01 -0.17378335011E+03  0.17383366835E+03  0.00000000000E+00 0. -1.
        -15    1    1    2    0    0  0.21679657867E+01 -0.40647992945E+01 -0.54079584968E+01  0.73230057395E+01  0.17770000000E+01 0.  1.
         15    1    1    2    0    0  0.25678195836E+01  0.21364365757E+01 -0.72538129834E+00  0.38525271815E+01  0.17770000000E+01 0. -1.
</event>
<event>
 6    1  0.1196607E-002  0.1826024E+03  0.7546771E-02  0.1068373E+00
        -11   -1    0    0    0    0  0.00000000000E+00  0.00000000000E+00  0.18250000000E+03  0.18250000000E+03  0.00000000000E+00 0.  1.
         11   -1    0    0    0    0 -0.00000000000E+00 -0.00000000000E+00 -0.18250000000E+03  0.18250000000E+03  0.00000000000E+00 0.  1.
        -11    1    1    2    0    0 -0.93723774806E+00 -0.38462295489E+01  0.18235459274E+03  0.18239755862E+03  0.00000000000E+00 0.  1.
         11    1    1    2    0    0  0.12608120857E+01  0.21907687568E+00 -0.33919043274E+02  0.33943175138E+02  0.00000000000E+00 0.  1.
        -15    1    1    2    0    0  0.17236219563E+01  0.27403976699E+01 -0.36284142259E+02  0.36471596627E+02  0.17770000000E+01 0.  1.
         15    1    1    2    0    0 -0.20471962940E+01  0.88675500323E+00 -0.11215140721E+03  0.11218766962E+03  0.17770000000E+01 0.  1.
</event>
<event>
 6    1  0.1196607E-002  0.1828296E+03  0.7546771E-02  0.1068193E+00
        -11   -1    0    0    0    0  0.00000000000E+00  0.00000000000E+00  0.18250000000E+03  0.18250000000E+03  0.00000000000E+00 0.  1.
         11   -1    0    0    0    0 -0.00000000000E+00 -0.00000000000E+00 -0.18250000000E+03  0.18250000000E+03  0.00000000000E+00 0. -1.
        -11    1    1    2    0    0  0.60684111119E+00  0.29807137657E+01  0.18214495807E+03  0.18217035615E+03  0.00000000000E+00 0.  1.
         11    1    1    2    0    0 -0.17714472979E+01 -0.92983918916E-01 -0.11440934042E+03  0.11442309141E+03  0.00000000000E+00 0. -1.
        -15    1    1    2    0    0  0.13405306641E+01 -0.53383466068E+01 -0.30213980019E+02  0.30762595543E+02  0.17770000000E+01 0. -1.
         15    1    1    2    0    0 -0.17592447737E+00  0.24506167600E+01 -0.37521637625E+02  0.37643956899E+02  0.17770000000E+01 0.  1.
</event>
<event>
 6    1  0.1196607E-002  0.1853011E+03  0.7546771E-02  0.1066247E+00
        -11   -1    0    0    0    0  0.00000000000E+00  0.00000000000E+00  0.18250000000E+03  0.18250000000E+03  0.00000000000E+00 0. -1.
         11   -1    0    0    0    0 -0.00000000000E+00 -0.00000000000E+00 -0.18250000000E+03  0.18250000000E+03  0.00000000000E+00 0. -1.
        -11    1    1    2    0    0  0.53369883427E+01 -0.10733932087E+02  0.17929857535E+03  0.17969885883E+03  0.00000000000E+00 0. -1.
         11    1    1    2    0    0 -0.13868517527E+02  0.47400756688E+01 -0.95039125855E+02  0.96162568285E+02  0.00000000000E+00 0. -1.
        -15    1    1    2    0    0  0.11268289875E+02 -0.10541020444E+01 -0.78840022599E+02  0.79668013533E+02  0.17770000000E+01 0.  1.
         15    1    1    2    0    0 -0.27367606912E+01  0.70479584622E+01 -0.54194268949E+01  0.94705593518E+01  0.17770000000E+01 0.  1.
</event>
<event>
 6    1  0.1196607E-002  0.1827144E+03  0.7546771E-02  0.1068284E+00
        -11   -1    0    0    0    0  0.00000000000E+00  0.00000000000E+00  0.18250000000E+03  0.18250000000E+03  0.00000000000E+00 0.  1.
         11   -1    0    0    0    0 -0.00000000000E+00 -0.00000000000E+00 -0.18250000000E+03  0.18250000000E+03  0.00000000000E+00 0. -1.
        -11    1    1    2    0    0  0.30761330075E+01 -0.42373220764E+00  0.68377321651E+02  0.68447792217E+02  0.00000000000E+00 0.  1.
         11    1    1    2    0    0 -0.13641820631E+01 -0.23274835967E+01 -0.18226560246E+03  0.18228556721E+03  0.00000000000E+00 0. -1.
        -15    1    1    2    0    0 -0.21858707831E+00  0.68370698892E+00  0.10065256953E+03  0.10067081363E+03  0.17770000000E+01 0.  1.
         15    1    1    2    0    0 -0.14933638662E+01  0.20675088154E+01  0.13235711278E+02  0.13595826947E+02  0.17770000000E+01 0. -1.
</event>
<event>
 6    1  0.1196607E-002  0.1735294E+03  0.7546771E-02  0.1075828E+00
        -11   -1    0    0    0    0  0.00000000000E+00  0.00000000000E+00  0.18250000000E+03  0.18250000000E+03  0.00000000000E+00 0. -1.
         11   -1    0    0    0    0 -0.00000000000E+00 -0.00000000000E+00 -0.18250000000E+03  0.18250000000E+03  0.00000000000E+00 0. -1.
        -11    1    1    2    0    0 -0.55509870918E+01  0.21002849463E+01  0.17417739871E+03  0.17427848655E+03  0.00000000000E+00 0. -1.
         11    1    1    2    0    0 -0.21745891839E+01  0.26961885941E+01 -0.17286722581E+03  0.17290192605E+03  0.00000000000E+00 0. -1.
        -15    1    1    2    0    0 -0.88510142830E+00 -0.45980508347E+01 -0.60300762683E+01  0.78386876975E+01  0.17770000000E+01 0. -1.
         15    1    1    2    0    0  0.86106777040E+01 -0.19842270568E+00  0.47199033716E+01  0.99808997055E+01  0.17770000000E+01 0.  1.
</event>
<event>
 6    1  0.1196607E-002  0.1831615E+03  0.7546771E-02  0.1067929E+00
        -11   -1    0    0    0    0  0.00000000000E+00  0.00000000000E+00  0.18250000000E+03  0.18250000000E+03  0.00000000000E+00 0.  1.
         11   -1    0    0    0    0 -0.00000000000E+00 -0.00000000000E+00 -0.18250000000E+03  0.18250000000E+03  0.00000000000E+00 0.  1.
        -11    1    1    2    0    0 -0.13703008588E+01 -0.25436608238E+01  0.15511108737E+03  0.15513799457E+03  0.00000000000E+00 0.  1.
         11    1    1    2    0    0 -0.17214406577E+01 -0.22967818281E+01 -0.18181587410E+03  0.18183852903E+03  0.00000000000E+00 0.  1.
        -15    1    1    2    0    0  0.16853504893E+01  0.41704273986E+01  0.95310816797E+01  0.10687942643E+02  0.17770000000E+01 0. -1.
         15    1    1    2    0    0  0.14063910272E+01  0.67001525337E+00  0.17173705056E+02  0.17335533754E+02  0.17770000000E+01 0.  1.
</event>
<event>
 6    1  0.1196607E-002  0.1879427E+03  0.7546771E-02  0.1064203E+00
        -11   -1    0    0    0    0  0.00000000000E+00  0.00000000000E+00  0.18250000000E+03  0.18250000000E+03  0.00000000000E+00 0. -1.
         11   -1    0    0    0    0 -0.00000000000E+00 -0.00000000000E+00 -0.18250000000E+03  0.18250000000E+03  0.00000000000E+00 0.  1.
        -11    1    1    2    0    0 -0.54964521689E+01  0.36523911957E+01  0.17693424536E+03  0.17705727358E+03  0.00000000000E+00 0. -1.
         11    1    1    2    0    0 -0.13495336962E+01  0.31807037347E+01 -0.15645802119E+03  0.15649616772E+03  0.00000000000E+00 0.  1.
        -15    1    1    2    0    0  0.67935704807E+00 -0.27575821772E+01 -0.23147447327E+02  0.23388626129E+02  0.17770000000E+01 0.  1.
         15    1    1    2    0    0  0.61666288170E+01 -0.40755127531E+01  0.26712231558E+01  0.80579325708E+01  0.17770000000E+01 0.  1.
</event>
<event>
 6    1  0.1196607E-002  0.1843813E+03  0.7546771E-02  0.1066967E+00
        -11   -1    0    0    0    0  0.00000000000E+00  0.00000000000E+00  0.18250000000E+03  0.18250000000E+03  0.00000000000E+00 0. -1.
         11   -1    0    0    0    0 -0.00000000000E+00 -0.00000000000E+00 -0.18250000000E+03  0.18250000000E+03  0.00000000000E+00 0.  1.
        -11    1    1    2    0    0 -0.39300617282E+01 -0.12124701332E+01  0.18057185226E+03  0.18061868479E+03  0.00000000000E+00 0. -1.
         11    1    1    2    0    0  0.23571415681E+01 -0.26963465550E+01 -0.17524026512E+03  0.17527685791E+03  0.00000000000E+00 0.  1.
        -15    1    1    2    0    0  0.17335919306E+01  0.25840953524E+01 -0.29032364469E+00  0.35951226114E+01  0.17770000000E+01 0. -1.
         15    1    1    2    0    0 -0.16067177049E+00  0.13247213358E+01 -0.50412634941E+01  0.55093346833E+01  0.17770000000E+01 0.  1.
</event>
<event>
 6    1  0.1196607E-002  0.1846899E+03  0.7546771E-02  0.1066725E+00
        -11   -1    0    0    0    0  0.00000000000E+00  0.00000000000E+00  0.18250000000E+03  0.18250000000E+03  0.00000000000E+00 0.  1.
         11   -1    0    0    0    0 -0.00000000000E+00 -0.00000000000E+00 -0.18250000000E+03  0.18250000000E+03  0.00000000000E+00 0.  1.
        -11    1    1    2    0    0 -0.77035130851E+00  0.27751562349E+01  0.12762515360E+03  0.12765764671E+03  0.00000000000E+00 0.  1.
         11    1    1    2    0    0 -0.25170052593E+01  0.37018211589E+01 -0.18025452476E+03  0.18031010091E+03  0.00000000000E+00 0.  1.
        -15    1    1    2    0    0  0.42433420781E+01 -0.49466605721E+01  0.30903690461E+01  0.74285606041E+01  0.17770000000E+01 0.  1.
         15    1    1    2    0    0 -0.95598551037E+00 -0.15303168217E+01  0.49539002116E+02  0.49603691773E+02  0.17770000000E+01 0. -1.
</event>
<event>
 6    1  0.1196607E-002  0.1827282E+03  0.7546771E-02  0.1068273E+00
        -11   -1    0    0    0    0  0.00000000000E+00  0.00000000000E+00  0.18250000000E+03  0.18250000000E+03  0.00000000000E+00 0.  1.
         11   -1    0    0    0    0 -0.00000000000E+00 -0.00000000000E+00 -0.18250000000E+03  0.18250000000E+03  0.00000000000E+00 0. -1.
        -11    1    1    2    0    0 -0.14588181165E+01 -0.41008321369E+01  0.41246824837E+02  0.41475842772E+02  0.00000000000E+00 0.  1.
         11    1    1    2    0    0 -0.30150406026E+01  0.11098716332E+01 -0.18224352712E+03  0.18227184495E+03  0.00000000000E+00 0. -1.
        -15    1    1    2    0    0  0.13704914868E+01  0.26236321270E+01  0.10893544267E+03  0.10899013759E+03  0.17770000000E+01 0.  1.
         15    1    1    2    0    0  0.31033672324E+01  0.36732837664E+00  0.32061259617E+02  0.32262174687E+02  0.17770000000E+01 0. -1.
</event>
<event>
 6    1  0.1196607E-002  0.1738806E+03  0.7546771E-02  0.1075531E+00
        -11   -1    0    0    0    0  0.00000000000E+00  0.00000000000E+00  0.18250000000E+03  0.18250000000E+03  0.00000000000E+00 0. -1.
         11   -1    0    0    0    0 -0.00000000000E+00 -0.00000000000E+00 -0.18250000000E+03  0.18250000000E+03  0.00000000000E+00 0. -1.
        -11    1    1    2    0    0  0.62375668845E+00 -0.30846626519E+01  0.17401099722E+03  0.17403945348E+03  0.00000000000E+00 0. -1.
         11    1    1    2    0    0  0.26379544192E+01 -0.42671460838E+00 -0.17373430806E+03  0.17375485802E+03  0.00000000000E+00 0. -1.
        -15    1    1    2    0    0 -0.44517407119E+01  0.65993816381E+01  0.58372731108E+01  0.10030020924E+02  0.17770000000E+01 0. -1.
         15    1    1    2    0    0  0.11900296043E+01 -0.30880043778E+01 -0.61139622669E+01  0.71756675716E+01  0.17770000000E+01 0. -1.
</event>
<event>
 6    1  0.1196607E-002  0.1827225E+03  0.7546771E-02  0.1068278E+00
        -11   -1    0    0    0    0  0.00000000000E+00  0.00000000000E+00  0.18250000000E+03  0.18250000000E+03  0.00000000000E+00 0.  1.
         11   -1    0    0    0    0 -0.00000000000E+00 -0.00000000000E+00 -0.18250000000E+03  0.18250000000E+03  0.00000000000E+00 0. -1.
        -11    1    1    2    0    0 -0.84985757973E+00  0.27540075306E+00  0.25206224048E+02  0.25222050556E+02  0.00000000000E+00 0.  1.
         11    1    1    2    0    0 -0.60349467670E+01  0.58837165728E+01 -0.18208253185E+03  0.18227750028E+03  0.00000000000E+00 0. -1.
        -15    1    1    2    0    0  0.80021196602E+01 -0.21461616509E+01  0.70827581846E+02  0.71332629336E+02  0.17770000000E+01 0. -1.
         15    1    1    2    0    0 -0.11173153134E+01 -0.40129556749E+01  0.86048725955E+02  0.86167819830E+02  0.17770000000E+01 0.  1.
</event>
<event>
 6    1  0.1196607E-002  0.1769796E+03  0.7546771E-02  0.1072936E+00
        -11   -1    0    0    0    0  0.00000000000E+00  0.00000000000E+00  0.18250000000E+03  0.18250000000E+03  0.00000000000E+00 0.  1.
         11   -1    0    0    0    0 -0.00000000000E+00 -0.00000000000E+00 -0.18250000000E+03  0.18250000000E+03  0.00000000000E+00 0.  1.
        -11    1    1    2    0    0  0.35805434353E+01  0.79778852302E+00  0.17571629945E+03  0.17575458643E+03  0.00000000000E+00 0.  1.
         11    1    1    2    0    0 -0.22324276960E+01 -0.49528090455E+01 -0.17815719177E+03  0.17824000401E+03  0.00000000000E+00 0.  1.
        -15    1    1    2    0    0  0.17238920655E+01  0.42646633090E+01 -0.19984715045E+01  0.53207870045E+01  0.17770000000E+01 0. -1.
         15    1    1    2    0    0 -0.30720078049E+01 -0.10964278655E+00  0.44393638229E+01  0.56846225597E+01  0.17770000000E+01 0.  1.
</event>
<event>
 6    1  0.1196607E-002  0.1848454E+03  0.7546771E-02  0.1066603E+00
        -11   -1    0    0    0    0  0.00000000000E+00  0.00000000000E+00  0.18250000000E+03  0.18250000000E+03  0.00000000000E+00 0. -1.
         11   -1    0    0    0    0 -0.00000000000E+00 -0.00000000000E+00 -0.18250000000E+03  0.18250000000E+03  0.00000000000E+00 0.  1.
        -11    1    1    2    0    0 -0.24231183024E+01 -0.34295084540E+01  0.18010568762E+03  0.18015463286E+03  0.00000000000E+00 0. -1.
         11    1    1    2    0    0 -0.46766012612E+01 -0.19784894316E+01 -0.16768392352E+03  0.16776079168E+03  0.00000000000E+00 0.  1.
        -15    1    1    2    0    0  0.63621023423E+01  0.30693188471E+01 -0.43987790023E+01  0.85090569460E+01  0.17770000000E+01 0.  1.
         15    1    1    2    0    0  0.73761722123E+00  0.23386790385E+01 -0.80229850948E+01  0.85755185057E+01  0.17770000000E+01 0. -1.
</event>
<event>
 6    1  0.1196607E-002  0.1927837E+03  0.7546771E-02  0.1060551E+00
        -11   -1    0    0    0    0  0.00000000000E+00  0.00000000000E+00  0.18250000000E+03  0.18250000000E+03  0.00000000000E+00 0.  1.
         11   -1    0    0    0    0 -0.00000000000E+00 -0.00000000000E+00 -0.18250000000E+03  0.18250000000E+03  0.00000000000E+00 0.  1.
        -11    1    1    2    0    0 -0.41655853923E+01  0.14143607078E+01  0.17216011265E+03  0.17221630848E+03  0.00000000000E+00 0.  1.
         11    1    1    2    0    0 -0.26880331967E+01 -0.42172997519E+00 -0.12598144646E+03  0.12601082585E+03  0.00000000000E+00 0.  1.
        -15    1    1    2    0    0  0.63894415725E+01  0.20992161309E+01  0.90570872911E+01  0.11420167738E+02  0.17770000000E+01 0. -1.
         15    1    1    2    0    0  0.46417701654E+00 -0.30918468635E+01 -0.55235753478E+02  0.55352697934E+02  0.17770000000E+01 0.  1.
</event>
<event>
 6    1  0.1196607E-002  0.1854428E+03  0.7546771E-02  0.1066136E+00
        -11   -1    0    0    0    0  0.00000000000E+00  0.00000000000E+00  0.18250000000E+03  0.18250000000E+03  0.00000000000E+00 0.  1.
         11   -1    0    0    0    0 -0.00000000000E+00 -0.00000000000E+00 -0.18250000000E+03  0.18250000000E+03  0.00000000000E+00 0. -1.
        -11    1    1    2    0    0  0.10546564142E+01 -0.37384997246E+01  0.15830744517E+03  0.15835509426E+03  0.00000000000E+00 0.  1.
         11    1    1    2    0    0  0.64861027584E+00 -0.24286673533E+01 -0.17953963171E+03  0.17955722897E+03  0.00000000000E+00 0. -1.
        -15    1    1    2    0    0 -0.43437657974E+01  0.38639505008E+01  0.62712225686E+00  0.61114176833E+01  0.17770000000E+01 0.  1.
         15    1    1    2    0    0  0.26404991074E+01  0.23032165771E+01  0.20605064285E+02  0.20976259088E+02  0.17770000000E+01 0. -1.
</event>
<event>
 6    1  0.1196607E-002  0.1878783E+03  0.7546771E-02  0.1064252E+00
        -11   -1    0    0    0    0  0.00000000000E+00  0.00000000000E+00  0.18250000000E+03  0.18250000000E+03  0.00000000000E+00 0.  1.
         11   -1    0    0    0    0 -0.00000000000E+00 -0.00000000000E+00 -0.18250000000E+03  0.18250000000E+03  0.00000000000E+00 0.  1.
        -11    1    1    2    0    0 -0.27839352242E+01 -0.56221669466E+00  0.15534498059E+03  0.15537094123E+03  0.00000000000E+00 0.  1.
         11    1    1    2    0    0  0.73510061694E+01 -0.74846542218E+01 -0.17681071206E+03  0.17712166790E+03  0.00000000000E+00 0.  1.
        -15    1    1    2    0    0 -0.12238344809E+02 -0.10041311571E+01  0.11324425663E+02  0.16798384108E+02  0.17770000000E+01 0.  1.
         15    1    1    2    0    0  0.76712738640E+01  0.90510020736E+01  0.10141305799E+02  0.15709006765E+02  0.17770000000E+01 0. -1.
</event>
<event>
 6    1  0.1196607E-002  0.1825516E+03  0.7546771E-02  0.1068414E+00
        -11   -1    0    0    0    0  0.00000000000E+00  0.00000000000E+00  0.18250000000E+03  0.18250000000E+03  0.00000000000E+00 0. -1.
         11   -1    0    0    0    0 -0.00000000000E+00 -0.00000000000E+00 -0.18250000000E+03  0.18250000000E+03  0.00000000000E+00 0.  1.
        -11    1    1    2    0    0 -0.14382008633E+01 -0.27317780647E+01  0.18242226020E+03  0.18244838188E+03  0.00000000000E+00 0. -1.
         11    1    1    2    0    0  0.32014535889E+00  0.13478266323E+01 -0.77141532634E+02  0.77153970649E+02  0.00000000000E+00 0.  1.
        -15    1    1    2    0    0 -0.46775573336E+00 -0.51660802837E+00 -0.37809647079E+02  0.37857797354E+02  0.17770000000E+01 0.  1.
         15    1    1    2    0    0  0.15858112378E+01  0.19005594607E+01 -0.67471080485E+02  0.67539850121E+02  0.17770000000E+01 0.  1.
</event>
<event>
 6    1  0.1196607E-002  0.1862027E+03  0.7546771E-02  0.1065545E+00
        -11   -1    0    0    0    0  0.00000000000E+00  0.00000000000E+00  0.18250000000E+03  0.18250000000E+03  0.00000000000E+00 0.  1.
         11   -1    0    0    0    0 -0.00000000000E+00 -0.00000000000E+00 -0.18250000000E+03  0.18250000000E+03  0.00000000000E+00 0.  1.
        -11    1    1    2    0    0  0.51346819320E+01  0.49731200608E+01  0.17865434730E+03  0.17879729497E+03  0.00000000000E+00 0.  1.
         11    1    1    2    0    0  0.23897242855E+01 -0.98565609261E+01 -0.13702505912E+03  0.13739988865E+03  0.00000000000E+00 0.  1.
        -15    1    1    2    0    0  0.18198739509E+01  0.15104631748E+01  0.22886774028E+01  0.37402156961E+01  0.17770000000E+01 0. -1.
         15    1    1    2    0    0 -0.93442801684E+01  0.33729776905E+01 -0.43917965578E+02  0.45062600678E+02  0.17770000000E+01 0.  1.
</event>
<event>
 6    1  0.1196607E-002  0.1845691E+03  0.7546771E-02  0.1066820E+00
        -11   -1    0    0    0    0  0.00000000000E+00  0.00000000000E+00  0.18250000000E+03  0.18250000000E+03  0.00000000000E+00 0. -1.
         11   -1    0    0    0    0 -0.00000000000E+00 -0.00000000000E+00 -0.18250000000E+03  0.18250000000E+03  0.00000000000E+00 0.  1.
        -11    1    1    2    0    0  0.53572660759E+01  0.99486166815E+00  0.17630941067E+03  0.17639358928E+03  0.00000000000E+00 0. -1.
         11    1    1    2    0    0 -0.33602027280E+01  0.35813301183E+01 -0.18036405434E+03  0.18043089809E+03  0.00000000000E+00 0.  1.
        -15    1    1    2    0    0 -0.15303429375E+01 -0.22247461620E+01  0.40622026695E+01  0.51914029433E+01  0.17770000000E+01 0. -1.
         15    1    1    2    0    0 -0.46672041040E+00 -0.23514456245E+01 -0.75590022693E-02  0.29841096838E+01  0.17770000000E+01 0.  1.
</event>
<event>
 6    1  0.1196607E-002  0.1860802E+03  0.7546771E-02  0.1065640E+00
        -11   -1    0    0    0    0  0.00000000000E+00  0.00000000000E+00  0.18250000000E+03  0.18250000000E+03  0.00000000000E+00 0.  1.
         11   -1    0    0    0    0 -0.00000000000E+00 -0.00000000000E+00 -0.18250000000E+03  0.18250000000E+03  0.00000000000E+00 0.  1.
        -11    1    1    2    0    0  0.64433907637E+01 -0.15033499575E+00  0.17880369151E+03  0.17891981439E+03  0.00000000000E+00 0.  1.
         11    1    1    2    0    0  0.20877589703E+01  0.59930855713E+01 -0.16050277578E+03  0.16062819443E+03  0.00000000000E+00 0.  1.
        -15    1    1    2    0    0 -0.39615903820E+01  0.40836109795E+01 -0.33158839679E+01  0.68207691996E+01  0.17770000000E+01 0. -1.
         15    1    1    2    0    0 -0.45695593520E+01 -0.99263615550E+01 -0.14985031759E+02  0.18631221973E+02  0.17770000000E+01 0.  1.
</event>
<event>
 6    1  0.1196607E-002  0.1830587E+03  0.7546771E-02  0.1068011E+00
        -11   -1    0    0    0    0  0.00000000000E+00  0.00000000000E+00  0.18250000000E+03  0.18250000000E+03  0.00000000000E+00 0. -1.
         11   -1    0    0    0    0 -0.00000000000E+00 -0.00000000000E+00 -0.18250000000E+03  0.18250000000E+03  0.00000000000E+00 0. -1.
        -11    1    1    2    0    0  0.44162393076E+00 -0.20422038421E+01  0.13066472424E+03  0.13068142863E+03  0.00000000000E+00 0. -1.
         11    1    1    2    0    0  0.19565088543E+01 -0.23292940160E+01 -0.18191588611E+03  0.18194131789E+03  0.00000000000E+00 0. -1.
        -15    1    1    2    0    0 -0.13418933346E+00 -0.18231546792E+01  0.28733506515E+02  0.28846386696E+02  0.17770000000E+01 0. -1.
         15    1    1    2    0    0 -0.22639434516E+01  0.61946525373E+01  0.22517655348E+02  0.23530866779E+02  0.17770000000E+01 0.  1.
</event>
<event>
 6    1  0.1196607E-002  0.1864346E+03  0.7546771E-02  0.1065365E+00
        -11   -1    0    0    0    0  0.00000000000E+00  0.00000000000E+00  0.18250000000E+03  0.18250000000E+03  0.00000000000E+00 0. -1.
         11   -1    0    0    0    0 -0.00000000000E+00 -0.00000000000E+00 -0.18250000000E+03  0.18250000000E+03  0.00000000000E+00 0.  1.
        -11    1    1    2    0    0  0.67672739526E+01 -0.76864559521E+01  0.17827151276E+03  0.17856542180E+03  0.00000000000E+00 0. -1.
         11    1    1    2    0    0  0.23070538675E+01  0.37472957820E+01 -0.16648006159E+03  0.16653821073E+03  0.00000000000E+00 0.  1.
        -15    1    1    2    0    0 -0.77223773982E+00 -0.68249479104E+00 -0.98177832387E+01  0.10030391168E+02  0.17770000000E+01 0.  1.
         15    1    1    2    0    0 -0.83020900803E+01  0.46216549611E+01 -0.19736679286E+01  0.98659763011E+01  0.17770000000E+01 0. -1.
</event>
<event>
 6    1  0.1196607E-002  0.1868105E+03  0.7546771E-02  0.1065075E+00
        -11   -1    0    0    0    0  0.00000000000E+00  0.00000000000E+00  0.18250000000E+03  0.18250000000E+03  0.00000000000E+00 0.  1.
         11   -1    0    0    0    0 -0.00000000000E+00 -0.00000000000E+00 -0.18250000000E+03  0.18250000000E+03  0.00000000000E+00 0.  1.
        -11    1    1    2    0    0 -0.10502971034E+00  0.39318103500E+01  0.17814612674E+03  0.17818954132E+03  0.00000000000E+00 0.  1.
         11    1    1    2    0    0  0.40462808217E+01 -0.24139258239E+01 -0.16992008301E+03  0.16998539360E+03  0.00000000000E+00 0.  1.
        -15    1    1    2    0    0 -0.39098315235E+01  0.23952486419E+01 -0.10763815866E+02  0.11833911424E+02  0.17770000000E+01 0.  1.
         15    1    1    2    0    0 -0.31419587918E-01 -0.39131331679E+01  0.25377721398E+01  0.49911536556E+01  0.17770000000E+01 0.  1.
</event>
<event>
 6    1  0.1196607E-002  0.1841375E+03  0.7546771E-02  0.1067159E+00
        -11   -1    0    0    0    0  0.00000000000E+00  0.00000000000E+00  0.18250000000E+03  0.18250000000E+03  0.00000000000E+00 0.  1.
         11   -1    0    0    0    0 -0.00000000000E+00 -0.00000000000E+00 -0.18250000000E+03  0.18250000000E+03  0.00000000000E+00 0.  1.
        -11    1    1    2    0    0  0.14439171266E+01  0.32653609540E+01  0.18082722610E+03  0.18086247034E+03  0.00000000000E+00 0.  1.
         11    1    1    2    0    0  0.18632291612E-01 -0.25589734361E+01 -0.17456116069E+03  0.17457991727E+03  0.00000000000E+00 0.  1.
        -15    1    1    2    0    0 -0.11337157606E+01 -0.14296054713E+00 -0.71592755903E+01  0.74644963073E+01  0.17770000000E+01 0.  1.
         15    1    1    2    0    0 -0.32883365764E+00 -0.56342697072E+00  0.89321018196E+00  0.20931160873E+01  0.17770000000E+01 0. -1.
</event>
<event>
 6    1  0.1196607E-002  0.1869673E+03  0.7546771E-02  0.1064953E+00
        -11   -1    0    0    0    0  0.00000000000E+00  0.00000000000E+00  0.18250000000E+03  0.18250000000E+03  0.00000000000E+00 0.  1.
         11   -1    0    0    0    0 -0.00000000000E+00 -0.00000000000E+00 -0.18250000000E+03  0.18250000000E+03  0.00000000000E+00 0. -1.
        -11    1    1    2    0    0  0.13564373724E+02  0.27534002108E+00  0.17751502613E+03  0.17803272887E+03  0.00000000000E+00 0.  1.
         11    1    1    2    0    0 -0.30637886221E+01  0.11058622945E+01 -0.16131018917E+03  0.16134307193E+03  0.00000000000E+00 0. -1.
        -15    1    1    2    0    0 -0.13434072123E+02 -0.26214306602E+01 -0.64991723216E+01  0.15255922207E+02  0.17770000000E+01 0. -1.
         15    1    1    2    0    0  0.29334870211E+01  0.12402283447E+01 -0.97056646467E+01  0.10368276987E+02  0.17770000000E+01 0.  1.
</event>
<event>
 6    1  0.1196607E-002  0.1826281E+03  0.7546771E-02  0.1068353E+00
        -11   -1    0    0    0    0  0.00000000000E+00  0.00000000000E+00  0.18250000000E+03  0.18250000000E+03  0.00000000000E+00 0.  1.
         11   -1    0    0    0    0 -0.00000000000E+00 -0.00000000000E+00 -0.18250000000E+03  0.18250000000E+03  0.00000000000E+00 0.  1.
        -11    1    1    2    0    0  0.14746281719E+01  0.40875982014E+01  0.18232011362E+03  0.18237189152E+03  0.00000000000E+00 0.  1.
         11    1    1    2    0    0  0.57455887851E+00 -0.56070778339E+00 -0.18574371454E+02  0.18591712832E+02  0.00000000000E+00 0.  1.
        -15    1    1    2    0    0 -0.42290042836E+00  0.18572800926E+01 -0.95709897794E+02  0.95745342440E+02  0.17770000000E+01 0.  1.
         15    1    1    2    0    0 -0.16262866221E+01 -0.53841705106E+01 -0.68035844369E+02  0.68291053208E+02  0.17770000000E+01 0.  1.
</event>
<event>
 6    1  0.1196607E-002  0.1933813E+03  0.7546771E-02  0.1060109E+00
        -11   -1    0    0    0    0  0.00000000000E+00  0.00000000000E+00  0.18250000000E+03  0.18250000000E+03  0.00000000000E+00 0. -1.
         11   -1    0    0    0    0 -0.00000000000E+00 -0.00000000000E+00 -0.18250000000E+03  0.18250000000E+03  0.00000000000E+00 0. -1.
        -11    1    1    2    0    0  0.52462806380E+01 -0.93089660667E+01  0.17128569253E+03  0.17161867257E+03  0.00000000000E+00 0. -1.
         11    1    1    2    0    0 -0.60576808084E+01  0.99434689539E+01 -0.16951983175E+03  0.16991922030E+03  0.00000000000E+00 0. -1.
        -15    1    1    2    0    0 -0.87686715079E+01  0.64191617434E+01  0.11898354933E+01  0.11075589149E+02  0.17770000000E+01 0. -1.
         15    1    1    2    0    0  0.95800716784E+01 -0.70536646306E+01 -0.29556962748E+01  0.12386517975E+02  0.17770000000E+01 0. -1.
</event>
<event>
 6    1  0.1196607E-002  0.1849404E+03  0.7546771E-02  0.1066529E+00
        -11   -1    0    0    0    0  0.00000000000E+00  0.00000000000E+00  0.18250000000E+03  0.18250000000E+03  0.00000000000E+00 0. -1.
         11   -1    0    0    0    0 -0.00000000000E+00 -0.00000000000E+00 -0.18250000000E+03  0.18250000000E+03  0.00000000000E+00 0. -1.
        -11    1    1    2    0    0 -0.24545067836E+01  0.28290020292E+01  0.18002064252E+03  0.18005960011E+03  0.00000000000E+00 0. -1.
         11    1    1    2    0    0  0.17210915012E+01  0.23865171292E+01 -0.16538097995E+03  0.16540715266E+03  0.00000000000E+00 0. -1.
        -15    1    1    2    0    0 -0.85177162093E+00 -0.40627049501E+01 -0.15952874496E+02  0.16579596499E+02  0.17770000000E+01 0. -1.
         15    1    1    2    0    0  0.15851869033E+01 -0.11528142083E+01  0.13132119256E+01  0.29536507374E+01  0.17770000000E+01 0. -1.
</event>
<event>
 6    1  0.1196607E-002  0.1849550E+03  0.7546771E-02  0.1066517E+00
        -11   -1    0    0    0    0  0.00000000000E+00  0.00000000000E+00  0.18250000000E+03  0.18250000000E+03  0.00000000000E+00 0.  1.
         11   -1    0    0    0    0 -0.00000000000E+00 -0.00000000000E+00 -0.18250000000E+03  0.18250000000E+03  0.00000000000E+00 0. -1.
        -11    1    1    2    0    0  0.30584445923E+01  0.35832000473E+01  0.14059788963E+03  0.14067679259E+03  0.00000000000E+00 0.  1.
         11    1    1    2    0    0 -0.84221602838E+00 -0.28582959764E+01 -0.18002033761E+03  0.18004499753E+03  0.00000000000E+00 0. -1.
        -15    1    1    2    0    0 -0.11500596078E+01 -0.17889234422E+01  0.41234122191E+02  0.41327151439E+02  0.17770000000E+01 0.  1.
         15    1    1    2    0    0 -0.10661689561E+01  0.10640193713E+01 -0.18116742114E+01  0.29510584396E+01  0.17770000000E+01 0. -1.
</event>
<event>
 6    1  0.1196607E-002  0.1826211E+03  0.7546771E-02  0.1068358E+00
        -11   -1    0    0    0    0  0.00000000000E+00  0.00000000000E+00  0.18250000000E+03  0.18250000000E+03  0.00000000000E+00 0.  1.
         11   -1    0    0    0    0 -0.00000000000E+00 -0.00000000000E+00 -0.18250000000E+03  0.18250000000E+03  0.00000000000E+00 0. -1.
        -11    1    1    2    0    0 -0.24682626058E+01 -0.91434113627E+00  0.18235989113E+03  0.18237888648E+03  0.00000000000E+00 0.  1.
         11    1    1    2    0    0 -0.15294426204E+01 -0.88256804846E+00 -0.10943436850E+03  0.10944861411E+03  0.00000000000E+00 0. -1.
        -15    1    1    2    0    0  0.96406643494E+00 -0.46325651833E-01 -0.27118220937E+02  0.27193514042E+02  0.17770000000E+01 0. -1.
         15    1    1    2    0    0  0.30336387912E+01  0.18432348366E+01 -0.45807301692E+02  0.45978985377E+02  0.17770000000E+01 0.  1.
</event>
<event>
 6    1  0.1196607E-002  0.1827575E+03  0.7546771E-02  0.1068250E+00
        -11   -1    0    0    0    0  0.00000000000E+00  0.00000000000E+00  0.18250000000E+03  0.18250000000E+03  0.00000000000E+00 0.  1.
         11   -1    0    0    0    0 -0.00000000000E+00 -0.00000000000E+00 -0.18250000000E+03  0.18250000000E+03  0.00000000000E+00 0. -1.
        -11    1    1    2    0    0 -0.70860206605E+01 -0.42709892267E+01  0.18205458722E+03  0.18224249165E+03  0.00000000000E+00 0.  1.
         11    1    1    2    0    0  0.13706316612E+01 -0.14593082943E+01 -0.54703805674E+02  0.54740428999E+02  0.00000000000E+00 0. -1.
        -15    1    1    2    0    0 -0.19737280130E+01 -0.56467529828E+00 -0.38252751655E+02  0.38348992146E+02  0.17770000000E+01 0. -1.
         15    1    1    2    0    0  0.76891170122E+01  0.62949728193E+01 -0.89098029888E+02  0.89668087200E+02  0.17770000000E+01 0. -1.
</event>
<event>
 6    1  0.1196607E-002  0.1855576E+03  0.7546771E-02  0.1066047E+00
        -11   -1    0    0    0    0  0.00000000000E+00  0.00000000000E+00  0.18250000000E+03  0.18250000000E+03  0.00000000000E+00 0. -1.
         11   -1    0    0    0    0 -0.00000000000E+00 -0.00000000000E+00 -0.18250000000E+03  0.18250000000E+03  0.00000000000E+00 0.  1.
        -11    1    1    2    0    0  0.39109233751E+01  0.13647217661E+01  0.17939458355E+03  0.17944239854E+03  0.00000000000E+00 0. -1.
         11    1    1    2    0    0  0.65605742532E+00  0.42069294093E+01 -0.15622363756E+03  0.15628164831E+03  0.00000000000E+00 0.  1.
        -15    1    1    2    0    0 -0.30200209179E+01  0.23599869428E+01  0.44922789530E+00  0.42484820132E+01  0.17770000000E+01 0. -1.
         15    1    1    2    0    0 -0.15469598825E+01 -0.79316381181E+01 -0.23620173889E+02  0.25027471140E+02  0.17770000000E+01 0.  1.
</event>
<event>
 6    1  0.1196607E-002  0.1841692E+03  0.7546771E-02  0.1067134E+00
        -11   -1    0    0    0    0  0.00000000000E+00  0.00000000000E+00  0.18250000000E+03  0.18250000000E+03  0.00000000000E+00 0.  1.
         11   -1    0    0    0    0 -0.00000000000E+00 -0.00000000000E+00 -0.18250000000E+03  0.18250000000E+03  0.00000000000E+00 0.  1.
        -11    1    1    2    0    0  0.34197869282E+00 -0.25490832139E+01  0.16616259026E+03  0.16618249359E+03  0.00000000000E+00 0.  1.
         11    1    1    2    0    0 -0.20547386943E+01  0.16445714921E+01 -0.18081168848E+03  0.18083084156E+03  0.00000000000E+00 0.  1.
        -15    1    1    2    0    0  0.14605947324E+01 -0.35831001221E+01  0.25624666103E+01  0.49694977197E+01  0.17770000000E+01 0. -1.
         15    1    1    2    0    0  0.25216526905E+00  0.44876118439E+01  0.12086631614E+02  0.13017167132E+02  0.17770000000E+01 0.  1.
</event>
<event>
 6    1  0.1196607E-002  0.1873294E+03  0.7546771E-02  0.1064674E+00
        -11   -1    0    0    0    0  0.00000000000E+00  0.00000000000E+00  0.18250000000E+03  0.18250000000E+03  0.00000000000E+00 0. -1.
         11   -1    0    0    0    0 -0.00000000000E+00 -0.00000000000E+00 -0.18250000000E+03  0.18250000000E+03  0.00000000000E+00 0. -1.
        -11    1    1    2    0    0 -0.36550314958E+01  0.10256840496E+01  0.13887343874E+03  0.13892531544E+03  0.00000000000E+00 0. -1.
         11    1    1    2    0    0  0.85856991869E+01  0.58784187448E+01 -0.17736566136E+03  0.17767061622E+03  0.00000000000E+00 0. -1.
        -15    1    1    2    0    0 -0.16068383052E+01 -0.35945446576E+01  0.42039351540E+02  0.42260708555E+02  0.17770000000E+01 0. -1.
         15    1    1    2    0    0 -0.33238293858E+01 -0.33095581369E+01 -0.35471289201E+01  0.61433597830E+01  0.17770000000E+01 0.  1.
</event>
<event>
 6    1  0.1196607E-002  0.1828083E+03  0.7546771E-02  0.1068210E+00
        -11   -1    0    0    0    0  0.00000000000E+00  0.00000000000E+00  0.18250000000E+03  0.18250000000E+03  0.00000000000E+00 0. -1.
         11   -1    0    0    0    0 -0.00000000000E+00 -0.00000000000E+00 -0.18250000000E+03  0.18250000000E+03  0.00000000000E+00 0. -1.
        -11    1    1    2    0    0 -0.62666385224E+00  0.18377984362E+00  0.37326321069E+02  0.37332033526E+02  0.00000000000E+00 0. -1.
         11    1    1    2    0    0  0.22595785964E+01 -0.16999685282E+01 -0.18216975507E+03  0.18219169918E+03  0.00000000000E+00 0. -1.
        -15    1    1    2    0    0 -0.52296806340E+01  0.48578944760E+01  0.56219877804E+02  0.56699039564E+02  0.17770000000E+01 0.  1.
         15    1    1    2    0    0  0.35967658898E+01 -0.33417057914E+01  0.88623556193E+02  0.88777227732E+02  0.17770000000E+01 0. -1.
</event>
<event>
 6    1  0.1196607E-002  0.1833142E+03  0.7546771E-02  0.1067809E+00
        -11   -1    0    0    0    0  0.00000000000E+00  0.00000000000E+00  0.18250000000E+03  0.18250000000E+03  0.00000000000E+00 0.  1.
         11   -1    0    0    0    0 -0.00000000000E+00 -0.00000000000E+00 -0.18250000000E+03  0.18250000000E+03  0.00000000000E+00 0.  1.
        -11    1    1    2    0    0  0.70918557173E+01 -0.29241968746E+01  0.18152376123E+03  0.18168577609E+03  0.00000000000E+00 0.  1.
         11    1    1    2    0    0  0.26802914964E+01  0.14218468571E+01 -0.58688896660E+02  0.58767271522E+02  0.00000000000E+00 0.  1.
        -15    1    1    2    0    0 -0.10186582188E+02  0.76209173661E+01 -0.10049369737E+03  0.10131133095E+03  0.17770000000E+01 0.  1.
         15    1    1    2    0    0  0.41443497411E+00 -0.61185673486E+01 -0.22341167193E+02  0.23235621431E+02  0.17770000000E+01 0.  1.
</event>
<event>
 6    1  0.1196607E-002  0.1837909E+03  0.7546771E-02  0.1067432E+00
        -11   -1    0    0    0    0  0.00000000000E+00  0.00000000000E+00  0.18250000000E+03  0.18250000000E+03  0.00000000000E+00 0. -1.
         11   -1    0    0    0    0 -0.00000000000E+00 -0.00000000000E+00 -0.18250000000E+03  0.18250000000E+03  0.00000000000E+00 0.  1.
        -11    1    1    2    0    0  0.14472081052E+01 -0.20937657424E+00  0.10746119185E+03  0.10747114033E+03  0.00000000000E+00 0. -1.
         11    1    1    2    0    0 -0.35951656444E+01  0.73990697785E+01 -0.18102227019E+03  0.18120908850E+03  0.00000000000E+00 0.  1.
        -15    1    1    2    0    0  0.15712209536E+01  0.17971152436E+01  0.59207336630E+02  0.59282078222E+02  0.17770000000E+01 0. -1.
         15    1    1    2    0    0  0.57673658571E+00 -0.89868084479E+01  0.14353741708E+02  0.17037692954E+02  0.17770000000E+01 0.  1.
</event>
<event>
 6    1  0.1196607E-002  0.1861358E+03  0.7546771E-02  0.1065597E+00
        -11   -1    0    0    0    0  0.00000000000E+00  0.00000000000E+00  0.18250000000E+03  0.18250000000E+03  0.00000000000E+00 0. -1.
         11   -1    0    0    0    0 -0.00000000000E+00 -0.00000000000E+00 -0.18250000000E+03  0.18250000000E+03  0.00000000000E+00 0. -1.
        -11    1    1    2    0    0  0.14310329462E+01 -0.31111261020E+01  0.17883139309E+03  0.17886417784E+03  0.00000000000E+00 0. -1.
         11    1    1    2    0    0  0.26042168189E+01  0.20113739343E+01 -0.11817047548E+03  0.11821627995E+03  0.00000000000E+00 0. -1.
        -15    1    1    2    0    0 -0.16908085671E+01  0.19759543748E+01  0.29018398511E+01  0.42827132549E+01  0.17770000000E+01 0.  1.
         15    1    1    2    0    0 -0.23444411980E+01 -0.87620220707E+00 -0.63562757455E+02  0.63636828952E+02  0.17770000000E+01 0. -1.
</event>
<event>
 6    1  0.1196607E-002  0.1982596E+03  0.7546771E-02  0.1056559E+00
        -11   -1    0    0    0    0  0.00000000000E+00  0.00000000000E+00  0.18250000000E+03  0.18250000000E+03  0.00000000000E+00 0. -1.
         11   -1    0    0    0    0 -0.00000000000E+00 -0.00000000000E+00 -0.18250000000E+03  0.18250000000E+03  0.00000000000E+00 0.  1.
        -11    1    1    2    0    0  0.73534274486E+01 -0.56056892398E+00  0.14026116300E+03  0.14045490728E+03  0.00000000000E+00 0. -1.
         11    1    1    2    0    0 -0.61857179337E+01 -0.11202605014E+01 -0.16662182786E+03  0.16674037187E+03  0.00000000000E+00 0.  1.
        -15    1    1    2    0    0 -0.77440411965E+01  0.67551544129E+01  0.40219625333E+02  0.41549708496E+02  0.17770000000E+01 0. -1.
         15    1    1    2    0    0  0.65763316816E+01 -0.50743249876E+01 -0.13858960471E+02  0.16255012359E+02  0.17770000000E+01 0. -1.
</event>
<event>
 6    1  0.1196607E-002  0.1825636E+03  0.7546771E-02  0.1068404E+00
        -11   -1    0    0    0    0  0.00000000000E+00  0.00000000000E+00  0.18250000000E+03  0.18250000000E+03  0.00000000000E+00 0. -1.
         11   -1    0    0    0    0 -0.00000000000E+00 -0.00000000000E+00 -0.18250000000E+03  0.18250000000E+03  0.00000000000E+00 0.  1.
        -11    1    1    2    0    0  0.16696736443E+01  0.20588944082E+01  0.18241716685E+03  0.18243642623E+03  0.00000000000E+00 0. -1.
         11    1    1    2    0    0 -0.53738202126E-01  0.59210846779E+00 -0.32237769244E+02  0.32243251170E+02  0.00000000000E+00 0.  1.
        -15    1    1    2    0    0 -0.10450025741E+01 -0.36336437438E+01 -0.11654119558E+03  0.11661605118E+03  0.17770000000E+01 0.  1.
         15    1    1    2    0    0 -0.57093286800E+00  0.98264086780E+00 -0.33638202021E+02  0.33704271415E+02  0.17770000000E+01 0. -1.
</event>
<event>
 6    1  0.1196607E-002  0.1840556E+03  0.7546771E-02  0.1067223E+00
        -11   -1    0    0    0    0  0.00000000000E+00  0.00000000000E+00  0.18250000000E+03  0.18250000000E+03  0.00000000000E+00 0.  1.
         11   -1    0    0    0    0 -0.00000000000E+00 -0.00000000000E+00 -0.18250000000E+03  0.18250000000E+03  0.00000000000E+00 0.  1.
        -11    1    1    2    0    0  0.15290160654E+01  0.34091181189E+01  0.18090577094E+03  0.18094435039E+03  0.00000000000E+00 0.  1.
         11    1    1    2    0    0  0.88394548852E+00  0.70878802077E+00 -0.50257222650E+02  0.50269992725E+02  0.00000000000E+00 0.  1.
        -15    1    1    2    0    0 -0.68308062395E+00 -0.50437098044E+01 -0.13100389782E+03  0.13111477637E+03  0.17770000000E+01 0.  1.
         15    1    1    2    0    0 -0.17298809300E+01  0.92580366477E+00  0.35534952972E+00  0.26708805188E+01  0.17770000000E+01 0. -1.
</event>
<event>
 6    1  0.1983559E-002  0.1901050E+03  0.7546771E-02  0.1062557E+00
        -11   -1    0    0    0    0  0.00000000000E+00  0.00000000000E+00  0.18250000000E+03  0.18250000000E+03  0.00000000000E+00 0. -1.
         11   -1    0    0    0    0 -0.00000000000E+00 -0.00000000000E+00 -0.18250000000E+03  0.18250000000E+03  0.00000000000E+00 0.  1.
        -11    1    1    2    0    0 -0.58240005037E+01 -0.37908810017E+01  0.17475686567E+03  0.17489497380E+03  0.00000000000E+00 0. -1.
         11    1    1    2    0    0 -0.11884828081E+00  0.16700870760E+01 -0.12237905392E+03  0.12239050680E+03  0.00000000000E+00 0.  1.
        -15    1    1    2    0    0  0.51669089602E+01  0.51465546901E+01  0.57626614409E+01  0.94630845534E+01  0.17770000000E+01 0. -1.
         15    1    1    2    0    0  0.77593982430E+00 -0.30257607644E+01 -0.58140473189E+02  0.58251434853E+02  0.17770000000E+01 0. -1.
</event>
<event>
 6    1  0.1196607E-002  0.1868032E+03  0.7546771E-02  0.1065080E+00
        -11   -1    0    0    0    0  0.00000000000E+00  0.00000000000E+00  0.18250000000E+03  0.18250000000E+03  0.00000000000E+00 0.  1.
         11   -1    0    0    0    0 -0.00000000000E+00 -0.00000000000E+00 -0.18250000000E+03  0.18250000000E+03  0.00000000000E+00 0.  1.
        -11    1    1    2    0    0 -0.23194510035E+01  0.32306627662E+01  0.17815240900E+03  0.17819679534E+03  0.00000000000E+00 0.  1.
         11    1    1    2    0    0 -0.29238016619E+01 -0.13205591389E+01 -0.15571727481E+03  0.15575031995E+03  0.00000000000E+00 0.  1.
        -15    1    1    2    0    0  0.68087249271E+01 -0.11551711293E+01  0.12482622739E+01  0.72394090350E+01  0.17770000000E+01 0. -1.
         15    1    1    2    0    0 -0.15654722617E+01 -0.75493249798E+00 -0.23683396469E+02  0.23813475676E+02  0.17770000000E+01 0.  1.
</event>
<event>
 6    1  0.1196607E-002  0.1857480E+03  0.7546771E-02  0.1065898E+00
        -11   -1    0    0    0    0  0.00000000000E+00  0.00000000000E+00  0.18250000000E+03  0.18250000000E+03  0.00000000000E+00 0. -1.
         11   -1    0    0    0    0 -0.00000000000E+00 -0.00000000000E+00 -0.18250000000E+03  0.18250000000E+03  0.00000000000E+00 0.  1.
        -11    1    1    2    0    0  0.61690887329E-01 -0.57006291544E+01  0.17916129112E+03  0.17925197129E+03  0.00000000000E+00 0. -1.
         11    1    1    2    0    0  0.75973858425E+00  0.12023904598E+02 -0.68493612263E+02  0.69545139337E+02  0.00000000000E+00 0.  1.
        -15    1    1    2    0    0  0.27597209927E+01 -0.52859082364E+01 -0.11175810397E+03  0.11193117715E+03  0.17770000000E+01 0.  1.
         15    1    1    2    0    0 -0.35811504643E+01 -0.10373672076E+01  0.10904251172E+01  0.42717122219E+01  0.17770000000E+01 0. -1.
</event>
<event>
 6    1  0.1196607E-002  0.1836308E+03  0.7546771E-02  0.1067558E+00
        -11   -1    0    0    0    0  0.00000000000E+00  0.00000000000E+00  0.18250000000E+03  0.18250000000E+03  0.00000000000E+00 0.  1.
         11   -1    0    0    0    0 -0.00000000000E+00 -0.00000000000E+00 -0.18250000000E+03  0.18250000000E+03  0.00000000000E+00 0. -1.
        -11    1    1    2    0    0  0.61032355409E+00 -0.33692840852E+01  0.18133689340E+03  0.18136921867E+03  0.00000000000E+00 0.  1.
         11    1    1    2    0    0  0.10324046851E+01 -0.25404396648E+00 -0.74751730430E+02  0.74759291062E+02  0.00000000000E+00 0. -1.
        -15    1    1    2    0    0 -0.36216410096E+00 -0.47030538646E+01 -0.56574777166E+01  0.75772463074E+01  0.17770000000E+01 0.  1.
         15    1    1    2    0    0 -0.12805641383E+01  0.83263819162E+01 -0.10092768526E+03  0.10129424397E+03  0.17770000000E+01 0. -1.
</event>
<event>
 6    1  0.1196607E-002  0.1827536E+03  0.7546771E-02  0.1068253E+00
        -11   -1    0    0    0    0  0.00000000000E+00  0.00000000000E+00  0.18250000000E+03  0.18250000000E+03  0.00000000000E+00 0.  1.
         11   -1    0    0    0    0 -0.00000000000E+00 -0.00000000000E+00 -0.18250000000E+03  0.18250000000E+03  0.00000000000E+00 0. -1.
        -11    1    1    2    0    0 -0.14763919146E+01  0.29717561241E+01  0.58555241118E+02  0.58649188655E+02  0.00000000000E+00 0.  1.
         11    1    1    2    0    0 -0.24706563383E+01 -0.12182860396E+01 -0.18222556585E+03  0.18224638601E+03  0.00000000000E+00 0. -1.
        -15    1    1    2    0    0  0.62936950142E+01 -0.51820520271E-01  0.96652015981E+02  0.96873026196E+02  0.17770000000E+01 0.  1.
         15    1    1    2    0    0 -0.23466467614E+01 -0.17016495642E+01  0.27018308753E+02  0.27231399140E+02  0.17770000000E+01 0.  1.
</event>
<event>
 6    1  0.1196607E-002  0.1874982E+03  0.7546771E-02  0.1064544E+00
        -11   -1    0    0    0    0  0.00000000000E+00  0.00000000000E+00  0.18250000000E+03  0.18250000000E+03  0.00000000000E+00 0. -1.
         11   -1    0    0    0    0 -0.00000000000E+00 -0.00000000000E+00 -0.18250000000E+03  0.18250000000E+03  0.00000000000E+00 0. -1.
        -11    1    1    2    0    0 -0.51506418492E-01 -0.33806119848E+01  0.16839569779E+03  0.16842963582E+03  0.00000000000E+00 0. -1.
         11    1    1    2    0    0 -0.36366481625E+01 -0.50714852579E+01 -0.17739202581E+03  0.17750176335E+03  0.00000000000E+00 0. -1.
        -15    1    1    2    0    0  0.57209232222E+01  0.24311099579E+01  0.10472057687E+02  0.12306948417E+02  0.17770000000E+01 0. -1.
         15    1    1    2    0    0 -0.20327686412E+01  0.60209872848E+01 -0.14757296671E+01  0.67616524077E+01  0.17770000000E+01 0.  1.
</event>
<event>
 6    1  0.1196607E-002  0.1874230E+03  0.7546771E-02  0.1064602E+00
        -11   -1    0    0    0    0  0.00000000000E+00  0.00000000000E+00  0.18250000000E+03  0.18250000000E+03  0.00000000000E+00 0. -1.
         11   -1    0    0    0    0 -0.00000000000E+00 -0.00000000000E+00 -0.18250000000E+03  0.18250000000E+03  0.00000000000E+00 0. -1.
        -11    1    1    2    0    0  0.20517834973E+01 -0.20363017354E+01  0.17755343807E+03  0.17757696841E+03  0.00000000000E+00 0. -1.
         11    1    1    2    0    0 -0.10503940237E+01 -0.35364958744E+01 -0.16700717523E+03  0.16704791740E+03  0.00000000000E+00 0. -1.
        -15    1    1    2    0    0 -0.20246890663E+01  0.31427441388E-01 -0.13502205394E+02  0.13768356220E+02  0.17770000000E+01 0. -1.
         15    1    1    2    0    0  0.10232995927E+01  0.55413701684E+01  0.29559425544E+01  0.66067579632E+01  0.17770000000E+01 0.  1.
</event>
<event>
 6    1  0.1196607E-002  0.1787238E+03  0.7546771E-02  0.1071501E+00
        -11   -1    0    0    0    0  0.00000000000E+00  0.00000000000E+00  0.18250000000E+03  0.18250000000E+03  0.00000000000E+00 0.  1.
         11   -1    0    0    0    0 -0.00000000000E+00 -0.00000000000E+00 -0.18250000000E+03  0.18250000000E+03  0.00000000000E+00 0. -1.
        -11    1    1    2    0    0 -0.14963688775E+01 -0.24154699871E+01  0.17778545253E+03  0.17780815714E+03  0.00000000000E+00 0.  1.
         11    1    1    2    0    0 -0.40815930274E+01  0.66932299451E+00 -0.17964453776E+03  0.17969214602E+03  0.00000000000E+00 0. -1.
        -15    1    1    2    0    0  0.37731117712E+01  0.31529005036E+00  0.18917857453E+01  0.45904643076E+01  0.17770000000E+01 0. -1.
         15    1    1    2    0    0  0.18048501337E+01  0.14308569422E+01 -0.32700518444E-01  0.29092325308E+01  0.17770000000E+01 0.  1.
</event>
<event>
 6    1  0.1196607E-002  0.1867556E+03  0.7546771E-02  0.1065117E+00
        -11   -1    0    0    0    0  0.00000000000E+00  0.00000000000E+00  0.18250000000E+03  0.18250000000E+03  0.00000000000E+00 0.  1.
         11   -1    0    0    0    0 -0.00000000000E+00 -0.00000000000E+00 -0.18250000000E+03  0.18250000000E+03  0.00000000000E+00 0. -1.
        -11    1    1    2    0    0  0.52575906380E+01 -0.21943446442E+01  0.15199200330E+03  0.15209873923E+03  0.00000000000E+00 0.  1.
         11    1    1    2    0    0 -0.58115968940E+00  0.61454555385E+01 -0.17813752652E+03  0.17824444654E+03  0.00000000000E+00 0. -1.
        -15    1    1    2    0    0 -0.26343762819E+01 -0.60090681475E+01 -0.13681063981E+01  0.69338504824E+01  0.17770000000E+01 0. -1.
         15    1    1    2    0    0 -0.20420546667E+01  0.20579572531E+01  0.27513629616E+02  0.27722963747E+02  0.17770000000E+01 0.  1.
</event>
<event>
 6    1  0.1196607E-002  0.1826120E+03  0.7546771E-02  0.1068366E+00
        -11   -1    0    0    0    0  0.00000000000E+00  0.00000000000E+00  0.18250000000E+03  0.18250000000E+03  0.00000000000E+00 0.  1.
         11   -1    0    0    0    0 -0.00000000000E+00 -0.00000000000E+00 -0.18250000000E+03  0.18250000000E+03  0.00000000000E+00 0.  1.
        -11    1    1    2    0    0  0.10207469227E+00 -0.52663318522E+00  0.11992396861E+02  0.12004388541E+02  0.00000000000E+00 0.  1.
         11    1    1    2    0    0  0.23069895473E+01  0.26327055888E+01 -0.18235440238E+03  0.18238799688E+03  0.00000000000E+00 0.  1.
        -15    1    1    2    0    0 -0.31030644593E+01 -0.13554829153E+01  0.31612107506E+02  0.31842572335E+02  0.17770000000E+01 0. -1.
         15    1    1    2    0    0  0.69400021968E+00 -0.75058948827E+00  0.13874989801E+03  0.13876504224E+03  0.17770000000E+01 0.  1.
</event>
<event>
 6    1  0.1196607E-002  0.1960845E+03  0.7546771E-02  0.1058128E+00
        -11   -1    0    0    0    0  0.00000000000E+00  0.00000000000E+00  0.18250000000E+03  0.18250000000E+03  0.00000000000E+00 0. -1.
         11   -1    0    0    0    0 -0.00000000000E+00 -0.00000000000E+00 -0.18250000000E+03  0.18250000000E+03  0.00000000000E+00 0.  1.
        -11    1    1    2    0    0 -0.38316450414E+01  0.94745508404E-01  0.13322728113E+03  0.13328240288E+03  0.00000000000E+00 0. -1.
         11    1    1    2    0    0 -0.19577212849E+01 -0.56570622902E+01 -0.16880940056E+03  0.16891550771E+03  0.00000000000E+00 0.  1.
        -15    1    1    2    0    0  0.99035239686E+00  0.98598635485E+01 -0.11479296573E+02  0.15268584933E+02  0.17770000000E+01 0.  1.
         15    1    1    2    0    0  0.47990139295E+01 -0.42975467667E+01  0.47061416005E+02  0.47533504481E+02  0.17770000000E+01 0. -1.
</event>
<event>
 6    1  0.1196607E-002  0.1827668E+03  0.7546771E-02  0.1068243E+00
        -11   -1    0    0    0    0  0.00000000000E+00  0.00000000000E+00  0.18250000000E+03  0.18250000000E+03  0.00000000000E+00 0.  1.
         11   -1    0    0    0    0 -0.00000000000E+00 -0.00000000000E+00 -0.18250000000E+03  0.18250000000E+03  0.00000000000E+00 0.  1.
        -11    1    1    2    0    0 -0.25422240640E+01  0.84950345736E+00  0.18221345176E+03  0.18223316538E+03  0.00000000000E+00 0.  1.
         11    1    1    2    0    0  0.32331025819E+01  0.83134262880E+00 -0.15014866982E+03  0.15018577540E+03  0.00000000000E+00 0.  1.
        -15    1    1    2    0    0 -0.21375890633E+01 -0.83366032912E+00 -0.23372653349E+02  0.23552132178E+02  0.17770000000E+01 0. -1.
         15    1    1    2    0    0  0.14467105454E+01 -0.84718575704E+00 -0.86921285919E+01  0.90289270441E+01  0.17770000000E+01 0.  1.
</event>
<event>
 6    1  0.1196607E-002  0.1837190E+03  0.7546771E-02  0.1067489E+00
        -11   -1    0    0    0    0  0.00000000000E+00  0.00000000000E+00  0.18250000000E+03  0.18250000000E+03  0.00000000000E+00 0. -1.
         11   -1    0    0    0    0 -0.00000000000E+00 -0.00000000000E+00 -0.18250000000E+03  0.18250000000E+03  0.00000000000E+00 0. -1.
        -11    1    1    2    0    0 -0.89430165294E+01 -0.57996838452E+00  0.18105933382E+03  0.18128098707E+03  0.00000000000E+00 0. -1.
         11    1    1    2    0    0  0.59000999640E+01 -0.86324827989E+00 -0.12484516486E+03  0.12498748564E+03  0.00000000000E+00 0. -1.
        -15    1    1    2    0    0  0.24804956466E+01  0.78669701453E+01 -0.17316232513E+02  0.19262702701E+02  0.17770000000E+01 0.  1.
         15    1    1    2    0    0  0.56242091880E+00 -0.64237534809E+01 -0.38897936449E+02  0.39468824597E+02  0.17770000000E+01 0. -1.
</event>
<event>
 6    1  0.1196607E-002  0.1946169E+03  0.7546771E-02  0.1059199E+00
        -11   -1    0    0    0    0  0.00000000000E+00  0.00000000000E+00  0.18250000000E+03  0.18250000000E+03  0.00000000000E+00 0. -1.
         11   -1    0    0    0    0 -0.00000000000E+00 -0.00000000000E+00 -0.18250000000E+03  0.18250000000E+03  0.00000000000E+00 0.  1.
        -11    1    1    2    0    0  0.32950966732E+01  0.25195201797E+01  0.12708040133E+03  0.12714807921E+03  0.00000000000E+00 0. -1.
         11    1    1    2    0    0  0.21891281696E+01  0.74427993545E+00 -0.17036741801E+03  0.17038310760E+03  0.00000000000E+00 0.  1.
        -15    1    1    2    0    0 -0.67386601095E+01 -0.41365175139E+01  0.54964352958E+02  0.55558600975E+02  0.17770000000E+01 0. -1.
         15    1    1    2    0    0  0.12544352666E+01  0.87271739872E+00 -0.11677336280E+02  0.11910212219E+02  0.17770000000E+01 0.  1.
</event>
<event>
 6    1  0.1196607E-002  0.1843217E+03  0.7546771E-02  0.1067014E+00
        -11   -1    0    0    0    0  0.00000000000E+00  0.00000000000E+00  0.18250000000E+03  0.18250000000E+03  0.00000000000E+00 0. -1.
         11   -1    0    0    0    0 -0.00000000000E+00 -0.00000000000E+00 -0.18250000000E+03  0.18250000000E+03  0.00000000000E+00 0. -1.
        -11    1    1    2    0    0  0.73270516751E+00 -0.67704700741E+01  0.18054991766E+03  0.18067830221E+03  0.00000000000E+00 0. -1.
         11    1    1    2    0    0 -0.48236242324E+01 -0.75820556302E+00 -0.16512438479E+03  0.16519656376E+03  0.00000000000E+00 0. -1.
        -15    1    1    2    0    0  0.10204829210E+01  0.74743657487E+01 -0.10248996545E+02  0.12849404185E+02  0.17770000000E+01 0.  1.
         15    1    1    2    0    0  0.30704361439E+01  0.54309888405E-01 -0.51765363334E+01  0.62757298451E+01  0.17770000000E+01 0. -1.
</event>
<event>
 6    1  0.1196607E-002  0.1838134E+03  0.7546771E-02  0.1067414E+00
        -11   -1    0    0    0    0  0.00000000000E+00  0.00000000000E+00  0.18250000000E+03  0.18250000000E+03  0.00000000000E+00 0. -1.
         11   -1    0    0    0    0 -0.00000000000E+00 -0.00000000000E+00 -0.18250000000E+03  0.18250000000E+03  0.00000000000E+00 0. -1.
        -11    1    1    2    0    0 -0.68653679692E+00  0.25104986665E+01  0.16725847025E+03  0.16727871893E+03  0.00000000000E+00 0. -1.
         11    1    1    2    0    0 -0.34191027128E+01 -0.22695702202E+01 -0.18114009595E+03  0.18118657669E+03  0.00000000000E+00 0. -1.
        -15    1    1    2    0    0  0.39762665731E+01  0.16473061187E+01  0.34776772313E+01  0.58117365077E+01  0.17770000000E+01 0. -1.
         15    1    1    2    0    0  0.12937293661E+00 -0.18882345649E+01  0.10403948469E+02  0.10722967867E+02  0.17770000000E+01 0. -1.
</event>
<event>
 6    1  0.1196607E-002  0.1831756E+03  0.7546771E-02  0.1067918E+00
        -11   -1    0    0    0    0  0.00000000000E+00  0.00000000000E+00  0.18250000000E+03  0.18250000000E+03  0.00000000000E+00 0.  1.
         11   -1    0    0    0    0 -0.00000000000E+00 -0.00000000000E+00 -0.18250000000E+03  0.18250000000E+03  0.00000000000E+00 0.  1.
        -11    1    1    2    0    0 -0.26842943734E+01 -0.86996398010E+00  0.95772713374E+02  0.95814272948E+02  0.00000000000E+00 0.  1.
         11    1    1    2    0    0 -0.56292844179E+01 -0.42785537602E+01 -0.18168686045E+03  0.18182439364E+03  0.00000000000E+00 0.  1.
        -15    1    1    2    0    0  0.51891204370E+01  0.25569093555E+01  0.13299602372E+02  0.14611704507E+02  0.17770000000E+01 0. -1.
         15    1    1    2    0    0  0.31244583544E+01  0.25916083848E+01  0.72614544701E+02  0.72749628900E+02  0.17770000000E+01 0.  1.
</event>
<event>
 6    1  0.1196607E-002  0.1837594E+03  0.7546771E-02  0.1067457E+00
        -11   -1    0    0    0    0  0.00000000000E+00  0.00000000000E+00  0.18250000000E+03  0.18250000000E+03  0.00000000000E+00 0. -1.
         11   -1    0    0    0    0 -0.00000000000E+00 -0.00000000000E+00 -0.18250000000E+03  0.18250000000E+03  0.00000000000E+00 0. -1.
        -11    1    1    2    0    0 -0.32645122122E+01  0.10719202973E+01  0.18120802502E+03  0.18124059806E+03  0.00000000000E+00 0. -1.
         11    1    1    2    0    0  0.20417226340E-01 -0.13736227957E+01 -0.35102216478E+02  0.35129088490E+02  0.00000000000E+00 0. -1.
        -15    1    1    2    0    0  0.15138106763E+02 -0.14238152672E+00 -0.82127521337E+02  0.83530054704E+02  0.17770000000E+01 0. -1.
         15    1    1    2    0    0 -0.11894011777E+02  0.44408402517E+00 -0.63978287203E+02  0.65100258749E+02  0.17770000000E+01 0.  1.
</event>
<event>
 6    1  0.1196607E-002  0.1845098E+03  0.7546771E-02  0.1066866E+00
        -11   -1    0    0    0    0  0.00000000000E+00  0.00000000000E+00  0.18250000000E+03  0.18250000000E+03  0.00000000000E+00 0. -1.
         11   -1    0    0    0    0 -0.00000000000E+00 -0.00000000000E+00 -0.18250000000E+03  0.18250000000E+03  0.00000000000E+00 0.  1.
        -11    1    1    2    0    0 -0.22119258699E+01 -0.13564625265E+02  0.14317802878E+03  0.14383615540E+03  0.00000000000E+00 0. -1.
         11    1    1    2    0    0  0.76385980732E+00  0.64414537564E+01 -0.18037357860E+03  0.18049017609E+03  0.00000000000E+00 0.  1.
        -15    1    1    2    0    0  0.51118575823E+01  0.80476319758E+01  0.13554337864E+02  0.16666531502E+02  0.17770000000E+01 0.  1.
         15    1    1    2    0    0 -0.36637915197E+01 -0.92446046716E+00  0.23641211955E+02  0.24007137005E+02  0.17770000000E+01 0. -1.
</event>
<event>
 6    1  0.1196607E-002  0.1845639E+03  0.7546771E-02  0.1066824E+00
        -11   -1    0    0    0    0  0.00000000000E+00  0.00000000000E+00  0.18250000000E+03  0.18250000000E+03  0.00000000000E+00 0. -1.
         11   -1    0    0    0    0 -0.00000000000E+00 -0.00000000000E+00 -0.18250000000E+03  0.18250000000E+03  0.00000000000E+00 0.  1.
        -11    1    1    2    0    0 -0.10331563019E+01 -0.26539742535E+01  0.13641468845E+03  0.13644441438E+03  0.00000000000E+00 0. -1.
         11    1    1    2    0    0 -0.79652761730E+01  0.60570244545E+01 -0.18015837851E+03  0.18043606767E+03  0.00000000000E+00 0.  1.
        -15    1    1    2    0    0  0.12529099915E+02 -0.49958745224E+01  0.40614271342E+02  0.42832392795E+02  0.17770000000E+01 0. -1.
         15    1    1    2    0    0 -0.35306674401E+01  0.15928243214E+01  0.31294187159E+01  0.52871251537E+01  0.17770000000E+01 0.  1.
</event>
<event>
 6    1  0.1196607E-002  0.1832799E+03  0.7546771E-02  0.1067836E+00
        -11   -1    0    0    0    0  0.00000000000E+00  0.00000000000E+00  0.18250000000E+03  0.18250000000E+03  0.00000000000E+00 0. -1.
         11   -1    0    0    0    0 -0.00000000000E+00 -0.00000000000E+00 -0.18250000000E+03  0.18250000000E+03  0.00000000000E+00 0.  1.
        -11    1    1    2    0    0 -0.31037088307E+01 -0.33860869058E-01  0.18169358715E+03  0.18172009731E+03  0.00000000000E+00 0. -1.
         11    1    1    2    0    0 -0.45888632169E+01  0.18597840109E+00 -0.11782215500E+03  0.11791162989E+03  0.00000000000E+00 0.  1.
        -15    1    1    2    0    0  0.90501666708E+01  0.28291559748E+01 -0.36884738315E+02  0.38125467733E+02  0.17770000000E+01 0. -1.
         15    1    1    2    0    0 -0.13575946232E+01 -0.29812735068E+01 -0.26986693837E+02  0.27242805071E+02  0.17770000000E+01 0.  1.
</event>
<event>
 6    1  0.1196607E-002  0.1827030E+03  0.7546771E-02  0.1068293E+00
        -11   -1    0    0    0    0  0.00000000000E+00  0.00000000000E+00  0.18250000000E+03  0.18250000000E+03  0.00000000000E+00 0.  1.
         11   -1    0    0    0    0 -0.00000000000E+00 -0.00000000000E+00 -0.18250000000E+03  0.18250000000E+03  0.00000000000E+00 0. -1.
        -11    1    1    2    0    0 -0.10971989134E+01  0.32088242128E+01  0.97758383558E+02  0.97817186395E+02  0.00000000000E+00 0.  1.
         11    1    1    2    0    0  0.17256650555E+01 -0.24241203784E+01 -0.18227276270E+03  0.18229704963E+03  0.00000000000E+00 0. -1.
        -15    1    1    2    0    0  0.60004148510E+00  0.28189099363E-01  0.77046002236E+02  0.77068833090E+02  0.17770000000E+01 0.  1.
         15    1    1    2    0    0 -0.12285076273E+01 -0.81289293371E+00  0.74683769069E+01  0.78169308898E+01  0.17770000000E+01 0. -1.
</event>
<event>
 6    1  0.1196607E-002  0.1844016E+03  0.7546771E-02  0.1066951E+00
        -11   -1    0    0    0    0  0.00000000000E+00  0.00000000000E+00  0.18250000000E+03  0.18250000000E+03  0.00000000000E+00 0.  1.
         11   -1    0    0    0    0 -0.00000000000E+00 -0.00000000000E+00 -0.18250000000E+03  0.18250000000E+03  0.00000000000E+00 0. -1.
        -11    1    1    2    0    0 -0.51060454510E+01 -0.40179011164E+01  0.18048148672E+03  0.18059840054E+03  0.00000000000E+00 0.  1.
         11    1    1    2    0    0 -0.17636633949E+01 -0.47960183628E+01 -0.15000552542E+03  0.15009253798E+03  0.00000000000E+00 0. -1.
        -15    1    1    2    0    0  0.57129816044E+01 -0.40148220314E+00 -0.86763308567E+01  0.10546838053E+02  0.17770000000E+01 0.  1.
         15    1    1    2    0    0  0.11567272415E+01  0.92154016823E+01 -0.21799630441E+02  0.23762223433E+02  0.17770000000E+01 0. -1.
</event>
<event>
 6    1  0.1196607E-002  0.1828138E+03  0.7546771E-02  0.1068205E+00
        -11   -1    0    0    0    0  0.00000000000E+00  0.00000000000E+00  0.18250000000E+03  0.18250000000E+03  0.00000000000E+00 0. -1.
         11   -1    0    0    0    0 -0.00000000000E+00 -0.00000000000E+00 -0.18250000000E+03  0.18250000000E+03  0.00000000000E+00 0. -1.
        -11    1    1    2    0    0 -0.25193508755E+01  0.14327500215E+01  0.18216310135E+03  0.18218615588E+03  0.00000000000E+00 0. -1.
         11    1    1    2    0    0  0.26230402254E+01 -0.17150438658E+01 -0.12916657044E+03  0.12920458442E+03  0.00000000000E+00 0. -1.
        -15    1    1    2    0    0 -0.24366002156E+01  0.87725986613E+00 -0.44321458301E+02  0.44432600649E+02  0.17770000000E+01 0. -1.
         15    1    1    2    0    0  0.23329108657E+01 -0.59496602177E+00 -0.86750726046E+01  0.91766590527E+01  0.17770000000E+01 0.  1.
</event>
<event>
 6    1  0.1196607E-002  0.1830242E+03  0.7546771E-02  0.1068038E+00
        -11   -1    0    0    0    0  0.00000000000E+00  0.00000000000E+00  0.18250000000E+03  0.18250000000E+03  0.00000000000E+00 0. -1.
         11   -1    0    0    0    0 -0.00000000000E+00 -0.00000000000E+00 -0.18250000000E+03  0.18250000000E+03  0.00000000000E+00 0.  1.
        -11    1    1    2    0    0 -0.52177900739E+00  0.17122295818E+01  0.65034033066E+02  0.65058661532E+02  0.00000000000E+00 0. -1.
         11    1    1    2    0    0 -0.31627741867E+01 -0.18145402183E+01 -0.18193927901E+03  0.18197581417E+03  0.00000000000E+00 0.  1.
        -15    1    1    2    0    0  0.41227828288E+01  0.61476994058E+01  0.35060201060E+02  0.35877109326E+02  0.17770000000E+01 0. -1.
         15    1    1    2    0    0 -0.43822963473E+00 -0.60453887693E+01  0.81845044886E+02  0.82088414968E+02  0.17770000000E+01 0.  1.
</event>
<event>
 6    1  0.1984858E-002  0.2056731E+03  0.7546771E-02  0.1051373E+00
        -11   -1    0    0    0    0  0.00000000000E+00  0.00000000000E+00  0.18250000000E+03  0.18250000000E+03  0.00000000000E+00 0. -1.
         11   -1    0    0    0    0 -0.00000000000E+00 -0.00000000000E+00 -0.18250000000E+03  0.18250000000E+03  0.00000000000E+00 0.  1.
        -11    1    1    2    0    0  0.10797754167E+01  0.18937350029E+01  0.13939152173E+03  0.13940856672E+03  0.00000000000E+00 0. -1.
         11    1    1    2    0    0 -0.36242991936E+01  0.10011232783E+02 -0.15897076944E+03  0.15932691506E+03  0.00000000000E+00 0.  1.
        -15    1    1    2    0    0  0.17823351025E+01 -0.75227149250E+00  0.41505735533E+02  0.41588777836E+02  0.17770000000E+01 0. -1.
         15    1    1    2    0    0  0.76218867444E+00 -0.11152696293E+02 -0.21926487816E+02  0.24675740377E+02  0.17770000000E+01 0. -1.
</event>
<event>
 6    1  0.1196607E-002  0.1836027E+03  0.7546771E-02  0.1067580E+00
        -11   -1    0    0    0    0  0.00000000000E+00  0.00000000000E+00  0.18250000000E+03  0.18250000000E+03  0.00000000000E+00 0. -1.
         11   -1    0    0    0    0 -0.00000000000E+00 -0.00000000000E+00 -0.18250000000E+03  0.18250000000E+03  0.00000000000E+00 0.  1.
        -11    1    1    2    0    0  0.17582423584E+01  0.11257073211E+01  0.15102961136E+03  0.15104404040E+03  0.00000000000E+00 0. -1.
         11    1    1    2    0    0  0.30147588524E+01 -0.40978490967E+00 -0.18137177472E+03  0.18139729149E+03  0.00000000000E+00 0.  1.
        -15    1    1    2    0    0 -0.62509914376E+01 -0.16941481432E+01  0.98997881975E+01  0.11962799306E+02  0.17770000000E+01 0. -1.
         15    1    1    2    0    0  0.14779902268E+01  0.97822573179E+00  0.20442375159E+02  0.20595868805E+02  0.17770000000E+01 0.  1.
</event>
<event>
 6    1  0.1196607E-002  0.1844684E+03  0.7546771E-02  0.1066899E+00
        -11   -1    0    0    0    0  0.00000000000E+00  0.00000000000E+00  0.18250000000E+03  0.18250000000E+03  0.00000000000E+00 0. -1.
         11   -1    0    0    0    0 -0.00000000000E+00 -0.00000000000E+00 -0.18250000000E+03  0.18250000000E+03  0.00000000000E+00 0. -1.
        -11    1    1    2    0    0  0.27670811751E+01  0.24948939103E+01  0.16559421272E+03  0.16563612082E+03  0.00000000000E+00 0. -1.
         11    1    1    2    0    0  0.83736876520E+00  0.43620574266E+01 -0.18047692812E+03  0.18053157706E+03  0.00000000000E+00 0. -1.
        -15    1    1    2    0    0 -0.35982268922E+01 -0.26135355209E+01  0.20674576455E+01  0.52163123759E+01  0.17770000000E+01 0. -1.
         15    1    1    2    0    0 -0.62230480779E-02 -0.42434158160E+01  0.12815257757E+02  0.13615989751E+02  0.17770000000E+01 0.  1.
</event>
<event>
 6    1  0.1196607E-002  0.1460675E+03  0.7546771E-02  0.1101835E+00
        -11   -1    0    0    0    0  0.00000000000E+00  0.00000000000E+00  0.18250000000E+03  0.18250000000E+03  0.00000000000E+00 0.  1.
         11   -1    0    0    0    0 -0.00000000000E+00 -0.00000000000E+00 -0.18250000000E+03  0.18250000000E+03  0.00000000000E+00 0.  1.
        -11    1    1    2    0    0 -0.28814556119E+02  0.67631206767E+01  0.12367120402E+02  0.32077470484E+02  0.00000000000E+00 0.  1.
         11    1    1    2    0    0  0.17949777580E+01 -0.37489505349E+01 -0.13580262646E+03  0.13586622071E+03  0.00000000000E+00 0.  1.
        -15    1    1    2    0    0  0.15230204389E+02 -0.19234724027E+02  0.15645887714E+03  0.15838078071E+03  0.17770000000E+01 0.  1.
         15    1    1    2    0    0  0.11789373972E+02  0.16220553885E+02 -0.33023371081E+02  0.38675528096E+02  0.17770000000E+01 0. -1.
</event>
<event>
 6    1  0.1196607E-002  0.1829854E+03  0.7546771E-02  0.1068069E+00
        -11   -1    0    0    0    0  0.00000000000E+00  0.00000000000E+00  0.18250000000E+03  0.18250000000E+03  0.00000000000E+00 0. -1.
         11   -1    0    0    0    0 -0.00000000000E+00 -0.00000000000E+00 -0.18250000000E+03  0.18250000000E+03  0.00000000000E+00 0.  1.
        -11    1    1    2    0    0  0.14161743967E+01 -0.78331391129E+00  0.11689412170E+03  0.11690532417E+03  0.00000000000E+00 0. -1.
         11    1    1    2    0    0 -0.41792376581E+01  0.72720047656E+00 -0.18196512433E+03  0.18201456348E+03  0.00000000000E+00 0.  1.
        -15    1    1    2    0    0 -0.35970321763E+01  0.19187301748E+01  0.31755866059E+02  0.32065759372E+02  0.17770000000E+01 0. -1.
         15    1    1    2    0    0  0.63600954377E+01 -0.18626167401E+01  0.33315136568E+02  0.34014352980E+02  0.17770000000E+01 0. -1.
</event>
<event>
 6    1  0.1196607E-002  0.1838336E+03  0.7546771E-02  0.1067398E+00
        -11   -1    0    0    0    0  0.00000000000E+00  0.00000000000E+00  0.18250000000E+03  0.18250000000E+03  0.00000000000E+00 0. -1.
         11   -1    0    0    0    0 -0.00000000000E+00 -0.00000000000E+00 -0.18250000000E+03  0.18250000000E+03  0.00000000000E+00 0.  1.
        -11    1    1    2    0    0  0.10524345481E+01  0.23632449862E+01  0.18114791081E+03  0.18116638246E+03  0.00000000000E+00 0. -1.
         11    1    1    2    0    0  0.52698858068E-01 -0.90393941962E+01 -0.32795806109E+02  0.34018793673E+02  0.00000000000E+00 0.  1.
        -15    1    1    2    0    0 -0.11297949949E+01  0.88445597224E+01 -0.14560862844E+03  0.14589219677E+03  0.17770000000E+01 0.  1.
         15    1    1    2    0    0  0.24661588747E-01 -0.21684105124E+01 -0.27434762609E+01  0.39226270965E+01  0.17770000000E+01 0. -1.
</event>
<event>
 6    1  0.1196607E-002  0.1892558E+03  0.7546771E-02  0.1063201E+00
        -11   -1    0    0    0    0  0.00000000000E+00  0.00000000000E+00  0.18250000000E+03  0.18250000000E+03  0.00000000000E+00 0.  1.
         11   -1    0    0    0    0 -0.00000000000E+00 -0.00000000000E+00 -0.18250000000E+03  0.18250000000E+03  0.00000000000E+00 0.  1.
        -11    1    1    2    0    0 -0.26111109888E+01 -0.28907084606E+01  0.17570104827E+03  0.17574422454E+03  0.00000000000E+00 0.  1.
         11    1    1    2    0    0  0.44923206026E+01 -0.79672214257E+00 -0.16814597095E+03  0.16820785730E+03  0.00000000000E+00 0.  1.
        -15    1    1    2    0    0 -0.51174643620E+01 -0.12507485292E+01 -0.12147802549E+02  0.13359627583E+02  0.17770000000E+01 0.  1.
         15    1    1    2    0    0  0.32362547482E+01  0.49381791323E+01  0.45927252289E+01  0.76882905750E+01  0.17770000000E+01 0. -1.
</event>
<event>
 6    1  0.1196607E-002  0.1827203E+03  0.7546771E-02  0.1068280E+00
        -11   -1    0    0    0    0  0.00000000000E+00  0.00000000000E+00  0.18250000000E+03  0.18250000000E+03  0.00000000000E+00 0. -1.
         11   -1    0    0    0    0 -0.00000000000E+00 -0.00000000000E+00 -0.18250000000E+03  0.18250000000E+03  0.00000000000E+00 0. -1.
        -11    1    1    2    0    0  0.20838123189E+01 -0.22634936756E+01  0.10097934649E+03  0.10102620499E+03  0.00000000000E+00 0. -1.
         11    1    1    2    0    0  0.33190674375E+01 -0.17628207518E+01 -0.18224092803E+03  0.18227967411E+03  0.00000000000E+00 0. -1.
        -15    1    1    2    0    0 -0.27760691383E+01  0.25514825300E+01  0.60197444502E+02  0.60341583311E+02  0.17770000000E+01 0. -1.
         15    1    1    2    0    0 -0.26268106181E+01  0.14748318973E+01  0.21064137038E+02  0.21352537585E+02  0.17770000000E+01 0.  1.
</event>
<event>
 6    1  0.1196607E-002  0.1852457E+03  0.7546771E-02  0.1066290E+00
        -11   -1    0    0    0    0  0.00000000000E+00  0.00000000000E+00  0.18250000000E+03  0.18250000000E+03  0.00000000000E+00 0.  1.
         11   -1    0    0    0    0 -0.00000000000E+00 -0.00000000000E+00 -0.18250000000E+03  0.18250000000E+03  0.00000000000E+00 0. -1.
        -11    1    1    2    0    0  0.18806144636E+01 -0.25587444866E+01  0.17972623733E+03  0.17975428860E+03  0.00000000000E+00 0.  1.
         11    1    1    2    0    0  0.27992695081E+01 -0.92066325372E+00 -0.16589242368E+03  0.16591859379E+03  0.00000000000E+00 0. -1.
        -15    1    1    2    0    0 -0.59954959516E+00 -0.29609913019E+01 -0.10027325525E+02  0.10622236836E+02  0.17770000000E+01 0.  1.
         15    1    1    2    0    0 -0.40803343765E+01  0.64403990422E+01 -0.38064881242E+01  0.87048807739E+01  0.17770000000E+01 0. -1.
</event>
<event>
 6    1  0.1196607E-002  0.1883426E+03  0.7546771E-02  0.1063897E+00
        -11   -1    0    0    0    0  0.00000000000E+00  0.00000000000E+00  0.18250000000E+03  0.18250000000E+03  0.00000000000E+00 0.  1.
         11   -1    0    0    0    0 -0.00000000000E+00 -0.00000000000E+00 -0.18250000000E+03  0.18250000000E+03  0.00000000000E+00 0.  1.
        -11    1    1    2    0    0 -0.17657648515E+01 -0.35453299307E+01  0.17661298604E+03  0.17665739194E+03  0.00000000000E+00 0.  1.
         11    1    1    2    0    0 -0.29494282750E+01  0.12808198453E+01 -0.17256026824E+03  0.17259022511E+03  0.00000000000E+00 0.  1.
        -15    1    1    2    0    0  0.13062582334E+00 -0.53506671982E+01 -0.35708588534E+01  0.66749879792E+01  0.17770000000E+01 0. -1.
         15    1    1    2    0    0  0.45845673032E+01  0.76151772836E+01 -0.48185894159E+00  0.90773949709E+01  0.17770000000E+01 0.  1.
</event>
<event>
 6    1  0.1196607E-002  0.1828092E+03  0.7546771E-02  0.1068209E+00
        -11   -1    0    0    0    0  0.00000000000E+00  0.00000000000E+00  0.18250000000E+03  0.18250000000E+03  0.00000000000E+00 0.  1.
         11   -1    0    0    0    0 -0.00000000000E+00 -0.00000000000E+00 -0.18250000000E+03  0.18250000000E+03  0.00000000000E+00 0. -1.
        -11    1    1    2    0    0 -0.34285822692E+01  0.20302286501E+01  0.34193997876E+02  0.34425375750E+02  0.00000000000E+00 0.  1.
         11    1    1    2    0    0  0.42915693232E+01  0.22028535206E+00 -0.18214011283E+03  0.18219079777E+03  0.00000000000E+00 0. -1.
        -15    1    1    2    0    0 -0.28262110749E+01 -0.58810911412E+01  0.99602793544E+02  0.99832103618E+02  0.17770000000E+01 0.  1.
         15    1    1    2    0    0  0.19632240209E+01  0.36305771391E+01  0.48343321407E+02  0.48551722859E+02  0.17770000000E+01 0. -1.
</event>
<event>
 6    1  0.1196607E-002  0.1830114E+03  0.7546771E-02  0.1068048E+00
        -11   -1    0    0    0    0  0.00000000000E+00  0.00000000000E+00  0.18250000000E+03  0.18250000000E+03  0.00000000000E+00 0.  1.
         11   -1    0    0    0    0 -0.00000000000E+00 -0.00000000000E+00 -0.18250000000E+03  0.18250000000E+03  0.00000000000E+00 0.  1.
        -11    1    1    2    0    0 -0.51112995466E+01  0.14114865851E+01  0.18191134682E+03  0.18198861442E+03  0.00000000000E+00 0.  1.
         11    1    1    2    0    0 -0.90680532856E+00 -0.45891282066E+00 -0.74490763018E+02  0.74497695748E+02  0.00000000000E+00 0.  1.
        -15    1    1    2    0    0  0.33787491803E+01 -0.97160369399E+00 -0.10295572176E+03  0.10303105518E+03  0.17770000000E+01 0.  1.
         15    1    1    2    0    0  0.26393556949E+01  0.19029929522E-01 -0.44648620477E+01  0.54826346520E+01  0.17770000000E+01 0. -1.
</event>
<event>
 6    1  0.1196607E-002  0.1901269E+03  0.7546771E-02  0.1062541E+00
        -11   -1    0    0    0    0  0.00000000000E+00  0.00000000000E+00  0.18250000000E+03  0.18250000000E+03  0.00000000000E+00 0.  1.
         11   -1    0    0    0    0 -0.00000000000E+00 -0.00000000000E+00 -0.18250000000E+03  0.18250000000E+03  0.00000000000E+00 0. -1.
        -11    1    1    2    0    0 -0.25946106523E+01  0.18611423110E+01  0.17484399487E+03  0.17487314944E+03  0.00000000000E+00 0.  1.
         11    1    1    2    0    0  0.27981859824E+01 -0.23568234391E+00 -0.17330522136E+03  0.17332796988E+03  0.00000000000E+00 0. -1.
        -15    1    1    2    0    0 -0.32863618044E+01 -0.35137942300E+01 -0.78110998112E+01  0.93444065120E+01  0.17770000000E+01 0.  1.
         15    1    1    2    0    0  0.30827864744E+01  0.18883342629E+01  0.62723263101E+01  0.74544741650E+01  0.17770000000E+01 0. -1.
</event>
<event>
 6    1  0.1196607E-002  0.1825690E+03  0.7546771E-02  0.1068400E+00
        -11   -1    0    0    0    0  0.00000000000E+00  0.00000000000E+00  0.18250000000E+03  0.18250000000E+03  0.00000000000E+00 0. -1.
         11   -1    0    0    0    0 -0.00000000000E+00 -0.00000000000E+00 -0.18250000000E+03  0.18250000000E+03  0.00000000000E+00 0. -1.
        -11    1    1    2    0    0 -0.12603825705E+01  0.31195943240E+01  0.18240000160E+03  0.18243103085E+03  0.00000000000E+00 0. -1.
         11    1    1    2    0    0  0.22328738608E+01 -0.75910722317E+00 -0.37854954267E+02  0.37928347341E+02  0.00000000000E+00 0. -1.
        -15    1    1    2    0    0  0.71576855252E+00 -0.83246234455E+00 -0.84884948080E+02  0.84910643960E+02  0.17770000000E+01 0. -1.
         15    1    1    2    0    0 -0.16882598428E+01 -0.15280247563E+01 -0.59660099258E+02  0.59729977846E+02  0.17770000000E+01 0. -1.
</event>
<event>
 6    1  0.1196607E-002  0.1832779E+03  0.7546771E-02  0.1067837E+00
        -11   -1    0    0    0    0  0.00000000000E+00  0.00000000000E+00  0.18250000000E+03  0.18250000000E+03  0.00000000000E+00 0. -1.
         11   -1    0    0    0    0 -0.00000000000E+00 -0.00000000000E+00 -0.18250000000E+03  0.18250000000E+03  0.00000000000E+00 0.  1.
        -11    1    1    2    0    0  0.18688152200E-02  0.51159250404E+01  0.18165003889E+03  0.18172206614E+03  0.00000000000E+00 0. -1.
         11    1    1    2    0    0  0.25859398386E+00 -0.24082017969E+01 -0.16012595578E+03  0.16014427252E+03  0.00000000000E+00 0.  1.
        -15    1    1    2    0    0 -0.18697404051E+01  0.16182459393E+01 -0.47213377378E+01  0.56181320861E+01  0.17770000000E+01 0.  1.
         15    1    1    2    0    0  0.16092776060E+01 -0.43259691828E+01 -0.16802745379E+02  0.17515529254E+02  0.17770000000E+01 0.  1.
</event>
<event>
 6    1  0.1196607E-002  0.1838798E+03  0.7546771E-02  0.1067362E+00
        -11   -1    0    0    0    0  0.00000000000E+00  0.00000000000E+00  0.18250000000E+03  0.18250000000E+03  0.00000000000E+00 0.  1.
         11   -1    0    0    0    0 -0.00000000000E+00 -0.00000000000E+00 -0.18250000000E+03  0.18250000000E+03  0.00000000000E+00 0.  1.
        -11    1    1    2    0    0 -0.36438633667E+01 -0.23592895175E+01  0.18106812484E+03  0.18112015299E+03  0.00000000000E+00 0.  1.
         11    1    1    2    0    0 -0.62801028439E+00 -0.20119754003E+01 -0.93080527407E+02  0.93104387782E+02  0.00000000000E+00 0.  1.
        -15    1    1    2    0    0  0.22523866346E+01 -0.60304279810E+01 -0.98360342765E+01  0.11888843782E+02  0.17770000000E+01 0. -1.
         15    1    1    2    0    0  0.20194870165E+01  0.10401692899E+02 -0.78151563158E+02  0.78886615442E+02  0.17770000000E+01 0.  1.
</event>
<event>
 6    1  0.1196607E-002  0.1834817E+03  0.7546771E-02  0.1067676E+00
        -11   -1    0    0    0    0  0.00000000000E+00  0.00000000000E+00  0.18250000000E+03  0.18250000000E+03  0.00000000000E+00 0. -1.
         11   -1    0    0    0    0 -0.00000000000E+00 -0.00000000000E+00 -0.18250000000E+03  0.18250000000E+03  0.00000000000E+00 0. -1.
        -11    1    1    2    0    0 -0.85876998544E+01 -0.32721412885E+00  0.18131478374E+03  0.18151833643E+03  0.00000000000E+00 0. -1.
         11    1    1    2    0    0  0.23117807679E+00 -0.27215971298E+01 -0.11219223119E+03  0.11222547516E+03  0.00000000000E+00 0. -1.
        -15    1    1    2    0    0  0.27856272229E+01  0.81092649864E+01 -0.47306534737E+02  0.48110142958E+02  0.17770000000E+01 0. -1.
         15    1    1    2    0    0  0.55708945547E+01 -0.50604537277E+01 -0.21816017809E+02  0.23146045453E+02  0.17770000000E+01 0.  1.
</event>
<event>
 6    1  0.1196607E-002  0.1836841E+03  0.7546771E-02  0.1067516E+00
        -11   -1    0    0    0    0  0.00000000000E+00  0.00000000000E+00  0.18250000000E+03  0.18250000000E+03  0.00000000000E+00 0.  1.
         11   -1    0    0    0    0 -0.00000000000E+00 -0.00000000000E+00 -0.18250000000E+03  0.18250000000E+03  0.00000000000E+00 0.  1.
        -11    1    1    2    0    0 -0.25682723501E+01  0.62700976473E+01  0.18118923526E+03  0.18131588215E+03  0.00000000000E+00 0.  1.
         11    1    1    2    0    0  0.59624193337E+01 -0.30645006473E+01 -0.12918505215E+03  0.12935887796E+03  0.00000000000E+00 0.  1.
        -15    1    1    2    0    0  0.48863615734E+01 -0.46972586895E+01 -0.26478149740E+02  0.27389613200E+02  0.17770000000E+01 0. -1.
         15    1    1    2    0    0 -0.82805085570E+01  0.14916616895E+01 -0.25526033365E+02  0.26935626685E+02  0.17770000000E+01 0.  1.
</event>
<event>
 6    1  0.1196607E-002  0.1826264E+03  0.7546771E-02  0.1068354E+00
        -11   -1    0    0    0    0  0.00000000000E+00  0.00000000000E+00  0.18250000000E+03  0.18250000000E+03  0.00000000000E+00 0.  1.
         11   -1    0    0    0    0 -0.00000000000E+00 -0.00000000000E+00 -0.18250000000E+03  0.18250000000E+03  0.00000000000E+00 0.  1.
        -11    1    1    2    0    0  0.12006505806E+01  0.14655879740E+01  0.14421090111E+02  0.14545011169E+02  0.00000000000E+00 0.  1.
         11    1    1    2    0    0 -0.34032655801E+01 -0.24585437542E+01 -0.18232526112E+03  0.18237359320E+03  0.00000000000E+00 0.  1.
        -15    1    1    2    0    0  0.62862877689E+00  0.22040534559E+01  0.27606152175E+02  0.27758068966E+02  0.17770000000E+01 0.  1.
         15    1    1    2    0    0  0.15739862226E+01 -0.12110976757E+01  0.14029801883E+03  0.14032332667E+03  0.17770000000E+01 0.  1.
</event>
<event>
 6    1  0.1196607E-002  0.1863953E+03  0.7546771E-02  0.1065396E+00
        -11   -1    0    0    0    0  0.00000000000E+00  0.00000000000E+00  0.18250000000E+03  0.18250000000E+03  0.00000000000E+00 0. -1.
         11   -1    0    0    0    0 -0.00000000000E+00 -0.00000000000E+00 -0.18250000000E+03  0.18250000000E+03  0.00000000000E+00 0.  1.
        -11    1    1    2    0    0  0.61781031611E+01  0.25187005100E+01  0.17848000641E+03  0.17860466260E+03  0.00000000000E+00 0. -1.
         11    1    1    2    0    0 -0.35334400305E+01  0.69657378699E+01 -0.16965135719E+03  0.16983106224E+03  0.00000000000E+00 0.  1.
        -15    1    1    2    0    0 -0.49415440112E+01 -0.31269208814E+01 -0.70923491401E+01  0.93624589044E+01  0.17770000000E+01 0.  1.
         15    1    1    2    0    0  0.22968808806E+01 -0.63575174985E+01 -0.17363000802E+01  0.72018162634E+01  0.17770000000E+01 0. -1.
</event>
<event>
 6    1  0.1196607E-002  0.1845419E+03  0.7546771E-02  0.1066841E+00
        -11   -1    0    0    0    0  0.00000000000E+00  0.00000000000E+00  0.18250000000E+03  0.18250000000E+03  0.00000000000E+00 0.  1.
         11   -1    0    0    0    0 -0.00000000000E+00 -0.00000000000E+00 -0.18250000000E+03  0.18250000000E+03  0.00000000000E+00 0.  1.
        -11    1    1    2    0    0  0.14047486498E+01 -0.54030617394E+01  0.15735895012E+03  0.15745794860E+03  0.00000000000E+00 0.  1.
         11    1    1    2    0    0  0.51555592769E+01 -0.42163182829E+01 -0.18033511724E+03  0.18045806062E+03  0.00000000000E+00 0.  1.
        -15    1    1    2    0    0  0.11271558419E+01  0.29595393804E+00  0.32880760348E+01  0.39150021757E+01  0.17770000000E+01 0. -1.
         15    1    1    2    0    0 -0.76874637686E+01  0.93234260842E+01  0.19688091091E+02  0.23168988604E+02  0.17770000000E+01 0. -1.
</event>
<event>
 6    1  0.1196607E-002  0.1899167E+03  0.7546771E-02  0.1062700E+00
        -11   -1    0    0    0    0  0.00000000000E+00  0.00000000000E+00  0.18250000000E+03  0.18250000000E+03  0.00000000000E+00 0.  1.
         11   -1    0    0    0    0 -0.00000000000E+00 -0.00000000000E+00 -0.18250000000E+03  0.18250000000E+03  0.00000000000E+00 0.  1.
        -11    1    1    2    0    0 -0.14154951810E+02 -0.12633395072E+02  0.17405228582E+03  0.17508330454E+03  0.00000000000E+00 0.  1.
         11    1    1    2    0    0  0.37459062204E+01 -0.84403229313E+01 -0.12939279971E+03  0.12972188513E+03  0.00000000000E+00 0.  1.
        -15    1    1    2    0    0  0.61659517497E+01  0.23401012646E+01 -0.39691902023E+02  0.40275300745E+02  0.17770000000E+01 0.  1.
         15    1    1    2    0    0  0.42430938395E+01  0.18733616739E+02 -0.49675840882E+01  0.19919509585E+02  0.17770000000E+01 0. -1.
</event>
<event>
 6    1  0.1196607E-002  0.1758531E+03  0.7546771E-02  0.1073872E+00
        -11   -1    0    0    0    0  0.00000000000E+00  0.00000000000E+00  0.18250000000E+03  0.18250000000E+03  0.00000000000E+00 0. -1.
         11   -1    0    0    0    0 -0.00000000000E+00 -0.00000000000E+00 -0.18250000000E+03  0.18250000000E+03  0.00000000000E+00 0.  1.
        -11    1    1    2    0    0  0.62251775271E+01 -0.25530836854E+01  0.17625406785E+03  0.17638244670E+03  0.00000000000E+00 0. -1.
         11    1    1    2    0    0 -0.20020950378E+00  0.49620054674E+01 -0.17531463695E+03  0.17538495805E+03  0.00000000000E+00 0.  1.
        -15    1    1    2    0    0 -0.86361906394E+01 -0.26256981341E+00  0.11234194534E+01  0.88922737214E+01  0.17770000000E+01 0. -1.
         15    1    1    2    0    0  0.26112226161E+01 -0.21463519686E+01 -0.20628503527E+01  0.43403215205E+01  0.17770000000E+01 0.  1.
</event>
<event>
 6    1  0.1196607E-002  0.1840582E+03  0.7546771E-02  0.1067221E+00
        -11   -1    0    0    0    0  0.00000000000E+00  0.00000000000E+00  0.18250000000E+03  0.18250000000E+03  0.00000000000E+00 0. -1.
         11   -1    0    0    0    0 -0.00000000000E+00 -0.00000000000E+00 -0.18250000000E+03  0.18250000000E+03  0.00000000000E+00 0. -1.
        -11    1    1    2    0    0  0.31649235831E+01 -0.82603151813E+00  0.18091218724E+03  0.18094175461E+03  0.00000000000E+00 0. -1.
         11    1    1    2    0    0 -0.40949569758E+01 -0.19370672935E+01 -0.16906049907E+03  0.16912117919E+03  0.00000000000E+00 0. -1.
        -15    1    1    2    0    0  0.16820919372E+01  0.12105179604E+01 -0.12140484865E+02  0.12443628441E+02  0.17770000000E+01 0.  1.
         15    1    1    2    0    0 -0.75205854460E+00  0.15525808512E+01  0.28879670196E+00  0.24934377652E+01  0.17770000000E+01 0. -1.
</event>
<event>
 6    1  0.1196607E-002  0.1840156E+03  0.7546771E-02  0.1067255E+00
        -11   -1    0    0    0    0  0.00000000000E+00  0.00000000000E+00  0.18250000000E+03  0.18250000000E+03  0.00000000000E+00 0. -1.
         11   -1    0    0    0    0 -0.00000000000E+00 -0.00000000000E+00 -0.18250000000E+03  0.18250000000E+03  0.00000000000E+00 0.  1.
        -11    1    1    2    0    0  0.88881514168E+01  0.13352258161E+01  0.18076112908E+03  0.18098444090E+03  0.00000000000E+00 0. -1.
         11    1    1    2    0    0  0.63558495324E+01 -0.49363806012E+01 -0.92510736020E+02  0.92860114988E+02  0.00000000000E+00 0.  1.
        -15    1    1    2    0    0 -0.74721308037E+01  0.80209698269E+00 -0.10975449379E+02  0.13419922369E+02  0.17770000000E+01 0. -1.
         15    1    1    2    0    0 -0.77718701455E+01  0.27990578023E+01 -0.77274943680E+02  0.77735521738E+02  0.17770000000E+01 0.  1.
</event>
<event>
 6    1  0.1196607E-002  0.1829278E+03  0.7546771E-02  0.1068115E+00
        -11   -1    0    0    0    0  0.00000000000E+00  0.00000000000E+00  0.18250000000E+03  0.18250000000E+03  0.00000000000E+00 0. -1.
         11   -1    0    0    0    0 -0.00000000000E+00 -0.00000000000E+00 -0.18250000000E+03  0.18250000000E+03  0.00000000000E+00 0. -1.
        -11    1    1    2    0    0 -0.10054594148E+01 -0.11595271728E+01  0.12026017280E+02  0.12123553254E+02  0.00000000000E+00 0. -1.
         11    1    1    2    0    0 -0.28815763562E+01  0.13581116777E+01 -0.18204436140E+03  0.18207223146E+03  0.00000000000E+00 0. -1.
        -15    1    1    2    0    0 -0.22179874716E+01  0.57412953026E+00  0.14328221338E+03  0.14331154697E+03  0.17770000000E+01 0. -1.
         15    1    1    2    0    0  0.61050232427E+01 -0.77271403520E+00  0.26736130739E+02  0.27492668325E+02  0.17770000000E+01 0.  1.
</event>
<event>
 6    1  0.1196607E-002  0.2055454E+03  0.7546771E-02  0.1051460E+00
        -11   -1    0    0    0    0  0.00000000000E+00  0.00000000000E+00  0.18250000000E+03  0.18250000000E+03  0.00000000000E+00 0. -1.
         11   -1    0    0    0    0 -0.00000000000E+00 -0.00000000000E+00 -0.18250000000E+03  0.18250000000E+03  0.00000000000E+00 0. -1.
        -11    1    1    2    0    0  0.42071758026E+01  0.43569935840E+01  0.15933954531E+03  0.15945461556E+03  0.00000000000E+00 0. -1.
         11    1    1    2    0    0 -0.38995310101E+01  0.95730059541E+00 -0.10423784181E+03  0.10431514958E+03  0.00000000000E+00 0. -1.
        -15    1    1    2    0    0  0.60866849062E+01 -0.64455076397E+00  0.22408064035E+02  0.23296829004E+02  0.17770000000E+01 0.  1.
         15    1    1    2    0    0 -0.63943296988E+01 -0.46697434154E+01 -0.77509767540E+02  0.77933405860E+02  0.17770000000E+01 0. -1.
</event>
<event>
 6    1  0.1408191E-002  0.1914418E+03  0.7546771E-02  0.1061552E+00
        -11   -1    0    0    0    0  0.00000000000E+00  0.00000000000E+00  0.18250000000E+03  0.18250000000E+03  0.00000000000E+00 0. -1.
         11   -1    0    0    0    0 -0.00000000000E+00 -0.00000000000E+00 -0.18250000000E+03  0.18250000000E+03  0.00000000000E+00 0. -1.
        -11    1    1    2    0    0 -0.64776560535E+01 -0.50024190608E+01  0.17336511598E+03  0.17355819676E+03  0.00000000000E+00 0. -1.
         11    1    1    2    0    0  0.11406554873E+01 -0.17031842300E+01 -0.92153066957E+02  0.92175862790E+02  0.00000000000E+00 0. -1.
        -15    1    1    2    0    0  0.48431503777E+01  0.96807278172E+01  0.56460956870E+01  0.12337289903E+02  0.17770000000E+01 0. -1.
         15    1    1    2    0    0  0.49385018844E+00 -0.29751245263E+01 -0.86858144710E+02  0.86928650544E+02  0.17770000000E+01 0.  1.
</event>
<event>
 6    1  0.1196607E-002  0.2091041E+03  0.7546771E-02  0.1049053E+00
        -11   -1    0    0    0    0  0.00000000000E+00  0.00000000000E+00  0.18250000000E+03  0.18250000000E+03  0.00000000000E+00 0. -1.
         11   -1    0    0    0    0 -0.00000000000E+00 -0.00000000000E+00 -0.18250000000E+03  0.18250000000E+03  0.00000000000E+00 0. -1.
        -11    1    1    2    0    0 -0.59964716359E+01  0.70432131910E+01  0.15562127121E+03  0.15589594150E+03  0.00000000000E+00 0. -1.
         11    1    1    2    0    0 -0.86463028781E+01  0.52747908841E+01 -0.12819788882E+03  0.12859735872E+03  0.00000000000E+00 0. -1.
        -15    1    1    2    0    0  0.16633024712E+02  0.18865744577E+02  0.13804143652E+02  0.28745189867E+02  0.17770000000E+01 0.  1.
         15    1    1    2    0    0 -0.19902501980E+01 -0.31183748652E+02 -0.41227526041E+02  0.51761509911E+02  0.17770000000E+01 0. -1.
</event>
<event>
 6    1  0.1196607E-002  0.1929595E+03  0.7546771E-02  0.1060421E+00
        -11   -1    0    0    0    0  0.00000000000E+00  0.00000000000E+00  0.18250000000E+03  0.18250000000E+03  0.00000000000E+00 0.  1.
         11   -1    0    0    0    0 -0.00000000000E+00 -0.00000000000E+00 -0.18250000000E+03  0.18250000000E+03  0.00000000000E+00 0.  1.
        -11    1    1    2    0    0 -0.86153336977E+00  0.89845790901E+00  0.64415441437E+02  0.64427467449E+02  0.00000000000E+00 0.  1.
         11    1    1    2    0    0  0.38265345185E+01  0.64382895964E+01 -0.17187737736E+03  0.17204048009E+03  0.00000000000E+00 0.  1.
        -15    1    1    2    0    0 -0.63089451962E+01  0.36742061258E+01 -0.88665774779E+01  0.11622241837E+02  0.17770000000E+01 0. -1.
         15    1    1    2    0    0  0.33439440475E+01 -0.11010953631E+02  0.11632851340E+03  0.11690981063E+03  0.17770000000E+01 0.  1.
</event>
<event>
 6    1  0.1196607E-002  0.1847624E+03  0.7546771E-02  0.1066668E+00
        -11   -1    0    0    0    0  0.00000000000E+00  0.00000000000E+00  0.18250000000E+03  0.18250000000E+03  0.00000000000E+00 0.  1.
         11   -1    0    0    0    0 -0.00000000000E+00 -0.00000000000E+00 -0.18250000000E+03  0.18250000000E+03  0.00000000000E+00 0. -1.
        -11    1    1    2    0    0 -0.27326282741E+01  0.68065216022E+00  0.17169654796E+03  0.17171964107E+03  0.00000000000E+00 0.  1.
         11    1    1    2    0    0  0.22773856597E+00 -0.29176806884E+01 -0.18021385457E+03  0.18023761568E+03  0.00000000000E+00 0. -1.
        -15    1    1    2    0    0  0.15242702996E+01  0.17505250313E+01  0.10041483541E+02  0.10458339186E+02  0.17770000000E+01 0.  1.
         15    1    1    2    0    0  0.98061940854E+00  0.48650349680E+00 -0.15241769352E+01  0.25844040719E+01  0.17770000000E+01 0. -1.
</event>
<event>
 6    1  0.1196607E-002  0.1769199E+03  0.7546771E-02  0.1072985E+00
        -11   -1    0    0    0    0  0.00000000000E+00  0.00000000000E+00  0.18250000000E+03  0.18250000000E+03  0.00000000000E+00 0. -1.
         11   -1    0    0    0    0 -0.00000000000E+00 -0.00000000000E+00 -0.18250000000E+03  0.18250000000E+03  0.00000000000E+00 0.  1.
        -11    1    1    2    0    0 -0.35814541225E+01  0.38400338162E+01  0.17786052644E+03  0.17793802162E+03  0.00000000000E+00 0. -1.
         11    1    1    2    0    0 -0.35559205996E+00  0.36781156836E+01 -0.17596972686E+03  0.17600852181E+03  0.00000000000E+00 0.  1.
        -15    1    1    2    0    0  0.34685514861E+00 -0.56744772921E+01  0.60400046702E+00  0.59868645047E+01  0.17770000000E+01 0. -1.
         15    1    1    2    0    0  0.35901910339E+01 -0.18436722077E+01 -0.24948000466E+01  0.50665920638E+01  0.17770000000E+01 0.  1.
</event>
<event>
 6    1  0.1196607E-002  0.1829466E+03  0.7546771E-02  0.1068100E+00
        -11   -1    0    0    0    0  0.00000000000E+00  0.00000000000E+00  0.18250000000E+03  0.18250000000E+03  0.00000000000E+00 0.  1.
         11   -1    0    0    0    0 -0.00000000000E+00 -0.00000000000E+00 -0.18250000000E+03  0.18250000000E+03  0.00000000000E+00 0. -1.
        -11    1    1    2    0    0 -0.31305153145E+01  0.18574357125E+01  0.41164867000E+02  0.41325494173E+02  0.00000000000E+00 0.  1.
         11    1    1    2    0    0 -0.25423093339E+01  0.38914319259E+01 -0.18199402819E+03  0.18205337919E+03  0.00000000000E+00 0. -1.
        -15    1    1    2    0    0  0.41848163060E+01 -0.29698134774E+01  0.13153923178E+03  0.13165128069E+03  0.17770000000E+01 0.  1.
         15    1    1    2    0    0  0.14880083425E+01 -0.27790541610E+01  0.92899294037E+01  0.99698459458E+01  0.17770000000E+01 0. -1.
</event>
<event>
 6    1  0.1196607E-002  0.1923632E+03  0.7546771E-02  0.1060864E+00
        -11   -1    0    0    0    0  0.00000000000E+00  0.00000000000E+00  0.18250000000E+03  0.18250000000E+03  0.00000000000E+00 0. -1.
         11   -1    0    0    0    0 -0.00000000000E+00 -0.00000000000E+00 -0.18250000000E+03  0.18250000000E+03  0.00000000000E+00 0. -1.
        -11    1    1    2    0    0  0.20337273003E+01 -0.66830148792E+01  0.15770005157E+03  0.15785469584E+03  0.00000000000E+00 0. -1.
         11    1    1    2    0    0  0.48884639511E+01  0.15147143316E+01 -0.17256096200E+03  0.17263683572E+03  0.00000000000E+00 0. -1.
        -15    1    1    2    0    0 -0.26093670511E+01  0.16633559490E+02  0.26782278684E+01  0.17141024801E+02  0.17770000000E+01 0. -1.
         15    1    1    2    0    0 -0.43128242003E+01 -0.11465258942E+02  0.12182682566E+02  0.17367443644E+02  0.17770000000E+01 0.  1.
</event>
<event>
 6    1  0.1196607E-002  0.1898461E+03  0.7546771E-02  0.1062753E+00
        -11   -1    0    0    0    0  0.00000000000E+00  0.00000000000E+00  0.18250000000E+03  0.18250000000E+03  0.00000000000E+00 0. -1.
         11   -1    0    0    0    0 -0.00000000000E+00 -0.00000000000E+00 -0.18250000000E+03  0.18250000000E+03  0.00000000000E+00 0.  1.
        -11    1    1    2    0    0  0.30446714826E+01 -0.15570070020E+01  0.17289928416E+03  0.17293309908E+03  0.00000000000E+00 0. -1.
         11    1    1    2    0    0  0.20767903275E+00  0.29684539730E+01 -0.17512863888E+03  0.17515391804E+03  0.00000000000E+00 0.  1.
        -15    1    1    2    0    0 -0.94360700263E+01  0.53855603020E-01  0.34485362625E+01  0.10202570721E+02  0.17770000000E+01 0.  1.
         15    1    1    2    0    0  0.61837195110E+01 -0.14653025740E+01 -0.12191815445E+01  0.67104121529E+01  0.17770000000E+01 0. -1.
</event>
<event>
 6    1  0.1196607E-002  0.1829536E+03  0.7546771E-02  0.1068094E+00
        -11   -1    0    0    0    0  0.00000000000E+00  0.00000000000E+00  0.18250000000E+03  0.18250000000E+03  0.00000000000E+00 0.  1.
         11   -1    0    0    0    0 -0.00000000000E+00 -0.00000000000E+00 -0.18250000000E+03  0.18250000000E+03  0.00000000000E+00 0.  1.
        -11    1    1    2    0    0 -0.42994471070E+00  0.14719968762E+01  0.21073173590E+02  0.21128896621E+02  0.00000000000E+00 0.  1.
         11    1    1    2    0    0  0.27270268601E+01  0.99508845533E+00 -0.18202322169E+03  0.18204636803E+03  0.00000000000E+00 0.  1.
        -15    1    1    2    0    0  0.41496872973E+01 -0.20644961612E+01  0.13263891409E+03  0.13273176451E+03  0.17770000000E+01 0.  1.
         15    1    1    2    0    0 -0.64467694467E+01 -0.40258917032E+00  0.28311134011E+02  0.29092970841E+02  0.17770000000E+01 0. -1.
</event>
<event>
 6    1  0.1196607E-002  0.1878027E+03  0.7546771E-02  0.1064311E+00
        -11   -1    0    0    0    0  0.00000000000E+00  0.00000000000E+00  0.18250000000E+03  0.18250000000E+03  0.00000000000E+00 0. -1.
         11   -1    0    0    0    0 -0.00000000000E+00 -0.00000000000E+00 -0.18250000000E+03  0.18250000000E+03  0.00000000000E+00 0. -1.
        -11    1    1    2    0    0  0.32107354197E+01  0.66313118690E+00  0.17100799054E+03  0.17103941474E+03  0.00000000000E+00 0. -1.
         11    1    1    2    0    0  0.30274086971E+01  0.27771723027E+01 -0.17714971080E+03  0.17719734176E+03  0.00000000000E+00 0. -1.
        -15    1    1    2    0    0 -0.11507868181E+01 -0.31293841301E+01 -0.38578585720E+01  0.53998293581E+01  0.17770000000E+01 0. -1.
         15    1    1    2    0    0 -0.50873572987E+01 -0.31091935954E+00  0.99995788361E+01  0.11363414145E+02  0.17770000000E+01 0.  1.
</event>
<event>
 6    1  0.1196607E-002  0.1841907E+03  0.7546771E-02  0.1067117E+00
        -11   -1    0    0    0    0  0.00000000000E+00  0.00000000000E+00  0.18250000000E+03  0.18250000000E+03  0.00000000000E+00 0.  1.
         11   -1    0    0    0    0 -0.00000000000E+00 -0.00000000000E+00 -0.18250000000E+03  0.18250000000E+03  0.00000000000E+00 0.  1.
        -11    1    1    2    0    0 -0.20975350263E+01 -0.13957232819E+01  0.18079178633E+03  0.18080934075E+03  0.00000000000E+00 0.  1.
         11    1    1    2    0    0  0.71183116051E+00  0.42048924855E+01 -0.17236618530E+03  0.17241893649E+03  0.00000000000E+00 0.  1.
        -15    1    1    2    0    0  0.41701891477E+00 -0.33474753426E+01 -0.88486882835E+01  0.96351704335E+01  0.17770000000E+01 0. -1.
         15    1    1    2    0    0  0.96868495105E+00  0.53830613907E+00  0.42308725595E+00  0.21365523303E+01  0.17770000000E+01 0. -1.
</event>
<event>
 6    1  0.1209484E-002  0.1828872E+03  0.7546771E-02  0.1068147E+00
        -11   -1    0    0    0    0  0.00000000000E+00  0.00000000000E+00  0.18250000000E+03  0.18250000000E+03  0.00000000000E+00 0. -1.
         11   -1    0    0    0    0 -0.00000000000E+00 -0.00000000000E+00 -0.18250000000E+03  0.18250000000E+03  0.00000000000E+00 0. -1.
        -11    1    1    2    0    0 -0.56732301751E+01  0.33428946961E+00  0.18202410938E+03  0.18211280483E+03  0.00000000000E+00 0. -1.
         11    1    1    2    0    0 -0.13793249093E-01 -0.10957466226E+01 -0.14157443460E+02  0.14199790711E+02  0.00000000000E+00 0. -1.
        -15    1    1    2    0    0  0.22121848420E+01 -0.63960424955E+00 -0.51248266674E+01  0.58927440757E+01  0.17770000000E+01 0.  1.
         15    1    1    2    0    0  0.34748385822E+01  0.14010614025E+01 -0.16274183925E+03  0.16279466038E+03  0.17770000000E+01 0. -1.
</event>
<event>
 6    1  0.1196607E-002  0.1847694E+03  0.7546771E-02  0.1066663E+00
        -11   -1    0    0    0    0  0.00000000000E+00  0.00000000000E+00  0.18250000000E+03  0.18250000000E+03  0.00000000000E+00 0. -1.
         11   -1    0    0    0    0 -0.00000000000E+00 -0.00000000000E+00 -0.18250000000E+03  0.18250000000E+03  0.00000000000E+00 0.  1.
        -11    1    1    2    0    0  0.59185750671E+01  0.32931566570E+01  0.12497325410E+03  0.12515665644E+03  0.00000000000E+00 0. -1.
         11    1    1    2    0    0 -0.59593134330E+01  0.87676026468E+00 -0.18012991296E+03  0.18023059582E+03  0.00000000000E+00 0.  1.
        -15    1    1    2    0    0  0.38073578352E+01  0.83358897699E+01  0.25649307572E+02  0.27295196278E+02  0.17770000000E+01 0.  1.
         15    1    1    2    0    0 -0.37666194694E+01 -0.12505806692E+02  0.29507351295E+02  0.32317551465E+02  0.17770000000E+01 0. -1.
</event>
<event>
 6    1  0.1196607E-002  0.1776629E+03  0.7546771E-02  0.1072372E+00
        -11   -1    0    0    0    0  0.00000000000E+00  0.00000000000E+00  0.18250000000E+03  0.18250000000E+03  0.00000000000E+00 0. -1.
         11   -1    0    0    0    0 -0.00000000000E+00 -0.00000000000E+00 -0.18250000000E+03  0.18250000000E+03  0.00000000000E+00 0. -1.
        -11    1    1    2    0    0 -0.49484382158E+01 -0.22665597570E+01  0.17937587068E+03  0.17945842782E+03  0.00000000000E+00 0. -1.
         11    1    1    2    0    0  0.53802452367E+00 -0.30250937468E+01 -0.17592401970E+03  0.17595084930E+03  0.00000000000E+00 0. -1.
        -15    1    1    2    0    0  0.13585047812E+00  0.74164101931E+00  0.49659380343E+00  0.19931937085E+01  0.17770000000E+01 0.  1.
         15    1    1    2    0    0  0.42745632140E+01  0.45500124845E+01 -0.39484447814E+01  0.75975291689E+01  0.17770000000E+01 0. -1.
</event>
<event>
 6    1  0.1196607E-002  0.1825852E+03  0.7546771E-02  0.1068387E+00
        -11   -1    0    0    0    0  0.00000000000E+00  0.00000000000E+00  0.18250000000E+03  0.18250000000E+03  0.00000000000E+00 0.  1.
         11   -1    0    0    0    0 -0.00000000000E+00 -0.00000000000E+00 -0.18250000000E+03  0.18250000000E+03  0.00000000000E+00 0.  1.
        -11    1    1    2    0    0  0.22213606967E+01 -0.14603136272E+01  0.18239542534E+03  0.18241479694E+03  0.00000000000E+00 0.  1.
         11    1    1    2    0    0  0.17947765129E+01  0.18244228680E+00 -0.34104200172E+02  0.34151881021E+02  0.00000000000E+00 0.  1.
        -15    1    1    2    0    0 -0.37472199371E+01  0.45608900814E+00 -0.12035019962E+03  0.12042249770E+03  0.17770000000E+01 0.  1.
         15    1    1    2    0    0 -0.26891727249E+00  0.82178233223E+00 -0.27941025542E+02  0.28010824337E+02  0.17770000000E+01 0. -1.
</event>
<event>
 6    1  0.1196607E-002  0.2323429E+03  0.7546771E-02  0.1034514E+00
        -11   -1    0    0    0    0  0.00000000000E+00  0.00000000000E+00  0.18250000000E+03  0.18250000000E+03  0.00000000000E+00 0.  1.
         11   -1    0    0    0    0 -0.00000000000E+00 -0.00000000000E+00 -0.18250000000E+03  0.18250000000E+03  0.00000000000E+00 0. -1.
        -11    1    1    2    0    0 -0.68279241654E+01 -0.15369396027E+01  0.13247234987E+03  0.13265710011E+03  0.00000000000E+00 0.  1.
         11    1    1    2    0    0  0.15628979489E+01  0.22987740971E+01 -0.12340898244E+03  0.12344028499E+03  0.00000000000E+00 0. -1.
        -15    1    1    2    0    0 -0.66282616107E-01 -0.30312369755E+01  0.49701730320E+02  0.49825821787E+02  0.17770000000E+01 0.  1.
         15    1    1    2    0    0  0.53313088326E+01  0.22694024811E+01 -0.58765097747E+02  0.59076793106E+02  0.17770000000E+01 0. -1.
</event>
<event>
 6    1  0.1196607E-002  0.1928073E+03  0.7546771E-02  0.1060534E+00
        -11   -1    0    0    0    0  0.00000000000E+00  0.00000000000E+00  0.18250000000E+03  0.18250000000E+03  0.00000000000E+00 0.  1.
         11   -1    0    0    0    0 -0.00000000000E+00 -0.00000000000E+00 -0.18250000000E+03  0.18250000000E+03  0.00000000000E+00 0. -1.
        -11    1    1    2    0    0  0.15210148561E+01  0.16956273078E+01  0.16227758980E+03  0.16229357593E+03  0.00000000000E+00 0.  1.
         11    1    1    2    0    0  0.21092665110E+01 -0.22101266807E+01 -0.17216557471E+03  0.17219267923E+03  0.00000000000E+00 0. -1.
        -15    1    1    2    0    0  0.31097805673E+01 -0.89508694303E+01 -0.55388766587E+01  0.11118708665E+02  0.17770000000E+01 0. -1.
         15    1    1    2    0    0 -0.67400619345E+01  0.94653688032E+01  0.15426861569E+02  0.19395036178E+02  0.17770000000E+01 0.  1.
</event>
<event>
 6    1  0.1196607E-002  0.1893652E+03  0.7546771E-02  0.1063118E+00
        -11   -1    0    0    0    0  0.00000000000E+00  0.00000000000E+00  0.18250000000E+03  0.18250000000E+03  0.00000000000E+00 0.  1.
         11   -1    0    0    0    0 -0.00000000000E+00 -0.00000000000E+00 -0.18250000000E+03  0.18250000000E+03  0.00000000000E+00 0. -1.
        -11    1    1    2    0    0 -0.28511194151E+01  0.21876198525E+01  0.13505135842E+03  0.13509916348E+03  0.00000000000E+00 0.  1.
         11    1    1    2    0    0  0.84671904233E+00  0.22978879526E+01 -0.17561771742E+03  0.17563479124E+03  0.00000000000E+00 0. -1.
        -15    1    1    2    0    0 -0.94388571434E+00  0.15143873587E+00 -0.65209022144E+01  0.68259613698E+01  0.17770000000E+01 0. -1.
         15    1    1    2    0    0  0.29482860871E+01 -0.46369465410E+01  0.47087261213E+02  0.47440083913E+02  0.17770000000E+01 0.  1.
</event>
<event>
 6    1  0.1196607E-002  0.1994806E+03  0.7546771E-02  0.1055688E+00
        -11   -1    0    0    0    0  0.00000000000E+00  0.00000000000E+00  0.18250000000E+03  0.18250000000E+03  0.00000000000E+00 0. -1.
         11   -1    0    0    0    0 -0.00000000000E+00 -0.00000000000E+00 -0.18250000000E+03  0.18250000000E+03  0.00000000000E+00 0.  1.
        -11    1    1    2    0    0  0.11650800461E+01 -0.31692430927E+00  0.45003083218E+02  0.45019277556E+02  0.00000000000E+00 0. -1.
         11    1    1    2    0    0  0.18786941210E+01  0.13012730748E+01 -0.16550362213E+03  0.16551939990E+03  0.00000000000E+00 0.  1.
        -15    1    1    2    0    0 -0.40430343313E+01  0.17334723187E+02 -0.11443800461E+02  0.21235749399E+02  0.17770000000E+01 0.  1.
         15    1    1    2    0    0  0.99926016422E+00 -0.18319071952E+02  0.13194433938E+03  0.13322557315E+03  0.17770000000E+01 0. -1.
</event>
<event>
 6    1  0.1196607E-002  0.1768500E+03  0.7546771E-02  0.1073043E+00
        -11   -1    0    0    0    0  0.00000000000E+00  0.00000000000E+00  0.18250000000E+03  0.18250000000E+03  0.00000000000E+00 0. -1.
         11   -1    0    0    0    0 -0.00000000000E+00 -0.00000000000E+00 -0.18250000000E+03  0.18250000000E+03  0.00000000000E+00 0. -1.
        -11    1    1    2    0    0  0.20734728114E+01  0.48410040036E+01  0.17710051324E+03  0.17717879783E+03  0.00000000000E+00 0. -1.
         11    1    1    2    0    0  0.21736592119E+01  0.12010780108E+01 -0.17658117696E+03  0.17659863941E+03  0.00000000000E+00 0. -1.
        -15    1    1    2    0    0  0.73069065195E+00  0.68652751930E+00 -0.16072624660E+01  0.25973545192E+01  0.17770000000E+01 0. -1.
         15    1    1    2    0    0 -0.49778226753E+01 -0.67286095337E+01  0.10879261863E+01  0.86252082428E+01  0.17770000000E+01 0. -1.
</event>
<event>
 6    1  0.1196607E-002  0.1855717E+03  0.7546771E-02  0.1066036E+00
        -11   -1    0    0    0    0  0.00000000000E+00  0.00000000000E+00  0.18250000000E+03  0.18250000000E+03  0.00000000000E+00 0. -1.
         11   -1    0    0    0    0 -0.00000000000E+00 -0.00000000000E+00 -0.18250000000E+03  0.18250000000E+03  0.00000000000E+00 0. -1.
        -11    1    1    2    0    0 -0.11142826571E+01 -0.23244694779E+01  0.16933959367E+03  0.16935921223E+03  0.00000000000E+00 0. -1.
         11    1    1    2    0    0 -0.57304124588E+01 -0.23695678772E+01 -0.17932108768E+03  0.17942827248E+03  0.00000000000E+00 0. -1.
        -15    1    1    2    0    0  0.89205324713E+01  0.38492529204E+01  0.71968339472E+01  0.12220670828E+02  0.17770000000E+01 0. -1.
         15    1    1    2    0    0 -0.20758373554E+01  0.84478443474E+00  0.27846600701E+01  0.39918444576E+01  0.17770000000E+01 0.  1.
</event>
<event>
 6    1  0.1196607E-002  0.1967758E+03  0.7546771E-02  0.1057627E+00
        -11   -1    0    0    0    0  0.00000000000E+00  0.00000000000E+00  0.18250000000E+03  0.18250000000E+03  0.00000000000E+00 0.  1.
         11   -1    0    0    0    0 -0.00000000000E+00 -0.00000000000E+00 -0.18250000000E+03  0.18250000000E+03  0.00000000000E+00 0. -1.
        -11    1    1    2    0    0 -0.20396979526E+01  0.38987415770E+01  0.15017079591E+03  0.15023524386E+03  0.00000000000E+00 0.  1.
         11    1    1    2    0    0  0.10885662549E+00 -0.28352451525E+01 -0.16820027235E+03  0.16822420183E+03  0.00000000000E+00 0. -1.
        -15    1    1    2    0    0 -0.50813477606E+01  0.46579244887E+01 -0.12644176238E+02  0.14510316239E+02  0.17770000000E+01 0. -1.
         15    1    1    2    0    0  0.70121890878E+01 -0.57214209131E+01  0.30673652675E+02  0.32030238065E+02  0.17770000000E+01 0.  1.
</event>
<event>
 6    1  0.1196607E-002  0.1844546E+03  0.7546771E-02  0.1066910E+00
        -11   -1    0    0    0    0  0.00000000000E+00  0.00000000000E+00  0.18250000000E+03  0.18250000000E+03  0.00000000000E+00 0.  1.
         11   -1    0    0    0    0 -0.00000000000E+00 -0.00000000000E+00 -0.18250000000E+03  0.18250000000E+03  0.00000000000E+00 0. -1.
        -11    1    1    2    0    0  0.31729258103E+00  0.37469109464E+01  0.18050625124E+03  0.18054541465E+03  0.00000000000E+00 0.  1.
         11    1    1    2    0    0  0.47253137375E+00 -0.20343588623E+01 -0.13177334591E+03  0.13178989564E+03  0.00000000000E+00 0. -1.
        -15    1    1    2    0    0 -0.30310448972E+01 -0.10224129021E+02 -0.30060894669E+02  0.31945816075E+02  0.17770000000E+01 0.  1.
         15    1    1    2    0    0  0.22412209424E+01  0.85115769366E+01 -0.18672010665E+02  0.20718873631E+02  0.17770000000E+01 0. -1.
</event>
<event>
 6    1  0.1196607E-002  0.1842980E+03  0.7546771E-02  0.1067033E+00
        -11   -1    0    0    0    0  0.00000000000E+00  0.00000000000E+00  0.18250000000E+03  0.18250000000E+03  0.00000000000E+00 0. -1.
         11   -1    0    0    0    0 -0.00000000000E+00 -0.00000000000E+00 -0.18250000000E+03  0.18250000000E+03  0.00000000000E+00 0. -1.
        -11    1    1    2    0    0  0.42137991790E+01  0.36053904041E-01  0.18065287466E+03  0.18070201584E+03  0.00000000000E+00 0. -1.
         11    1    1    2    0    0 -0.23807898681E+01 -0.45881663617E+00 -0.16938159383E+03  0.16939894628E+03  0.00000000000E+00 0. -1.
        -15    1    1    2    0    0 -0.50350541978E+01  0.19235034923E+01 -0.55155919643E+01  0.79139825737E+01  0.17770000000E+01 0.  1.
         15    1    1    2    0    0  0.32020448870E+01 -0.15007407602E+01 -0.57556888736E+01  0.69850553110E+01  0.17770000000E+01 0. -1.
</event>
<event>
 6    1  0.1196607E-002  0.1830897E+03  0.7546771E-02  0.1067986E+00
        -11   -1    0    0    0    0  0.00000000000E+00  0.00000000000E+00  0.18250000000E+03  0.18250000000E+03  0.00000000000E+00 0.  1.
         11   -1    0    0    0    0 -0.00000000000E+00 -0.00000000000E+00 -0.18250000000E+03  0.18250000000E+03  0.00000000000E+00 0. -1.
        -11    1    1    2    0    0  0.74076080748E+01  0.13299869709E+01  0.18175458502E+03  0.18191033698E+03  0.00000000000E+00 0.  1.
         11    1    1    2    0    0  0.60988751279E+00 -0.21315751218E+01 -0.11104165436E+03  0.11106378608E+03  0.00000000000E+00 0. -1.
        -15    1    1    2    0    0 -0.99153429719E+01  0.25688314272E+01 -0.49366282159E+02  0.50448988735E+02  0.17770000000E+01 0.  1.
         15    1    1    2    0    0  0.18978473843E+01 -0.17672432763E+01 -0.21346648504E+02  0.21576888210E+02  0.17770000000E+01 0.  1.
</event>
<event>
 6    1  0.1196607E-002  0.1670538E+03  0.7546771E-02  0.1081461E+00
        -11   -1    0    0    0    0  0.00000000000E+00  0.00000000000E+00  0.18250000000E+03  0.18250000000E+03  0.00000000000E+00 0.  1.
         11   -1    0    0    0    0 -0.00000000000E+00 -0.00000000000E+00 -0.18250000000E+03  0.18250000000E+03  0.00000000000E+00 0. -1.
        -11    1    1    2    0    0 -0.11789176039E+02  0.98936050045E+00  0.16566950442E+03  0.16609138509E+03  0.00000000000E+00 0.  1.
         11    1    1    2    0    0  0.66510996663E+00  0.13908278970E+02 -0.16796487706E+03  0.16854104106E+03  0.00000000000E+00 0. -1.
        -15    1    1    2    0    0  0.76926098479E+01  0.11697262080E+01  0.94415985325E+01  0.12363090937E+02  0.17770000000E+01 0. -1.
         15    1    1    2    0    0  0.34314562249E+01 -0.16067365679E+02 -0.71462258944E+01  0.18004482920E+02  0.17770000000E+01 0.  1.
</event>
<event>
 6    1  0.1196607E-002  0.1827190E+03  0.7546771E-02  0.1068281E+00
        -11   -1    0    0    0    0  0.00000000000E+00  0.00000000000E+00  0.18250000000E+03  0.18250000000E+03  0.00000000000E+00 0. -1.
         11   -1    0    0    0    0 -0.00000000000E+00 -0.00000000000E+00 -0.18250000000E+03  0.18250000000E+03  0.00000000000E+00 0. -1.
        -11    1    1    2    0    0 -0.33117424525E-01 -0.33516476345E+01  0.18225013443E+03  0.18228095386E+03  0.00000000000E+00 0. -1.
         11    1    1    2    0    0 -0.20312642845E+00 -0.20591802373E+01 -0.57123093665E+02  0.57160557322E+02  0.00000000000E+00 0. -1.
        -15    1    1    2    0    0  0.21774128294E+00  0.35721035607E+01 -0.11629736102E+03  0.11636597976E+03  0.17770000000E+01 0. -1.
         15    1    1    2    0    0  0.18502570040E-01  0.18387243110E+01 -0.88296797480E+01  0.91925090638E+01  0.17770000000E+01 0.  1.
</event>
<event>
 6    1  0.1196607E-002  0.1854471E+03  0.7546771E-02  0.1066133E+00
        -11   -1    0    0    0    0  0.00000000000E+00  0.00000000000E+00  0.18250000000E+03  0.18250000000E+03  0.00000000000E+00 0. -1.
         11   -1    0    0    0    0 -0.00000000000E+00 -0.00000000000E+00 -0.18250000000E+03  0.18250000000E+03  0.00000000000E+00 0.  1.
        -11    1    1    2    0    0  0.96804273969E+00 -0.35299584003E+01  0.37651408351E+02  0.37828907780E+02  0.00000000000E+00 0. -1.
         11    1    1    2    0    0  0.13128826601E+01  0.30924313665E+01 -0.17952147785E+03  0.17955291087E+03  0.00000000000E+00 0.  1.
        -15    1    1    2    0    0 -0.83803580392E+00 -0.55643203105E+01  0.30649436368E+00  0.59089451107E+01  0.17770000000E+01 0. -1.
         15    1    1    2    0    0 -0.14428895958E+01  0.60018473443E+01  0.14156357513E+03  0.14170923624E+03  0.17770000000E+01 0. -1.
</event>
<event>
 6    1  0.1196607E-002  0.1829516E+03  0.7546771E-02  0.1068096E+00
        -11   -1    0    0    0    0  0.00000000000E+00  0.00000000000E+00  0.18250000000E+03  0.18250000000E+03  0.00000000000E+00 0. -1.
         11   -1    0    0    0    0 -0.00000000000E+00 -0.00000000000E+00 -0.18250000000E+03  0.18250000000E+03  0.00000000000E+00 0.  1.
        -11    1    1    2    0    0 -0.29128457914E+01  0.70437394469E+01  0.18188872282E+03  0.18204836287E+03  0.00000000000E+00 0. -1.
         11    1    1    2    0    0  0.64866272335E+00  0.37014447496E+00 -0.54233814801E+02  0.54238956832E+02  0.00000000000E+00 0.  1.
        -15    1    1    2    0    0  0.41467037411E+01 -0.55357688474E+01 -0.24790807063E+02  0.25798870760E+02  0.17770000000E+01 0.  1.
         15    1    1    2    0    0 -0.18825206730E+01 -0.18781150745E+01 -0.10286410095E+03  0.10291380954E+03  0.17770000000E+01 0. -1.
</event>
<event>
 6    1  0.1196607E-002  0.1987454E+03  0.7546771E-02  0.1056212E+00
        -11   -1    0    0    0    0  0.00000000000E+00  0.00000000000E+00  0.18250000000E+03  0.18250000000E+03  0.00000000000E+00 0.  1.
         11   -1    0    0    0    0 -0.00000000000E+00 -0.00000000000E+00 -0.18250000000E+03  0.18250000000E+03  0.00000000000E+00 0.  1.
        -11    1    1    2    0    0 -0.32757924148E+01  0.11025016888E+02  0.15076721451E+03  0.15120527367E+03  0.00000000000E+00 0.  1.
         11    1    1    2    0    0 -0.29269646631E+01  0.70126543090E+01 -0.16608083404E+03  0.16625458754E+03  0.00000000000E+00 0.  1.
        -15    1    1    2    0    0 -0.48849214076E+01  0.66373254644E+01  0.18415290596E+02  0.20253325732E+02  0.17770000000E+01 0. -1.
         15    1    1    2    0    0  0.11087678486E+02 -0.24674996661E+02 -0.31016710665E+01  0.27286813058E+02  0.17770000000E+01 0.  1.
</event>
<event>
 6    1  0.1196607E-002  0.1833472E+03  0.7546771E-02  0.1067782E+00
        -11   -1    0    0    0    0  0.00000000000E+00  0.00000000000E+00  0.18250000000E+03  0.18250000000E+03  0.00000000000E+00 0.  1.
         11   -1    0    0    0    0 -0.00000000000E+00 -0.00000000000E+00 -0.18250000000E+03  0.18250000000E+03  0.00000000000E+00 0.  1.
        -11    1    1    2    0    0 -0.24625363833E+01  0.11120427948E+00  0.13805237193E+03  0.13807437795E+03  0.00000000000E+00 0.  1.
         11    1    1    2    0    0  0.14930277000E+01 -0.41952137513E+01 -0.18159824060E+03  0.18165282805E+03  0.00000000000E+00 0.  1.
        -15    1    1    2    0    0  0.22149589231E+01 -0.98685226528E+00  0.34822040385E+02  0.34951568577E+02  0.17770000000E+01 0.  1.
         15    1    1    2    0    0 -0.12454502398E+01  0.50708617371E+01  0.87238282880E+01  0.10321225414E+02  0.17770000000E+01 0. -1.
</event>
<event>
 6    1  0.1196607E-002  0.1853834E+03  0.7546771E-02  0.1066183E+00
        -11   -1    0    0    0    0  0.00000000000E+00  0.00000000000E+00  0.18250000000E+03  0.18250000000E+03  0.00000000000E+00 0. -1.
         11   -1    0    0    0    0 -0.00000000000E+00 -0.00000000000E+00 -0.18250000000E+03  0.18250000000E+03  0.00000000000E+00 0.  1.
        -11    1    1    2    0    0  0.42499093287E+01  0.60369581985E+01  0.17946480791E+03  0.17961660244E+03  0.00000000000E+00 0. -1.
         11    1    1    2    0    0  0.51293931811E+01  0.18110779147E+01 -0.14384172338E+03  0.14394454510E+03  0.00000000000E+00 0.  1.
        -15    1    1    2    0    0 -0.58603309545E+01 -0.12746159260E+02 -0.19139058039E+02  0.23796414150E+02  0.17770000000E+01 0. -1.
         15    1    1    2    0    0 -0.35189715553E+01  0.48981231465E+01 -0.16484026492E+02  0.17642438310E+02  0.17770000000E+01 0.  1.
</event>
<event>
 6    1  0.1196607E-002  0.1834961E+03  0.7546771E-02  0.1067665E+00
        -11   -1    0    0    0    0  0.00000000000E+00  0.00000000000E+00  0.18250000000E+03  0.18250000000E+03  0.00000000000E+00 0.  1.
         11   -1    0    0    0    0 -0.00000000000E+00 -0.00000000000E+00 -0.18250000000E+03  0.18250000000E+03  0.00000000000E+00 0.  1.
        -11    1    1    2    0    0 -0.26040848997E+01  0.89688144508E-01  0.16676028781E+03  0.16678064304E+03  0.00000000000E+00 0.  1.
         11    1    1    2    0    0  0.28976169152E+01  0.11738325708E+01 -0.18147700086E+03  0.18150392808E+03  0.00000000000E+00 0.  1.
        -15    1    1    2    0    0 -0.94288532451E+00  0.18810393612E+01  0.18063791648E+01  0.32936418295E+01  0.17770000000E+01 0.  1.
         15    1    1    2    0    0  0.64935330896E+00 -0.31445600765E+01  0.12910333884E+02  0.13421787057E+02  0.17770000000E+01 0.  1.
</event>
<event>
 6    1  0.1196607E-002  0.1832619E+03  0.7546771E-02  0.1067850E+00
        -11   -1    0    0    0    0  0.00000000000E+00  0.00000000000E+00  0.18250000000E+03  0.18250000000E+03  0.00000000000E+00 0. -1.
         11   -1    0    0    0    0 -0.00000000000E+00 -0.00000000000E+00 -0.18250000000E+03  0.18250000000E+03  0.00000000000E+00 0.  1.
        -11    1    1    2    0    0  0.12230710252E+00 -0.22114621384E+01  0.14819411652E+03  0.14821066661E+03  0.00000000000E+00 0. -1.
         11    1    1    2    0    0 -0.14040593302E+01 -0.21120694359E+01 -0.18172036660E+03  0.18173806386E+03  0.00000000000E+00 0.  1.
        -15    1    1    2    0    0  0.24303067882E+01  0.15008398415E+01  0.36357214803E+01  0.49532929448E+01  0.17770000000E+01 0.  1.
         15    1    1    2    0    0 -0.11485545605E+01  0.28226917328E+01  0.29890528594E+02  0.30097976590E+02  0.17770000000E+01 0. -1.
</event>
<event>
 6    1  0.1196607E-002  0.8773478E+02  0.7546771E-02  0.1186911E+00
        -11   -1    0    0    0    0  0.00000000000E+00  0.00000000000E+00  0.18250000000E+03  0.18250000000E+03  0.00000000000E+00 0.  1.
         11   -1    0    0    0    0 -0.00000000000E+00 -0.00000000000E+00 -0.18250000000E+03  0.18250000000E+03  0.00000000000E+00 0.  1.
        -11    1    1    2    0    0  0.21282666551E+01  0.12601438798E+01  0.11089998732E+03  0.11092756496E+03  0.00000000000E+00 0.  1.
         11    1    1    2    0    0 -0.52691984955E+01 -0.38391475441E+01 -0.11990534552E+03  0.12008245246E+03  0.00000000000E+00 0.  1.
        -15    1    1    2    0    0 -0.17664678677E+02 -0.30093148728E+02  0.60298463390E+02  0.69690034361E+02  0.17770000000E+01 0.  1.
         15    1    1    2    0    0  0.20805610517E+02  0.32672152392E+02 -0.51293105190E+02  0.64299948212E+02  0.17770000000E+01 0. -1.
</event>
<event>
 6    1  0.1196607E-002  0.1842735E+03  0.7546771E-02  0.1067052E+00
        -11   -1    0    0    0    0  0.00000000000E+00  0.00000000000E+00  0.18250000000E+03  0.18250000000E+03  0.00000000000E+00 0.  1.
         11   -1    0    0    0    0 -0.00000000000E+00 -0.00000000000E+00 -0.18250000000E+03  0.18250000000E+03  0.00000000000E+00 0. -1.
        -11    1    1    2    0    0  0.64539750865E+01  0.14523232978E+01  0.16240728521E+03  0.16254196174E+03  0.00000000000E+00 0.  1.
         11    1    1    2    0    0  0.17924532343E+01 -0.44602181613E+01 -0.18066251741E+03  0.18072645526E+03  0.00000000000E+00 0. -1.
        -15    1    1    2    0    0 -0.34489364098E+01 -0.12657646430E+01  0.29439497872E+01  0.50320862314E+01  0.17770000000E+01 0. -1.
         15    1    1    2    0    0 -0.47974919110E+01  0.42736595065E+01  0.15311282409E+02  0.16699496766E+02  0.17770000000E+01 0. -1.
</event>
<event>
 6    1  0.1196607E-002  0.1848272E+03  0.7546771E-02  0.1066617E+00
        -11   -1    0    0    0    0  0.00000000000E+00  0.00000000000E+00  0.18250000000E+03  0.18250000000E+03  0.00000000000E+00 0. -1.
         11   -1    0    0    0    0 -0.00000000000E+00 -0.00000000000E+00 -0.18250000000E+03  0.18250000000E+03  0.00000000000E+00 0.  1.
        -11    1    1    2    0    0 -0.98749554281E+00  0.33677894488E+01  0.13312234158E+03  0.13316859607E+03  0.00000000000E+00 0. -1.
         11    1    1    2    0    0 -0.68638029181E+00 -0.23716639309E+01 -0.18015593197E+03  0.18017284959E+03  0.00000000000E+00 0.  1.
        -15    1    1    2    0    0  0.10511374027E+02 -0.44086099119E+01  0.22165025793E+02  0.24987415286E+02  0.17770000000E+01 0.  1.
         15    1    1    2    0    0 -0.88374981921E+01  0.34124843940E+01  0.24868564595E+02  0.26671139047E+02  0.17770000000E+01 0. -1.
</event>
<event>
 6    1  0.1196607E-002  0.1989808E+03  0.7546771E-02  0.1056044E+00
        -11   -1    0    0    0    0  0.00000000000E+00  0.00000000000E+00  0.18250000000E+03  0.18250000000E+03  0.00000000000E+00 0.  1.
         11   -1    0    0    0    0 -0.00000000000E+00 -0.00000000000E+00 -0.18250000000E+03  0.18250000000E+03  0.00000000000E+00 0.  1.
        -11    1    1    2    0    0 -0.15214814010E+02  0.18172192417E+01  0.14529670281E+03  0.14610244590E+03  0.00000000000E+00 0.  1.
         11    1    1    2    0    0 -0.43176333543E+00 -0.22772806733E+01 -0.16600305620E+03  0.16601923712E+03  0.00000000000E+00 0.  1.
        -15    1    1    2    0    0  0.52317386842E+01  0.31601154993E+01 -0.14599500203E+02  0.15926724547E+02  0.17770000000E+01 0. -1.
         15    1    1    2    0    0  0.10414838662E+02 -0.27000540676E+01  0.35305853589E+02  0.36951592428E+02  0.17770000000E+01 0.  1.
</event>
<event>
 6    1  0.1196607E-002  0.1825646E+03  0.7546771E-02  0.1068403E+00
        -11   -1    0    0    0    0  0.00000000000E+00  0.00000000000E+00  0.18250000000E+03  0.18250000000E+03  0.00000000000E+00 0. -1.
         11   -1    0    0    0    0 -0.00000000000E+00 -0.00000000000E+00 -0.18250000000E+03  0.18250000000E+03  0.00000000000E+00 0. -1.
        -11    1    1    2    0    0  0.41937749165E+01 -0.20121519888E+00  0.18238704641E+03  0.18243536646E+03  0.00000000000E+00 0. -1.
         11    1    1    2    0    0 -0.18918471380E-02 -0.55582597802E+00 -0.21159195137E+02  0.21166494395E+02  0.00000000000E+00 0. -1.
        -15    1    1    2    0    0 -0.47541763907E+01 -0.59255529085E+00 -0.10989862699E+03  0.11001735889E+03  0.17770000000E+01 0. -1.
         15    1    1    2    0    0  0.56229332136E+00  0.13495964677E+01 -0.51329224290E+02  0.51380780255E+02  0.17770000000E+01 0. -1.
</event>
<event>
 6    1  0.1196607E-002  0.1854761E+03  0.7546771E-02  0.1066110E+00
        -11   -1    0    0    0    0  0.00000000000E+00  0.00000000000E+00  0.18250000000E+03  0.18250000000E+03  0.00000000000E+00 0.  1.
         11   -1    0    0    0    0 -0.00000000000E+00 -0.00000000000E+00 -0.18250000000E+03  0.18250000000E+03  0.00000000000E+00 0.  1.
        -11    1    1    2    0    0 -0.28457105824E+01 -0.21774181454E+01  0.17948808858E+03  0.17952385123E+03  0.00000000000E+00 0.  1.
         11    1    1    2    0    0 -0.29630835417E+01 -0.14946443405E+01 -0.16077250052E+03  0.16080674970E+03  0.00000000000E+00 0.  1.
        -15    1    1    2    0    0  0.33013998895E+01 -0.69462813658E+00  0.12416717853E+01  0.40101405588E+01  0.17770000000E+01 0.  1.
         15    1    1    2    0    0  0.25073942345E+01  0.43666906225E+01 -0.19957259848E+02  0.20659258517E+02  0.17770000000E+01 0.  1.
</event>
<event>
 6    1  0.1196607E-002  0.1828840E+03  0.7546771E-02  0.1068150E+00
        -11   -1    0    0    0    0  0.00000000000E+00  0.00000000000E+00  0.18250000000E+03  0.18250000000E+03  0.00000000000E+00 0. -1.
         11   -1    0    0    0    0 -0.00000000000E+00 -0.00000000000E+00 -0.18250000000E+03  0.18250000000E+03  0.00000000000E+00 0.  1.
        -11    1    1    2    0    0 -0.17539267674E+01  0.16673460416E+01  0.11368957569E+03  0.11371532844E+03  0.00000000000E+00 0. -1.
         11    1    1    2    0    0  0.31894939177E+01  0.15299138163E+01 -0.18208161404E+03  0.18211597316E+03  0.00000000000E+00 0.  1.
        -15    1    1    2    0    0 -0.27429639543E+01 -0.25060281251E+01  0.11254152803E+02  0.11984060770E+02  0.17770000000E+01 0. -1.
         15    1    1    2    0    0  0.13073968040E+01 -0.69123173282E+00  0.57137885549E+02  0.57184637637E+02  0.17770000000E+01 0.  1.
</event>
<event>
 6    1  0.1196607E-002  0.1830395E+03  0.7546771E-02  0.1068026E+00
        -11   -1    0    0    0    0  0.00000000000E+00  0.00000000000E+00  0.18250000000E+03  0.18250000000E+03  0.00000000000E+00 0. -1.
         11   -1    0    0    0    0 -0.00000000000E+00 -0.00000000000E+00 -0.18250000000E+03  0.18250000000E+03  0.00000000000E+00 0. -1.
        -11    1    1    2    0    0 -0.78583316711E+01 -0.33417409966E+01  0.18176002977E+03  0.18196051504E+03  0.00000000000E+00 0. -1.
         11    1    1    2    0    0 -0.10516564548E+01 -0.14146275282E+01 -0.11413201542E+03  0.11414562671E+03  0.00000000000E+00 0. -1.
        -15    1    1    2    0    0  0.64625064591E+01  0.25413974741E+01 -0.22587216453E+02  0.23697315606E+02  0.17770000000E+01 0. -1.
         15    1    1    2    0    0  0.24474816669E+01  0.22149710506E+01 -0.45040797900E+02  0.45196542652E+02  0.17770000000E+01 0. -1.
</event>
<event>
 6    1  0.1196607E-002  0.1837817E+03  0.7546771E-02  0.1067439E+00
        -11   -1    0    0    0    0  0.00000000000E+00  0.00000000000E+00  0.18250000000E+03  0.18250000000E+03  0.00000000000E+00 0. -1.
         11   -1    0    0    0    0 -0.00000000000E+00 -0.00000000000E+00 -0.18250000000E+03  0.18250000000E+03  0.00000000000E+00 0. -1.
        -11    1    1    2    0    0 -0.36626960590E+01  0.28427453656E+01  0.15743246705E+03  0.15750072452E+03  0.00000000000E+00 0. -1.
         11    1    1    2    0    0  0.45970828378E+00 -0.28074828425E+01 -0.18119601824E+03  0.18121834984E+03  0.00000000000E+00 0. -1.
        -15    1    1    2    0    0  0.50734009404E+01  0.22240938654E+01  0.66868641853E+01  0.88632878920E+01  0.17770000000E+01 0.  1.
         15    1    1    2    0    0 -0.18704131653E+01 -0.22593563885E+01  0.17076687007E+02  0.17417637752E+02  0.17770000000E+01 0. -1.
</event>
<event>
 6    1  0.1196607E-002  0.1855418E+03  0.7546771E-02  0.1066059E+00
        -11   -1    0    0    0    0  0.00000000000E+00  0.00000000000E+00  0.18250000000E+03  0.18250000000E+03  0.00000000000E+00 0. -1.
         11   -1    0    0    0    0 -0.00000000000E+00 -0.00000000000E+00 -0.18250000000E+03  0.18250000000E+03  0.00000000000E+00 0. -1.
        -11    1    1    2    0    0  0.15853031529E+01 -0.33877334415E+01  0.17941921633E+03  0.17945819879E+03  0.00000000000E+00 0. -1.
         11    1    1    2    0    0 -0.15306067871E+00  0.26723120058E+01 -0.15491501560E+03  0.15493813842E+03  0.00000000000E+00 0. -1.
        -15    1    1    2    0    0  0.59518488258E+00 -0.18371967104E+01 -0.26334076718E+02  0.26464520823E+02  0.17770000000E+01 0. -1.
         15    1    1    2    0    0 -0.20274273567E+01  0.25526181460E+01  0.18298759932E+01  0.41391419687E+01  0.17770000000E+01 0.  1.
</event>
<event>
 6    1  0.1196607E-002  0.1858477E+03  0.7546771E-02  0.1065821E+00
        -11   -1    0    0    0    0  0.00000000000E+00  0.00000000000E+00  0.18250000000E+03  0.18250000000E+03  0.00000000000E+00 0.  1.
         11   -1    0    0    0    0 -0.00000000000E+00 -0.00000000000E+00 -0.18250000000E+03  0.18250000000E+03  0.00000000000E+00 0.  1.
        -11    1    1    2    0    0  0.12699977180E+01  0.13313591407E+00  0.83083486032E+02  0.83093298590E+02  0.00000000000E+00 0.  1.
         11    1    1    2    0    0 -0.11128271907E+00 -0.26288827779E+01 -0.17913302410E+03  0.17915234782E+03  0.00000000000E+00 0.  1.
        -15    1    1    2    0    0 -0.10009291430E+01  0.10157516798E+02  0.94074808201E+02  0.94643564355E+02  0.17770000000E+01 0.  1.
         15    1    1    2    0    0 -0.15778585596E+00 -0.76617699340E+01  0.19747298652E+01  0.81107892303E+01  0.17770000000E+01 0. -1.
</event>
<event>
 6    1  0.1196607E-002  0.1847370E+03  0.7546771E-02  0.1066688E+00
        -11   -1    0    0    0    0  0.00000000000E+00  0.00000000000E+00  0.18250000000E+03  0.18250000000E+03  0.00000000000E+00 0.  1.
         11   -1    0    0    0    0 -0.00000000000E+00 -0.00000000000E+00 -0.18250000000E+03  0.18250000000E+03  0.00000000000E+00 0. -1.
        -11    1    1    2    0    0 -0.10759411601E+01  0.54165924478E+01  0.16644059707E+03  0.16653218750E+03  0.00000000000E+00 0.  1.
         11    1    1    2    0    0  0.12463212036E+01  0.37837111763E+01 -0.18021901776E+03  0.18026304156E+03  0.00000000000E+00 0. -1.
        -15    1    1    2    0    0  0.20725747075E+01 -0.23745946432E+01  0.81154960491E+01  0.88855653034E+01  0.17770000000E+01 0.  1.
         15    1    1    2    0    0 -0.22429547509E+01 -0.68257089809E+01  0.56629246486E+01  0.93192056358E+01  0.17770000000E+01 0. -1.
</event>
<event>
 6    1  0.1196607E-002  0.1826254E+03  0.7546771E-02  0.1068355E+00
        -11   -1    0    0    0    0  0.00000000000E+00  0.00000000000E+00  0.18250000000E+03  0.18250000000E+03  0.00000000000E+00 0. -1.
         11   -1    0    0    0    0 -0.00000000000E+00 -0.00000000000E+00 -0.18250000000E+03  0.18250000000E+03  0.00000000000E+00 0.  1.
        -11    1    1    2    0    0  0.57883813889E+00  0.11931733582E+00  0.31158897325E+02  0.31164501805E+02  0.00000000000E+00 0. -1.
         11    1    1    2    0    0  0.25128171438E+01 -0.24247385497E+01 -0.18234119239E+03  0.18237462556E+03  0.00000000000E+00 0.  1.
        -15    1    1    2    0    0 -0.49055906869E+01 -0.42822273138E+00  0.71576869340E+02  0.71768057994E+02  0.17770000000E+01 0. -1.
         15    1    1    2    0    0  0.18139354042E+01  0.27336439453E+01  0.79605425726E+02  0.79692814637E+02  0.17770000000E+01 0.  1.
</event>
<event>
 6    1  0.1196607E-002  0.1857729E+03  0.7546771E-02  0.1065879E+00
        -11   -1    0    0    0    0  0.00000000000E+00  0.00000000000E+00  0.18250000000E+03  0.18250000000E+03  0.00000000000E+00 0. -1.
         11   -1    0    0    0    0 -0.00000000000E+00 -0.00000000000E+00 -0.18250000000E+03  0.18250000000E+03  0.00000000000E+00 0. -1.
        -11    1    1    2    0    0  0.17512238510E+01 -0.44105509117E+01  0.17916429986E+03  0.17922713547E+03  0.00000000000E+00 0. -1.
         11    1    1    2    0    0  0.53171713085E+00  0.28377528669E+01 -0.17427337270E+03  0.17429728625E+03  0.00000000000E+00 0. -1.
        -15    1    1    2    0    0  0.14491075010E+01  0.12841112910E+01 -0.65150025905E+01  0.70250866266E+01  0.17770000000E+01 0. -1.
         15    1    1    2    0    0 -0.37320484828E+01  0.28868675375E+00  0.16240754271E+01  0.44504916484E+01  0.17770000000E+01 0.  1.
</event>
<event>
 6    1  0.1196607E-002  0.1901637E+03  0.7546771E-02  0.1062513E+00
        -11   -1    0    0    0    0  0.00000000000E+00  0.00000000000E+00  0.18250000000E+03  0.18250000000E+03  0.00000000000E+00 0.  1.
         11   -1    0    0    0    0 -0.00000000000E+00 -0.00000000000E+00 -0.18250000000E+03  0.18250000000E+03  0.00000000000E+00 0.  1.
        -11    1    1    2    0    0 -0.34535545177E+01 -0.16298895099E+01  0.14917914271E+03  0.14922801412E+03  0.00000000000E+00 0.  1.
         11    1    1    2    0    0 -0.13361806631E-01  0.95217337228E+01 -0.17457678180E+03  0.17483625578E+03  0.00000000000E+00 0.  1.
        -15    1    1    2    0    0 -0.29703424377E+01 -0.17399895918E+02  0.23042019495E+02  0.29080435065E+02  0.17770000000E+01 0.  1.
         15    1    1    2    0    0  0.64372587620E+01  0.95080517047E+01  0.23556195985E+01  0.11855295031E+02  0.17770000000E+01 0. -1.
</event>
<event>
 6    1  0.1196607E-002  0.1792346E+03  0.7546771E-02  0.1071084E+00
        -11   -1    0    0    0    0  0.00000000000E+00  0.00000000000E+00  0.18250000000E+03  0.18250000000E+03  0.00000000000E+00 0.  1.
         11   -1    0    0    0    0 -0.00000000000E+00 -0.00000000000E+00 -0.18250000000E+03  0.18250000000E+03  0.00000000000E+00 0. -1.
        -11    1    1    2    0    0 -0.37161599339E+00  0.25153779277E+01  0.17865507306E+03  0.17867316630E+03  0.00000000000E+00 0.  1.
         11    1    1    2    0    0  0.26895598540E+01 -0.31599585406E+01 -0.17975789079E+03  0.17980577958E+03  0.00000000000E+00 0. -1.
        -15    1    1    2    0    0  0.21244325538E+00 -0.67668088733E+00  0.22635590104E+01  0.29638585583E+01  0.17770000000E+01 0. -1.
         15    1    1    2    0    0 -0.25303871160E+01  0.13212615002E+01 -0.11607412828E+01  0.35571955575E+01  0.17770000000E+01 0.  1.
</event>
<event>
 6    1  0.1196607E-002  0.1832608E+03  0.7546771E-02  0.1067851E+00
        -11   -1    0    0    0    0  0.00000000000E+00  0.00000000000E+00  0.18250000000E+03  0.18250000000E+03  0.00000000000E+00 0. -1.
         11   -1    0    0    0    0 -0.00000000000E+00 -0.00000000000E+00 -0.18250000000E+03  0.18250000000E+03  0.00000000000E+00 0. -1.
        -11    1    1    2    0    0 -0.46287023004E+01  0.35272511355E+01  0.14947860479E+03  0.14959184361E+03  0.00000000000E+00 0. -1.
         11    1    1    2    0    0  0.30889273244E+01 -0.25331084016E+01 -0.18169524695E+03  0.18173915614E+03  0.00000000000E+00 0. -1.
        -15    1    1    2    0    0 -0.72160599544E+00  0.16924233918E+00  0.29447848527E+02  0.29510724662E+02  0.17770000000E+01 0. -1.
         15    1    1    2    0    0  0.22613809715E+01 -0.11633850731E+01  0.27687936303E+01  0.41582755914E+01  0.17770000000E+01 0. -1.
</event>
<event>
 6    1  0.1196607E-002  0.1697336E+03  0.7546771E-02  0.1079097E+00
        -11   -1    0    0    0    0  0.00000000000E+00  0.00000000000E+00  0.18250000000E+03  0.18250000000E+03  0.00000000000E+00 0. -1.
         11   -1    0    0    0    0 -0.00000000000E+00 -0.00000000000E+00 -0.18250000000E+03  0.18250000000E+03  0.00000000000E+00 0.  1.
        -11    1    1    2    0    0  0.37001099644E+01  0.34086562806E+01  0.16747137915E+03  0.16754692652E+03  0.00000000000E+00 0. -1.
         11    1    1    2    0    0 -0.90995399741E+01  0.40372304840E+01 -0.17178403921E+03  0.17207224351E+03  0.00000000000E+00 0.  1.
        -15    1    1    2    0    0  0.18503629191E+01 -0.23518433275E+01 -0.95084984123E+01  0.10125427449E+02  0.17770000000E+01 0.  1.
         15    1    1    2    0    0  0.35490670905E+01 -0.50940434371E+01  0.13821158469E+02  0.15255402524E+02  0.17770000000E+01 0. -1.
</event>
<event>
 6    1  0.1196607E-002  0.1834980E+03  0.7546771E-02  0.1067663E+00
        -11   -1    0    0    0    0  0.00000000000E+00  0.00000000000E+00  0.18250000000E+03  0.18250000000E+03  0.00000000000E+00 0.  1.
         11   -1    0    0    0    0 -0.00000000000E+00 -0.00000000000E+00 -0.18250000000E+03  0.18250000000E+03  0.00000000000E+00 0.  1.
        -11    1    1    2    0    0  0.17389881888E+00 -0.45283708521E+01  0.14951799597E+03  0.14958665549E+03  0.00000000000E+00 0.  1.
         11    1    1    2    0    0 -0.25188471697E+01 -0.30046087825E+01 -0.18145966946E+03  0.18150202177E+03  0.00000000000E+00 0.  1.
        -15    1    1    2    0    0  0.28030739863E+01  0.10635500249E+01  0.19101167808E+02  0.19416505944E+02  0.17770000000E+01 0. -1.
         15    1    1    2    0    0 -0.45812563553E+00  0.64694296096E+01  0.12840505688E+02  0.14494816794E+02  0.17770000000E+01 0.  1.
</event>
<event>
 6    1  0.1196607E-002  0.1831884E+03  0.7546771E-02  0.1067908E+00
        -11   -1    0    0    0    0  0.00000000000E+00  0.00000000000E+00  0.18250000000E+03  0.18250000000E+03  0.00000000000E+00 0.  1.
         11   -1    0    0    0    0 -0.00000000000E+00 -0.00000000000E+00 -0.18250000000E+03  0.18250000000E+03  0.00000000000E+00 0. -1.
        -11    1    1    2    0    0 -0.62091446973E+00  0.22643669806E+01  0.14087764676E+03  0.14089721165E+03  0.00000000000E+00 0.  1.
         11    1    1    2    0    0 -0.63327443282E+01  0.72273552817E-01 -0.18170125088E+03  0.18181158776E+03  0.00000000000E+00 0. -1.
        -15    1    1    2    0    0  0.77198942944E+01 -0.13910013355E+01  0.23587998964E+02  0.24921538411E+02  0.17770000000E+01 0.  1.
         15    1    1    2    0    0 -0.76623549645E+00 -0.94563919796E+00  0.17235605152E+02  0.17369662181E+02  0.17770000000E+01 0.  1.
</event>
<event>
 6    1  0.1196607E-002  0.1936791E+03  0.7546771E-02  0.1059889E+00
        -11   -1    0    0    0    0  0.00000000000E+00  0.00000000000E+00  0.18250000000E+03  0.18250000000E+03  0.00000000000E+00 0. -1.
         11   -1    0    0    0    0 -0.00000000000E+00 -0.00000000000E+00 -0.18250000000E+03  0.18250000000E+03  0.00000000000E+00 0.  1.
        -11    1    1    2    0    0  0.28820138098E+01  0.22687844983E+01  0.17128167588E+03  0.17132094408E+03  0.00000000000E+00 0. -1.
         11    1    1    2    0    0  0.28697396153E+01  0.18768590901E+01 -0.14736121495E+03  0.14740110473E+03  0.00000000000E+00 0.  1.
        -15    1    1    2    0    0 -0.10228633603E+02 -0.15189929558E+02 -0.28045896320E+02  0.33542345397E+02  0.17770000000E+01 0.  1.
         15    1    1    2    0    0  0.44768801775E+01  0.11044285969E+02  0.41254353847E+01  0.12735605789E+02  0.17770000000E+01 0. -1.
</event>
<event>
 6    1  0.1196607E-002  0.1602633E+03  0.7546771E-02  0.1087677E+00
        -11   -1    0    0    0    0  0.00000000000E+00  0.00000000000E+00  0.18250000000E+03  0.18250000000E+03  0.00000000000E+00 0.  1.
         11   -1    0    0    0    0 -0.00000000000E+00 -0.00000000000E+00 -0.18250000000E+03  0.18250000000E+03  0.00000000000E+00 0. -1.
        -11    1    1    2    0    0 -0.21444228560E+02 -0.28994293275E+01  0.15437087247E+03  0.15588017159E+03  0.00000000000E+00 0.  1.
         11    1    1    2    0    0  0.22838949325E+00 -0.53589222629E+01 -0.16556193748E+03  0.16564880124E+03  0.00000000000E+00 0. -1.
        -15    1    1    2    0    0  0.26509371128E+01  0.22874091363E+01 -0.12286575055E+02  0.12898734966E+02  0.17770000000E+01 0. -1.
         15    1    1    2    0    0  0.18564901954E+02  0.59709424541E+01  0.23477640071E+02  0.30572292205E+02  0.17770000000E+01 0.  1.
</event>
<event>
 6    1  0.1196607E-002  0.1967194E+03  0.7546771E-02  0.1057668E+00
        -11   -1    0    0    0    0  0.00000000000E+00  0.00000000000E+00  0.18250000000E+03  0.18250000000E+03  0.00000000000E+00 0. -1.
         11   -1    0    0    0    0 -0.00000000000E+00 -0.00000000000E+00 -0.18250000000E+03  0.18250000000E+03  0.00000000000E+00 0. -1.
        -11    1    1    2    0    0 -0.24888276972E+01 -0.28667700750E+01  0.14640767753E+03  0.14645689016E+03  0.00000000000E+00 0. -1.
         11    1    1    2    0    0 -0.26891163594E+02  0.22244787522E+01 -0.16610322761E+03  0.16828061447E+03  0.00000000000E+00 0. -1.
        -15    1    1    2    0    0  0.31658685955E+02 -0.73449459924E+00  0.14626201585E+01  0.31750730156E+02  0.17770000000E+01 0.  1.
         15    1    1    2    0    0 -0.22786946641E+01  0.13767859220E+01  0.18232929921E+02  0.18511765214E+02  0.17770000000E+01 0. -1.
</event>
<event>
 6    1  0.1196607E-002  0.1859481E+03  0.7546771E-02  0.1065743E+00
        -11   -1    0    0    0    0  0.00000000000E+00  0.00000000000E+00  0.18250000000E+03  0.18250000000E+03  0.00000000000E+00 0. -1.
         11   -1    0    0    0    0 -0.00000000000E+00 -0.00000000000E+00 -0.18250000000E+03  0.18250000000E+03  0.00000000000E+00 0. -1.
        -11    1    1    2    0    0  0.11006270326E+01 -0.35623424337E+01  0.14254232868E+03  0.14259108362E+03  0.00000000000E+00 0. -1.
         11    1    1    2    0    0 -0.22292463497E+01 -0.92859181393E+00 -0.17903558098E+03  0.17905186700E+03  0.00000000000E+00 0. -1.
        -15    1    1    2    0    0  0.11685473387E+01  0.25917282473E+01 -0.25593665750E+01  0.42178957379E+01  0.17770000000E+01 0. -1.
         15    1    1    2    0    0 -0.39928021651E-01  0.18992060004E+01  0.39052618873E+02  0.39139153639E+02  0.17770000000E+01 0.  1.
</event>
<event>
 6    1  0.1196607E-002  0.1861214E+03  0.7546771E-02  0.1065608E+00
        -11   -1    0    0    0    0  0.00000000000E+00  0.00000000000E+00  0.18250000000E+03  0.18250000000E+03  0.00000000000E+00 0. -1.
         11   -1    0    0    0    0 -0.00000000000E+00 -0.00000000000E+00 -0.18250000000E+03  0.18250000000E+03  0.00000000000E+00 0. -1.
        -11    1    1    2    0    0  0.67708426044E+01 -0.85212931594E+01  0.17854721243E+03  0.17887862873E+03  0.00000000000E+00 0. -1.
         11    1    1    2    0    0 -0.17446738966E+01  0.21152806002E+01 -0.15877517632E+03  0.15879885048E+03  0.00000000000E+00 0. -1.
        -15    1    1    2    0    0  0.97078702703E+00 -0.30459500457E+01 -0.14255503551E+02  0.14717246673E+02  0.17770000000E+01 0. -1.
         15    1    1    2    0    0 -0.59969557348E+01  0.94519626048E+01 -0.55165325678E+01  0.12605274124E+02  0.17770000000E+01 0. -1.
</event>
<event>
 6    1  0.1196607E-002  0.1851616E+03  0.7546771E-02  0.1066356E+00
        -11   -1    0    0    0    0  0.00000000000E+00  0.00000000000E+00  0.18250000000E+03  0.18250000000E+03  0.00000000000E+00 0. -1.
         11   -1    0    0    0    0 -0.00000000000E+00 -0.00000000000E+00 -0.18250000000E+03  0.18250000000E+03  0.00000000000E+00 0.  1.
        -11    1    1    2    0    0  0.86334743046E+01 -0.91423725179E+01  0.17939828150E+03  0.17983843654E+03  0.00000000000E+00 0. -1.
         11    1    1    2    0    0 -0.69204447144E+01 -0.58513121736E+01 -0.12934819929E+03  0.12966528860E+03  0.00000000000E+00 0.  1.
        -15    1    1    2    0    0 -0.50678929651E+01 -0.24673072962E+01 -0.15717913970E+02  0.16792310531E+02  0.17770000000E+01 0.  1.
         15    1    1    2    0    0  0.33548633748E+01  0.17460991988E+02 -0.34332168242E+02  0.38703964328E+02  0.17770000000E+01 0. -1.
</event>
<event>
 6    1  0.1196607E-002  0.1864223E+03  0.7546771E-02  0.1065375E+00
        -11   -1    0    0    0    0  0.00000000000E+00  0.00000000000E+00  0.18250000000E+03  0.18250000000E+03  0.00000000000E+00 0. -1.
         11   -1    0    0    0    0 -0.00000000000E+00 -0.00000000000E+00 -0.18250000000E+03  0.18250000000E+03  0.00000000000E+00 0.  1.
        -11    1    1    2    0    0  0.68841811591E+01  0.12559775769E+02  0.17800236191E+03  0.17857766031E+03  0.00000000000E+00 0. -1.
         11    1    1    2    0    0  0.14200872999E-01  0.25922438591E+01 -0.74957859960E+02  0.75002671284E+02  0.00000000000E+00 0.  1.
        -15    1    1    2    0    0 -0.58626257954E+01  0.30181500710E+01 -0.86471440839E+02  0.86740690687E+02  0.17770000000E+01 0.  1.
         15    1    1    2    0    0 -0.10357562367E+01 -0.18170169699E+02 -0.16573061106E+02  0.24678977720E+02  0.17770000000E+01 0. -1.
</event>
<event>
 6    1  0.1196607E-002  0.1881557E+03  0.7546771E-02  0.1064040E+00
        -11   -1    0    0    0    0  0.00000000000E+00  0.00000000000E+00  0.18250000000E+03  0.18250000000E+03  0.00000000000E+00 0. -1.
         11   -1    0    0    0    0 -0.00000000000E+00 -0.00000000000E+00 -0.18250000000E+03  0.18250000000E+03  0.00000000000E+00 0.  1.
        -11    1    1    2    0    0 -0.26546167893E+01 -0.93530718678E+01  0.17657680350E+03  0.17684426618E+03  0.00000000000E+00 0. -1.
         11    1    1    2    0    0  0.53947875589E+01 -0.76492078301E+00 -0.16478223879E+03  0.16487229924E+03  0.00000000000E+00 0.  1.
        -15    1    1    2    0    0 -0.14184248071E+01  0.75930426251E+01 -0.16027287046E+02  0.17880097435E+02  0.17770000000E+01 0.  1.
         15    1    1    2    0    0 -0.13217459625E+01  0.25249500258E+01  0.42327223302E+01  0.54033371491E+01  0.17770000000E+01 0. -1.
</event>
<event>
 6    1  0.1196607E-002  0.1871059E+03  0.7546771E-02  0.1064846E+00
        -11   -1    0    0    0    0  0.00000000000E+00  0.00000000000E+00  0.18250000000E+03  0.18250000000E+03  0.00000000000E+00 0.  1.
         11   -1    0    0    0    0 -0.00000000000E+00 -0.00000000000E+00 -0.18250000000E+03  0.18250000000E+03  0.00000000000E+00 0.  1.
        -11    1    1    2    0    0  0.16217987217E+01 -0.25600513039E+01  0.17786825460E+03  0.17789406985E+03  0.00000000000E+00 0.  1.
         11    1    1    2    0    0  0.24600138730E+01 -0.12114515416E+01 -0.16003596023E+03  0.16005945099E+03  0.00000000000E+00 0.  1.
        -15    1    1    2    0    0 -0.43026845785E+00  0.57506822949E+01  0.22667148112E+01  0.64460222493E+01  0.17770000000E+01 0. -1.
         15    1    1    2    0    0 -0.36515441368E+01 -0.19791794494E+01 -0.20099009180E+02  0.20600456909E+02  0.17770000000E+01 0.  1.
</event>
<event>
 6    1  0.1196607E-002  0.1845453E+03  0.7546771E-02  0.1066838E+00
        -11   -1    0    0    0    0  0.00000000000E+00  0.00000000000E+00  0.18250000000E+03  0.18250000000E+03  0.00000000000E+00 0.  1.
         11   -1    0    0    0    0 -0.00000000000E+00 -0.00000000000E+00 -0.18250000000E+03  0.18250000000E+03  0.00000000000E+00 0.  1.
        -11    1    1    2    0    0 -0.29179761599E+01  0.53572237566E+01  0.10435288276E+03  0.10453104118E+03  0.00000000000E+00 0.  1.
         11    1    1    2    0    0  0.24733530742E+01  0.13457733035E+01 -0.18043274517E+03  0.18045471485E+03  0.00000000000E+00 0.  1.
        -15    1    1    2    0    0  0.71910306492E+00 -0.23121621413E+01  0.75111718219E+02  0.75171744331E+02  0.17770000000E+01 0.  1.
         15    1    1    2    0    0 -0.27447997923E+00 -0.43908349188E+01  0.96814419712E+00  0.48424996365E+01  0.17770000000E+01 0. -1.
</event>
<event>
 6    1  0.1196607E-002  0.1878789E+03  0.7546771E-02  0.1064252E+00
        -11   -1    0    0    0    0  0.00000000000E+00  0.00000000000E+00  0.18250000000E+03  0.18250000000E+03  0.00000000000E+00 0.  1.
         11   -1    0    0    0    0 -0.00000000000E+00 -0.00000000000E+00 -0.18250000000E+03  0.18250000000E+03  0.00000000000E+00 0.  1.
        -11    1    1    2    0    0  0.57266455615E+00 -0.39891700931E+01  0.17707522594E+03  0.17712108024E+03  0.00000000000E+00 0.  1.
         11    1    1    2    0    0  0.72283515008E+00 -0.22589416048E+01 -0.15403352682E+03  0.15405178575E+03  0.00000000000E+00 0.  1.
        -15    1    1    2    0    0 -0.46238102830E+01  0.29902509290E+01  0.35393069026E+01  0.67827460886E+01  0.17770000000E+01 0.  1.
         15    1    1    2    0    0  0.33283105768E+01  0.32578607689E+01 -0.26581006024E+02  0.27044387927E+02  0.17770000000E+01 0.  1.
</event>
<event>
 6    1  0.1196607E-002  0.1833271E+03  0.7546771E-02  0.1067798E+00
        -11   -1    0    0    0    0  0.00000000000E+00  0.00000000000E+00  0.18250000000E+03  0.18250000000E+03  0.00000000000E+00 0. -1.
         11   -1    0    0    0    0 -0.00000000000E+00 -0.00000000000E+00 -0.18250000000E+03  0.18250000000E+03  0.00000000000E+00 0.  1.
        -11    1    1    2    0    0 -0.17801066007E+01  0.24250766741E+01  0.16184869431E+03  0.16187664941E+03  0.00000000000E+00 0. -1.
         11    1    1    2    0    0  0.35188940493E+01  0.90492055146E+00 -0.18163655891E+03  0.18167289569E+03  0.00000000000E+00 0.  1.
        -15    1    1    2    0    0 -0.12083815853E+01 -0.24291506651E+01  0.18949139749E+02  0.19224686870E+02  0.17770000000E+01 0. -1.
         15    1    1    2    0    0 -0.53040586329E+00 -0.90084656040E+00  0.83872485433E+00  0.22257680217E+01  0.17770000000E+01 0.  1.
</event>
<event>
 6    1  0.1196607E-002  0.1864107E+03  0.7546771E-02  0.1065384E+00
        -11   -1    0    0    0    0  0.00000000000E+00  0.00000000000E+00  0.18250000000E+03  0.18250000000E+03  0.00000000000E+00 0.  1.
         11   -1    0    0    0    0 -0.00000000000E+00 -0.00000000000E+00 -0.18250000000E+03  0.18250000000E+03  0.00000000000E+00 0. -1.
        -11    1    1    2    0    0 -0.74026559674E+00  0.42022715136E+01  0.16265376627E+03  0.16270972547E+03  0.00000000000E+00 0.  1.
         11    1    1    2    0    0  0.12722886998E+01 -0.23951713679E+01 -0.17856875525E+03  0.17858934995E+03  0.00000000000E+00 0. -1.
        -15    1    1    2    0    0  0.89949499866E+00 -0.65041099471E-01 -0.35254403295E+01  0.40496641977E+01  0.17770000000E+01 0.  1.
         15    1    1    2    0    0 -0.14315181017E+01 -0.17420590463E+01  0.19440429309E+02  0.19651260380E+02  0.17770000000E+01 0. -1.
</event>
<event>
 6    1  0.1196607E-002  0.1851338E+03  0.7546771E-02  0.1066377E+00
        -11   -1    0    0    0    0  0.00000000000E+00  0.00000000000E+00  0.18250000000E+03  0.18250000000E+03  0.00000000000E+00 0.  1.
         11   -1    0    0    0    0 -0.00000000000E+00 -0.00000000000E+00 -0.18250000000E+03  0.18250000000E+03  0.00000000000E+00 0. -1.
        -11    1    1    2    0    0 -0.29753338252E+01 -0.61586918242E+01  0.17973607655E+03  0.17986617056E+03  0.00000000000E+00 0.  1.
         11    1    1    2    0    0  0.25117181301E+01 -0.15264317997E+01 -0.16679981142E+03  0.16682570489E+03  0.00000000000E+00 0. -1.
        -15    1    1    2    0    0 -0.18446022984E+01 -0.11327451714E+01 -0.59493930868E+00  0.28631016474E+01  0.17770000000E+01 0. -1.
         15    1    1    2    0    0  0.23082179935E+01  0.88178687953E+01 -0.12341325824E+02  0.15445022903E+02  0.17770000000E+01 0.  1.
</event>
<event>
 6    1  0.1196607E-002  0.1833381E+03  0.7546771E-02  0.1067790E+00
        -11   -1    0    0    0    0  0.00000000000E+00  0.00000000000E+00  0.18250000000E+03  0.18250000000E+03  0.00000000000E+00 0.  1.
         11   -1    0    0    0    0 -0.00000000000E+00 -0.00000000000E+00 -0.18250000000E+03  0.18250000000E+03  0.00000000000E+00 0.  1.
        -11    1    1    2    0    0  0.19767292137E+01  0.17274603360E+01  0.16194141962E+03  0.16196269622E+03  0.00000000000E+00 0.  1.
         11    1    1    2    0    0 -0.34062489853E+01  0.64062570188E+00 -0.18162880088E+03  0.18166186788E+03  0.00000000000E+00 0.  1.
        -15    1    1    2    0    0  0.35094353964E+01 -0.25576079832E+01  0.72245456393E+01  0.86144810692E+01  0.17770000000E+01 0. -1.
         15    1    1    2    0    0 -0.20799156249E+01  0.18952194527E+00  0.12462835615E+02  0.12760954829E+02  0.17770000000E+01 0.  1.
</event>
<event>
 6    1  0.1196607E-002  0.1865262E+03  0.7546771E-02  0.1065294E+00
        -11   -1    0    0    0    0  0.00000000000E+00  0.00000000000E+00  0.18250000000E+03  0.18250000000E+03  0.00000000000E+00 0.  1.
         11   -1    0    0    0    0 -0.00000000000E+00 -0.00000000000E+00 -0.18250000000E+03  0.18250000000E+03  0.00000000000E+00 0.  1.
        -11    1    1    2    0    0  0.24276625314E+01  0.41491176556E+00  0.17845678038E+03  0.17847377444E+03  0.00000000000E+00 0.  1.
         11    1    1    2    0    0  0.13743857178E+01  0.54216642873E+01 -0.14886645452E+03  0.14897148942E+03  0.00000000000E+00 0.  1.
        -15    1    1    2    0    0 -0.50788034767E+01  0.72795207773E+01 -0.74302502789E+01  0.11711191900E+02  0.17770000000E+01 0. -1.
         15    1    1    2    0    0  0.12767552275E+01 -0.13116096830E+02 -0.22160075587E+02  0.25843544242E+02  0.17770000000E+01 0.  1.
</event>
<event>
 6    1  0.1196607E-002  0.1839865E+03  0.7546771E-02  0.1067278E+00
        -11   -1    0    0    0    0  0.00000000000E+00  0.00000000000E+00  0.18250000000E+03  0.18250000000E+03  0.00000000000E+00 0.  1.
         11   -1    0    0    0    0 -0.00000000000E+00 -0.00000000000E+00 -0.18250000000E+03  0.18250000000E+03  0.00000000000E+00 0. -1.
        -11    1    1    2    0    0  0.19963726304E+00 -0.27195715033E+01  0.18099298655E+03  0.18101352741E+03  0.00000000000E+00 0.  1.
         11    1    1    2    0    0 -0.21309572445E+01 -0.70740384135E+01 -0.15426794715E+03  0.15444475555E+03  0.00000000000E+00 0. -1.
        -15    1    1    2    0    0 -0.21724518843E+01  0.34131432971E+01 -0.13353975008E+02  0.14066110759E+02  0.17770000000E+01 0. -1.
         15    1    1    2    0    0  0.41037718658E+01  0.63804666198E+01 -0.13371064394E+02  0.15475606284E+02  0.17770000000E+01 0.  1.
</event>
<event>
 6    1  0.1196607E-002  0.1840506E+03  0.7546771E-02  0.1067227E+00
        -11   -1    0    0    0    0  0.00000000000E+00  0.00000000000E+00  0.18250000000E+03  0.18250000000E+03  0.00000000000E+00 0. -1.
         11   -1    0    0    0    0 -0.00000000000E+00 -0.00000000000E+00 -0.18250000000E+03  0.18250000000E+03  0.00000000000E+00 0. -1.
        -11    1    1    2    0    0 -0.62100601098E+00  0.23680092331E+01  0.16204123517E+03  0.16205972668E+03  0.00000000000E+00 0. -1.
         11    1    1    2    0    0 -0.24914902037E+01 -0.37150049191E+00 -0.18093189125E+03  0.18094942611E+03  0.00000000000E+00 0. -1.
        -15    1    1    2    0    0 -0.17869855349E+01 -0.36567921305E+01  0.13879007210E+02  0.14572234425E+02  0.17770000000E+01 0. -1.
         15    1    1    2    0    0  0.48994817496E+01  0.16602833893E+01  0.50116488760E+01  0.74186127951E+01  0.17770000000E+01 0.  1.
</event>
<event>
 6    1  0.1196607E-002  0.1837211E+03  0.7546771E-02  0.1067487E+00
        -11   -1    0    0    0    0  0.00000000000E+00  0.00000000000E+00  0.18250000000E+03  0.18250000000E+03  0.00000000000E+00 0.  1.
         11   -1    0    0    0    0 -0.00000000000E+00 -0.00000000000E+00 -0.18250000000E+03  0.18250000000E+03  0.00000000000E+00 0.  1.
        -11    1    1    2    0    0  0.41842392954E+01 -0.11659276194E+00  0.16595627097E+03  0.16600905194E+03  0.00000000000E+00 0.  1.
         11    1    1    2    0    0  0.17327098265E+01  0.44185493570E+01 -0.18121677047E+03  0.18127891151E+03  0.00000000000E+00 0.  1.
        -15    1    1    2    0    0 -0.10742391494E+01 -0.40702733593E-01  0.54939130014E+01  0.58733683291E+01  0.17770000000E+01 0. -1.
         15    1    1    2    0    0 -0.48427099725E+01 -0.42612538615E+01  0.97665864982E+01  0.11838668218E+02  0.17770000000E+01 0. -1.
</event>
<event>
 6    1  0.1196607E-002  0.1845959E+03  0.7546771E-02  0.1066799E+00
        -11   -1    0    0    0    0  0.00000000000E+00  0.00000000000E+00  0.18250000000E+03  0.18250000000E+03  0.00000000000E+00 0.  1.
         11   -1    0    0    0    0 -0.00000000000E+00 -0.00000000000E+00 -0.18250000000E+03  0.18250000000E+03  0.00000000000E+00 0.  1.
        -11    1    1    2    0    0 -0.65445276593E+01  0.22696258748E+02  0.17885100820E+03  0.18040408570E+03  0.00000000000E+00 0.  1.
         11    1    1    2    0    0 -0.52436255220E+01  0.41664377260E+01 -0.68670257629E+02  0.68996080285E+02  0.00000000000E+00 0.  1.
        -15    1    1    2    0    0  0.11740198610E+02 -0.24787880161E+02 -0.68196961748E+02  0.73527237041E+02  0.17770000000E+01 0.  1.
         15    1    1    2    0    0  0.47954571113E-01 -0.20748163128E+01 -0.41983788827E+02  0.42072596968E+02  0.17770000000E+01 0. -1.
</event>
<event>
 6    1  0.1196607E-002  0.1827568E+03  0.7546771E-02  0.1068251E+00
        -11   -1    0    0    0    0  0.00000000000E+00  0.00000000000E+00  0.18250000000E+03  0.18250000000E+03  0.00000000000E+00 0. -1.
         11   -1    0    0    0    0 -0.00000000000E+00 -0.00000000000E+00 -0.18250000000E+03  0.18250000000E+03  0.00000000000E+00 0.  1.
        -11    1    1    2    0    0 -0.32135718941E+00  0.25934783643E+01  0.12908000201E+03  0.12910645344E+03  0.00000000000E+00 0. -1.
         11    1    1    2    0    0  0.40302822126E+01  0.33110476760E+00 -0.18219832723E+03  0.18224319810E+03  0.00000000000E+00 0.  1.
        -15    1    1    2    0    0 -0.24192696314E+01 -0.27252842418E+01  0.46458749626E+02  0.46635321223E+02  0.17770000000E+01 0.  1.
         15    1    1    2    0    0 -0.12896553918E+01 -0.19929889010E+00  0.66595756010E+01  0.70150272460E+01  0.17770000000E+01 0. -1.
</event>
<event>
 6    1  0.1196607E-002  0.1829071E+03  0.7546771E-02  0.1068131E+00
        -11   -1    0    0    0    0  0.00000000000E+00  0.00000000000E+00  0.18250000000E+03  0.18250000000E+03  0.00000000000E+00 0. -1.
         11   -1    0    0    0    0 -0.00000000000E+00 -0.00000000000E+00 -0.18250000000E+03  0.18250000000E+03  0.00000000000E+00 0. -1.
        -11    1    1    2    0    0  0.69903043078E+00 -0.50770916717E+00  0.50849914470E+02  0.50857253305E+02  0.00000000000E+00 0. -1.
         11    1    1    2    0    0  0.67720663774E+01 -0.29502115624E+01 -0.18194297923E+03  0.18209286731E+03  0.00000000000E+00 0. -1.
        -15    1    1    2    0    0 -0.71813045773E+00  0.11923793528E+01  0.10264648202E+03  0.10267129823E+03  0.17770000000E+01 0. -1.
         15    1    1    2    0    0 -0.67529663505E+01  0.22655413768E+01  0.28446582741E+02  0.29378581159E+02  0.17770000000E+01 0. -1.
</event>
<event>
 6    1  0.1196607E-002  0.1864410E+03  0.7546771E-02  0.1065360E+00
        -11   -1    0    0    0    0  0.00000000000E+00  0.00000000000E+00  0.18250000000E+03  0.18250000000E+03  0.00000000000E+00 0.  1.
         11   -1    0    0    0    0 -0.00000000000E+00 -0.00000000000E+00 -0.18250000000E+03  0.18250000000E+03  0.00000000000E+00 0. -1.
        -11    1    1    2    0    0  0.67353248398E+01  0.24999199119E+01  0.17841437072E+03  0.17855895911E+03  0.00000000000E+00 0.  1.
         11    1    1    2    0    0 -0.92822260652E+01 -0.30525820203E+01 -0.15915923515E+03  0.15945889788E+03  0.00000000000E+00 0. -1.
        -15    1    1    2    0    0 -0.72313608502E+01  0.36138476212E-01 -0.13679103567E+02  0.15574642504E+02  0.17770000000E+01 0. -1.
         15    1    1    2    0    0  0.97782620756E+01  0.51652363226E+00 -0.55760320026E+01  0.11407500505E+02  0.17770000000E+01 0.  1.
</event>
<event>
 6    1  0.1196607E-002  0.1825451E+03  0.7546771E-02  0.1068419E+00
        -11   -1    0    0    0    0  0.00000000000E+00  0.00000000000E+00  0.18250000000E+03  0.18250000000E+03  0.00000000000E+00 0.  1.
         11   -1    0    0    0    0 -0.00000000000E+00 -0.00000000000E+00 -0.18250000000E+03  0.18250000000E+03  0.00000000000E+00 0.  1.
        -11    1    1    2    0    0 -0.70706268263E+00 -0.47637597348E+01  0.18239131843E+03  0.18245488863E+03  0.00000000000E+00 0.  1.
         11    1    1    2    0    0  0.14619659022E+01  0.26920546883E+01 -0.83018407598E+02  0.83074908985E+02  0.00000000000E+00 0.  1.
        -15    1    1    2    0    0 -0.86872000008E+00  0.61034466418E+00 -0.41792096276E+02  0.41843329638E+02  0.17770000000E+01 0.  1.
         15    1    1    2    0    0  0.11381678049E+00  0.14613603824E+01 -0.57580814560E+02  0.57626872749E+02  0.17770000000E+01 0. -1.
</event>
<event>
 6    1  0.1196607E-002  0.1741731E+03  0.7546771E-02  0.1075283E+00
        -11   -1    0    0    0    0  0.00000000000E+00  0.00000000000E+00  0.18250000000E+03  0.18250000000E+03  0.00000000000E+00 0.  1.
         11   -1    0    0    0    0 -0.00000000000E+00 -0.00000000000E+00 -0.18250000000E+03  0.18250000000E+03  0.00000000000E+00 0. -1.
        -11    1    1    2    0    0 -0.47713368552E+01 -0.10010510396E+01  0.17458112034E+03  0.17464917789E+03  0.00000000000E+00 0.  1.
         11    1    1    2    0    0  0.20803392983E+01 -0.10763245118E+02 -0.17356169997E+03  0.17390755864E+03  0.00000000000E+00 0. -1.
        -15    1    1    2    0    0 -0.31641761261E+01  0.75897258732E+01 -0.27233460550E+01  0.88425274736E+01  0.17770000000E+01 0.  1.
         15    1    1    2    0    0  0.58551736830E+01  0.41745702841E+01  0.17039256861E+01  0.76007359946E+01  0.17770000000E+01 0. -1.
</event>
<event>
 6    1  0.1196607E-002  0.1882044E+03  0.7546771E-02  0.1064003E+00
        -11   -1    0    0    0    0  0.00000000000E+00  0.00000000000E+00  0.18250000000E+03  0.18250000000E+03  0.00000000000E+00 0.  1.
         11   -1    0    0    0    0 -0.00000000000E+00 -0.00000000000E+00 -0.18250000000E+03  0.18250000000E+03  0.00000000000E+00 0. -1.
        -11    1    1    2    0    0  0.31905803198E+01 -0.28257955564E+01  0.17372876549E+03  0.17378103718E+03  0.00000000000E+00 0.  1.
         11    1    1    2    0    0 -0.57156375952E+01 -0.85666530176E+00 -0.17670113877E+03  0.17679563013E+03  0.00000000000E+00 0. -1.
        -15    1    1    2    0    0 -0.34541837332E+01  0.37808708198E+01  0.54722844708E+01  0.77025966887E+01  0.17770000000E+01 0.  1.
         15    1    1    2    0    0  0.59792410086E+01 -0.98409961625E-01 -0.24999111888E+01  0.67207360096E+01  0.17770000000E+01 0.  1.
</event>
<event>
 6    1  0.1196607E-002  0.1877282E+03  0.7546771E-02  0.1064368E+00
        -11   -1    0    0    0    0  0.00000000000E+00  0.00000000000E+00  0.18250000000E+03  0.18250000000E+03  0.00000000000E+00 0. -1.
         11   -1    0    0    0    0 -0.00000000000E+00 -0.00000000000E+00 -0.18250000000E+03  0.18250000000E+03  0.00000000000E+00 0.  1.
        -11    1    1    2    0    0 -0.26414734017E+01 -0.61776162457E+01  0.17714440266E+03  0.17727176797E+03  0.00000000000E+00 0. -1.
         11    1    1    2    0    0 -0.97520510335E+01 -0.24798121786E+01 -0.13700828928E+03  0.13737730271E+03  0.00000000000E+00 0.  1.
        -15    1    1    2    0    0  0.19384346308E+02  0.85670966182E+01 -0.36568582820E+02  0.42303274160E+02  0.17770000000E+01 0.  1.
         15    1    1    2    0    0 -0.69908218724E+01  0.90331806102E-01 -0.35675305628E+01  0.80476551618E+01  0.17770000000E+01 0. -1.
</event>
<event>
 6    1  0.1196607E-002  0.1833173E+03  0.7546771E-02  0.1067806E+00
        -11   -1    0    0    0    0  0.00000000000E+00  0.00000000000E+00  0.18250000000E+03  0.18250000000E+03  0.00000000000E+00 0.  1.
         11   -1    0    0    0    0 -0.00000000000E+00 -0.00000000000E+00 -0.18250000000E+03  0.18250000000E+03  0.00000000000E+00 0.  1.
        -11    1    1    2    0    0  0.15768412660E+01 -0.22969336094E+01  0.13040470209E+03  0.13043446117E+03  0.00000000000E+00 0.  1.
         11    1    1    2    0    0  0.34454920298E+01 -0.28586167428E+01 -0.18162757488E+03  0.18168274289E+03  0.00000000000E+00 0.  1.
        -15    1    1    2    0    0 -0.11491114248E+01  0.19836337778E+01  0.42971282052E+02  0.43069061636E+02  0.17770000000E+01 0.  1.
         15    1    1    2    0    0 -0.38732218710E+01  0.31719165744E+01  0.82515907386E+01  0.98137343114E+01  0.17770000000E+01 0.  1.
</event>
<event>
 6    1  0.1196607E-002  0.1851668E+03  0.7546771E-02  0.1066352E+00
        -11   -1    0    0    0    0  0.00000000000E+00  0.00000000000E+00  0.18250000000E+03  0.18250000000E+03  0.00000000000E+00 0. -1.
         11   -1    0    0    0    0 -0.00000000000E+00 -0.00000000000E+00 -0.18250000000E+03  0.18250000000E+03  0.00000000000E+00 0.  1.
        -11    1    1    2    0    0  0.13756608320E+01  0.49092566749E+01  0.17976089252E+03  0.17983317749E+03  0.00000000000E+00 0. -1.
         11    1    1    2    0    0  0.61756237580E+00 -0.35366659462E+01 -0.14499878386E+03  0.14504322359E+03  0.00000000000E+00 0.  1.
        -15    1    1    2    0    0 -0.15726849125E+01 -0.28332160779E+01  0.13509776144E+01  0.39348850927E+01  0.17770000000E+01 0.  1.
         15    1    1    2    0    0 -0.42053829535E+00  0.14606253493E+01 -0.36113086281E+02  0.36188713829E+02  0.17770000000E+01 0.  1.
</event>
<event>
 6    1  0.1196607E-002  0.1901033E+03  0.7546771E-02  0.1062559E+00
        -11   -1    0    0    0    0  0.00000000000E+00  0.00000000000E+00  0.18250000000E+03  0.18250000000E+03  0.00000000000E+00 0. -1.
         11   -1    0    0    0    0 -0.00000000000E+00 -0.00000000000E+00 -0.18250000000E+03  0.18250000000E+03  0.00000000000E+00 0.  1.
        -11    1    1    2    0    0  0.26845497824E+01 -0.11136842383E+02  0.12839568898E+03  0.12890573693E+03  0.00000000000E+00 0. -1.
         11    1    1    2    0    0 -0.16949189626E+02 -0.33450219015E+01 -0.17404139032E+03  0.17489674024E+03  0.00000000000E+00 0.  1.
        -15    1    1    2    0    0  0.61269434374E-01  0.13695656972E+02  0.44751416697E+02  0.46833981245E+02  0.17770000000E+01 0. -1.
         15    1    1    2    0    0  0.14203370409E+02  0.78620731221E+00  0.89428465025E+00  0.14363541588E+02  0.17770000000E+01 0.  1.
</event>
<event>
 6    1  0.1196607E-002  0.1877719E+03  0.7546771E-02  0.1064334E+00
        -11   -1    0    0    0    0  0.00000000000E+00  0.00000000000E+00  0.18250000000E+03  0.18250000000E+03  0.00000000000E+00 0.  1.
         11   -1    0    0    0    0 -0.00000000000E+00 -0.00000000000E+00 -0.18250000000E+03  0.18250000000E+03  0.00000000000E+00 0.  1.
        -11    1    1    2    0    0 -0.38573680271E+00  0.22425937559E+01  0.15789836716E+03  0.15791476299E+03  0.00000000000E+00 0.  1.
         11    1    1    2    0    0  0.34662218940E+01  0.15094393410E+01 -0.17718778180E+03  0.17722811041E+03  0.00000000000E+00 0.  1.
        -15    1    1    2    0    0 -0.87865718716E+01 -0.22918575977E+01 -0.36736351782E+00  0.92600832317E+01  0.17770000000E+01 0. -1.
         15    1    1    2    0    0  0.57060867803E+01 -0.14601754992E+01  0.19656778159E+02  0.20597043366E+02  0.17770000000E+01 0.  1.
</event>
<event>
 6    1  0.1196607E-002  0.1826739E+03  0.7546771E-02  0.1068316E+00
        -11   -1    0    0    0    0  0.00000000000E+00  0.00000000000E+00  0.18250000000E+03  0.18250000000E+03  0.00000000000E+00 0.  1.
         11   -1    0    0    0    0 -0.00000000000E+00 -0.00000000000E+00 -0.18250000000E+03  0.18250000000E+03  0.00000000000E+00 0.  1.
        -11    1    1    2    0    0 -0.62162066817E+00  0.19737847276E+01  0.90077585207E+02  0.90101351794E+02  0.00000000000E+00 0.  1.
         11    1    1    2    0    0  0.33410736914E+01  0.89941620957E+00 -0.18229327645E+03  0.18232610993E+03  0.00000000000E+00 0.  1.
        -15    1    1    2    0    0  0.12936400028E+00 -0.90390967595E+00  0.69286182584E+02  0.69314981164E+02  0.17770000000E+01 0.  1.
         15    1    1    2    0    0 -0.28488170236E+01 -0.19692912612E+01  0.22929508660E+02  0.23257557113E+02  0.17770000000E+01 0.  1.
</event>
<event>
 6    1  0.1196607E-002  0.1829647E+03  0.7546771E-02  0.1068085E+00
        -11   -1    0    0    0    0  0.00000000000E+00  0.00000000000E+00  0.18250000000E+03  0.18250000000E+03  0.00000000000E+00 0.  1.
         11   -1    0    0    0    0 -0.00000000000E+00 -0.00000000000E+00 -0.18250000000E+03  0.18250000000E+03  0.00000000000E+00 0. -1.
        -11    1    1    2    0    0  0.13545060022E+01  0.26443349703E+01  0.12119569386E+03  0.12123210550E+03  0.00000000000E+00 0.  1.
         11    1    1    2    0    0  0.11679174815E+01 -0.43104567022E+01 -0.18198048336E+03  0.18203527239E+03  0.00000000000E+00 0. -1.
        -15    1    1    2    0    0 -0.12006948753E+01  0.21944322797E+01  0.47705638020E+01  0.56721432635E+01  0.17770000000E+01 0. -1.
         15    1    1    2    0    0 -0.13217286083E+01 -0.52831054778E+00  0.56014225701E+02  0.56060478846E+02  0.17770000000E+01 0.  1.
</event>
<event>
 6    1  0.1196607E-002  0.1829407E+03  0.7546771E-02  0.1068105E+00
        -11   -1    0    0    0    0  0.00000000000E+00  0.00000000000E+00  0.18250000000E+03  0.18250000000E+03  0.00000000000E+00 0.  1.
         11   -1    0    0    0    0 -0.00000000000E+00 -0.00000000000E+00 -0.18250000000E+03  0.18250000000E+03  0.00000000000E+00 0. -1.
        -11    1    1    2    0    0  0.24159861520E+01 -0.19250216222E+01  0.18203304288E+03  0.18205925244E+03  0.00000000000E+00 0.  1.
         11    1    1    2    0    0  0.10293885433E+01  0.26496244916E+01 -0.13243430118E+03  0.13246480392E+03  0.00000000000E+00 0. -1.
        -15    1    1    2    0    0 -0.27043516294E+01 -0.25647343285E-01 -0.58996582258E+01  0.67288833920E+01  0.17770000000E+01 0.  1.
         15    1    1    2    0    0 -0.74102306591E+00 -0.69895552614E+00 -0.43699083482E+02  0.43747060246E+02  0.17770000000E+01 0. -1.
</event>
<event>
 6    1  0.1196607E-002  0.1881144E+03  0.7546771E-02  0.1064072E+00
        -11   -1    0    0    0    0  0.00000000000E+00  0.00000000000E+00  0.18250000000E+03  0.18250000000E+03  0.00000000000E+00 0. -1.
         11   -1    0    0    0    0 -0.00000000000E+00 -0.00000000000E+00 -0.18250000000E+03  0.18250000000E+03  0.00000000000E+00 0. -1.
        -11    1    1    2    0    0 -0.17608352967E+01 -0.17286862807E+01  0.16612309520E+03  0.16614142066E+03  0.00000000000E+00 0. -1.
         11    1    1    2    0    0  0.30183190034E+01  0.63703065511E+01 -0.17674507748E+03  0.17688559430E+03  0.00000000000E+00 0. -1.
        -15    1    1    2    0    0  0.33490907147E+01  0.30337370478E+00  0.13786776071E+02  0.14301795958E+02  0.17770000000E+01 0.  1.
         15    1    1    2    0    0 -0.46065744214E+01 -0.49449939752E+01 -0.31647937924E+01  0.76711890906E+01  0.17770000000E+01 0. -1.
</event>
<event>
 6    1  0.1196607E-002  0.1831338E+03  0.7546771E-02  0.1067951E+00
        -11   -1    0    0    0    0  0.00000000000E+00  0.00000000000E+00  0.18250000000E+03  0.18250000000E+03  0.00000000000E+00 0. -1.
         11   -1    0    0    0    0 -0.00000000000E+00 -0.00000000000E+00 -0.18250000000E+03  0.18250000000E+03  0.00000000000E+00 0.  1.
        -11    1    1    2    0    0 -0.21614246363E+01  0.11946888287E+01  0.16051436408E+03  0.16053336137E+03  0.00000000000E+00 0. -1.
         11    1    1    2    0    0  0.39578359600E+01 -0.18582188340E+01 -0.18181362937E+03  0.18186619605E+03  0.00000000000E+00 0.  1.
        -15    1    1    2    0    0 -0.29197061685E+01  0.16255791825E+01  0.57735495628E+01  0.69035349889E+01  0.17770000000E+01 0. -1.
         15    1    1    2    0    0  0.11232948448E+01 -0.96204917723E+00  0.15525715728E+02  0.15696907587E+02  0.17770000000E+01 0.  1.
</event>
<event>
 6    1  0.1196607E-002  0.1843802E+03  0.7546771E-02  0.1066968E+00
        -11   -1    0    0    0    0  0.00000000000E+00  0.00000000000E+00  0.18250000000E+03  0.18250000000E+03  0.00000000000E+00 0.  1.
         11   -1    0    0    0    0 -0.00000000000E+00 -0.00000000000E+00 -0.18250000000E+03  0.18250000000E+03  0.00000000000E+00 0.  1.
        -11    1    1    2    0    0  0.53209258578E+01  0.42812091776E+01  0.18049063114E+03  0.18061979109E+03  0.00000000000E+00 0.  1.
         11    1    1    2    0    0  0.44826350760E+00  0.21080017901E+01 -0.13384365915E+03  0.13386100891E+03  0.00000000000E+00 0.  1.
        -15    1    1    2    0    0 -0.96690613639E+00  0.25204620630E+00  0.90709404614E+00  0.22313635686E+01  0.17770000000E+01 0.  1.
         15    1    1    2    0    0 -0.48022832290E+01 -0.66412571740E+01 -0.47554066040E+02  0.48287836429E+02  0.17770000000E+01 0. -1.
</event>
<event>
 6    1  0.1196607E-002  0.1859503E+03  0.7546771E-02  0.1065741E+00
        -11   -1    0    0    0    0  0.00000000000E+00  0.00000000000E+00  0.18250000000E+03  0.18250000000E+03  0.00000000000E+00 0.  1.
         11   -1    0    0    0    0 -0.00000000000E+00 -0.00000000000E+00 -0.18250000000E+03  0.18250000000E+03  0.00000000000E+00 0.  1.
        -11    1    1    2    0    0 -0.27498964678E+01  0.22585380246E+01  0.16853705695E+03  0.16857461995E+03  0.00000000000E+00 0.  1.
         11    1    1    2    0    0 -0.86176308285E+00  0.65966056204E+01 -0.17892604504E+03  0.17904967868E+03  0.00000000000E+00 0.  1.
        -15    1    1    2    0    0  0.94001903996E+00  0.18054817753E+01  0.28676485013E+01  0.39401189276E+01  0.17770000000E+01 0. -1.
         15    1    1    2    0    0  0.26716405107E+01 -0.10660625420E+02  0.75213395920E+01  0.13435582445E+02  0.17770000000E+01 0.  1.
</event>
<event>
 6    1  0.1196607E-002  0.1862885E+03  0.7546771E-02  0.1065478E+00
        -11   -1    0    0    0    0  0.00000000000E+00  0.00000000000E+00  0.18250000000E+03  0.18250000000E+03  0.00000000000E+00 0.  1.
         11   -1    0    0    0    0 -0.00000000000E+00 -0.00000000000E+00 -0.18250000000E+03  0.18250000000E+03  0.00000000000E+00 0.  1.
        -11    1    1    2    0    0 -0.40817641782E+01 -0.12801153230E+01  0.17866024979E+03  0.17871145557E+03  0.00000000000E+00 0.  1.
         11    1    1    2    0    0  0.11644534760E+01  0.68838770623E+00 -0.80885814796E+02  0.80897125194E+02  0.00000000000E+00 0.  1.
        -15    1    1    2    0    0  0.81419250581E+01  0.51046120903E+01 -0.28223358816E+01  0.10172085188E+02  0.17770000000E+01 0. -1.
         15    1    1    2    0    0 -0.52246143558E+01 -0.45128844735E+01 -0.94952099117E+02  0.95219334052E+02  0.17770000000E+01 0.  1.
</event>
<event>
 6    1  0.1196607E-002  0.1826064E+03  0.7546771E-02  0.1068370E+00
        -11   -1    0    0    0    0  0.00000000000E+00  0.00000000000E+00  0.18250000000E+03  0.18250000000E+03  0.00000000000E+00 0.  1.
         11   -1    0    0    0    0 -0.00000000000E+00 -0.00000000000E+00 -0.18250000000E+03  0.18250000000E+03  0.00000000000E+00 0. -1.
        -11    1    1    2    0    0 -0.15538584012E+00  0.31902438123E+01  0.18236564356E+03  0.18239361214E+03  0.00000000000E+00 0.  1.
         11    1    1    2    0    0  0.52477338268E+00 -0.14187575171E+01 -0.41366951578E+02  0.41394600407E+02  0.00000000000E+00 0. -1.
        -15    1    1    2    0    0 -0.12689435916E+01  0.21865252577E+01 -0.75626981217E+02  0.75690086059E+02  0.17770000000E+01 0. -1.
         15    1    1    2    0    0  0.89955604908E+00 -0.39580115529E+01 -0.65371710761E+02  0.65521701393E+02  0.17770000000E+01 0. -1.
</event>
<event>
 6    1  0.1196607E-002  0.1869593E+03  0.7546771E-02  0.1064960E+00
        -11   -1    0    0    0    0  0.00000000000E+00  0.00000000000E+00  0.18250000000E+03  0.18250000000E+03  0.00000000000E+00 0.  1.
         11   -1    0    0    0    0 -0.00000000000E+00 -0.00000000000E+00 -0.18250000000E+03  0.18250000000E+03  0.00000000000E+00 0. -1.
        -11    1    1    2    0    0 -0.10782187086E+02  0.19329282902E+01  0.17770339257E+03  0.17804069058E+03  0.00000000000E+00 0.  1.
         11    1    1    2    0    0 -0.25179304585E+01 -0.16754923911E+01 -0.13846100250E+03  0.13849403042E+03  0.00000000000E+00 0. -1.
        -15    1    1    2    0    0  0.97562178349E+01  0.82874327462E+00 -0.99866881546E+00  0.10001283431E+02  0.17770000000E+01 0. -1.
         15    1    1    2    0    0  0.35438997093E+01 -0.10861791737E+01 -0.38243721260E+02  0.38463995569E+02  0.17770000000E+01 0.  1.
</event>
<event>
 6    1  0.1196607E-002  0.1826062E+03  0.7546771E-02  0.1068370E+00
        -11   -1    0    0    0    0  0.00000000000E+00  0.00000000000E+00  0.18250000000E+03  0.18250000000E+03  0.00000000000E+00 0. -1.
         11   -1    0    0    0    0 -0.00000000000E+00 -0.00000000000E+00 -0.18250000000E+03  0.18250000000E+03  0.00000000000E+00 0.  1.
        -11    1    1    2    0    0  0.17364922228E+01 -0.75257407225E+00  0.11957587233E+03  0.11959084838E+03  0.00000000000E+00 0. -1.
         11    1    1    2    0    0 -0.24510393629E+01  0.54376148679E+00 -0.18237649294E+03  0.18239377305E+03  0.00000000000E+00 0.  1.
        -15    1    1    2    0    0  0.99391670965E+00  0.11488403467E+01  0.15909080777E+02  0.16079934226E+02  0.17770000000E+01 0.  1.
         15    1    1    2    0    0 -0.27936956953E+00 -0.94002776123E+00  0.46891539832E+02  0.46935444350E+02  0.17770000000E+01 0. -1.
</event>
<event>
 6    1  0.1196607E-002  0.1945529E+03  0.7546771E-02  0.1059246E+00
        -11   -1    0    0    0    0  0.00000000000E+00  0.00000000000E+00  0.18250000000E+03  0.18250000000E+03  0.00000000000E+00 0.  1.
         11   -1    0    0    0    0 -0.00000000000E+00 -0.00000000000E+00 -0.18250000000E+03  0.18250000000E+03  0.00000000000E+00 0.  1.
        -11    1    1    2    0    0  0.11219730448E+02 -0.79127213984E+01  0.16989325538E+03  0.17044709366E+03  0.00000000000E+00 0.  1.
         11    1    1    2    0    0  0.28339700687E+00  0.19147285362E+01 -0.13781403453E+03  0.13782762645E+03  0.00000000000E+00 0.  1.
        -15    1    1    2    0    0 -0.26223190008E+02  0.94821917105E+01 -0.95454316948E+01  0.29526947846E+02  0.17770000000E+01 0. -1.
         15    1    1    2    0    0  0.14720062553E+02 -0.34841988483E+01 -0.22533789157E+02  0.27198332043E+02  0.17770000000E+01 0.  1.
</event>
<event>
 6    1  0.1196607E-002  0.1866342E+03  0.7546771E-02  0.1065211E+00
        -11   -1    0    0    0    0  0.00000000000E+00  0.00000000000E+00  0.18250000000E+03  0.18250000000E+03  0.00000000000E+00 0. -1.
         11   -1    0    0    0    0 -0.00000000000E+00 -0.00000000000E+00 -0.18250000000E+03  0.18250000000E+03  0.00000000000E+00 0. -1.
        -11    1    1    2    0    0  0.12156937418E+01  0.12474748356E+01  0.11322764396E+03  0.11324104142E+03  0.00000000000E+00 0. -1.
         11    1    1    2    0    0  0.17548617239E+01  0.88982140473E+01 -0.17813510033E+03  0.17836583675E+03  0.00000000000E+00 0. -1.
        -15    1    1    2    0    0 -0.44046098289E+01 -0.32194956547E+01  0.65796512614E+02  0.66046230333E+02  0.17770000000E+01 0.  1.
         15    1    1    2    0    0  0.14340543632E+01 -0.69261932283E+01 -0.88905625341E+00  0.73468914905E+01  0.17770000000E+01 0. -1.
</event>
<event>
 6    1  0.1196607E-002  0.1830964E+03  0.7546771E-02  0.1067981E+00
        -11   -1    0    0    0    0  0.00000000000E+00  0.00000000000E+00  0.18250000000E+03  0.18250000000E+03  0.00000000000E+00 0. -1.
         11   -1    0    0    0    0 -0.00000000000E+00 -0.00000000000E+00 -0.18250000000E+03  0.18250000000E+03  0.00000000000E+00 0.  1.
        -11    1    1    2    0    0  0.53337599762E+00  0.32667384476E+01  0.18187347686E+03  0.18190359440E+03  0.00000000000E+00 0. -1.
         11    1    1    2    0    0  0.98010361008E+00  0.35321433022E+01 -0.63120923979E+02  0.63227270092E+02  0.00000000000E+00 0.  1.
        -15    1    1    2    0    0 -0.61808790158E-01 -0.31551868334E+01 -0.11051242568E+03  0.11057175490E+03  0.17770000000E+01 0. -1.
         15    1    1    2    0    0 -0.14516708175E+01 -0.36436949163E+01 -0.82401272025E+01  0.92973806052E+01  0.17770000000E+01 0. -1.
</event>
<event>
 6    1  0.1196607E-002  0.1826116E+03  0.7546771E-02  0.1068366E+00
        -11   -1    0    0    0    0  0.00000000000E+00  0.00000000000E+00  0.18250000000E+03  0.18250000000E+03  0.00000000000E+00 0.  1.
         11   -1    0    0    0    0 -0.00000000000E+00 -0.00000000000E+00 -0.18250000000E+03  0.18250000000E+03  0.00000000000E+00 0.  1.
        -11    1    1    2    0    0 -0.22162736896E+01 -0.12759574633E+01  0.18237046098E+03  0.18238839046E+03  0.00000000000E+00 0.  1.
         11    1    1    2    0    0  0.57232549973E+00  0.10466911674E+01 -0.77758331509E+02  0.77767481880E+02  0.00000000000E+00 0.  1.
        -15    1    1    2    0    0  0.11264416621E+01  0.12845669880E+01 -0.14589541620E+02  0.14796331871E+02  0.17770000000E+01 0.  1.
         15    1    1    2    0    0  0.51750652777E+00 -0.10553006921E+01 -0.90022587855E+02  0.90047795785E+02  0.17770000000E+01 0.  1.
</event>
<event>
 6    1  0.1196607E-002  0.1833554E+03  0.7546771E-02  0.1067776E+00
        -11   -1    0    0    0    0  0.00000000000E+00  0.00000000000E+00  0.18250000000E+03  0.18250000000E+03  0.00000000000E+00 0. -1.
         11   -1    0    0    0    0 -0.00000000000E+00 -0.00000000000E+00 -0.18250000000E+03  0.18250000000E+03  0.00000000000E+00 0. -1.
        -11    1    1    2    0    0 -0.20302521396E+01  0.14492785380E+01  0.18162750074E+03  0.18164462931E+03  0.00000000000E+00 0. -1.
         11    1    1    2    0    0 -0.56622963332E-01 -0.27032858115E+01 -0.15728809889E+03  0.15731133784E+03  0.00000000000E+00 0. -1.
        -15    1    1    2    0    0  0.27580406195E+01  0.22745861363E+01 -0.42191824834E+01  0.58085936317E+01  0.17770000000E+01 0. -1.
         15    1    1    2    0    0 -0.67116551652E+00 -0.10205788628E+01 -0.20120219363E+02  0.20235439224E+02  0.17770000000E+01 0.  1.
</event>
<event>
 6    1  0.1196607E-002  0.1852556E+03  0.7546771E-02  0.1066282E+00
        -11   -1    0    0    0    0  0.00000000000E+00  0.00000000000E+00  0.18250000000E+03  0.18250000000E+03  0.00000000000E+00 0.  1.
         11   -1    0    0    0    0 -0.00000000000E+00 -0.00000000000E+00 -0.18250000000E+03  0.18250000000E+03  0.00000000000E+00 0. -1.
        -11    1    1    2    0    0  0.25670355505E+01 -0.76799853139E+01  0.17020204659E+03  0.17039456713E+03  0.00000000000E+00 0.  1.
         11    1    1    2    0    0  0.24657831244E+01  0.22426181218E+01 -0.17971348725E+03  0.17974439330E+03  0.00000000000E+00 0. -1.
        -15    1    1    2    0    0 -0.66896705177E+01  0.53131032246E+01  0.60013238521E+01  0.10590296242E+02  0.17770000000E+01 0. -1.
         15    1    1    2    0    0  0.16568518427E+01  0.12426396746E+00  0.35101168091E+01  0.42707433282E+01  0.17770000000E+01 0.  1.
</event>
<event>
 6    1  0.1196607E-002  0.1644936E+03  0.7546771E-02  0.1083766E+00
        -11   -1    0    0    0    0  0.00000000000E+00  0.00000000000E+00  0.18250000000E+03  0.18250000000E+03  0.00000000000E+00 0. -1.
         11   -1    0    0    0    0 -0.00000000000E+00 -0.00000000000E+00 -0.18250000000E+03  0.18250000000E+03  0.00000000000E+00 0.  1.
        -11    1    1    2    0    0  0.74563887460E+00 -0.40209722003E+01  0.17054145423E+03  0.17059047982E+03  0.00000000000E+00 0. -1.
         11    1    1    2    0    0 -0.11394924244E+02 -0.11461633642E+02 -0.15833610074E+03  0.15915883306E+03  0.00000000000E+00 0.  1.
        -15    1    1    2    0    0 -0.26635959000E+01  0.34453547444E+00  0.67774344947E+01  0.75036521203E+01  0.17770000000E+01 0.  1.
         15    1    1    2    0    0  0.13312881270E+02  0.15138070367E+02 -0.18982787990E+02  0.27747034995E+02  0.17770000000E+01 0.  1.
</event>
<event>
 6    1  0.1196607E-002  0.1765360E+03  0.7546771E-02  0.1073304E+00
        -11   -1    0    0    0    0  0.00000000000E+00  0.00000000000E+00  0.18250000000E+03  0.18250000000E+03  0.00000000000E+00 0.  1.
         11   -1    0    0    0    0 -0.00000000000E+00 -0.00000000000E+00 -0.18250000000E+03  0.18250000000E+03  0.00000000000E+00 0.  1.
        -11    1    1    2    0    0 -0.18714616187E+01 -0.30167392880E+01  0.17457568213E+03  0.17461177474E+03  0.00000000000E+00 0.  1.
         11    1    1    2    0    0 -0.34885934408E+01 -0.30829529510E+01 -0.17851483339E+03  0.17857553199E+03  0.00000000000E+00 0.  1.
        -15    1    1    2    0    0  0.60601890487E+01  0.46897526236E+01  0.84315378042E+00  0.79112772846E+01  0.17770000000E+01 0.  1.
         15    1    1    2    0    0 -0.70013398928E+00  0.14099396153E+01  0.30959974826E+01  0.39014159909E+01  0.17770000000E+01 0.  1.
</event>
<event>
 6    1  0.1196607E-002  0.1831964E+03  0.7546771E-02  0.1067902E+00
        -11   -1    0    0    0    0  0.00000000000E+00  0.00000000000E+00  0.18250000000E+03  0.18250000000E+03  0.00000000000E+00 0.  1.
         11   -1    0    0    0    0 -0.00000000000E+00 -0.00000000000E+00 -0.18250000000E+03  0.18250000000E+03  0.00000000000E+00 0. -1.
        -11    1    1    2    0    0 -0.38161877328E+01 -0.53902386559E+00  0.18176279036E+03  0.18180364626E+03  0.00000000000E+00 0.  1.
         11    1    1    2    0    0  0.50537060403E+00  0.26770359521E+01 -0.16270245966E+03  0.16272526632E+03  0.00000000000E+00 0. -1.
        -15    1    1    2    0    0  0.73861244973E-01 -0.21368651425E+01 -0.34543016380E+01  0.44341376757E+01  0.17770000000E+01 0. -1.
         15    1    1    2    0    0  0.32369558838E+01 -0.11469439633E-02 -0.15606029067E+02  0.16036949739E+02  0.17770000000E+01 0.  1.
</event>
<event>
 6    1  0.1196607E-002  0.1838883E+03  0.7546771E-02  0.1067355E+00
        -11   -1    0    0    0    0  0.00000000000E+00  0.00000000000E+00  0.18250000000E+03  0.18250000000E+03  0.00000000000E+00 0. -1.
         11   -1    0    0    0    0 -0.00000000000E+00 -0.00000000000E+00 -0.18250000000E+03  0.18250000000E+03  0.00000000000E+00 0. -1.
        -11    1    1    2    0    0  0.30547189166E+01 -0.72095300499E+00  0.18108445827E+03  0.18111165647E+03  0.00000000000E+00 0. -1.
         11    1    1    2    0    0 -0.45459735710E+01  0.28497264898E+01 -0.16120522080E+03  0.16129448233E+03  0.00000000000E+00 0. -1.
        -15    1    1    2    0    0 -0.15625676471E+01 -0.10858570748E+00 -0.68925046965E-01  0.23697865241E+01  0.17770000000E+01 0. -1.
         15    1    1    2    0    0  0.30538223015E+01 -0.20201877774E+01 -0.19810312420E+02  0.20224074675E+02  0.17770000000E+01 0. -1.
</event>
<event>
 6    1  0.1196607E-002  0.1854662E+03  0.7546771E-02  0.1066118E+00
        -11   -1    0    0    0    0  0.00000000000E+00  0.00000000000E+00  0.18250000000E+03  0.18250000000E+03  0.00000000000E+00 0. -1.
         11   -1    0    0    0    0 -0.00000000000E+00 -0.00000000000E+00 -0.18250000000E+03  0.18250000000E+03  0.00000000000E+00 0. -1.
        -11    1    1    2    0    0  0.91078669181E+01  0.35406810432E+01  0.13947329708E+03  0.13981520039E+03  0.00000000000E+00 0. -1.
         11    1    1    2    0    0 -0.76193375476E+00 -0.23415463435E+01 -0.17951690570E+03  0.17953379296E+03  0.00000000000E+00 0. -1.
        -15    1    1    2    0    0 -0.83508372629E+00  0.61903369777E+01  0.31057290779E+01  0.71986747970E+01  0.17770000000E+01 0.  1.
         15    1    1    2    0    0 -0.75108494370E+01 -0.73894716774E+01  0.36937879542E+02  0.38452331853E+02  0.17770000000E+01 0.  1.
</event>
<event>
 6    1  0.1196607E-002  0.1839462E+03  0.7546771E-02  0.1067309E+00
        -11   -1    0    0    0    0  0.00000000000E+00  0.00000000000E+00  0.18250000000E+03  0.18250000000E+03  0.00000000000E+00 0. -1.
         11   -1    0    0    0    0 -0.00000000000E+00 -0.00000000000E+00 -0.18250000000E+03  0.18250000000E+03  0.00000000000E+00 0. -1.
        -11    1    1    2    0    0  0.72307434040E+01 -0.15088407589E+02  0.18027901651E+03  0.18105376961E+03  0.00000000000E+00 0. -1.
         11    1    1    2    0    0 -0.22246891533E+01 -0.18139407228E+01 -0.11438363414E+03  0.11441964596E+03  0.00000000000E+00 0. -1.
        -15    1    1    2    0    0 -0.93506937400E+01  0.98570804376E+01 -0.41583576259E+02  0.43782976734E+02  0.17770000000E+01 0. -1.
         15    1    1    2    0    0  0.43446394892E+01  0.70452678739E+01 -0.24311806119E+02  0.25743607701E+02  0.17770000000E+01 0.  1.
</event>
<event>
 6    1  0.1196607E-002  0.1903025E+03  0.7546771E-02  0.1062408E+00
        -11   -1    0    0    0    0  0.00000000000E+00  0.00000000000E+00  0.18250000000E+03  0.18250000000E+03  0.00000000000E+00 0.  1.
         11   -1    0    0    0    0 -0.00000000000E+00 -0.00000000000E+00 -0.18250000000E+03  0.18250000000E+03  0.00000000000E+00 0.  1.
        -11    1    1    2    0    0 -0.24181451349E+01  0.82880496230E+00  0.17467878741E+03  0.17469749029E+03  0.00000000000E+00 0.  1.
         11    1    1    2    0    0 -0.35762276486E+01  0.94385386605E+01 -0.16574174767E+03  0.16604879505E+03  0.00000000000E+00 0.  1.
        -15    1    1    2    0    0 -0.27758514364E+01 -0.34948633234E+01 -0.11741539656E+02  0.12686248592E+02  0.17770000000E+01 0. -1.
         15    1    1    2    0    0  0.87702242199E+01 -0.67724802994E+01  0.28044999191E+01  0.11567466061E+02  0.17770000000E+01 0.  1.
</event>
<event>
 6    1  0.1196607E-002  0.1834907E+03  0.7546771E-02  0.1067669E+00
        -11   -1    0    0    0    0  0.00000000000E+00  0.00000000000E+00  0.18250000000E+03  0.18250000000E+03  0.00000000000E+00 0. -1.
         11   -1    0    0    0    0 -0.00000000000E+00 -0.00000000000E+00 -0.18250000000E+03  0.18250000000E+03  0.00000000000E+00 0. -1.
        -11    1    1    2    0    0 -0.94376889242E+01  0.90018473969E+00  0.84990606595E+02  0.85517738009E+02  0.00000000000E+00 0. -1.
         11    1    1    2    0    0  0.93889714306E+01  0.49675023306E+01 -0.18119819194E+03  0.18150926595E+03  0.00000000000E+00 0. -1.
        -15    1    1    2    0    0 -0.27417375438E+01  0.70874258925E+00  0.81083761929E+02  0.81152656262E+02  0.17770000000E+01 0.  1.
         15    1    1    2    0    0  0.27904550374E+01 -0.65764296595E+01  0.15123823418E+02  0.16820339776E+02  0.17770000000E+01 0. -1.
</event>
<event>
 6    1  0.1196607E-002  0.1842326E+03  0.7546771E-02  0.1067084E+00
        -11   -1    0    0    0    0  0.00000000000E+00  0.00000000000E+00  0.18250000000E+03  0.18250000000E+03  0.00000000000E+00 0.  1.
         11   -1    0    0    0    0 -0.00000000000E+00 -0.00000000000E+00 -0.18250000000E+03  0.18250000000E+03  0.00000000000E+00 0.  1.
        -11    1    1    2    0    0 -0.12414425794E+00 -0.30248977127E+01  0.18074208547E+03  0.18076743865E+03  0.00000000000E+00 0.  1.
         11    1    1    2    0    0  0.62297819872E+00  0.58828987897E+01 -0.15424003484E+03  0.15435344164E+03  0.00000000000E+00 0.  1.
        -15    1    1    2    0    0 -0.43495538626E-01 -0.24443848473E+01 -0.27557476460E+02  0.27722718969E+02  0.17770000000E+01 0.  1.
         15    1    1    2    0    0 -0.45533840215E+00 -0.41361622965E+00  0.10554258299E+01  0.21564007346E+01  0.17770000000E+01 0. -1.
</event>
<event>
 6    1  0.1196607E-002  0.1863316E+03  0.7546771E-02  0.1065445E+00
        -11   -1    0    0    0    0  0.00000000000E+00  0.00000000000E+00  0.18250000000E+03  0.18250000000E+03  0.00000000000E+00 0.  1.
         11   -1    0    0    0    0 -0.00000000000E+00 -0.00000000000E+00 -0.18250000000E+03  0.18250000000E+03  0.00000000000E+00 0.  1.
        -11    1    1    2    0    0 -0.13587008042E+01 -0.45322397055E+01  0.17860570493E+03  0.17866836625E+03  0.00000000000E+00 0.  1.
         11    1    1    2    0    0  0.37602606747E+01 -0.14896064898E+01 -0.13686519925E+03  0.13692494752E+03  0.00000000000E+00 0.  1.
        -15    1    1    2    0    0 -0.11036405994E+02  0.53196117747E+01 -0.37705775313E+02  0.39686064905E+02  0.17770000000E+01 0.  1.
         15    1    1    2    0    0  0.86348461230E+01  0.70223442054E+00 -0.40347303750E+01  0.97206213252E+01  0.17770000000E+01 0. -1.
</event>
<event>
 6    1  0.1196607E-002  0.1847301E+03  0.7546771E-02  0.1066693E+00
        -11   -1    0    0    0    0  0.00000000000E+00  0.00000000000E+00  0.18250000000E+03  0.18250000000E+03  0.00000000000E+00 0. -1.
         11   -1    0    0    0    0 -0.00000000000E+00 -0.00000000000E+00 -0.18250000000E+03  0.18250000000E+03  0.00000000000E+00 0.  1.
        -11    1    1    2    0    0  0.57931704540E+01  0.24911780679E+01  0.18015954247E+03  0.18026987418E+03  0.00000000000E+00 0. -1.
         11    1    1    2    0    0  0.37651942012E+01 -0.15430393526E+01 -0.10473788319E+03  0.10481689669E+03  0.00000000000E+00 0.  1.
        -15    1    1    2    0    0 -0.92043459233E+01 -0.20829125146E+01 -0.81148425616E+01  0.12572466235E+02  0.17770000000E+01 0. -1.
         15    1    1    2    0    0 -0.35401873186E+00  0.11347737993E+01 -0.67306816723E+02  0.67340762894E+02  0.17770000000E+01 0. -1.
</event>
<event>
 6    1  0.1196607E-002  0.1834207E+03  0.7546771E-02  0.1067724E+00
        -11   -1    0    0    0    0  0.00000000000E+00  0.00000000000E+00  0.18250000000E+03  0.18250000000E+03  0.00000000000E+00 0. -1.
         11   -1    0    0    0    0 -0.00000000000E+00 -0.00000000000E+00 -0.18250000000E+03  0.18250000000E+03  0.00000000000E+00 0. -1.
        -11    1    1    2    0    0 -0.73399365971E+00  0.26157186395E+01  0.18155893381E+03  0.18157925867E+03  0.00000000000E+00 0. -1.
         11    1    1    2    0    0 -0.26521733352E+01 -0.13927360792E+01 -0.17155003040E+03  0.17157618327E+03  0.00000000000E+00 0. -1.
        -15    1    1    2    0    0  0.26313459799E+01 -0.23790676959E+01 -0.52516337974E+01  0.65818942038E+01  0.17770000000E+01 0.  1.
         15    1    1    2    0    0  0.75482101505E+00  0.11560851356E+01 -0.47572696200E+01  0.52626638542E+01  0.17770000000E+01 0. -1.
</event>
<event>
 6    1  0.1196607E-002  0.1827504E+03  0.7546771E-02  0.1068256E+00
        -11   -1    0    0    0    0  0.00000000000E+00  0.00000000000E+00  0.18250000000E+03  0.18250000000E+03  0.00000000000E+00 0.  1.
         11   -1    0    0    0    0 -0.00000000000E+00 -0.00000000000E+00 -0.18250000000E+03  0.18250000000E+03  0.00000000000E+00 0.  1.
        -11    1    1    2    0    0 -0.17158779298E+00  0.12768072177E+01  0.77952045824E+02  0.77962690610E+02  0.00000000000E+00 0.  1.
         11    1    1    2    0    0  0.25796556684E+01 -0.54361720642E+00 -0.18223052981E+03  0.18224959845E+03  0.00000000000E+00 0.  1.
        -15    1    1    2    0    0 -0.56602958749E+00 -0.30204490447E+01  0.91112534876E+02  0.91181660669E+02  0.17770000000E+01 0.  1.
         15    1    1    2    0    0 -0.18420382879E+01  0.22872590334E+01  0.13165949107E+02  0.13606050266E+02  0.17770000000E+01 0. -1.
</event>
<event>
 6    1  0.1196607E-002  0.2028907E+03  0.7546771E-02  0.1053291E+00
        -11   -1    0    0    0    0  0.00000000000E+00  0.00000000000E+00  0.18250000000E+03  0.18250000000E+03  0.00000000000E+00 0. -1.
         11   -1    0    0    0    0 -0.00000000000E+00 -0.00000000000E+00 -0.18250000000E+03  0.18250000000E+03  0.00000000000E+00 0. -1.
        -11    1    1    2    0    0  0.16928118897E+01 -0.30284164123E+01  0.10328556785E+03  0.10334382151E+03  0.00000000000E+00 0. -1.
         11    1    1    2    0    0 -0.31154970720E+01 -0.42660018140E+01 -0.16202320750E+03  0.16210929912E+03  0.00000000000E+00 0. -1.
        -15    1    1    2    0    0  0.34550761826E+01  0.22323576352E+01 -0.20053056137E+02  0.20547597463E+02  0.17770000000E+01 0. -1.
         15    1    1    2    0    0 -0.20323910003E+01  0.50620605912E+01  0.78790695789E+02  0.78999281912E+02  0.17770000000E+01 0.  1.
</event>
<event>
 6    1  0.1418084E-002  0.1825831E+03  0.7546771E-02  0.1068389E+00
        -11   -1    0    0    0    0  0.00000000000E+00  0.00000000000E+00  0.18250000000E+03  0.18250000000E+03  0.00000000000E+00 0. -1.
         11   -1    0    0    0    0 -0.00000000000E+00 -0.00000000000E+00 -0.18250000000E+03  0.18250000000E+03  0.00000000000E+00 0.  1.
        -11    1    1    2    0    0 -0.30491471789E+01 -0.17877510816E+01  0.18238267075E+03  0.18241691792E+03  0.00000000000E+00 0. -1.
         11    1    1    2    0    0  0.91532853804E+00 -0.30959749388E+00 -0.60396530056E+02  0.60404259119E+02  0.00000000000E+00 0.  1.
        -15    1    1    2    0    0 -0.68684176150E+00 -0.47117538763E+00 -0.68222116233E+02  0.68250337949E+02  0.17770000000E+01 0.  1.
         15    1    1    2    0    0  0.28206604024E+01  0.25685239631E+01 -0.53764024463E+02  0.53928485014E+02  0.17770000000E+01 0.  1.
</event>
<event>
 6    1  0.1196607E-002  0.1921230E+03  0.7546771E-02  0.1061043E+00
        -11   -1    0    0    0    0  0.00000000000E+00  0.00000000000E+00  0.18250000000E+03  0.18250000000E+03  0.00000000000E+00 0. -1.
         11   -1    0    0    0    0 -0.00000000000E+00 -0.00000000000E+00 -0.18250000000E+03  0.18250000000E+03  0.00000000000E+00 0.  1.
        -11    1    1    2    0    0 -0.54496813085E+01  0.16999618946E+01  0.16098236279E+03  0.16108354983E+03  0.00000000000E+00 0. -1.
         11    1    1    2    0    0 -0.57845302748E+00  0.15557819881E+02 -0.17217456660E+03  0.17287701337E+03  0.00000000000E+00 0.  1.
        -15    1    1    2    0    0  0.93417850305E+01 -0.19999280584E+02  0.40456877245E+01  0.22511452409E+02  0.17770000000E+01 0.  1.
         15    1    1    2    0    0 -0.33136506946E+01  0.27414988077E+01  0.71465160890E+01  0.85279843954E+01  0.17770000000E+01 0.  1.
</event>
<event>
 6    1  0.1196607E-002  0.1826842E+03  0.7546771E-02  0.1068308E+00
        -11   -1    0    0    0    0  0.00000000000E+00  0.00000000000E+00  0.18250000000E+03  0.18250000000E+03  0.00000000000E+00 0. -1.
         11   -1    0    0    0    0 -0.00000000000E+00 -0.00000000000E+00 -0.18250000000E+03  0.18250000000E+03  0.00000000000E+00 0. -1.
        -11    1    1    2    0    0  0.31967590401E+01  0.32539308644E+01  0.18225874783E+03  0.18231582074E+03  0.00000000000E+00 0. -1.
         11    1    1    2    0    0 -0.57111642590E-01  0.25650860762E+01 -0.84918413276E+02  0.84957164745E+02  0.00000000000E+00 0. -1.
        -15    1    1    2    0    0 -0.19438249927E+00 -0.16324695834E+01 -0.53247069329E+02  0.53302071842E+02  0.17770000000E+01 0. -1.
         15    1    1    2    0    0 -0.29452648983E+01 -0.41865473572E+01 -0.44093265222E+02  0.44424942668E+02  0.17770000000E+01 0. -1.
</event>
<event>
 6    1  0.1196607E-002  0.2067593E+03  0.7546771E-02  0.1050633E+00
        -11   -1    0    0    0    0  0.00000000000E+00  0.00000000000E+00  0.18250000000E+03  0.18250000000E+03  0.00000000000E+00 0.  1.
         11   -1    0    0    0    0 -0.00000000000E+00 -0.00000000000E+00 -0.18250000000E+03  0.18250000000E+03  0.00000000000E+00 0.  1.
        -11    1    1    2    0    0  0.58890767573E+01 -0.32867120092E+01  0.15809687980E+03  0.15824066198E+03  0.00000000000E+00 0.  1.
         11    1    1    2    0    0  0.22594747657E+01 -0.42151403607E+01 -0.14713798129E+03  0.14721568589E+03  0.00000000000E+00 0.  1.
        -15    1    1    2    0    0 -0.45229680069E+01 -0.79484423528E+01 -0.31886253358E+02  0.33219359681E+02  0.17770000000E+01 0. -1.
         15    1    1    2    0    0 -0.36255835161E+01  0.15450294723E+02  0.20927354849E+02  0.26324292447E+02  0.17770000000E+01 0.  1.
</event>
<event>
 6    1  0.1196607E-002  0.1840339E+03  0.7546771E-02  0.1067240E+00
        -11   -1    0    0    0    0  0.00000000000E+00  0.00000000000E+00  0.18250000000E+03  0.18250000000E+03  0.00000000000E+00 0.  1.
         11   -1    0    0    0    0 -0.00000000000E+00 -0.00000000000E+00 -0.18250000000E+03  0.18250000000E+03  0.00000000000E+00 0.  1.
        -11    1    1    2    0    0 -0.11684978487E+01 -0.25047969871E+01  0.17034956518E+03  0.17037198641E+03  0.00000000000E+00 0.  1.
         11    1    1    2    0    0 -0.27217620779E+01  0.14983701383E+01 -0.18093945498E+03  0.18096612796E+03  0.00000000000E+00 0.  1.
        -15    1    1    2    0    0  0.38511793429E+01 -0.38795035853E+00  0.18654425804E+01  0.46496981442E+01  0.17770000000E+01 0.  1.
         15    1    1    2    0    0  0.39080583656E-01  0.13943772073E+01  0.87244472161E+01  0.90121874877E+01  0.17770000000E+01 0. -1.
</event>
<event>
 6    1  0.1196607E-002  0.1824543E+03  0.7546771E-02  0.1068491E+00
        -11   -1    0    0    0    0  0.00000000000E+00  0.00000000000E+00  0.18250000000E+03  0.18250000000E+03  0.00000000000E+00 0.  1.
         11   -1    0    0    0    0 -0.00000000000E+00 -0.00000000000E+00 -0.18250000000E+03  0.18250000000E+03  0.00000000000E+00 0.  1.
        -11    1    1    2    0    0  0.12772679706E+02  0.59627305111E+01  0.17834787659E+03  0.17890405413E+03  0.00000000000E+00 0.  1.
         11    1    1    2    0    0 -0.13658846875E+01 -0.37339020706E+00 -0.68748394964E+01  0.70191508979E+01  0.00000000000E+00 0.  1.
        -15    1    1    2    0    0 -0.25564753224E+02  0.68441188787E+01 -0.54836129042E+02  0.60914344353E+02  0.17770000000E+01 0. -1.
         15    1    1    2    0    0  0.14157958206E+02 -0.12433459183E+02 -0.11663690805E+03  0.11816245062E+03  0.17770000000E+01 0.  1.
</event>
<event>
 6    1  0.1196607E-002  0.1853430E+03  0.7546771E-02  0.1066214E+00
        -11   -1    0    0    0    0  0.00000000000E+00  0.00000000000E+00  0.18250000000E+03  0.18250000000E+03  0.00000000000E+00 0. -1.
         11   -1    0    0    0    0 -0.00000000000E+00 -0.00000000000E+00 -0.18250000000E+03  0.18250000000E+03  0.00000000000E+00 0. -1.
        -11    1    1    2    0    0  0.15105759096E+01 -0.43728647820E+01  0.17959744638E+03  0.17965702472E+03  0.00000000000E+00 0. -1.
         11    1    1    2    0    0 -0.16192159719E+01  0.33054853832E+01 -0.16311044743E+03  0.16315197257E+03  0.00000000000E+00 0. -1.
        -15    1    1    2    0    0  0.41994081161E+01 -0.52340031932E+01 -0.95904421595E+01  0.11839093199E+02  0.17770000000E+01 0. -1.
         15    1    1    2    0    0 -0.40907680537E+01  0.63013825921E+01 -0.68965567933E+01  0.10351909507E+02  0.17770000000E+01 0. -1.
</event>
<event>
 6    1  0.1196607E-002  0.1838607E+03  0.7546771E-02  0.1067377E+00
        -11   -1    0    0    0    0  0.00000000000E+00  0.00000000000E+00  0.18250000000E+03  0.18250000000E+03  0.00000000000E+00 0. -1.
         11   -1    0    0    0    0 -0.00000000000E+00 -0.00000000000E+00 -0.18250000000E+03  0.18250000000E+03  0.00000000000E+00 0. -1.
        -11    1    1    2    0    0 -0.90641136939E+00 -0.58868775659E-02  0.56910769204E+02  0.56917987206E+02  0.00000000000E+00 0. -1.
         11    1    1    2    0    0 -0.15029661420E+01  0.48318145589E+01 -0.18106862790E+03  0.18113932027E+03  0.00000000000E+00 0. -1.
        -15    1    1    2    0    0  0.20760901650E+01 -0.60427333227E+00  0.12170313003E+03  0.12173530665E+03  0.17770000000E+01 0. -1.
         15    1    1    2    0    0  0.33328734644E+00 -0.42216543490E+01  0.24547286646E+01  0.52073858811E+01  0.17770000000E+01 0.  1.
</event>
<event>
 6    1  0.1196607E-002  0.1838373E+03  0.7546771E-02  0.1067395E+00
        -11   -1    0    0    0    0  0.00000000000E+00  0.00000000000E+00  0.18250000000E+03  0.18250000000E+03  0.00000000000E+00 0.  1.
         11   -1    0    0    0    0 -0.00000000000E+00 -0.00000000000E+00 -0.18250000000E+03  0.18250000000E+03  0.00000000000E+00 0.  1.
        -11    1    1    2    0    0  0.30562107358E+01  0.23959747559E+01  0.72363128991E+02  0.72467258513E+02  0.00000000000E+00 0.  1.
         11    1    1    2    0    0  0.13617106784E+01 -0.48255219550E+01 -0.18109325728E+03  0.18116265551E+03  0.00000000000E+00 0.  1.
        -15    1    1    2    0    0 -0.94105020141E+01  0.95407251313E+01  0.84363642940E+02  0.85439832416E+02  0.17770000000E+01 0.  1.
         15    1    1    2    0    0  0.49925805999E+01 -0.71111779322E+01  0.24366485349E+02  0.25930253564E+02  0.17770000000E+01 0.  1.
</event>
<event>
 6    1  0.1196607E-002  0.1831827E+03  0.7546771E-02  0.1067913E+00
        -11   -1    0    0    0    0  0.00000000000E+00  0.00000000000E+00  0.18250000000E+03  0.18250000000E+03  0.00000000000E+00 0. -1.
         11   -1    0    0    0    0 -0.00000000000E+00 -0.00000000000E+00 -0.18250000000E+03  0.18250000000E+03  0.00000000000E+00 0. -1.
        -11    1    1    2    0    0 -0.36957269802E+00  0.39498283565E+00  0.27733476370E+02  0.27738750999E+02  0.00000000000E+00 0. -1.
         11    1    1    2    0    0  0.59549296514E+01  0.12522578353E+01 -0.18171545393E+03  0.18181731363E+03  0.00000000000E+00 0. -1.
        -15    1    1    2    0    0  0.29745852817E+01  0.98402816877E+00  0.12513156229E+03  0.12518339378E+03  0.17770000000E+01 0. -1.
         15    1    1    2    0    0 -0.85599422350E+01 -0.26312688397E+01  0.28850415277E+02  0.30260541592E+02  0.17770000000E+01 0.  1.
</event>
<event>
 6    1  0.1196607E-002  0.1912821E+03  0.7546771E-02  0.1061672E+00
        -11   -1    0    0    0    0  0.00000000000E+00  0.00000000000E+00  0.18250000000E+03  0.18250000000E+03  0.00000000000E+00 0. -1.
         11   -1    0    0    0    0 -0.00000000000E+00 -0.00000000000E+00 -0.18250000000E+03  0.18250000000E+03  0.00000000000E+00 0. -1.
        -11    1    1    2    0    0 -0.17612775392E+01 -0.41415824945E+01  0.16433991316E+03  0.16440152634E+03  0.00000000000E+00 0. -1.
         11    1    1    2    0    0 -0.28962721870E+01 -0.37081420733E+01 -0.17365416667E+03  0.17371789865E+03  0.00000000000E+00 0. -1.
        -15    1    1    2    0    0  0.96112724971E-01  0.69060739196E+01  0.16591548043E+02  0.18059354643E+02  0.17770000000E+01 0.  1.
         15    1    1    2    0    0  0.45614370013E+01  0.94365064825E+00 -0.72772945358E+01  0.88212203705E+01  0.17770000000E+01 0.  1.
</event>
<event>
 6    1  0.1196607E-002  0.1919479E+03  0.7546771E-02  0.1061174E+00
        -11   -1    0    0    0    0  0.00000000000E+00  0.00000000000E+00  0.18250000000E+03  0.18250000000E+03  0.00000000000E+00 0. -1.
         11   -1    0    0    0    0 -0.00000000000E+00 -0.00000000000E+00 -0.18250000000E+03  0.18250000000E+03  0.00000000000E+00 0.  1.
        -11    1    1    2    0    0 -0.24824514897E+01  0.14536735033E+01  0.98829467769E+02  0.98871327652E+02  0.00000000000E+00 0. -1.
         11    1    1    2    0    0  0.25834774629E+02  0.23600454166E+01 -0.17109657018E+03  0.17305213585E+03  0.00000000000E+00 0.  1.
        -15    1    1    2    0    0 -0.88291520220E+01  0.38796578072E+01  0.75582943368E+02  0.76216433446E+02  0.17770000000E+01 0. -1.
         15    1    1    2    0    0 -0.14523171118E+02 -0.76933767271E+01 -0.33158409592E+01  0.16860103056E+02  0.17770000000E+01 0.  1.
</event>
<event>
 6    1  0.1196607E-002  0.1830709E+03  0.7546771E-02  0.1068001E+00
        -11   -1    0    0    0    0  0.00000000000E+00  0.00000000000E+00  0.18250000000E+03  0.18250000000E+03  0.00000000000E+00 0. -1.
         11   -1    0    0    0    0 -0.00000000000E+00 -0.00000000000E+00 -0.18250000000E+03  0.18250000000E+03  0.00000000000E+00 0.  1.
        -11    1    1    2    0    0 -0.48699542908E+01  0.67739301278E+01  0.18173773617E+03  0.18192912722E+03  0.00000000000E+00 0. -1.
         11    1    1    2    0    0 -0.20520687440E+01 -0.26001712341E+01 -0.59548461762E+02  0.59640516219E+02  0.00000000000E+00 0.  1.
        -15    1    1    2    0    0  0.64026412365E+00 -0.58103461006E+01 -0.17704498551E+02  0.18729043166E+02  0.17770000000E+01 0. -1.
         15    1    1    2    0    0  0.62817589111E+01  0.16365872069E+01 -0.10448477585E+03  0.10470131340E+03  0.17770000000E+01 0.  1.
</event>
<event>
 6    1  0.1196607E-002  0.1866056E+03  0.7546771E-02  0.1065233E+00
        -11   -1    0    0    0    0  0.00000000000E+00  0.00000000000E+00  0.18250000000E+03  0.18250000000E+03  0.00000000000E+00 0.  1.
         11   -1    0    0    0    0 -0.00000000000E+00 -0.00000000000E+00 -0.18250000000E+03  0.18250000000E+03  0.00000000000E+00 0. -1.
        -11    1    1    2    0    0 -0.88051797144E+01 -0.10616962739E+02  0.17786039613E+03  0.17839442704E+03  0.00000000000E+00 0.  1.
         11    1    1    2    0    0 -0.20411898001E+01  0.37469264689E+01 -0.15721358325E+03  0.15727147444E+03  0.00000000000E+00 0. -1.
        -15    1    1    2    0    0  0.13356001027E+02  0.84755369690E+01 -0.11749613043E+02  0.19784555239E+02  0.17770000000E+01 0. -1.
         15    1    1    2    0    0 -0.25096315124E+01 -0.16055006986E+01 -0.88971998361E+01  0.95495432741E+01  0.17770000000E+01 0.  1.
</event>
<event>
 6    1  0.1196607E-002  0.1828255E+03  0.7546771E-02  0.1068196E+00
        -11   -1    0    0    0    0  0.00000000000E+00  0.00000000000E+00  0.18250000000E+03  0.18250000000E+03  0.00000000000E+00 0.  1.
         11   -1    0    0    0    0 -0.00000000000E+00 -0.00000000000E+00 -0.18250000000E+03  0.18250000000E+03  0.00000000000E+00 0.  1.
        -11    1    1    2    0    0 -0.59461914402E+01 -0.17031500095E+01  0.18206944458E+03  0.18217447836E+03  0.00000000000E+00 0.  1.
         11    1    1    2    0    0  0.18442694115E+01  0.38209220382E+00 -0.13351711980E+03  0.13353040329E+03  0.00000000000E+00 0.  1.
        -15    1    1    2    0    0  0.46192386826E+01  0.49128131056E+00 -0.44359782580E+02  0.44637728021E+02  0.17770000000E+01 0.  1.
         15    1    1    2    0    0 -0.51731665386E+00  0.82977649514E+00 -0.41925422067E+01  0.46573903323E+01  0.17770000000E+01 0.  1.
</event>
<event>
 6    1  0.1196607E-002  0.1862540E+03  0.7546771E-02  0.1065505E+00
        -11   -1    0    0    0    0  0.00000000000E+00  0.00000000000E+00  0.18250000000E+03  0.18250000000E+03  0.00000000000E+00 0. -1.
         11   -1    0    0    0    0 -0.00000000000E+00 -0.00000000000E+00 -0.18250000000E+03  0.18250000000E+03  0.00000000000E+00 0. -1.
        -11    1    1    2    0    0 -0.43774194046E+01 -0.25985731973E+00  0.17869222597E+03  0.17874602358E+03  0.00000000000E+00 0. -1.
         11    1    1    2    0    0  0.21065256270E+01 -0.16453758857E+01 -0.15143431784E+03  0.15145790614E+03  0.00000000000E+00 0. -1.
        -15    1    1    2    0    0  0.31354443522E+01  0.81660810661E+01 -0.26762842647E+02  0.28212113831E+02  0.17770000000E+01 0. -1.
         15    1    1    2    0    0 -0.86455057460E+00 -0.62608478607E+01 -0.49506547496E+00  0.65839564439E+01  0.17770000000E+01 0.  1.
</event>
<event>
 6    1  0.1196607E-002  0.1827563E+03  0.7546771E-02  0.1068251E+00
        -11   -1    0    0    0    0  0.00000000000E+00  0.00000000000E+00  0.18250000000E+03  0.18250000000E+03  0.00000000000E+00 0.  1.
         11   -1    0    0    0    0 -0.00000000000E+00 -0.00000000000E+00 -0.18250000000E+03  0.18250000000E+03  0.00000000000E+00 0.  1.
        -11    1    1    2    0    0  0.21088538840E+01 -0.96565577336E+00  0.12819615988E+03  0.12821714068E+03  0.00000000000E+00 0.  1.
         11    1    1    2    0    0  0.12432141078E+01  0.24473608531E+01 -0.18222306199E+03  0.18224373645E+03  0.00000000000E+00 0.  1.
        -15    1    1    2    0    0 -0.95291373441E+00 -0.10829194687E+01  0.60611799831E+01  0.64789189644E+01  0.17770000000E+01 0.  1.
         15    1    1    2    0    0 -0.23991542574E+01 -0.39878561104E+00  0.47965722122E+02  0.48060203899E+02  0.17770000000E+01 0. -1.
</event>
<event>
 6    1  0.1196607E-002  0.1842197E+03  0.7546771E-02  0.1067094E+00
        -11   -1    0    0    0    0  0.00000000000E+00  0.00000000000E+00  0.18250000000E+03  0.18250000000E+03  0.00000000000E+00 0. -1.
         11   -1    0    0    0    0 -0.00000000000E+00 -0.00000000000E+00 -0.18250000000E+03  0.18250000000E+03  0.00000000000E+00 0. -1.
        -11    1    1    2    0    0  0.26446238747E+01  0.42086033035E+00  0.18076044904E+03  0.18078028403E+03  0.00000000000E+00 0. -1.
         11    1    1    2    0    0  0.24780574446E+01 -0.82700010730E+00 -0.16810471618E+03  0.16812501390E+03  0.00000000000E+00 0. -1.
        -15    1    1    2    0    0 -0.32981442657E+01 -0.17902094298E+01 -0.11960157199E+02  0.12660398675E+02  0.17770000000E+01 0. -1.
         15    1    1    2    0    0 -0.18245370536E+01  0.21963492068E+01 -0.69557566109E+00  0.34343033934E+01  0.17770000000E+01 0.  1.
</event>
<event>
 6    1  0.1196607E-002  0.1877076E+03  0.7546771E-02  0.1064383E+00
        -11   -1    0    0    0    0  0.00000000000E+00  0.00000000000E+00  0.18250000000E+03  0.18250000000E+03  0.00000000000E+00 0. -1.
         11   -1    0    0    0    0 -0.00000000000E+00 -0.00000000000E+00 -0.18250000000E+03  0.18250000000E+03  0.00000000000E+00 0. -1.
        -11    1    1    2    0    0 -0.26710337988E+01  0.27609066758E+01  0.17725072831E+03  0.17729235097E+03  0.00000000000E+00 0. -1.
         11    1    1    2    0    0 -0.50004458064E+00 -0.34627521021E+01 -0.16486793937E+03  0.16490505792E+03  0.00000000000E+00 0. -1.
        -15    1    1    2    0    0 -0.17378587930E+01  0.89443085202E+01 -0.48331520903E+01  0.10466035363E+02  0.17770000000E+01 0.  1.
         15    1    1    2    0    0  0.49089371725E+01 -0.82424630940E+01 -0.75496368524E+01  0.12336555744E+02  0.17770000000E+01 0. -1.
</event>
<event>
 6    1  0.1196607E-002  0.1827453E+03  0.7546771E-02  0.1068260E+00
        -11   -1    0    0    0    0  0.00000000000E+00  0.00000000000E+00  0.18250000000E+03  0.18250000000E+03  0.00000000000E+00 0. -1.
         11   -1    0    0    0    0 -0.00000000000E+00 -0.00000000000E+00 -0.18250000000E+03  0.18250000000E+03  0.00000000000E+00 0. -1.
        -11    1    1    2    0    0 -0.10373004242E+01  0.27123951303E+01  0.72359062456E+02  0.72417311459E+02  0.00000000000E+00 0. -1.
         11    1    1    2    0    0 -0.57502606410E+01 -0.26291638059E+01 -0.18214495621E+03  0.18225466544E+03  0.00000000000E+00 0. -1.
        -15    1    1    2    0    0  0.41076815727E+01  0.27580649783E+01  0.32442375818E+02  0.32865566297E+02  0.17770000000E+01 0.  1.
         15    1    1    2    0    0  0.26798794925E+01 -0.28412963027E+01  0.77343517938E+02  0.77462456808E+02  0.17770000000E+01 0. -1.
</event>
<event>
 6    1  0.1196607E-002  0.1857633E+03  0.7546771E-02  0.1065886E+00
        -11   -1    0    0    0    0  0.00000000000E+00  0.00000000000E+00  0.18250000000E+03  0.18250000000E+03  0.00000000000E+00 0. -1.
         11   -1    0    0    0    0 -0.00000000000E+00 -0.00000000000E+00 -0.18250000000E+03  0.18250000000E+03  0.00000000000E+00 0. -1.
        -11    1    1    2    0    0  0.36707060777E+00  0.31843541673E+01  0.16860867666E+03  0.16863914344E+03  0.00000000000E+00 0. -1.
         11    1    1    2    0    0 -0.39969076235E+01 -0.35013688031E+01 -0.17915791076E+03  0.17923669223E+03  0.00000000000E+00 0. -1.
        -15    1    1    2    0    0  0.41954593487E+01  0.23384928173E+01 -0.10290580015E+01  0.52237072251E+01  0.17770000000E+01 0.  1.
         15    1    1    2    0    0 -0.56562233295E+00 -0.20214781815E+01  0.11578292093E+02  0.11900457111E+02  0.17770000000E+01 0. -1.
</event>
<event>
 6    1  0.1196607E-002  0.1828594E+03  0.7546771E-02  0.1068169E+00
        -11   -1    0    0    0    0  0.00000000000E+00  0.00000000000E+00  0.18250000000E+03  0.18250000000E+03  0.00000000000E+00 0.  1.
         11   -1    0    0    0    0 -0.00000000000E+00 -0.00000000000E+00 -0.18250000000E+03  0.18250000000E+03  0.00000000000E+00 0. -1.
        -11    1    1    2    0    0  0.54515174670E+00 -0.24457467162E+01  0.18212336845E+03  0.18214060559E+03  0.00000000000E+00 0.  1.
         11    1    1    2    0    0 -0.18045507815E+01  0.32158911552E+01 -0.16611298257E+03  0.16615390859E+03  0.00000000000E+00 0. -1.
        -15    1    1    2    0    0  0.43595502339E+00 -0.17884935003E+01 -0.88731897844E+01  0.92347166569E+01  0.17770000000E+01 0. -1.
         15    1    1    2    0    0  0.82344401140E+00  0.10183490612E+01 -0.71371960959E+01  0.74707691681E+01  0.17770000000E+01 0.  1.
</event>
<event>
 6    1  0.1196607E-002  0.1835671E+03  0.7546771E-02  0.1067609E+00
        -11   -1    0    0    0    0  0.00000000000E+00  0.00000000000E+00  0.18250000000E+03  0.18250000000E+03  0.00000000000E+00 0. -1.
         11   -1    0    0    0    0 -0.00000000000E+00 -0.00000000000E+00 -0.18250000000E+03  0.18250000000E+03  0.00000000000E+00 0.  1.
        -11    1    1    2    0    0  0.15165054470E+00  0.27353364865E+01  0.13504617257E+03  0.13507395674E+03  0.00000000000E+00 0. -1.
         11    1    1    2    0    0 -0.50738089466E+01  0.19630382560E+01 -0.18135128212E+03  0.18143286522E+03  0.00000000000E+00 0.  1.
        -15    1    1    2    0    0  0.37585094821E+01 -0.19786869316E+00  0.36116618454E+01  0.55106601993E+01  0.17770000000E+01 0.  1.
         15    1    1    2    0    0  0.11636489199E+01 -0.45005060494E+01  0.42693447702E+02  0.42982517832E+02  0.17770000000E+01 0. -1.
</event>
<event>
 6    1  0.1196607E-002  0.1680928E+03  0.7546771E-02  0.1080539E+00
        -11   -1    0    0    0    0  0.00000000000E+00  0.00000000000E+00  0.18250000000E+03  0.18250000000E+03  0.00000000000E+00 0. -1.
         11   -1    0    0    0    0 -0.00000000000E+00 -0.00000000000E+00 -0.18250000000E+03  0.18250000000E+03  0.00000000000E+00 0. -1.
        -11    1    1    2    0    0  0.40068306223E+01 -0.12894948665E+01  0.16669056976E+03  0.16674370613E+03  0.00000000000E+00 0. -1.
         11    1    1    2    0    0 -0.81168134423E+01  0.11191315035E+02 -0.16905679609E+03  0.16962113223E+03  0.00000000000E+00 0. -1.
        -15    1    1    2    0    0  0.12426789861E+02 -0.69355177227E+01 -0.67228088225E+01  0.15839204519E+02  0.17770000000E+01 0.  1.
         15    1    1    2    0    0 -0.83168070411E+01 -0.29663024463E+01  0.90890351580E+01  0.12795957122E+02  0.17770000000E+01 0. -1.
</event>
<event>
 6    1  0.1196607E-002  0.1835454E+03  0.7546771E-02  0.1067626E+00
        -11   -1    0    0    0    0  0.00000000000E+00  0.00000000000E+00  0.18250000000E+03  0.18250000000E+03  0.00000000000E+00 0.  1.
         11   -1    0    0    0    0 -0.00000000000E+00 -0.00000000000E+00 -0.18250000000E+03  0.18250000000E+03  0.00000000000E+00 0. -1.
        -11    1    1    2    0    0 -0.49364587444E+01  0.17858421955E+01  0.10252467641E+03  0.10265898465E+03  0.00000000000E+00 0.  1.
         11    1    1    2    0    0  0.40634062131E+01  0.95719116278E+00 -0.18140658573E+03  0.18145461369E+03  0.00000000000E+00 0. -1.
        -15    1    1    2    0    0 -0.74589311840E+01 -0.48025689656E+01  0.43959065491E+02  0.44880480066E+02  0.17770000000E+01 0. -1.
         15    1    1    2    0    0  0.83319837154E+01  0.20595356073E+01  0.34922843828E+02  0.36005921590E+02  0.17770000000E+01 0.  1.
</event>
<event>
 6    1  0.1196607E-002  0.1889284E+03  0.7546771E-02  0.1063450E+00
        -11   -1    0    0    0    0  0.00000000000E+00  0.00000000000E+00  0.18250000000E+03  0.18250000000E+03  0.00000000000E+00 0. -1.
         11   -1    0    0    0    0 -0.00000000000E+00 -0.00000000000E+00 -0.18250000000E+03  0.18250000000E+03  0.00000000000E+00 0. -1.
        -11    1    1    2    0    0 -0.32117364648E+01 -0.12141753256E+02  0.16337042685E+03  0.16385247570E+03  0.00000000000E+00 0. -1.
         11    1    1    2    0    0 -0.81059134527E+00  0.53738179397E+01 -0.17598766767E+03  0.17607155974E+03  0.00000000000E+00 0. -1.
        -15    1    1    2    0    0  0.60458018926E+01 -0.38528441301E+01 -0.11561321066E+01  0.74759948410E+01  0.17770000000E+01 0. -1.
         15    1    1    2    0    0 -0.20234740824E+01  0.10620779446E+02  0.13773372925E+02  0.17599969720E+02  0.17770000000E+01 0.  1.
</event>
<event>
 6    1  0.1196607E-002  0.1886354E+03  0.7546771E-02  0.1063673E+00
        -11   -1    0    0    0    0  0.00000000000E+00  0.00000000000E+00  0.18250000000E+03  0.18250000000E+03  0.00000000000E+00 0. -1.
         11   -1    0    0    0    0 -0.00000000000E+00 -0.00000000000E+00 -0.18250000000E+03  0.18250000000E+03  0.00000000000E+00 0. -1.
        -11    1    1    2    0    0 -0.38234878458E+01 -0.64907954508E+00  0.15394643524E+03  0.15399527683E+03  0.00000000000E+00 0. -1.
         11    1    1    2    0    0 -0.55285855023E+01 -0.21213803365E+00 -0.17627776840E+03  0.17636457096E+03  0.00000000000E+00 0. -1.
        -15    1    1    2    0    0  0.43878693903E+01  0.11760342885E+01 -0.48924334816E+01  0.69086966069E+01  0.17770000000E+01 0. -1.
         15    1    1    2    0    0  0.49642039579E+01 -0.31481670972E+00  0.27223766637E+02  0.27731455595E+02  0.17770000000E+01 0. -1.
</event>
<event>
 6    1  0.1196607E-002  0.1755912E+03  0.7546771E-02  0.1074091E+00
        -11   -1    0    0    0    0  0.00000000000E+00  0.00000000000E+00  0.18250000000E+03  0.18250000000E+03  0.00000000000E+00 0. -1.
         11   -1    0    0    0    0 -0.00000000000E+00 -0.00000000000E+00 -0.18250000000E+03  0.18250000000E+03  0.00000000000E+00 0. -1.
        -11    1    1    2    0    0  0.32582944902E+01 -0.31285816265E+00  0.17662755780E+03  0.17665788558E+03  0.00000000000E+00 0. -1.
         11    1    1    2    0    0  0.89669131801E+00 -0.48650047634E+01 -0.17452350535E+03  0.17459360311E+03  0.00000000000E+00 0. -1.
        -15    1    1    2    0    0  0.11344517949E+01  0.50782303938E+01 -0.50256520327E+01  0.74491819794E+01  0.17770000000E+01 0.  1.
         15    1    1    2    0    0 -0.52894376031E+01  0.99632532291E-01  0.29215995826E+01  0.62993293230E+01  0.17770000000E+01 0.  1.
</event>
<event>
 6    1  0.1196607E-002  0.1839759E+03  0.7546771E-02  0.1067286E+00
        -11   -1    0    0    0    0  0.00000000000E+00  0.00000000000E+00  0.18250000000E+03  0.18250000000E+03  0.00000000000E+00 0. -1.
         11   -1    0    0    0    0 -0.00000000000E+00 -0.00000000000E+00 -0.18250000000E+03  0.18250000000E+03  0.00000000000E+00 0.  1.
        -11    1    1    2    0    0 -0.17800543879E-02 -0.31914886929E+01  0.18099594394E+03  0.18102407941E+03  0.00000000000E+00 0. -1.
         11    1    1    2    0    0  0.44123678696E+00  0.44861981085E+01 -0.16440518495E+03  0.16446697390E+03  0.00000000000E+00 0.  1.
        -15    1    1    2    0    0  0.29723122647E+01 -0.41237366330E+01 -0.10164601595E+02  0.11502899574E+02  0.17770000000E+01 0. -1.
         15    1    1    2    0    0 -0.34117689973E+01  0.28290272174E+01 -0.64261573916E+01  0.80060471213E+01  0.17770000000E+01 0.  1.
</event>
<event>
 6    1  0.1196607E-002  0.1966078E+03  0.7546771E-02  0.1057749E+00
        -11   -1    0    0    0    0  0.00000000000E+00  0.00000000000E+00  0.18250000000E+03  0.18250000000E+03  0.00000000000E+00 0.  1.
         11   -1    0    0    0    0 -0.00000000000E+00 -0.00000000000E+00 -0.18250000000E+03  0.18250000000E+03  0.00000000000E+00 0.  1.
        -11    1    1    2    0    0  0.39514942126E+01 -0.20209764022E+02  0.16712839115E+03  0.16839224446E+03  0.00000000000E+00 0.  1.
         11    1    1    2    0    0 -0.81761398207E+01 -0.10175393137E+02 -0.14493873292E+03  0.14552533864E+03  0.00000000000E+00 0.  1.
        -15    1    1    2    0    0  0.13917011369E+01  0.20362933379E+02  0.56940100358E+01  0.21264180378E+02  0.17770000000E+01 0.  1.
         15    1    1    2    0    0  0.28329444712E+01  0.10022223780E+02 -0.27883668265E+02  0.29818236514E+02  0.17770000000E+01 0. -1.
</event>
<event>
 6    1  0.1196607E-002  0.1839201E+03  0.7546771E-02  0.1067330E+00
        -11   -1    0    0    0    0  0.00000000000E+00  0.00000000000E+00  0.18250000000E+03  0.18250000000E+03  0.00000000000E+00 0.  1.
         11   -1    0    0    0    0 -0.00000000000E+00 -0.00000000000E+00 -0.18250000000E+03  0.18250000000E+03  0.00000000000E+00 0.  1.
        -11    1    1    2    0    0 -0.15538000481E+01  0.98267294236E+01  0.11279401367E+03  0.11323192317E+03  0.00000000000E+00 0.  1.
         11    1    1    2    0    0 -0.61814366541E+01 -0.89194023649E+00 -0.18097215317E+03  0.18107988828E+03  0.00000000000E+00 0.  1.
        -15    1    1    2    0    0  0.51763563627E+01 -0.11494738518E+02  0.62117704160E+02  0.63408915603E+02  0.17770000000E+01 0.  1.
         15    1    1    2    0    0  0.25588803396E+01  0.25599493310E+01  0.60604353367E+01  0.72792729472E+01  0.17770000000E+01 0. -1.
</event>
<event>
 6    1  0.1196607E-002  0.1885753E+03  0.7546771E-02  0.1063719E+00
        -11   -1    0    0    0    0  0.00000000000E+00  0.00000000000E+00  0.18250000000E+03  0.18250000000E+03  0.00000000000E+00 0.  1.
         11   -1    0    0    0    0 -0.00000000000E+00 -0.00000000000E+00 -0.18250000000E+03  0.18250000000E+03  0.00000000000E+00 0. -1.
        -11    1    1    2    0    0  0.13269792368E+01 -0.20077563278E+01  0.16198410588E+03  0.16200198307E+03  0.00000000000E+00 0.  1.
         11    1    1    2    0    0  0.14577713042E+01 -0.21173575112E+01 -0.17640598781E+03  0.17642471719E+03  0.00000000000E+00 0. -1.
        -15    1    1    2    0    0 -0.11923766831E+02 -0.19164903763E+00  0.78152031724E+01  0.14368301027E+02  0.17770000000E+01 0. -1.
         15    1    1    2    0    0  0.91390162897E+01  0.43167628766E+01  0.66066787576E+01  0.12204998717E+02  0.17770000000E+01 0.  1.
</event>
<event>
 6    1  0.1196607E-002  0.1847770E+03  0.7546771E-02  0.1066657E+00
        -11   -1    0    0    0    0  0.00000000000E+00  0.00000000000E+00  0.18250000000E+03  0.18250000000E+03  0.00000000000E+00 0.  1.
         11   -1    0    0    0    0 -0.00000000000E+00 -0.00000000000E+00 -0.18250000000E+03  0.18250000000E+03  0.00000000000E+00 0. -1.
        -11    1    1    2    0    0 -0.43500310132E+01 -0.64728814313E-02  0.16332018135E+03  0.16337810272E+03  0.00000000000E+00 0.  1.
         11    1    1    2    0    0 -0.23968222249E+01 -0.64834149872E+00 -0.18020590493E+03  0.18022300984E+03  0.00000000000E+00 0. -1.
        -15    1    1    2    0    0  0.66086622347E+01  0.44757772572E+01  0.74414556157E+01  0.11056219484E+02  0.17770000000E+01 0. -1.
         15    1    1    2    0    0  0.13819100346E+00 -0.38209628770E+01  0.94442679689E+01  0.10342667960E+02  0.17770000000E+01 0.  1.
</event>
<event>
 6    1  0.1196607E-002  0.1838784E+03  0.7546771E-02  0.1067363E+00
        -11   -1    0    0    0    0  0.00000000000E+00  0.00000000000E+00  0.18250000000E+03  0.18250000000E+03  0.00000000000E+00 0.  1.
         11   -1    0    0    0    0 -0.00000000000E+00 -0.00000000000E+00 -0.18250000000E+03  0.18250000000E+03  0.00000000000E+00 0.  1.
        -11    1    1    2    0    0 -0.25407505115E+01 -0.24701843593E+01  0.17586629290E+03  0.17590199033E+03  0.00000000000E+00 0.  1.
         11    1    1    2    0    0  0.30098515756E+01 -0.12227013080E+01 -0.18109242930E+03  0.18112156734E+03  0.00000000000E+00 0.  1.
        -15    1    1    2    0    0  0.38436637350E+00  0.10200272443E+01  0.40751934023E+00  0.21241454990E+01  0.17770000000E+01 0. -1.
         15    1    1    2    0    0 -0.85346743763E+00  0.26728584230E+01  0.48186170653E+01  0.58522968345E+01  0.17770000000E+01 0.  1.
</event>
<event>
 6    1  0.1196607E-002  0.1856800E+03  0.7546771E-02  0.1065951E+00
        -11   -1    0    0    0    0  0.00000000000E+00  0.00000000000E+00  0.18250000000E+03  0.18250000000E+03  0.00000000000E+00 0.  1.
         11   -1    0    0    0    0 -0.00000000000E+00 -0.00000000000E+00 -0.18250000000E+03  0.18250000000E+03  0.00000000000E+00 0. -1.
        -11    1    1    2    0    0  0.13710142061E+00 -0.15020173112E+01  0.10384007339E+03  0.10385102645E+03  0.00000000000E+00 0.  1.
         11    1    1    2    0    0 -0.22283500660E+02  0.11658315360E+01 -0.17792627608E+03  0.17932003035E+03  0.00000000000E+00 0. -1.
        -15    1    1    2    0    0  0.23446955388E+02 -0.28374951447E-01  0.32139671314E+02  0.39823067728E+02  0.17770000000E+01 0. -1.
         15    1    1    2    0    0 -0.13005561486E+01  0.36456072663E+00  0.41946531373E+02  0.42005875470E+02  0.17770000000E+01 0.  1.
</event>
<event>
 6    1  0.1196607E-002  0.1879239E+03  0.7546771E-02  0.1064218E+00
        -11   -1    0    0    0    0  0.00000000000E+00  0.00000000000E+00  0.18250000000E+03  0.18250000000E+03  0.00000000000E+00 0.  1.
         11   -1    0    0    0    0 -0.00000000000E+00 -0.00000000000E+00 -0.18250000000E+03  0.18250000000E+03  0.00000000000E+00 0.  1.
        -11    1    1    2    0    0 -0.10924332384E+02  0.15946705179E+01  0.17673165378E+03  0.17707614594E+03  0.00000000000E+00 0.  1.
         11    1    1    2    0    0 -0.84845246547E+01  0.16594700820E+00 -0.15444988979E+03  0.15468284699E+03  0.00000000000E+00 0.  1.
        -15    1    1    2    0    0  0.18287856398E+01 -0.29632148309E+01  0.95511417346E+00  0.40243100197E+01  0.17770000000E+01 0.  1.
         15    1    1    2    0    0  0.17580071399E+02  0.12025973049E+01 -0.23236878168E+02  0.29216697052E+02  0.17770000000E+01 0. -1.
</event>
<event>
 6    1  0.1196607E-002  0.1867425E+03  0.7546771E-02  0.1065127E+00
        -11   -1    0    0    0    0  0.00000000000E+00  0.00000000000E+00  0.18250000000E+03  0.18250000000E+03  0.00000000000E+00 0. -1.
         11   -1    0    0    0    0 -0.00000000000E+00 -0.00000000000E+00 -0.18250000000E+03  0.18250000000E+03  0.00000000000E+00 0. -1.
        -11    1    1    2    0    0 -0.58444719999E+01  0.48009409281E+00  0.15089632023E+03  0.15101022417E+03  0.00000000000E+00 0. -1.
         11    1    1    2    0    0 -0.24595102607E+01  0.13235359816E+01 -0.17823561352E+03  0.17825749595E+03  0.00000000000E+00 0. -1.
        -15    1    1    2    0    0  0.12658694729E+02  0.58106551685E+01  0.17352540611E+02  0.22322066670E+02  0.17770000000E+01 0. -1.
         15    1    1    2    0    0 -0.43547124686E+01 -0.76142852429E+01  0.99867526735E+01  0.13410213213E+02  0.17770000000E+01 0.  1.
</event>
<event>
 6    1  0.1196607E-002  0.1691397E+03  0.7546771E-02  0.1079617E+00
        -11   -1    0    0    0    0  0.00000000000E+00  0.00000000000E+00  0.18250000000E+03  0.18250000000E+03  0.00000000000E+00 0. -1.
         11   -1    0    0    0    0 -0.00000000000E+00 -0.00000000000E+00 -0.18250000000E+03  0.18250000000E+03  0.00000000000E+00 0. -1.
        -11    1    1    2    0    0 -0.12219727913E+01  0.27281957910E+01  0.16941814817E+03  0.16944451953E+03  0.00000000000E+00 0. -1.
         11    1    1    2    0    0  0.13735567168E+02 -0.76163530607E+01 -0.16837219233E+03  0.16910313359E+03  0.00000000000E+00 0. -1.
        -15    1    1    2    0    0 -0.99626293372E+01  0.51833346739E+01 -0.11120909003E+02  0.15904505264E+02  0.17770000000E+01 0.  1.
         15    1    1    2    0    0 -0.25509650399E+01 -0.29517740425E+00  0.10074953169E+02  0.10547841613E+02  0.17770000000E+01 0. -1.
</event>
<event>
 6    1  0.1196607E-002  0.1859954E+03  0.7546771E-02  0.1065706E+00
        -11   -1    0    0    0    0  0.00000000000E+00  0.00000000000E+00  0.18250000000E+03  0.18250000000E+03  0.00000000000E+00 0. -1.
         11   -1    0    0    0    0 -0.00000000000E+00 -0.00000000000E+00 -0.18250000000E+03  0.18250000000E+03  0.00000000000E+00 0. -1.
        -11    1    1    2    0    0  0.50074838357E+01  0.37231089454E+01  0.16981560570E+03  0.16993021030E+03  0.00000000000E+00 0. -1.
         11    1    1    2    0    0  0.41466564812E+00 -0.27165966656E+01 -0.17898349256E+03  0.17900458781E+03  0.00000000000E+00 0. -1.
        -15    1    1    2    0    0  0.27447135918E+01  0.83215420668E+00  0.61059323765E+01  0.69761072606E+01  0.17770000000E+01 0. -1.
         15    1    1    2    0    0 -0.81668630756E+01 -0.18386664865E+01  0.30619544908E+01  0.90890946331E+01  0.17770000000E+01 0.  1.
</event>
<event>
 6    1  0.1196607E-002  0.1861334E+03  0.7546771E-02  0.1065599E+00
        -11   -1    0    0    0    0  0.00000000000E+00  0.00000000000E+00  0.18250000000E+03  0.18250000000E+03  0.00000000000E+00 0.  1.
         11   -1    0    0    0    0 -0.00000000000E+00 -0.00000000000E+00 -0.18250000000E+03  0.18250000000E+03  0.00000000000E+00 0. -1.
        -11    1    1    2    0    0 -0.80461264373E+00  0.17636765466E+02  0.17799315433E+03  0.17886661478E+03  0.00000000000E+00 0.  1.
         11    1    1    2    0    0 -0.15042585148E+01  0.27900788762E+00 -0.99695336026E+02  0.99707074294E+02  0.00000000000E+00 0. -1.
        -15    1    1    2    0    0 -0.10631010261E+01 -0.25477629458E+02 -0.70201832891E+02  0.74710741241E+02  0.17770000000E+01 0.  1.
         15    1    1    2    0    0  0.33719721846E+01  0.75618561043E+01 -0.80959854096E+01  0.11715569679E+02  0.17770000000E+01 0. -1.
</event>
<event>
 6    1  0.1196607E-002  0.1840831E+03  0.7546771E-02  0.1067202E+00
        -11   -1    0    0    0    0  0.00000000000E+00  0.00000000000E+00  0.18250000000E+03  0.18250000000E+03  0.00000000000E+00 0. -1.
         11   -1    0    0    0    0 -0.00000000000E+00 -0.00000000000E+00 -0.18250000000E+03  0.18250000000E+03  0.00000000000E+00 0.  1.
        -11    1    1    2    0    0 -0.97021336871E+01  0.31655054021E+01  0.18062880503E+03  0.18091687879E+03  0.00000000000E+00 0. -1.
         11    1    1    2    0    0  0.31539535260E+01  0.69667133226E+01 -0.11668143108E+03  0.11693177018E+03  0.00000000000E+00 0.  1.
        -15    1    1    2    0    0 -0.14859208341E+01 -0.91823410552E+01 -0.50326479199E+02  0.51209721593E+02  0.17770000000E+01 0. -1.
         15    1    1    2    0    0  0.80341009952E+01 -0.94987766956E+00 -0.13620894754E+02  0.15941629442E+02  0.17770000000E+01 0.  1.
</event>
<event>
 6    1  0.1196607E-002  0.1835602E+03  0.7546771E-02  0.1067614E+00
        -11   -1    0    0    0    0  0.00000000000E+00  0.00000000000E+00  0.18250000000E+03  0.18250000000E+03  0.00000000000E+00 0. -1.
         11   -1    0    0    0    0 -0.00000000000E+00 -0.00000000000E+00 -0.18250000000E+03  0.18250000000E+03  0.00000000000E+00 0.  1.
        -11    1    1    2    0    0 -0.39872193795E+01  0.45747641612E+00  0.18139537990E+03  0.18143977252E+03  0.00000000000E+00 0. -1.
         11    1    1    2    0    0 -0.22552934236E+01  0.39478696911E+01 -0.15380743461E+03  0.15387462093E+03  0.00000000000E+00 0.  1.
        -15    1    1    2    0    0  0.14389245535E+01 -0.18012758650E+01 -0.21814786189E+01  0.36375371582E+01  0.17770000000E+01 0. -1.
         15    1    1    2    0    0  0.48035882496E+01 -0.26040702423E+01 -0.25406466668E+02  0.26048069399E+02  0.17770000000E+01 0.  1.
</event>
<event>
 6    1  0.1196607E-002  0.1879109E+03  0.7546771E-02  0.1064228E+00
        -11   -1    0    0    0    0  0.00000000000E+00  0.00000000000E+00  0.18250000000E+03  0.18250000000E+03  0.00000000000E+00 0.  1.
         11   -1    0    0    0    0 -0.00000000000E+00 -0.00000000000E+00 -0.18250000000E+03  0.18250000000E+03  0.00000000000E+00 0.  1.
        -11    1    1    2    0    0  0.20396563465E+01 -0.29450056903E+01  0.17705291128E+03  0.17708914887E+03  0.00000000000E+00 0.  1.
         11    1    1    2    0    0 -0.73265364707E+01 -0.49326379544E+00 -0.14166690184E+03  0.14185708485E+03  0.00000000000E+00 0.  1.
        -15    1    1    2    0    0 -0.85439768950E+01  0.38179862531E+00 -0.96307919204E+00  0.87880920514E+01  0.17770000000E+01 0. -1.
         15    1    1    2    0    0  0.13830857019E+02  0.30564708605E+01 -0.34422930247E+02  0.37265674230E+02  0.17770000000E+01 0.  1.
</event>
<event>
 6    1  0.1196607E-002  0.1860236E+03  0.7546771E-02  0.1065684E+00
        -11   -1    0    0    0    0  0.00000000000E+00  0.00000000000E+00  0.18250000000E+03  0.18250000000E+03  0.00000000000E+00 0. -1.
         11   -1    0    0    0    0 -0.00000000000E+00 -0.00000000000E+00 -0.18250000000E+03  0.18250000000E+03  0.00000000000E+00 0.  1.
        -11    1    1    2    0    0 -0.27297120335E+01  0.19355281057E+01  0.17894508961E+03  0.17897637468E+03  0.00000000000E+00 0. -1.
         11    1    1    2    0    0 -0.16994491920E+00 -0.25866373924E+01 -0.17676530261E+03  0.17678430863E+03  0.00000000000E+00 0.  1.
        -15    1    1    2    0    0  0.91698203768E+00  0.14833442453E+00  0.28743882339E+01  0.35046677272E+01  0.17770000000E+01 0. -1.
         15    1    1    2    0    0  0.19826749150E+01  0.50277486216E+00 -0.50541752381E+01  0.57346489621E+01  0.17770000000E+01 0. -1.
</event>
<event>
 6    1  0.1196607E-002  0.1756515E+03  0.7546771E-02  0.1074041E+00
        -11   -1    0    0    0    0  0.00000000000E+00  0.00000000000E+00  0.18250000000E+03  0.18250000000E+03  0.00000000000E+00 0. -1.
         11   -1    0    0    0    0 -0.00000000000E+00 -0.00000000000E+00 -0.18250000000E+03  0.18250000000E+03  0.00000000000E+00 0.  1.
        -11    1    1    2    0    0  0.15485219381E+01  0.34292570501E+01  0.17611204184E+03  0.17615223247E+03  0.00000000000E+00 0. -1.
         11    1    1    2    0    0 -0.11107357894E-01  0.61619256462E+01 -0.17517800956E+03  0.17528634997E+03  0.00000000000E+00 0.  1.
        -15    1    1    2    0    0  0.11822700286E+01 -0.83589330393E+01 -0.34292425188E+01  0.92836930813E+01  0.17770000000E+01 0. -1.
         15    1    1    2    0    0 -0.27196846088E+01 -0.12322496571E+01  0.24952102378E+01  0.42777244791E+01  0.17770000000E+01 0.  1.
</event>
<event>
 6    1  0.1196607E-002  0.1912346E+03  0.7546771E-02  0.1061707E+00
        -11   -1    0    0    0    0  0.00000000000E+00  0.00000000000E+00  0.18250000000E+03  0.18250000000E+03  0.00000000000E+00 0. -1.
         11   -1    0    0    0    0 -0.00000000000E+00 -0.00000000000E+00 -0.18250000000E+03  0.18250000000E+03  0.00000000000E+00 0. -1.
        -11    1    1    2    0    0  0.58540307758E+00  0.30842223584E+01  0.17373700374E+03  0.17376536361E+03  0.00000000000E+00 0. -1.
         11    1    1    2    0    0 -0.32787824533E+01 -0.10383031734E+01 -0.17138881818E+03  0.17142332246E+03  0.00000000000E+00 0. -1.
        -15    1    1    2    0    0  0.10848276728E+02 -0.37131726394E-01 -0.35646451994E+00  0.10998694590E+02  0.17770000000E+01 0.  1.
         15    1    1    2    0    0 -0.81548973519E+01 -0.20087874586E+01 -0.19917210397E+01  0.88126193368E+01  0.17770000000E+01 0. -1.
</event>
<event>
 6    1  0.1196607E-002  0.2000526E+03  0.7546771E-02  0.1055282E+00
        -11   -1    0    0    0    0  0.00000000000E+00  0.00000000000E+00  0.18250000000E+03  0.18250000000E+03  0.00000000000E+00 0.  1.
         11   -1    0    0    0    0 -0.00000000000E+00 -0.00000000000E+00 -0.18250000000E+03  0.18250000000E+03  0.00000000000E+00 0. -1.
        -11    1    1    2    0    0 -0.53822065589E+00 -0.25441684405E+01  0.16492686429E+03  0.16494736445E+03  0.00000000000E+00 0.  1.
         11    1    1    2    0    0  0.67439721583E+01  0.20674807432E+02 -0.14749193604E+03  0.14908655211E+03  0.00000000000E+00 0. -1.
        -15    1    1    2    0    0 -0.89528383716E+01  0.12377073294E+02  0.57288502667E+00  0.15389320469E+02  0.17770000000E+01 0.  1.
         15    1    1    2    0    0  0.27470868692E+01 -0.30507712285E+02 -0.18007813278E+02  0.35576762967E+02  0.17770000000E+01 0. -1.
</event>
<event>
 6    1  0.1196607E-002  0.1827340E+03  0.7546771E-02  0.1068269E+00
        -11   -1    0    0    0    0  0.00000000000E+00  0.00000000000E+00  0.18250000000E+03  0.18250000000E+03  0.00000000000E+00 0. -1.
         11   -1    0    0    0    0 -0.00000000000E+00 -0.00000000000E+00 -0.18250000000E+03  0.18250000000E+03  0.00000000000E+00 0.  1.
        -11    1    1    2    0    0  0.22618415152E+01 -0.65374964586E+01  0.18213471701E+03  0.18226604162E+03  0.00000000000E+00 0. -1.
         11    1    1    2    0    0  0.11478372730E+01 -0.78470576172E-01 -0.99109335531E+01  0.99774892599E+01  0.00000000000E+00 0.  1.
        -15    1    1    2    0    0 -0.94330211772E+00 -0.14279484835E+01 -0.98807926007E+02  0.98838721291E+02  0.17770000000E+01 0.  1.
         15    1    1    2    0    0 -0.24663766704E+01  0.80439155183E+01 -0.73415857448E+02  0.73917747832E+02  0.17770000000E+01 0.  1.
</event>
<event>
 6    1  0.1196607E-002  0.1873221E+03  0.7546771E-02  0.1064680E+00
        -11   -1    0    0    0    0  0.00000000000E+00  0.00000000000E+00  0.18250000000E+03  0.18250000000E+03  0.00000000000E+00 0.  1.
         11   -1    0    0    0    0 -0.00000000000E+00 -0.00000000000E+00 -0.18250000000E+03  0.18250000000E+03  0.00000000000E+00 0.  1.
        -11    1    1    2    0    0  0.18516985733E+01  0.16199849021E+01  0.15014575971E+03  0.15016591590E+03  0.00000000000E+00 0.  1.
         11    1    1    2    0    0  0.24675796784E+01 -0.12189814376E+01 -0.17765655457E+03  0.17767787213E+03  0.00000000000E+00 0.  1.
        -15    1    1    2    0    0 -0.99100497840E+01 -0.96755567859E+01  0.16403264191E+02  0.21541826546E+02  0.17770000000E+01 0. -1.
         15    1    1    2    0    0  0.55907715322E+01  0.92745533214E+01  0.11107530668E+02  0.15614385424E+02  0.17770000000E+01 0.  1.
</event>
<event>
 6    1  0.1196607E-002  0.1826593E+03  0.7546771E-02  0.1068328E+00
        -11   -1    0    0    0    0  0.00000000000E+00  0.00000000000E+00  0.18250000000E+03  0.18250000000E+03  0.00000000000E+00 0. -1.
         11   -1    0    0    0    0 -0.00000000000E+00 -0.00000000000E+00 -0.18250000000E+03  0.18250000000E+03  0.00000000000E+00 0. -1.
        -11    1    1    2    0    0  0.11466520509E+00 -0.39881140467E+01  0.18229705912E+03  0.18234071396E+03  0.00000000000E+00 0. -1.
         11    1    1    2    0    0  0.33393137816E+01 -0.39455604584E+00 -0.67665199409E+02  0.67748696682E+02  0.00000000000E+00 0. -1.
        -15    1    1    2    0    0 -0.42032260046E+01  0.38085539446E+01 -0.90503691195E+02  0.90698666147E+02  0.17770000000E+01 0. -1.
         15    1    1    2    0    0  0.74924701789E+00  0.57411614788E+00 -0.24128168520E+02  0.24211923211E+02  0.17770000000E+01 0.  1.
</event>
<event>
 6    1  0.1196607E-002  0.1847854E+03  0.7546771E-02  0.1066650E+00
        -11   -1    0    0    0    0  0.00000000000E+00  0.00000000000E+00  0.18250000000E+03  0.18250000000E+03  0.00000000000E+00 0.  1.
         11   -1    0    0    0    0 -0.00000000000E+00 -0.00000000000E+00 -0.18250000000E+03  0.18250000000E+03  0.00000000000E+00 0. -1.
        -11    1    1    2    0    0 -0.59614251255E+00  0.29239221535E+01  0.18018993622E+03  0.18021464374E+03  0.00000000000E+00 0.  1.
         11    1    1    2    0    0  0.38272759972E+01 -0.14931034179E+01 -0.16655642139E+03  0.16660707939E+03  0.00000000000E+00 0. -1.
        -15    1    1    2    0    0 -0.60502466428E+01 -0.30297075821E+01 -0.12478637063E+02  0.14305898239E+02  0.17770000000E+01 0. -1.
         15    1    1    2    0    0  0.28191131581E+01  0.15988888465E+01 -0.11548777672E+01  0.38723786228E+01  0.17770000000E+01 0.  1.
</event>
<event>
 6    1  0.1196607E-002  0.1871633E+03  0.7546771E-02  0.1064802E+00
        -11   -1    0    0    0    0  0.00000000000E+00  0.00000000000E+00  0.18250000000E+03  0.18250000000E+03  0.00000000000E+00 0.  1.
         11   -1    0    0    0    0 -0.00000000000E+00 -0.00000000000E+00 -0.18250000000E+03  0.18250000000E+03  0.00000000000E+00 0. -1.
        -11    1    1    2    0    0 -0.43385662028E+01  0.33850846520E+01  0.11009176725E+03  0.11022921197E+03  0.00000000000E+00 0.  1.
         11    1    1    2    0    0  0.78598663123E+00 -0.45804506668E+01 -0.17777595972E+03  0.17783669519E+03  0.00000000000E+00 0. -1.
        -15    1    1    2    0    0  0.30867332016E+01 -0.54257389953E+01  0.69519636689E+02  0.69821946263E+02  0.17770000000E+01 0.  1.
         15    1    1    2    0    0  0.46584636998E+00  0.66211050102E+01 -0.18354442220E+01  0.71121465739E+01  0.17770000000E+01 0. -1.
</event>
<event>
 6    1  0.1196607E-002  0.1777745E+03  0.7546771E-02  0.1072280E+00
        -11   -1    0    0    0    0  0.00000000000E+00  0.00000000000E+00  0.18250000000E+03  0.18250000000E+03  0.00000000000E+00 0.  1.
         11   -1    0    0    0    0 -0.00000000000E+00 -0.00000000000E+00 -0.18250000000E+03  0.18250000000E+03  0.00000000000E+00 0. -1.
        -11    1    1    2    0    0 -0.39900666121E+01 -0.71652741567E+01  0.18158485527E+03  0.18176996850E+03  0.00000000000E+00 0.  1.
         11    1    1    2    0    0 -0.47079516561E+00 -0.48838832929E+00 -0.10622718939E+02  0.10644356669E+02  0.00000000000E+00 0. -1.
        -15    1    1    2    0    0  0.10022665538E+02  0.97170932956E+01 -0.68179236103E+02  0.69616389530E+02  0.17770000000E+01 0.  1.
         15    1    1    2    0    0 -0.55618037605E+01 -0.20634308095E+01 -0.10278290023E+03  0.10296928530E+03  0.17770000000E+01 0. -1.
</event>
<event>
 6    1  0.1196607E-002  0.1836700E+03  0.7546771E-02  0.1067527E+00
        -11   -1    0    0    0    0  0.00000000000E+00  0.00000000000E+00  0.18250000000E+03  0.18250000000E+03  0.00000000000E+00 0. -1.
         11   -1    0    0    0    0 -0.00000000000E+00 -0.00000000000E+00 -0.18250000000E+03  0.18250000000E+03  0.00000000000E+00 0. -1.
        -11    1    1    2    0    0  0.58765401678E+01  0.22670381903E+01  0.18122052866E+03  0.18132995669E+03  0.00000000000E+00 0. -1.
         11    1    1    2    0    0  0.23060085523E+01  0.71703540068E+01 -0.13328194858E+03  0.13349460464E+03  0.00000000000E+00 0. -1.
        -15    1    1    2    0    0  0.85301705652E+00 -0.11538285267E+01 -0.10338217127E+02  0.10587512490E+02  0.17770000000E+01 0.  1.
         15    1    1    2    0    0 -0.90355657766E+01 -0.82835636704E+01 -0.37600362953E+02  0.39587926180E+02  0.17770000000E+01 0. -1.
</event>
<event>
 6    1  0.1196607E-002  0.1846205E+03  0.7546771E-02  0.1066779E+00
        -11   -1    0    0    0    0  0.00000000000E+00  0.00000000000E+00  0.18250000000E+03  0.18250000000E+03  0.00000000000E+00 0.  1.
         11   -1    0    0    0    0 -0.00000000000E+00 -0.00000000000E+00 -0.18250000000E+03  0.18250000000E+03  0.00000000000E+00 0. -1.
        -11    1    1    2    0    0  0.26482011006E+01 -0.18940982175E+01  0.18035008513E+03  0.18037947163E+03  0.00000000000E+00 0.  1.
         11    1    1    2    0    0 -0.23926971400E+01 -0.74927434792E+00 -0.17496726526E+03  0.17498522887E+03  0.00000000000E+00 0. -1.
        -15    1    1    2    0    0 -0.33772995821E+01  0.61758206870E+00 -0.27015519617E+01  0.47163197602E+01  0.17770000000E+01 0. -1.
         15    1    1    2    0    0  0.31217956215E+01  0.20257904967E+01 -0.26812679172E+01  0.49189797400E+01  0.17770000000E+01 0.  1.
</event>
<event>
 6    1  0.1196607E-002  0.1917137E+03  0.7546771E-02  0.1061348E+00
        -11   -1    0    0    0    0  0.00000000000E+00  0.00000000000E+00  0.18250000000E+03  0.18250000000E+03  0.00000000000E+00 0. -1.
         11   -1    0    0    0    0 -0.00000000000E+00 -0.00000000000E+00 -0.18250000000E+03  0.18250000000E+03  0.00000000000E+00 0.  1.
        -11    1    1    2    0    0 -0.44177503083E+00  0.20513709653E+01  0.15407382642E+03  0.15408811529E+03  0.00000000000E+00 0. -1.
         11    1    1    2    0    0 -0.19727492776E+01 -0.75259448082E+01 -0.17311151329E+03  0.17328625918E+03  0.00000000000E+00 0.  1.
        -15    1    1    2    0    0 -0.99660903106E+01 -0.52228211080E+01  0.17784475690E+02  0.21119803999E+02  0.17770000000E+01 0. -1.
         15    1    1    2    0    0  0.12380614619E+02  0.10697394951E+02  0.12532111849E+01  0.16505821529E+02  0.17770000000E+01 0.  1.
</event>
<event>
 6    1  0.1196607E-002  0.1835306E+03  0.7546771E-02  0.1067637E+00
        -11   -1    0    0    0    0  0.00000000000E+00  0.00000000000E+00  0.18250000000E+03  0.18250000000E+03  0.00000000000E+00 0.  1.
         11   -1    0    0    0    0 -0.00000000000E+00 -0.00000000000E+00 -0.18250000000E+03  0.18250000000E+03  0.00000000000E+00 0. -1.
        -11    1    1    2    0    0  0.31957464834E+00 -0.29216203361E+01  0.18144556796E+03  0.18146936966E+03  0.00000000000E+00 0.  1.
         11    1    1    2    0    0 -0.50484904456E+01 -0.32165721637E+01 -0.14564550290E+03  0.14576846747E+03  0.00000000000E+00 0. -1.
        -15    1    1    2    0    0 -0.49281558213E+00  0.25799243310E+01 -0.31901375265E+01  0.44981755401E+01  0.17770000000E+01 0.  1.
         15    1    1    2    0    0  0.52217313794E+01  0.35582681688E+01 -0.32609927530E+02  0.33263987336E+02  0.17770000000E+01 0. -1.
</event>
<event>
 6    1  0.1196607E-002  0.1833674E+03  0.7546771E-02  0.1067766E+00
        -11   -1    0    0    0    0  0.00000000000E+00  0.00000000000E+00  0.18250000000E+03  0.18250000000E+03  0.00000000000E+00 0. -1.
         11   -1    0    0    0    0 -0.00000000000E+00 -0.00000000000E+00 -0.18250000000E+03  0.18250000000E+03  0.00000000000E+00 0. -1.
        -11    1    1    2    0    0 -0.14246899920E+01  0.16584612150E+01  0.14241764481E+03  0.14243442627E+03  0.00000000000E+00 0. -1.
         11    1    1    2    0    0 -0.21551674988E+01 -0.37130664963E+01 -0.18158188025E+03  0.18163262605E+03  0.00000000000E+00 0. -1.
        -15    1    1    2    0    0  0.95305835635E+00 -0.14086381586E+01  0.33433917310E+02  0.33524276836E+02  0.17770000000E+01 0. -1.
         15    1    1    2    0    0  0.26267991344E+01  0.34632434400E+01  0.57303181315E+01  0.74086708460E+01  0.17770000000E+01 0. -1.
</event>
<event>
 6    1  0.1196607E-002  0.1872426E+03  0.7546771E-02  0.1064741E+00
        -11   -1    0    0    0    0  0.00000000000E+00  0.00000000000E+00  0.18250000000E+03  0.18250000000E+03  0.00000000000E+00 0.  1.
         11   -1    0    0    0    0 -0.00000000000E+00 -0.00000000000E+00 -0.18250000000E+03  0.18250000000E+03  0.00000000000E+00 0.  1.
        -11    1    1    2    0    0 -0.23576747509E+01  0.14966773386E+01  0.17773548498E+03  0.17775742261E+03  0.00000000000E+00 0.  1.
         11    1    1    2    0    0 -0.27549605241E+01  0.32997226696E+01 -0.17060237282E+03  0.17065651933E+03  0.00000000000E+00 0.  1.
        -15    1    1    2    0    0  0.44235884761E+01 -0.54544071845E+01  0.17702610600E+01  0.74572277664E+01  0.17770000000E+01 0. -1.
         15    1    1    2    0    0  0.68904679886E+00  0.65800717630E+00 -0.89033732151E+01  0.91288302944E+01  0.17770000000E+01 0.  1.
</event>
<event>
 6    1  0.1196607E-002  0.1846033E+03  0.7546771E-02  0.1066793E+00
        -11   -1    0    0    0    0  0.00000000000E+00  0.00000000000E+00  0.18250000000E+03  0.18250000000E+03  0.00000000000E+00 0.  1.
         11   -1    0    0    0    0 -0.00000000000E+00 -0.00000000000E+00 -0.18250000000E+03  0.18250000000E+03  0.00000000000E+00 0. -1.
        -11    1    1    2    0    0 -0.34321069681E+01 -0.54367058659E+01  0.18028207385E+03  0.18039668312E+03  0.00000000000E+00 0.  1.
         11    1    1    2    0    0  0.20108107857E+01 -0.32103762022E+01 -0.15816590563E+03  0.15821126249E+03  0.00000000000E+00 0. -1.
        -15    1    1    2    0    0  0.16879791790E+01  0.30606974480E+01 -0.45185190076E+00  0.39470294801E+01  0.17770000000E+01 0.  1.
         15    1    1    2    0    0 -0.26668299654E+00  0.55863846201E+01 -0.21664316318E+02  0.22445024916E+02  0.17770000000E+01 0. -1.
</event>
<event>
 6    1  0.1196607E-002  0.1833620E+03  0.7546771E-02  0.1067771E+00
        -11   -1    0    0    0    0  0.00000000000E+00  0.00000000000E+00  0.18250000000E+03  0.18250000000E+03  0.00000000000E+00 0. -1.
         11   -1    0    0    0    0 -0.00000000000E+00 -0.00000000000E+00 -0.18250000000E+03  0.18250000000E+03  0.00000000000E+00 0. -1.
        -11    1    1    2    0    0  0.18049312989E+01 -0.36857520557E+01  0.18159167457E+03  0.18163804342E+03  0.00000000000E+00 0. -1.
         11    1    1    2    0    0 -0.15875029181E-02  0.56990975479E+01 -0.11600409553E+03  0.11614400499E+03  0.00000000000E+00 0. -1.
        -15    1    1    2    0    0  0.31960750440E+01 -0.60462759487E+01 -0.45708362159E+02  0.46251318347E+02  0.17770000000E+01 0. -1.
         15    1    1    2    0    0 -0.49994188400E+01  0.40329304566E+01 -0.19879216877E+02  0.20966633241E+02  0.17770000000E+01 0.  1.
</event>
<event>
 6    1  0.1196607E-002  0.1830087E+03  0.7546771E-02  0.1068051E+00
        -11   -1    0    0    0    0  0.00000000000E+00  0.00000000000E+00  0.18250000000E+03  0.18250000000E+03  0.00000000000E+00 0.  1.
         11   -1    0    0    0    0 -0.00000000000E+00 -0.00000000000E+00 -0.18250000000E+03  0.18250000000E+03  0.00000000000E+00 0.  1.
        -11    1    1    2    0    0 -0.39774907462E+00  0.37950909324E+01  0.10298041672E+03  0.10305108998E+03  0.00000000000E+00 0.  1.
         11    1    1    2    0    0 -0.19638292550E+01  0.34754654821E+01 -0.18194751480E+03  0.18199130096E+03  0.00000000000E+00 0.  1.
        -15    1    1    2    0    0  0.14791529125E+01 -0.67084834377E+01  0.26014045815E+02  0.26964420113E+02  0.17770000000E+01 0.  1.
         15    1    1    2    0    0  0.88242541720E+00 -0.56207297677E+00  0.52953052267E+02  0.52993188940E+02  0.17770000000E+01 0.  1.
</event>
<event>
 6    1  0.1196607E-002  0.1832475E+03  0.7546771E-02  0.1067861E+00
        -11   -1    0    0    0    0  0.00000000000E+00  0.00000000000E+00  0.18250000000E+03  0.18250000000E+03  0.00000000000E+00 0.  1.
         11   -1    0    0    0    0 -0.00000000000E+00 -0.00000000000E+00 -0.18250000000E+03  0.18250000000E+03  0.00000000000E+00 0. -1.
        -11    1    1    2    0    0  0.47743014536E+01 -0.15492443269E+01  0.18168321783E+03  0.18175253988E+03  0.00000000000E+00 0.  1.
         11    1    1    2    0    0  0.12132230489E+01  0.32411017521E+01 -0.94328343507E+02  0.94391805998E+02  0.00000000000E+00 0. -1.
        -15    1    1    2    0    0 -0.15358119103E+01 -0.86332022841E-01 -0.79372535792E+02  0.79407325471E+02  0.17770000000E+01 0. -1.
         15    1    1    2    0    0 -0.44517125921E+01 -0.16055254023E+01 -0.79823385322E+01  0.94483286492E+01  0.17770000000E+01 0.  1.
</event>
<event>
 6    1  0.1196607E-002  0.1847955E+03  0.7546771E-02  0.1066642E+00
        -11   -1    0    0    0    0  0.00000000000E+00  0.00000000000E+00  0.18250000000E+03  0.18250000000E+03  0.00000000000E+00 0.  1.
         11   -1    0    0    0    0 -0.00000000000E+00 -0.00000000000E+00 -0.18250000000E+03  0.18250000000E+03  0.00000000000E+00 0. -1.
        -11    1    1    2    0    0 -0.25981205075E-01 -0.27221975327E+01  0.18018390817E+03  0.18020447219E+03  0.00000000000E+00 0.  1.
         11    1    1    2    0    0  0.21316020322E+01  0.28753745843E+01 -0.17048504526E+03  0.17052261481E+03  0.00000000000E+00 0. -1.
        -15    1    1    2    0    0  0.38084917504E+01  0.35640078016E+00 -0.46699857346E+01  0.62927042430E+01  0.17770000000E+01 0. -1.
         15    1    1    2    0    0 -0.59141125775E+01 -0.50957783181E+00 -0.50288771761E+01  0.79802087566E+01  0.17770000000E+01 0.  1.
</event>
<event>
 6    1  0.1196607E-002  0.1952198E+03  0.7546771E-02  0.1058758E+00
        -11   -1    0    0    0    0  0.00000000000E+00  0.00000000000E+00  0.18250000000E+03  0.18250000000E+03  0.00000000000E+00 0.  1.
         11   -1    0    0    0    0 -0.00000000000E+00 -0.00000000000E+00 -0.18250000000E+03  0.18250000000E+03  0.00000000000E+00 0. -1.
        -11    1    1    2    0    0 -0.28040331609E+01 -0.22319896992E+01  0.15530292946E+03  0.15534427662E+03  0.00000000000E+00 0.  1.
         11    1    1    2    0    0  0.38584562212E+01 -0.14685690518E+01 -0.16972999335E+03  0.16978019620E+03  0.00000000000E+00 0. -1.
        -15    1    1    2    0    0  0.58550187142E+01 -0.13115847493E+02 -0.28288257344E+01  0.14746751630E+02  0.17770000000E+01 0. -1.
         15    1    1    2    0    0 -0.69094417744E+01  0.16816406244E+02  0.17255889626E+02  0.25128775545E+02  0.17770000000E+01 0.  1.
</event>
<event>
 6    1  0.1196607E-002  0.1892551E+03  0.7546771E-02  0.1063201E+00
        -11   -1    0    0    0    0  0.00000000000E+00  0.00000000000E+00  0.18250000000E+03  0.18250000000E+03  0.00000000000E+00 0. -1.
         11   -1    0    0    0    0 -0.00000000000E+00 -0.00000000000E+00 -0.18250000000E+03  0.18250000000E+03  0.00000000000E+00 0. -1.
        -11    1    1    2    0    0  0.37988957843E+01  0.57864288949E+01  0.15531915239E+03  0.15547332076E+03  0.00000000000E+00 0. -1.
         11    1    1    2    0    0 -0.98773874726E+01  0.79413407200E+01 -0.17528732929E+03  0.17574491596E+03  0.00000000000E+00 0. -1.
        -15    1    1    2    0    0 -0.32606621704E+01  0.41861040262E+01  0.41584002827E+00  0.56112419870E+01  0.17770000000E+01 0. -1.
         15    1    1    2    0    0  0.93391538587E+01 -0.17913873641E+02  0.19552336879E+02  0.28170521295E+02  0.17770000000E+01 0.  1.
</event>
<event>
 6    1  0.1196607E-002  0.1929022E+03  0.7546771E-02  0.1060464E+00
        -11   -1    0    0    0    0  0.00000000000E+00  0.00000000000E+00  0.18250000000E+03  0.18250000000E+03  0.00000000000E+00 0. -1.
         11   -1    0    0    0    0 -0.00000000000E+00 -0.00000000000E+00 -0.18250000000E+03  0.18250000000E+03  0.00000000000E+00 0. -1.
        -11    1    1    2    0    0 -0.68952809285E+01  0.14964157384E+01  0.16708599171E+03  0.16723490302E+03  0.00000000000E+00 0. -1.
         11    1    1    2    0    0  0.76661337213E+01  0.23407605009E+01 -0.17191106783E+03  0.17209783267E+03  0.00000000000E+00 0. -1.
        -15    1    1    2    0    0 -0.23418098096E+01  0.86742515192E+01 -0.41831078054E+01  0.10068904236E+02  0.17770000000E+01 0. -1.
         15    1    1    2    0    0  0.15709570168E+01 -0.12511427759E+02  0.90081839247E+01  0.15598360078E+02  0.17770000000E+01 0.  1.
</event>
<event>
 6    1  0.1196607E-002  0.1827605E+03  0.7546771E-02  0.1068248E+00
        -11   -1    0    0    0    0  0.00000000000E+00  0.00000000000E+00  0.18250000000E+03  0.18250000000E+03  0.00000000000E+00 0.  1.
         11   -1    0    0    0    0 -0.00000000000E+00 -0.00000000000E+00 -0.18250000000E+03  0.18250000000E+03  0.00000000000E+00 0.  1.
        -11    1    1    2    0    0 -0.92470375756E+00  0.22854629255E+01  0.18222284763E+03  0.18223952540E+03  0.00000000000E+00 0.  1.
         11    1    1    2    0    0 -0.17766176567E+01 -0.10149290492E+01 -0.94687412902E+02  0.94709517015E+02  0.00000000000E+00 0.  1.
        -15    1    1    2    0    0  0.45745813491E+00 -0.24165210498E+01 -0.77340871460E+02  0.77400368017E+02  0.17770000000E+01 0.  1.
         15    1    1    2    0    0  0.22438632794E+01  0.11459871735E+01 -0.10194563268E+02  0.10650589573E+02  0.17770000000E+01 0. -1.
</event>
<event>
 6    1  0.1196607E-002  0.1903243E+03  0.7546771E-02  0.1062392E+00
        -11   -1    0    0    0    0  0.00000000000E+00  0.00000000000E+00  0.18250000000E+03  0.18250000000E+03  0.00000000000E+00 0. -1.
         11   -1    0    0    0    0 -0.00000000000E+00 -0.00000000000E+00 -0.18250000000E+03  0.18250000000E+03  0.00000000000E+00 0.  1.
        -11    1    1    2    0    0 -0.40594799952E+01  0.34522722930E+01  0.17459436340E+03  0.17467566886E+03  0.00000000000E+00 0. -1.
         11    1    1    2    0    0  0.78408917180E+01  0.11383379580E+01 -0.16781116328E+03  0.16799810094E+03  0.00000000000E+00 0.  1.
        -15    1    1    2    0    0  0.94645436240E+00 -0.14574785410E+01  0.69397488157E+01  0.73714219919E+01  0.17770000000E+01 0. -1.
         15    1    1    2    0    0 -0.47278660851E+01 -0.31331317100E+01 -0.13722948932E+02  0.14954808204E+02  0.17770000000E+01 0.  1.
</event>
<event>
 6    1  0.1196607E-002  0.1647950E+03  0.7546771E-02  0.1083492E+00
        -11   -1    0    0    0    0  0.00000000000E+00  0.00000000000E+00  0.18250000000E+03  0.18250000000E+03  0.00000000000E+00 0. -1.
         11   -1    0    0    0    0 -0.00000000000E+00 -0.00000000000E+00 -0.18250000000E+03  0.18250000000E+03  0.00000000000E+00 0.  1.
        -11    1    1    2    0    0 -0.33398300368E+01  0.84235962994E+00  0.16107607046E+03  0.16111289368E+03  0.00000000000E+00 0. -1.
         11    1    1    2    0    0 -0.12063388630E+02 -0.13506042650E+02 -0.16818408994E+03  0.16915621964E+03  0.00000000000E+00 0.  1.
        -15    1    1    2    0    0  0.75344862832E+01  0.56724491526E+01  0.17420050440E+02  0.19888716632E+02  0.17770000000E+01 0.  1.
         15    1    1    2    0    0  0.78687323838E+01  0.69912338673E+01 -0.10312030954E+02  0.14842170048E+02  0.17770000000E+01 0. -1.
</event>
<event>
 6    1  0.1196607E-002  0.1833208E+03  0.7546771E-02  0.1067803E+00
        -11   -1    0    0    0    0  0.00000000000E+00  0.00000000000E+00  0.18250000000E+03  0.18250000000E+03  0.00000000000E+00 0.  1.
         11   -1    0    0    0    0 -0.00000000000E+00 -0.00000000000E+00 -0.18250000000E+03  0.18250000000E+03  0.00000000000E+00 0. -1.
        -11    1    1    2    0    0  0.36053493565E+01 -0.25627111025E+01  0.18162535447E+03  0.18167921020E+03  0.00000000000E+00 0.  1.
         11    1    1    2    0    0 -0.94699489496E+00 -0.14602864577E+01 -0.18663420386E+02  0.18744399067E+02  0.00000000000E+00 0. -1.
        -15    1    1    2    0    0 -0.43373696454E+01  0.12701005381E+02 -0.11293122371E+03  0.11373982298E+03  0.17770000000E+01 0. -1.
         15    1    1    2    0    0  0.16790151838E+01 -0.86780078203E+01 -0.50030710372E+02  0.50836567755E+02  0.17770000000E+01 0.  1.
</event>
